Membrane in water
40155
    1TCq1    O1    1   4.557   0.914  11.172  0.0918 -0.0055  0.0761
    1TCq1    C1    2   4.500   0.797  11.175  0.7935  0.0536  0.4964
    1TCq1    O2    3   4.383   0.768  11.144  0.2107 -0.5988 -0.5480
    1TCq1    C2    4   4.575   0.716  11.271 -0.6928  0.2161 -0.0154
    1TCq1    C3    5   4.708   0.742  11.285  0.3746 -0.9264 -0.1685
    1TCq1    C4    6   0.049   0.698  11.397 -0.6244  0.1612 -0.0599
    1TCq1    C5    7   4.704   0.617  11.489  0.3665  1.0117  0.0599
    1TCq1    C6    8   4.577   0.598  11.479  0.2457 -0.4883 -0.4832
    1TCq1    C7    9   4.504   0.661  11.380  0.2317 -0.0091  0.1522
    1TCq1    C8   10   4.501   0.538  11.590  0.3786 -0.2978 -0.2274
    1TCq1    O4   11   4.383   0.563  11.602  0.2880  0.4284  0.1609
    1TCq1    C9   12   0.182   0.754  11.422 -0.1357  0.4253 -0.2182
    1TCq1    O5   13   0.263   0.704  11.339  0.7511  0.6395 -0.3628
    1TCq1    O6   14   0.201   0.763  11.545 -0.1632 -0.0488  0.1487
    1TCq1    H1   15   4.653   0.916  11.193 -0.0401  1.9519  0.4488
    1TCq1    H2   16   0.052   0.792  11.213  1.7098 -2.5752 -0.1198
    1TCq1    H3   17   0.037   0.587  11.579  0.2384  0.4556 -0.0527
    1TCq1    H4   18   4.397   0.653  11.368  0.4207 -2.5520  0.1123
    2MPD2     C   19   4.462   0.290  12.032 -0.3325 -0.1546 -0.0453
    2MPD2    C1   20   4.394   0.402  11.981  0.1617  0.2511 -0.8696
    2MPD2    C2   21   4.443   0.462  11.873  0.1151 -0.5221  0.2557
    2MPD2    C3   22   4.548   0.407  11.800  0.0846 -0.1663 -0.0670
    2MPD2    C4   23   4.617   0.302  11.848 -0.2605 -0.0948 -0.2031
    2MPD2    C5   24   4.579   0.252  11.974  0.0423  0.6380 -0.2311
    2MPD2     H   25   4.379   0.537  11.828 -0.5109 -1.2026  0.0088
    2MPD2    H1   26   4.710   0.268  11.802  0.6599  0.6867  1.0564
    2MPD2    H2   27   4.423   0.234  12.117  0.3513 -0.9504 -0.2500
    2MPD2    H3   28   4.643   0.173  12.014 -0.5829  0.6735  0.8491
    2MPD2     N   29   4.582   0.460  11.672 -0.1621  0.2828 -0.6941
    2MPD2    H5   30   4.667   0.426  11.627  1.8097  0.8448  2.6654
    2MPD2    N1   31   4.270   0.439  12.034  0.1701 -0.7694 -0.1176
    2MPD2    H7   32   4.240   0.527  11.992 -3.6131 -1.6013  0.8449
    3TCq1    O1   33   3.658   0.943  11.179 -0.0412 -0.2367 -0.0770
    3TCq1    C1   34   3.752   1.033  11.142  0.1707 -0.5228  0.4742
    3TCq1    O2   35   3.873   1.007  11.144  0.6829  0.2900 -0.1900
    3TCq1    C2   36   3.696   1.169  11.122 -0.1905 -0.0874 -0.4273
    3TCq1    C3   37   3.765   1.245  11.028 -0.0154  0.0473 -0.0252
    3TCq1    C4   38   3.709   1.368  11.007  0.1267  0.1633 -0.3115
    3TCq1    C5   39   3.596   1.411  11.076  0.2735  0.2892 -0.4462
    3TCq1    C6   40   3.540   1.330  11.174  0.1933  0.6539 -0.0735
    3TCq1    C7   41   3.585   1.202  11.196  1.0101  0.3566 -0.0335
    3TCq1    C8   42   3.420   1.376  11.242 -0.5916  0.1024 -0.6142
    3TCq1    O4   43   3.353   1.287  11.295 -0.4050 -0.3659 -0.4368
    3TCq1    C9   44   3.754   1.453  10.899  0.6117  0.1797 -0.2872
    3TCq1    O5   45   3.684   1.554  10.866 -0.2979  0.0555  0.3764
    3TCq1    O6   46   3.830   1.402  10.811  0.0507 -0.0422  0.1470
    3TCq1    H1   47   3.570   0.976  11.151  0.8523  2.6363  0.4919
    3TCq1    H2   48   3.854   1.204  10.983 -1.0697 -2.6159  0.2698
    3TCq1    H3   49   3.563   1.512  11.056  1.5872  0.8092  0.0733
    3TCq1    H4   50   3.553   1.144  11.281  0.6162  0.0935 -0.3578
    4MPD2     C   51   3.072   1.694  11.413  0.8041 -0.5468  0.5020
    4MPD2    C1   52   3.173   1.775  11.363 -0.0027 -0.2860  0.4791
    4MPD2    C2   53   3.287   1.711  11.316 -0.0042 -0.2547 -0.0630
    4MPD2    C3   54   3.304   1.577  11.326  0.0386  0.0417 -0.0693
    4MPD2    C4   55   3.212   1.501  11.402 -0.1967 -0.3805  0.4559
    4MPD2    C5   56   3.102   1.562  11.441 -0.7680  0.6738  0.2069
    4MPD2     H   57   3.363   1.768  11.262  0.7433  0.7808  2.0751
    4MPD2    H1   58   3.211   1.398  11.437  1.5428 -1.1331 -1.6605
    4MPD2    H2   59   2.973   1.734  11.434  1.3089  0.5722  0.7360
    4MPD2    H3   60   3.035   1.504  11.503  0.9943  0.3938  1.8341
    4MPD2     N   61   3.415   1.514  11.267  0.0421  0.0063 -0.2142
    4MPD2    H5   62   3.482   1.576  11.223 -0.2080  1.2304  1.1271
    4MPD2    N1   63   3.165   1.911  11.334 -0.5691  0.3317 -0.0499
    4MPD2    H7   64   3.242   1.953  11.283  1.0145  1.4250  3.1935
    5TCq1    O1   65   3.028   3.731  10.901  0.1908 -0.2842 -0.5582
    5TCq1    C1   66   3.127   3.644  10.878  0.4215  0.5348 -0.2149
    5TCq1    O2   67   3.118   3.524  10.850  0.3686 -0.2196  0.4649
    5TCq1    C2   68   3.232   3.718  10.815  0.3470  0.1992  0.1767
    5TCq1    C3   69   3.261   3.846  10.856  0.8699  0.3265  0.5581
    5TCq1    C4   70   3.375   3.903  10.805  0.4685  0.3696  0.1778
    5TCq1    C5   71   3.463   3.840  10.719 -0.1988  0.0040  0.4445
    5TCq1    C6   72   3.425   3.714  10.676  0.3441 -0.2862  0.4228
    5TCq1    C7   73   3.305   3.656  10.720  0.2907  0.3322 -1.0156
    5TCq1    C8   74   3.522   3.633  10.609  0.5311  0.0292  0.1789
    5TCq1    O4   75   3.510   3.513  10.632  0.0658  0.1371 -0.2058
    5TCq1    C9   76   3.408   4.043  10.837 -0.0200  0.2633  0.1051
    5TCq1    O5   77   3.324   4.101  10.905  0.1862  0.1061 -0.6267
    5TCq1    O6   78   3.515   4.095  10.791  0.2852  0.1496  0.9924
    5TCq1    H1   79   3.039   3.813  10.848  1.3704 -0.4229 -0.5298
    5TCq1    H2   80   3.199   3.901  10.926 -0.4614 -0.8430  0.3030
    5TCq1    H3   81   3.555   3.888  10.685 -0.1722 -0.2287  0.1930
    5TCq1    H4   82   3.273   3.557  10.687  0.3240 -0.0896  0.2025
    6MPD2     C   83   3.816   3.758  10.424 -0.1191  0.1910  0.1959
    6MPD2    C1   84   3.743   3.664  10.491  0.0877 -0.3804 -0.2699
    6MPD2    C2   85   3.796   3.541  10.533  0.5808  0.2312  0.4861
    6MPD2    C3   86   3.923   3.506  10.488  0.0493  0.0499 -0.2644
    6MPD2    C4   87   3.989   3.597  10.409  0.5204  0.1756 -0.7836
    6MPD2    C5   88   3.938   3.720  10.383 -0.6326 -0.4599  0.4651
    6MPD2     H   89   3.744   3.467  10.592  1.3667 -1.0895 -0.4900
    6MPD2    H1   90   4.082   3.565  10.365  1.9808 -0.8405  3.0355
    6MPD2    H2   91   3.784   3.861  10.412  3.1786  1.2298  0.3100
    6MPD2    H3   92   3.998   3.791  10.327  2.0556 -0.8545  2.8326
    6MPD2     N   93   3.967   3.378  10.530  0.0256 -0.3634  0.0675
    6MPD2    H5   94   3.906   3.336  10.599  0.7759 -3.5839 -1.2400
    6MPD2    N1   95   3.613   3.701  10.534 -0.1652 -0.2141  0.0533
    6MPD2    H7   96   3.585   3.792  10.497  1.9338  1.0193  1.4705
    7TCq1    O1   97   1.057   3.173  13.301 -0.5006 -0.7545  0.2467
    7TCq1    C1   98   1.063   3.299  13.343  0.4008 -0.4325  0.3179
    7TCq1    O2   99   1.080   3.399  13.265 -0.3710  0.0467  0.0548
    7TCq1    C2  100   1.057   3.307  13.487 -0.3832  0.4709 -0.1951
    7TCq1    C3  101   1.117   3.419  13.543  0.4984 -0.1043  0.5670
    7TCq1    C4  102   1.154   3.414  13.676 -0.4652 -0.1597 -0.2354
    7TCq1    C5  103   1.156   3.293  13.742  0.5511 -0.0942 -0.3039
    7TCq1    C6  104   1.100   3.183  13.680 -0.4234  0.0002 -0.4796
    7TCq1    C7  105   1.053   3.183  13.555 -0.5753  0.4463  0.3576
    7TCq1    C8  106   1.128   3.052  13.739  0.1728 -0.5801 -0.0403
    7TCq1    O4  107   1.074   2.954  13.694 -0.3951  0.1006 -0.0997
    7TCq1    C9  108   1.205   3.529  13.742 -0.0835  0.4596  0.0025
    7TCq1    O5  109   1.236   3.627  13.672  0.5761  0.5156 -0.2145
    7TCq1    O6  110   1.251   3.511  13.859  0.5640 -0.0782  0.0613
    7TCq1    H1  111   1.073   3.104  13.369  0.9851  1.4642  2.1402
    7TCq1    H2  112   1.133   3.511  13.489 -0.4286  0.1935  0.8108
    7TCq1    H3  113   1.170   3.279  13.849  1.5181  1.5963 -0.2173
    7TCq1    H4  114   1.012   3.097  13.503  2.0560 -0.4388 -0.2548
    8MPD2     C  115   1.428   2.752  14.039  0.1095  0.2199  0.4857
    8MPD2    C1  116   1.329   2.725  13.945  0.5787 -0.4122 -0.2686
    8MPD2    C2  117   1.261   2.824  13.876 -0.1870  0.5446  0.4989
    8MPD2    C3  118   1.284   2.957  13.914  0.0552  0.6003 -0.0517
    8MPD2    C4  119   1.372   2.979  14.015  1.1916  0.1517 -0.5639
    8MPD2    C5  120   1.447   2.881  14.074  0.5789 -0.1081 -0.2529
    8MPD2     H  121   1.187   2.802  13.800  1.2005 -1.4330 -0.2847
    8MPD2    H1  122   1.415   3.076  14.037  1.0030 -0.1909  1.3742
    8MPD2    H2  123   1.489   2.681  14.094  0.5451  0.3384  0.1567
    8MPD2    H3  124   1.520   2.899  14.153  1.1653  1.5643 -1.1849
    8MPD2     N  125   1.229   3.065  13.841 -0.1877  0.9481  0.0064
    8MPD2    H5  126   1.284   3.150  13.851 -2.4835  2.3041  1.1008
    8MPD2    N1  127   1.305   2.590  13.922  0.3827  0.6502 -0.0923
    8MPD2    H7  128   1.349   2.526  13.988  1.8678  2.3637  0.5684
    9TCq1    O1  129   3.460   2.008  11.113  0.0565 -0.0043  0.3625
    9TCq1    C1  130   3.548   1.971  11.011  0.1671  0.0122 -1.2923
    9TCq1    O2  131   3.587   1.855  10.991  0.0244 -0.2022  0.1462
    9TCq1    C2  132   3.651   2.067  11.024  0.3052 -0.1048 -0.4969
    9TCq1    C3  133   3.652   2.176  10.941 -0.7046  0.1943 -0.8642
    9TCq1    C4  134   3.771   2.241  10.919  0.1425 -0.2830 -0.1084
    9TCq1    C5  135   3.888   2.178  10.957 -0.3125  0.3348  0.0429
    9TCq1    C6  136   3.887   2.066  11.037 -0.0010  0.5594  0.4565
    9TCq1    C7  137   3.767   2.011  11.073 -1.1050  0.1135  1.0188
    9TCq1    C8  138   4.011   1.997  11.055  0.2625 -0.4330 -0.0506
    9TCq1    O4  139   4.112   2.036  10.994 -0.6275  0.2095  0.6285
    9TCq1    C9  140   3.786   2.359  10.831 -0.0083  0.0222  0.2358
    9TCq1    O5  141   3.904   2.382  10.800 -0.0571  0.3173 -0.1087
    9TCq1    O6  142   3.684   2.411  10.777  0.0817  0.8624 -0.1011
    9TCq1    H1  143   3.449   2.105  11.107 -1.7888 -0.2461 -0.2163
    9TCq1    H2  144   3.569   2.233  10.901  0.1983  1.8903 -0.3308
    9TCq1    H3  145   3.981   2.231  10.944  0.2900 -0.9862 -1.0432
    9TCq1    H4  146   3.758   1.931  11.145  0.5717  0.3819  1.5141
   10MPD2     C  147   4.244   1.863  11.199  0.3989  0.1366  0.7284
   10MPD2    C1  148   4.107   1.852  11.228  0.2153 -0.3641 -0.6860
   10MPD2    C2  149   4.073   1.766  11.331  0.1443 -0.4046 -0.1040
   10MPD2    C3  150   4.163   1.695  11.394 -0.6572  0.2391 -0.4008
   10MPD2    C4  151   4.301   1.705  11.355 -0.4602  0.1743 -0.0018
   10MPD2    C5  152   4.342   1.810  11.281  0.8673 -0.1921  0.5412
   10MPD2     H  153   3.966   1.747  11.335  0.0271  0.2298 -0.2406
   10MPD2    H1  154   4.377   1.650  11.410 -0.4175 -1.2424 -1.4797
   10MPD2    H2  155   4.273   1.940  11.129  0.5482 -2.3983 -2.0231
   10MPD2    H3  156   4.447   1.838  11.280  0.8513 -0.1473  0.1693
   10MPD2     N  157   4.136   1.601  11.502  0.4343  0.4241 -0.3677
   10MPD2    H5  158   4.219   1.558  11.542 -0.1529 -2.2904 -2.1286
   10MPD2    N1  159   3.998   1.920  11.166  0.0136 -0.6808 -0.4293
   10MPD2    H7  160   3.909   1.908  11.215  0.6104 -1.0437  0.5744
   11TCq1    O1  161   0.372   1.632  14.289 -0.6480  0.0280 -0.1047
   11TCq1    C1  162   0.241   1.644  14.285 -0.3383 -0.0818 -0.0804
   11TCq1    O2  163   0.174   1.601  14.195  0.0974 -0.1532  0.2018
   11TCq1    C2  164   0.205   1.605  14.423  0.8125 -0.1707  0.8009
   11TCq1    C3  165   0.289   1.625  14.528  0.1400 -0.1818 -0.5494
   11TCq1    C4  166   0.233   1.592  14.649 -0.4397 -0.0679  0.2170
   11TCq1    C5  167   0.110   1.531  14.666 -0.2322  0.2095  0.7178
   11TCq1    C6  168   0.035   1.519  14.549 -0.6503 -0.1696  0.2502
   11TCq1    C7  169   0.084   1.553  14.428  0.0012 -0.1090  0.9614
   11TCq1    C8  170   4.624   1.457  14.570 -0.1907 -0.0360  0.0977
   11TCq1    O4  171   4.572   1.448  14.683  0.0121  0.0795  0.0750
   11TCq1    C9  172   0.317   1.611  14.761  0.3061  0.0318  0.4880
   11TCq1    O5  173   0.423   1.677  14.751 -0.2188  0.6939  0.5229
   11TCq1    O6  174   0.271   1.560  14.868  0.1745 -0.0123 -0.6752
   11TCq1    H1  175   0.426   1.678  14.357  0.4748  2.6341 -2.7717
   11TCq1    H2  176   0.395   1.649  14.530  0.2119 -0.6389  0.8422
   11TCq1    H3  177   0.064   1.515  14.763 -0.4137  0.9711  0.7523
   11TCq1    H4  178   0.024   1.540  14.339  0.1855  1.0797  0.6663
   12MPD2     C  179   4.335   1.387  14.523  0.2751  0.0444 -0.5822
   12MPD2    C1  180   4.443   1.349  14.438  0.0653 -0.3166  0.3864
   12MPD2    C2  181   4.425   1.263  14.332 -0.5663  0.3731  0.1365
   12MPD2    C3  182   4.308   1.194  14.322  0.5228 -0.2672 -0.3888
   12MPD2    C4  183   4.198   1.240  14.397  0.4876  0.6932  0.7470
   12MPD2    C5  184   4.212   1.330  14.492 -0.1762 -0.0565 -0.1143
   12MPD2     H  185   4.508   1.241  14.265 -0.5171  1.8514 -0.2899
   12MPD2    H1  186   4.103   1.189  14.388 -0.0496  1.9371 -0.6006
   12MPD2    H2  187   4.345   1.467  14.595  4.0052 -0.1757 -0.8850
   12MPD2    H3  188   4.131   1.373  14.550 -1.5128 -1.2523 -1.0953
   12MPD2     N  189   4.288   1.079  14.237 -0.6395 -0.4679 -0.5184
   12MPD2    H5  190   4.195   1.042  14.221 -0.9007 -0.0577  0.0582
   12MPD2    N1  191   4.573   1.405  14.455 -0.1437 -0.3549 -0.8383
   12MPD2    H7  192   4.629   1.397  14.370 -2.4780 -2.0266 -2.2183
   13TCq1    O1  193   4.441   1.507  10.928  0.1837  0.1962 -0.3432
   13TCq1    C1  194   4.404   1.637  10.913  0.4045  0.0621  0.9176
   13TCq1    O2  195   4.466   1.710  10.835  0.7702 -0.4690  0.5679
   13TCq1    C2  196   4.261   1.629  10.928  0.2063  0.0363  0.1095
   13TCq1    C3  197   4.187   1.710  10.842  0.3913  0.5732  0.1996
   13TCq1    C4  198   4.057   1.719  10.849  0.1500  0.1032 -0.4751
   13TCq1    C5  199   3.996   1.657  10.949 -0.3210  0.1930  0.0990
   13TCq1    C6  200   4.064   1.582  11.040 -0.2040 -0.7049 -0.2927
   13TCq1    C7  201   4.198   1.568  11.036  0.6423 -0.3618 -0.5204
   13TCq1    C8  202   3.977   1.531  11.146  0.7822  0.6666 -0.1273
   13TCq1    O4  203   3.871   1.587  11.149  0.4397 -0.1238 -0.1935
   13TCq1    C9  204   3.985   1.790  10.749  0.3011 -0.0108  0.2429
   13TCq1    O5  205   3.862   1.763  10.737  0.3193  0.2066  0.1380
   13TCq1    O6  206   4.042   1.862  10.665 -0.1488 -0.5298  0.3752
   13TCq1    H1  207   4.375   1.447  10.968 -0.3538  0.9751 -0.0562
   13TCq1    H2  208   4.236   1.743  10.751  0.9899  1.5355  0.8662
   13TCq1    H3  209   3.890   1.677  10.955 -0.0745  1.7571 -0.8675
   13TCq1    H4  210   4.252   1.515  11.114  2.4912  1.2749 -0.6755
   14MPD2     C  211   4.005   1.226  11.347  0.4781 -0.6076 -0.3620
   14MPD2    C1  212   3.943   1.341  11.300 -0.2554  0.0449 -0.3489
   14MPD2    C2  213   3.818   1.376  11.346 -1.0091 -0.4767  0.8083
   14MPD2    C3  214   3.751   1.303  11.446 -0.7497  0.7879 -0.5084
   14MPD2    C4  215   3.814   1.184  11.487 -0.5566  0.2772  0.1403
   14MPD2    C5  216   3.938   1.145  11.433 -0.3652  0.1036 -0.1677
   14MPD2     H  217   3.763   1.463  11.314 -0.0279  0.3339  1.3317
   14MPD2    H1  218   3.772   1.121  11.564 -1.6029  0.6210 -0.1525
   14MPD2    H2  219   4.105   1.193  11.321 -0.0055 -3.0456  0.8977
   14MPD2    H3  220   3.997   1.057  11.456 -1.0616 -0.5530 -0.9112
   14MPD2     N  221   3.623   1.348  11.499 -0.0348 -0.2289 -0.0308
   14MPD2    H5  222   3.600   1.445  11.486  2.0658 -0.0688 -2.6149
   14MPD2    N1  223   4.020   1.421  11.210 -0.3744  0.1041  0.1921
   14MPD2    H7  224   4.115   1.389  11.191  0.1091  2.4593 -1.2651
   15TCq1    O1  225   0.416   0.282   1.957 -0.4663 -0.1976 -0.4686
   15TCq1    C1  226   0.503   0.305   1.855 -0.7443  0.0117  0.2113
   15TCq1    O2  227   0.476   0.262   1.744 -0.0284  0.0587  0.7431
   15TCq1    C2  228   0.646   0.311   1.903 -0.3962  0.8543 -0.0282
   15TCq1    C3  229   0.678   0.373   2.014  0.0882 -0.2147 -0.1505
   15TCq1    C4  230   0.801   0.379   2.067  0.4793  0.5727  0.4183
   15TCq1    C5  231   0.899   0.330   1.989  0.0435  0.4923  0.3518
   15TCq1    C6  232   0.870   0.271   1.870 -0.5826 -0.3860 -0.0537
   15TCq1    C7  233   0.736   0.241   1.831  0.1640  0.4558 -0.4434
   15TCq1    C8  234   0.987   0.236   1.792  0.4497 -0.0495  0.1781
   15TCq1    O4  235   1.100   0.258   1.844 -0.0204  0.0016  0.3729
   15TCq1    C9  236   0.838   0.454   2.181  0.2117  0.3984  0.6498
   15TCq1    O5  237   0.961   0.453   2.219  1.0243  0.4911 -0.3137
   15TCq1    O6  238   0.748   0.487   2.259  0.7130  0.1010 -0.0437
   15TCq1    H1  239   0.441   0.305   2.049  1.2972  0.5135 -1.1225
   15TCq1    H2  240   0.602   0.434   2.060  0.0226 -0.3678 -0.0566
   15TCq1    H3  241   1.001   0.346   2.022  1.1132 -0.1958 -2.6438
   15TCq1    H4  242   0.710   0.186   1.742  0.8985  1.9050 -1.5383
   16MPD2     C  243   1.014   0.081   1.458 -0.4427  0.0794 -0.5781
   16MPD2    C1  244   1.064   0.125   1.580 -0.5748  0.9252  0.1852
   16MPD2    C2  245   1.197   0.109   1.607 -0.1934  0.4877 -0.2156
   16MPD2    C3  246   1.279   0.048   1.519  0.2412  0.1894  0.5219
   16MPD2    C4  247   1.233   0.016   1.392  0.3152 -0.3331  0.0000
   16MPD2    C5  248   1.099   0.025   1.370  0.0911  0.6854 -0.0363
   16MPD2     H  249   1.227   0.134   1.708  0.3053 -0.4005 -0.1410
   16MPD2    H1  250   1.282   4.677   1.316 -2.4833 -1.5958 -0.8402
   16MPD2    H2  251   0.911   0.076   1.426 -0.5129  1.1723 -0.4975
   16MPD2    H3  252   1.056   0.001   1.273  0.0525 -0.3388  0.2379
   16MPD2     N  253   1.411   0.020   1.561 -0.0183 -0.4520 -0.0213
   16MPD2    H5  254   1.439   0.050   1.654 -0.0928  1.4326 -0.6197
   16MPD2    N1  255   0.962   0.187   1.666 -0.3762 -0.0490  0.0045
   16MPD2    H7  256   0.878   0.213   1.616  0.3164 -0.5822 -1.4271
   17TCq1    O1  257   3.825   0.546  11.787 -0.2255 -0.2043  0.4070
   17TCq1    C1  258   3.946   0.495  11.759  0.6682  0.1263  0.1673
   17TCq1    O2  259   3.991   0.410  11.833  0.0702  0.0055 -0.3230
   17TCq1    C2  260   3.971   0.501  11.613 -0.3561  0.8342  0.1494
   17TCq1    C3  261   3.876   0.545  11.515 -0.0246 -0.1067  0.3740
   17TCq1    C4  262   3.899   0.519  11.383 -0.2244 -0.5057  0.6938
   17TCq1    C5  263   4.020   0.465  11.345 -0.2933 -0.2344 -0.8053
   17TCq1    C6  264   4.115   0.427  11.441  0.2411  0.7839 -0.4623
   17TCq1    C7  265   4.081   0.440  11.573 -0.3851  0.4638  0.6486
   17TCq1    C8  266   4.226   0.339  11.407  0.2020 -0.5688 -0.7681
   17TCq1    O4  267   4.270   0.267  11.496  0.2528  0.0357 -0.1018
   17TCq1    C9  268   3.804   0.563  11.284 -0.3602  0.1993  0.2421
   17TCq1    O5  269   3.836   0.567  11.159 -0.2897  0.0293 -0.3428
   17TCq1    O6  270   3.699   0.604  11.335  0.0266 -0.6843 -0.2295
   17TCq1    H1  271   3.799   0.628  11.741  0.3591  0.2401  0.8811
   17TCq1    H2  272   3.785   0.597  11.542 -0.5732 -0.1903 -1.3458
   17TCq1    H3  273   4.036   0.456  11.238  1.2705  0.5126 -0.6407
   17TCq1    H4  274   4.151   0.394  11.642  1.6673 -0.3147 -1.9549
   18MPD2     C  275   4.450   0.186  11.302 -0.7245 -1.1559 -0.1352
   18MPD2    C1  276   4.404   0.293  11.243  0.7186 -0.7502  0.1649
   18MPD2    C2  277   4.472   0.348  11.135 -0.2817  0.0141  0.1514
   18MPD2    C3  278   4.594   0.303  11.091 -0.4552  0.5269 -0.5281
   18MPD2    C4  279   4.636   0.187  11.142 -0.0264  0.1971  0.1280
   18MPD2    C5  280   4.565   0.128  11.244  0.5265 -0.2499 -0.1939
   18MPD2     H  281   4.417   0.434  11.099 -0.3273  0.0036  0.1967
   18MPD2    H1  282   0.005   0.136  11.105 -0.1508  0.7580 -0.9389
   18MPD2    H2  283   4.400   0.141  11.387 -0.4469  0.5533  0.9354
   18MPD2    H3  284   4.590   0.029  11.281 -2.1246 -1.8105 -2.5951
   18MPD2     N  285   4.674   0.362  10.991  0.1058  0.3031 -0.5837
   18MPD2    H5  286   0.050   0.329  10.978  0.7500  0.8060  2.9139
   18MPD2    N1  287   4.282   0.356  11.281  0.1465 -0.6001  0.9322
   18MPD2    H7  288   4.239   0.427  11.223  0.1601 -2.7947 -1.7937
   19TMC2    C1  289   1.235   1.048  13.974  0.8327  0.1762  0.5454
   19TMC2    C2  290   1.250   1.077  13.840  0.7175 -0.6478 -0.0812
   19TMC2    C3  291   1.225   0.982  13.748  0.2492  0.0155 -0.6891
   19TMC2    C4  292   1.180   0.930  14.020 -0.0025  0.4991 -0.5587
   19TMC2    C5  293   1.143   0.843  13.918 -0.0316  0.6275  0.0810
   19TMC2    C6  294   1.160   0.870  13.785  0.2728 -0.2459  0.0425
   19TMC2     C  295   1.309   1.130  14.076  0.3586 -0.0678  0.4549
   19TMC2     O  296   1.392   1.208  14.028  0.0024 -0.6600  0.2463
   19TMC2     H  297   1.304   1.162  13.799 -1.0222  0.3431 -0.3006
   19TMC2    H1  298   1.180   0.894  14.122 -1.5275 -0.5638 -0.9297
   19TMC2    H2  299   1.133   0.794  13.713  0.1598  0.3780 -0.5701
   19TMC2    C7  300   1.028   0.757  13.943 -0.4867  0.4356 -0.0578
   19TMC2    C8  301   1.193   1.025  13.611  0.4793 -0.4556  0.4975
   19TMC2    O1  302   1.033   0.636  13.917  0.0537  0.2991 -0.5719
   19TMC2    O2  303   1.199   0.955  13.508  0.1227 -0.1348  0.9179
   19TMC2    O5  304   1.139   1.149  13.631 -0.0421  0.3326  0.5112
   19TMC2    H5  305   1.133   1.167  13.727  0.0651 -1.9498  0.9334
   20MPD2     C  306   1.427   1.241  14.330  0.1170 -0.2158 -0.2013
   20MPD2    C1  307   1.315   1.159  14.323 -0.2525 -0.1052 -0.2510
   20MPD2    C2  308   1.252   1.115  14.433  0.0684  0.2219 -0.4527
   20MPD2    C3  309   1.309   1.137  14.562  0.1619 -0.5972  0.5218
   20MPD2    C4  310   1.421   1.216  14.568  0.0158  0.4700  0.4173
   20MPD2    C5  311   1.477   1.268  14.453  0.0804 -0.0465 -0.0252
   20MPD2     H  312   1.167   1.048  14.423  0.5239 -0.4677  0.2454
   20MPD2    H1  313   1.461   1.235  14.666  3.6231 -0.5521 -0.8688
   20MPD2    H2  314   1.485   1.271  14.243 -1.8773  1.0675 -1.1024
   20MPD2    H3  315   1.564   1.332  14.458  0.2399  0.1099 -4.3819
   20MPD2     N  316   1.264   1.076  14.681 -0.2231  0.1378  0.3939
   20MPD2    H5  317   1.319   1.101  14.763 -0.5006  0.6996  0.4093
   20MPD2    N1  318   1.267   1.108  14.200  0.2341 -0.1729 -0.2544
   20MPD2    H7  319   1.174   1.067  14.195 -0.3205  1.2056 -1.1266
   21MPD2     C  320   2.676   0.651  13.883 -0.7722 -0.5001  0.1618
   21MPD2    C1  321   2.711   0.785  13.887  0.3725  0.9047 -0.0883
   21MPD2    C2  322   2.747   0.843  14.008  0.0266  0.4208 -0.4669
   21MPD2    C3  323   2.751   0.773  14.127  0.1026  0.2237  0.2151
   21MPD2    C4  324   2.708   0.642  14.121  0.6094  0.2389 -0.2286
   21MPD2    C5  325   2.667   0.583  14.003 -0.4504 -0.3467  0.1799
   21MPD2     H  326   2.785   0.945  14.003  1.3790 -0.0234  0.8154
   21MPD2    H1  327   2.723   0.582  14.210  1.7577 -2.1212 -2.0111
   21MPD2    H2  328   2.640   0.602  13.793  1.2319 -2.1767  0.2918
   21MPD2    H3  329   2.630   0.482  14.011 -0.5457 -0.2415  1.1009
   21MPD2     N  330   2.801   0.825  14.251 -0.7634 -0.1562 -0.7200
   21MPD2    H5  331   2.816   0.760  14.327 -0.2182  1.5150  0.5919
   21MPD2    N1  332   2.736   0.859  13.779 -0.2193  0.0192 -0.1889
   21MPD2    H7  333   2.786   0.946  13.796 -0.1748  0.0731 -0.5940
   22TCq2    C1  334   2.831   0.954  14.280  0.3060  0.3847 -0.2289
   22TCq2    O2  335   2.794   1.056  14.226 -0.1210  0.0030  0.6043
   22TCq2    C2  336   2.892   0.961  14.416  0.2097 -0.5303 -0.0654
   22TCq2    C3  337   2.984   0.871  14.460 -0.6349  0.0355 -0.5760
   22TCq2    C4  338   3.051   0.905  14.575 -0.6279  0.2041  0.2255
   22TCq2    C5  339   3.034   1.027  14.642 -0.0423  0.5015  0.6630
   22TCq2    C6  340   2.947   1.115  14.584  0.5402 -1.0396 -0.6524
   22TCq2    C7  341   2.875   1.082  14.474 -0.2046  0.5204  0.5252
   22TCq2    C8  342   2.941   1.244  14.644 -0.1132  0.2249 -0.3152
   22TCq2    O4  343   3.054   1.284  14.679  0.4228  0.2329  0.2571
   22TCq2    C9  344   3.155   0.820  14.625  0.1631 -0.0235 -0.9369
   22TCq2    O5  345   3.165   0.710  14.564 -0.0794 -0.2847  0.3393
   22TCq2    O6  346   3.236   0.860  14.713  0.2959  0.5097  0.0940
   22TCq2    H2  347   3.009   0.787  14.396 -1.9830 -2.8323  2.6197
   22TCq2    H3  348   3.087   1.049  14.733  0.5123  0.4771  0.3496
   22TCq2    H4  349   2.820   1.164  14.427  1.0879  0.4811 -1.0249
   23MPD2     C  350   4.537   2.056  14.988 -0.8302  0.2784 -0.4059
   23MPD2    C1  351   4.451   1.998  15.083 -0.4893  0.0012 -0.1719
   23MPD2    C2  352   4.320   1.972  15.041  0.4848 -0.3310 -0.5171
   23MPD2    C3  353   4.285   2.024  14.913 -0.9626 -0.1003 -0.5491
   23MPD2    C4  354   4.373   2.092  14.834  0.1291  0.6262 -0.1558
   23MPD2    C5  355   4.499   2.114  14.870 -0.6836 -0.2449 -1.4622
   23MPD2     H  356   4.252   1.920  15.108  0.1971  1.1998  0.3950
   23MPD2    H1  357   4.343   2.142  14.742 -0.0538  0.6775 -0.0672
   23MPD2    H2  358   4.645   2.049  14.995 -0.7823  0.6923 -0.7571
   23MPD2    H3  359   4.568   2.168  14.805 -1.1483 -0.1482 -1.8727
   23MPD2     N  360   4.150   2.017  14.869 -0.0871  0.0681  0.5097
   23MPD2    H5  361   4.140   2.067  14.781  0.6779 -0.8456 -0.0932
   23MPD2    N1  362   4.500   1.959  15.213 -0.3601 -0.0476  0.1282
   23MPD2    H7  363   4.437   1.903  15.270 -2.5601 -0.0023 -2.2390
   24TCq2    C1  364   4.047   1.951  14.927 -0.3086  0.2687  0.0326
   24TCq2    O2  365   4.052   1.852  15.001 -0.5933 -0.5298  0.4568
   24TCq2    C2  366   3.917   2.001  14.879  0.8107 -0.3192  0.8123
   24TCq2    C3  367   3.915   2.132  14.834  0.5503 -1.2903 -0.0998
   24TCq2    C4  368   3.808   2.181  14.769  0.2651  0.4894  0.0729
   24TCq2    C5  369   3.696   2.111  14.755 -0.3592 -0.3372 -0.8523
   24TCq2    C6  370   3.693   1.982  14.805  0.0400  0.4632  0.2124
   24TCq2    C7  371   3.800   1.926  14.872  0.2405  0.4578  0.1109
   24TCq2    C8  372   3.576   1.902  14.788  0.2350 -0.7923 -0.0953
   24TCq2    O4  373   3.544   1.812  14.865  0.5638  0.1823  0.6491
   24TCq2    C9  374   3.799   2.323  14.754 -0.6484 -0.7409 -0.0203
   24TCq2    O5  375   3.908   2.383  14.747 -0.0571  0.3604 -0.0938
   24TCq2    O6  376   3.694   2.374  14.706  0.1342 -0.0760  0.1022
   24TCq2    H2  377   3.993   2.199  14.867 -1.7361  1.7079 -0.7243
   24TCq2    H3  378   3.606   2.150  14.710 -0.0724 -1.2216 -2.2302
   24TCq2    H4  379   3.791   1.837  14.934 -0.0615  0.2184 -0.2727
   25TMC2    C1  380   4.337   4.590  11.899 -0.0460 -0.3967  0.6297
   25TMC2    C2  381   4.473   4.596  11.936 -0.1886 -0.6043 -0.0378
   25TMC2    C3  382   4.493   4.584  12.072 -0.4400 -0.2008  0.6151
   25TMC2    C4  383   4.231   4.586  11.989 -0.3462  0.3704 -0.2172
   25TMC2    C5  384   4.264   4.598  12.119  0.5706  0.3483 -0.3478
   25TMC2    C6  385   4.391   4.590  12.167  0.7490 -0.6539 -0.0367
   25TMC2     C  386   4.312   4.543  11.765 -0.3979  0.6197  0.4715
   25TMC2     O  387   4.412   4.497  11.708  0.6973  0.1018  0.6341
   25TMC2     H  388   4.555   4.593  11.866  0.9766  0.7996  1.2749
   25TMC2    H1  389   4.129   4.572  11.954 -0.3873 -1.8764  0.8111
   25TMC2    H2  390   4.418   4.591  12.273 -1.6665 -2.5117  0.5955
   25TMC2    C7  391   4.162   4.605  12.218 -0.8173 -0.0969  0.0783
   25TMC2    C8  392   4.622   4.598  12.114  0.8155  0.7434  1.0114
   25TMC2    O1  393   4.195   4.562  12.327 -0.0454 -0.5076  0.1902
   25TMC2    O2  394   4.709   4.631  12.036 -0.4858  0.0265 -0.6163
   25TMC2    O5  395   4.633   4.504  12.211  0.3121 -0.1251  0.5233
   25TMC2    H5  396   4.546   4.466  12.235  0.2728 -0.3256  0.0645
   26MPD2     C  397   4.016   4.405  11.381  0.1157  1.0414 -0.3527
   26MPD2    C1  398   3.934   4.483  11.458 -0.0227 -0.3538  0.2720
   26MPD2    C2  399   3.989   4.543  11.571 -0.2675 -0.0213  0.4158
   26MPD2    C3  400   4.121   4.519  11.606 -0.5266 -0.1625  0.2528
   26MPD2    C4  401   4.197   4.437  11.518 -0.0042  0.0201  0.3117
   26MPD2    C5  402   4.141   4.376  11.416 -0.5363 -0.5921  0.1740
   26MPD2     H  403   3.931   4.600  11.643  0.4487 -3.5243  3.7388
   26MPD2    H1  404   4.299   4.409  11.540 -0.4731 -1.7018  0.2694
   26MPD2    H2  405   3.973   4.360  11.292  2.7978 -1.1542 -0.5263
   26MPD2    H3  406   4.193   4.313  11.345  1.1169 -0.1929  1.0337
   26MPD2     N  407   4.178   4.566  11.725 -0.2628  0.3926 -0.5397
   26MPD2    H5  408   4.108   4.601  11.790  1.1295 -0.9332  1.6783
   26MPD2    N1  409   3.799   4.507  11.417 -0.0149 -1.1680 -0.1530
   26MPD2    H7  410   3.781   4.478  11.322 -2.7232  0.2420 -0.0592
   27TMC2    C1  411   2.174   1.875  11.946  0.1276  0.7042  0.6194
   27TMC2    C2  412   2.144   1.868  11.817  0.0997  0.1578  0.7177
   27TMC2    C3  413   2.103   1.984  11.768  0.0158  0.5701  0.2019
   27TMC2    C4  414   2.172   1.986  12.030  0.4375 -0.0934  0.5291
   27TMC2    C5  415   2.135   2.103  11.964  0.4559  0.4711 -0.2528
   27TMC2    C6  416   2.097   2.106  11.835  0.6593  0.7066 -0.1747
   27TMC2     C  417   2.143   1.753  12.016 -0.2539  0.6817 -0.8963
   27TMC2     O  418   2.194   1.651  11.974  0.2125  0.6504 -0.5719
   27TMC2     H  419   2.135   1.772  11.767 -0.7407  0.5550  0.1011
   27TMC2    H1  420   2.205   1.976  12.133  3.1666  1.9410 -0.1222
   27TMC2    H2  421   2.058   2.200  11.799  1.7037  1.1788 -0.0723
   27TMC2    C7  422   2.104   2.213  12.055 -0.2941  0.5693  0.5237
   27TMC2    C8  423   2.030   1.983  11.640  0.7675  0.1798  0.3427
   27TMC2    O1  424   2.127   2.185  12.172  0.4774  0.0237 -1.0533
   27TMC2    O2  425   1.950   2.073  11.614  0.0940 -0.0866 -0.3887
   27TMC2    O5  426   2.088   1.891  11.564  0.2684 -0.0650  0.6247
   27TMC2    H5  427   2.168   1.848  11.602 -0.4025 -1.6522  0.2715
   28MPD2     C  428   1.932   1.515  12.419  0.0731  0.1553 -0.7608
   28MPD2    C1  429   1.881   1.646  12.420  0.3421 -0.2850 -0.3559
   28MPD2    C2  430   1.935   1.733  12.330  0.4622 -0.1457  0.2783
   28MPD2    C3  431   2.027   1.698  12.231  0.8352 -0.3993 -0.2063
   28MPD2    C4  432   2.071   1.571  12.230  0.2521  0.5261  0.2190
   28MPD2    C5  433   2.024   1.480  12.318 -0.0995 -0.0106  0.4935
   28MPD2     H  434   1.904   1.837  12.324 -2.3287 -0.8799  2.4535
   28MPD2    H1  435   2.145   1.545  12.155  0.3256  1.0220  0.1167
   28MPD2    H2  436   1.909   1.442  12.495  2.4093 -0.3093 -0.4846
   28MPD2    H3  437   2.073   1.383  12.325 -0.4249 -0.2540 -0.6920
   28MPD2     N  438   2.070   1.785  12.129 -0.0464 -0.4524  0.0423
   28MPD2    H5  439   2.035   1.880  12.134 -1.8444 -1.0311 -1.5600
   28MPD2    N1  440   1.789   1.685  12.523  0.3645 -0.0780  0.3341
   28MPD2    H7  441   1.774   1.617  12.597 -0.8774  1.8228  1.8508
   29MPD2     C  442   1.783   3.805  13.963  0.7366  0.0608 -0.3895
   29MPD2    C1  443   1.904   3.807  14.017  0.1659  0.7225 -0.0493
   29MPD2    C2  444   1.986   3.918  14.006  0.1457  0.2886 -0.0954
   29MPD2    C3  445   1.943   4.031  13.937 -0.6050  0.4349  0.3821
   29MPD2    C4  446   1.812   4.039  13.888  0.3425 -0.2237  0.2487
   29MPD2    C5  447   1.738   3.924  13.906  0.5444  0.3122 -0.4822
   29MPD2     H  448   2.089   3.905  14.037  1.3605  1.7314 -3.5564
   29MPD2    H1  449   1.774   4.130  13.843 -2.1292 -1.3379  0.0412
   29MPD2    H2  450   1.721   3.717  13.956  2.1189 -1.0285  1.1198
   29MPD2    H3  451   1.638   3.920  13.865  1.2525  3.6334 -2.4608
   29MPD2     N  452   2.016   4.154  13.948  0.7792 -0.0504  0.2734
   29MPD2    H5  453   1.968   4.237  13.914 -0.7985 -1.4287 -0.8525
   29MPD2    N1  454   1.969   3.701  14.077 -0.1152  0.5875 -0.1159
   29MPD2    H7  455   2.060   3.718  14.120  0.2673 -1.5472 -0.1192
   30TCq2    C1  456   2.148   4.175  13.992 -0.0092 -0.3117 -0.4382
   30TCq2    O2  457   2.236   4.099  14.029  0.3603  0.0613 -0.1011
   30TCq2    C2  458   2.175   4.313  13.982  0.6019  0.0088  0.1922
   30TCq2    C3  459   2.303   4.350  13.942 -0.3733 -0.2110 -0.2407
   30TCq2    C4  460   2.335   4.487  13.933  1.1519 -0.5552 -0.2582
   30TCq2    C5  461   2.240   4.576  13.970  0.5267  0.0797  0.5472
   30TCq2    C6  462   2.117   4.534  14.013  0.0700  0.0129 -0.3390
   30TCq2    C7  463   2.076   4.405  14.008 -1.0930 -0.5247  0.5414
   30TCq2    C8  464   2.019   4.628  14.065 -0.0835 -0.0364 -0.4268
   30TCq2    O4  465   1.903   4.598  14.077  0.0329  0.3676  0.4439
   30TCq2    C9  466   2.459   4.535  13.887 -1.1124 -0.1110 -0.4642
   30TCq2    O5  467   2.549   4.454  13.851 -0.3951 -0.4720  0.2095
   30TCq2    O6  468   2.472   4.655  13.897  0.3583  0.1917 -0.1723
   30TCq2    H2  469   2.374   4.271  13.921 -1.8288 -1.3267 -0.9912
   30TCq2    H3  470   2.262   4.682  13.966  2.4518 -0.3334  0.3589
   30TCq2    H4  471   1.971   4.395  14.031 -1.5859  0.8850 -1.0988
   31MPD2     C  472   4.626   2.995  14.881 -0.1630 -0.7545  0.9749
   31MPD2    C1  473   4.505   3.037  14.834  0.2094 -0.0592 -0.3836
   31MPD2    C2  474   4.391   2.974  14.887 -0.9175  0.5410  0.3980
   31MPD2    C3  475   4.395   2.857  14.961 -0.0667  0.5899  0.4528
   31MPD2    C4  476   4.527   2.817  15.004 -0.1159 -0.1450  0.9442
   31MPD2    C5  477   4.637   2.885  14.963  0.5093  0.0997 -0.0321
   31MPD2     H  478   4.294   3.023  14.882 -1.0913  0.3026  1.4503
   31MPD2    H1  479   4.550   2.728  15.062 -1.9626 -1.5334 -0.4320
   31MPD2    H2  480   0.000   3.039  14.850  0.9165 -2.0579  2.3791
   31MPD2    H3  481   0.014   2.844  14.989  0.3048 -1.3328 -1.5120
   31MPD2     N  482   4.278   2.789  15.020 -0.0722 -0.1886  0.0592
   31MPD2    H5  483   4.293   2.709  15.080  1.2501 -0.1592 -0.2254
   31MPD2    N1  484   4.499   3.164  14.766 -0.3442  0.0518 -0.1657
   31MPD2    H7  485   4.587   3.213  14.758  0.0967 -0.5955  0.7014
   32TCq2    C1  486   4.145   2.813  14.983 -0.5915  0.4921  0.3082
   32TCq2    O2  487   4.116   2.858  14.874  0.5446  0.2688 -0.2501
   32TCq2    C2  488   4.058   2.728  15.066  0.4280 -0.1173  0.1504
   32TCq2    C3  489   3.940   2.696  14.998 -0.2897 -0.2034 -0.3722
   32TCq2    C4  490   3.857   2.616  15.063 -0.7384  0.6550  0.0983
   32TCq2    C5  491   3.885   2.549  15.175  0.1027  0.0308  0.1143
   32TCq2    C6  492   4.004   2.580  15.238  0.0014  0.3527  0.5346
   32TCq2    C7  493   4.098   2.662  15.180  0.2697 -0.2490 -0.3677
   32TCq2    C8  494   4.037   2.523  15.372 -0.0614 -0.2419 -0.3055
   32TCq2    O4  495   4.156   2.522  15.403 -0.1998  0.4159 -0.6709
   32TCq2    C9  496   3.724   2.595  15.007  0.5952  0.2770 -0.1396
   32TCq2    O5  497   3.712   2.657  14.899 -0.0041 -0.8787  0.1577
   32TCq2    O6  498   3.651   2.496  15.044 -0.5366 -0.1314 -0.5671
   32TCq2    H2  499   3.910   2.753  14.910 -1.3797  3.5399  2.3891
   32TCq2    H3  500   3.818   2.476  15.218  0.6376 -1.0564 -0.9043
   32TCq2    H4  501   4.184   2.683  15.243  0.9853 -0.2538 -1.3539
   33MPD2     C  502   0.280   1.115  10.532 -0.1431 -0.3972  0.8394
   33MPD2    C1  503   0.174   1.052  10.599  0.2122 -0.2674  0.5181
   33MPD2    C2  504   0.047   1.112  10.593 -0.2894  0.2890 -1.1028
   33MPD2    C3  505   0.036   1.242  10.537 -0.5792  0.5754 -0.1656
   33MPD2    C4  506   0.136   1.294  10.459 -0.0440  0.5799 -0.1624
   33MPD2    C5  507   0.260   1.234  10.459  1.0799  0.3150  0.0193
   33MPD2     H  508   4.680   1.068  10.642  0.7692 -0.8868 -0.2986
   33MPD2    H1  509   0.109   1.379  10.397 -0.6956  0.9859  0.6833
   33MPD2    H2  510   0.378   1.068  10.537 -0.2579 -0.9844 -2.1329
   33MPD2    H3  511   0.339   1.272  10.395  0.5471  1.5738  0.1187
   33MPD2     N  512   4.639   1.321  10.545 -0.0799 -0.0530 -0.2817
   33MPD2    H5  513   4.648   1.409  10.495 -1.0892  0.3898  0.3063
   33MPD2    N1  514   0.194   0.923  10.652 -0.3437  0.5905 -0.0079
   33MPD2    H7  515   0.288   0.887  10.640 -0.8890 -1.2278  1.1717
   34TCq2    C1  516   4.516   1.282  10.592  0.0722 -0.1979  0.1416
   34TCq2    O2  517   4.480   1.177  10.646  0.2821  0.1974 -0.2715
   34TCq2    C2  518   4.419   1.390  10.574  0.8019  1.2999  0.0021
   34TCq2    C3  519   4.289   1.356  10.567  0.3450 -0.4089  0.1723
   34TCq2    C4  520   4.194   1.454  10.542 -0.3209  0.3011  0.2389
   34TCq2    C5  521   4.232   1.582  10.525  0.0752 -0.8271  0.3052
   34TCq2    C6  522   4.366   1.607  10.528  0.3576 -0.5217 -0.5956
   34TCq2    C7  523   4.459   1.513  10.555  0.7308 -0.3170 -0.4625
   34TCq2    C8  524   4.421   1.739  10.510  0.2633  0.1728 -0.0727
   34TCq2    O4  525   4.543   1.746  10.522  0.1226  0.6019  0.1853
   34TCq2    C9  526   4.051   1.419  10.533  0.3743  0.3049  0.3284
   34TCq2    O5  527   4.033   1.298  10.563 -0.2297  0.3233 -0.3396
   34TCq2    O6  528   3.971   1.514  10.538 -0.3408  0.4035  0.1042
   34TCq2    H2  529   4.252   1.254  10.573 -1.8422  0.5120  2.5389
   34TCq2    H3  530   4.154   1.654  10.505  1.9067  0.8507 -0.6804
   34TCq2    H4  531   4.562   1.544  10.573  0.6924 -0.5479  0.1329
   35MPD2     C  532   1.646   2.345  11.663  0.2648 -0.1690  0.7701
   35MPD2    C1  533   1.533   2.269  11.699  0.0643 -0.0726  0.0715
   35MPD2    C2  534   1.415   2.276  11.627  0.0878 -0.3528  0.0710
   35MPD2    C3  535   1.392   2.374  11.537 -0.6862  0.4532  0.6065
   35MPD2    C4  536   1.495   2.456  11.502  0.0259 -0.1728  0.4983
   35MPD2    C5  537   1.624   2.418  11.548 -0.4765 -0.2999 -0.5359
   35MPD2     H  538   1.324   2.230  11.664 -0.7755  1.7389  0.5106
   35MPD2    H1  539   1.484   2.540  11.434 -0.6935 -2.8116 -2.7058
   35MPD2    H2  540   1.740   2.339  11.717  0.9236  1.5629 -0.1870
   35MPD2    H3  541   1.710   2.478  11.520  0.5229 -0.5141  2.0200
   35MPD2     N  542   1.263   2.386  11.485  0.3854 -0.0018 -0.4924
   35MPD2    H5  543   1.202   2.305  11.492 -0.6917  0.6284 -2.4146
   35MPD2    N1  544   1.550   2.190  11.819 -0.3341 -0.5407  0.4945
   35MPD2    H7  545   1.638   2.205  11.869  0.0169 -2.0546  0.3417
   36TCq2    C1  546   1.220   2.479  11.401  0.2337 -0.4836 -0.9677
   36TCq2    O2  547   1.279   2.571  11.342  0.6114 -0.0218  0.2156
   36TCq2    C2  548   1.076   2.473  11.391 -0.1277  0.1147  0.5682
   36TCq2    C3  549   1.055   2.400  11.278  0.6982 -0.0225 -0.7097
   36TCq2    C4  550   0.952   2.310  11.279 -0.4486  0.0506  0.1522
   36TCq2    C5  551   0.875   2.287  11.388  0.2206  0.0585 -0.1668
   36TCq2    C6  552   0.906   2.353  11.502  0.1506  0.1611 -0.0783
   36TCq2    C7  553   1.015   2.434  11.508  0.4201  0.5628 -0.1813
   36TCq2    C8  554   0.867   2.311  11.632  0.2001 -0.3586 -0.1360
   36TCq2    O4  555   0.897   2.377  11.729  0.1239  0.2494  0.3309
   36TCq2    C9  556   0.930   2.230  11.165  0.6766 -0.9670  1.1173
   36TCq2    O5  557   0.839   2.145  11.175  0.2792 -0.4178  0.1842
   36TCq2    O6  558   1.006   2.236  11.064  0.4420 -0.8988  0.4737
   36TCq2    H2  559   1.110   2.410  11.185  2.4925  1.2286  0.4828
   36TCq2    H3  560   0.785   2.228  11.375 -0.9249  1.3477  1.6489
   36TCq2    H4  561   1.050   2.477  11.602  1.0378 -2.6446  1.0340
   37TMC2    C1  562   3.665   2.747  11.476 -0.1674 -0.6157  0.7508
   37TMC2    C2  563   3.723   2.796  11.360  1.0364  0.6727 -0.0978
   37TMC2    C3  564   3.850   2.839  11.363 -0.6093 -0.7373  0.1389
   37TMC2    C4  565   3.734   2.751  11.594  0.3525 -0.4301 -0.1741
   37TMC2    C5  566   3.869   2.781  11.590  1.0090  0.0303  0.1457
   37TMC2    C6  567   3.926   2.829  11.477  0.6186  0.1675 -0.5440
   37TMC2     C  568   3.540   2.671  11.461 -0.3267 -0.0618 -0.0450
   37TMC2     O  569   3.482   2.674  11.352  0.3257 -0.4494  0.0370
   37TMC2     H  570   3.675   2.788  11.263  0.3973  2.5278  0.0611
   37TMC2    H1  571   3.698   2.716  11.691 -1.1002 -2.7045 -1.5376
   37TMC2    H2  572   4.025   2.872  11.472  0.8006 -0.5052 -2.4179
   37TMC2    C7  573   3.967   2.749  11.699  0.4690 -0.0752 -0.0011
   37TMC2    C8  574   3.901   2.929  11.266  0.7522  0.4890  0.7681
   37TMC2    O1  575   3.930   2.750  11.816  0.6931  0.4862  0.1638
   37TMC2    O2  576   4.022   2.928  11.238  0.7763 -0.4739 -0.6343
   37TMC2    O5  577   3.803   2.992  11.206 -0.2187  0.1327  0.2844
   37TMC2    H5  578   3.710   2.989  11.236  0.0482  0.4257  1.1483
   38MPD2     C  579   3.079   2.493  11.651 -0.0253 -0.1500  0.4438
   38MPD2    C1  580   3.175   2.487  11.752  0.6437 -0.4308  0.5264
   38MPD2    C2  581   3.311   2.530  11.735 -0.1356 -0.1385 -0.0388
   38MPD2    C3  582   3.352   2.568  11.605 -0.4106  0.6783 -0.5413
   38MPD2    C4  583   3.260   2.560  11.501 -0.0141 -0.0324  0.0555
   38MPD2    C5  584   3.128   2.527  11.527 -0.4179 -0.5333  0.2159
   38MPD2     H  585   3.373   2.545  11.822  0.8919 -2.0622 -0.4433
   38MPD2    H1  586   3.278   2.587  11.397 -2.4025  0.6606 -0.1657
   38MPD2    H2  587   2.975   2.465  11.663  0.2415 -1.6647 -0.8837
   38MPD2    H3  588   3.059   2.547  11.445 -0.9331 -0.0883  0.7592
   38MPD2     N  589   3.486   2.622  11.586 -0.1187  0.0440 -0.6538
   38MPD2    H5  590   3.545   2.624  11.668 -0.8529 -1.0171 -0.0933
   38MPD2    N1  591   3.140   2.442  11.879 -0.2462 -0.5782  0.1161
   38MPD2    H7  592   3.212   2.439  11.951 -0.1357 -3.3071 -0.0813
   39MPD2     C  593   2.000   4.291   2.036 -0.9677  0.6939  0.1692
   39MPD2    C1  594   1.948   4.423   2.044  0.4429  0.4572  0.9849
   39MPD2    C2  595   1.813   4.429   2.016  0.2963  0.5854 -0.0210
   39MPD2    C3  596   1.740   4.319   1.969 -0.1363 -0.4507  0.5822
   39MPD2    C4  597   1.796   4.186   1.977  0.1533  0.1306 -0.3021
   39MPD2    C5  598   1.930   4.184   2.001 -0.6536  0.4192  0.1812
   39MPD2     H  599   1.763   4.526   2.016  0.4927  0.6652 -2.8967
   39MPD2    H1  600   1.740   4.100   1.942  0.3969  0.5664 -1.7840
   39MPD2    H2  601   2.106   4.269   2.032 -1.0752  0.0824  0.7197
   39MPD2    H3  602   1.987   4.092   1.990  0.4913  0.6364  4.2126
   39MPD2     N  603   1.614   4.329   1.898  0.4035  0.1460  0.4475
   39MPD2    H5  604   1.591   4.242   1.850 -0.2970 -0.9730  2.8429
   39MPD2    N1  605   2.033   4.526   2.079 -0.0314 -0.0492  0.2555
   39MPD2    H7  606   2.131   4.502   2.090 -0.1768 -0.1792  1.2046
   40TCq2    C1  607   2.003   4.660   2.117 -0.0581 -0.0618  0.2906
   40TCq2    O2  608   1.892   4.709   2.132  0.8186  0.3358  0.1153
   40TCq2    C2  609   2.110   0.019   2.163 -0.0545  0.2322  0.1178
   40TCq2    C3  610   2.092   0.133   2.239 -0.4605  0.2475  0.2796
   40TCq2    C4  611   2.199   0.213   2.278  0.3295 -0.7897  1.0544
   40TCq2    C5  612   2.325   0.171   2.239 -0.2588 -0.3116 -0.0470
   40TCq2    C6  613   2.345   0.058   2.165  0.2523 -0.7478  0.1162
   40TCq2    C7  614   2.238   4.709   2.117 -0.4704 -0.9857 -0.1363
   40TCq2    C8  615   2.473   0.022   2.105  0.0618 -0.8399  0.3273
   40TCq2    O4  616   2.475   4.668   2.008  0.1261  0.3454 -0.4820
   40TCq2    C9  617   2.182   0.336   2.357  0.0213 -0.4622  0.2817
   40TCq2    O5  618   2.063   0.375   2.364 -0.2017 -0.3204 -0.1413
   40TCq2    O6  619   2.284   0.401   2.384  0.1621  0.2496 -0.0193
   40TCq2    H2  620   1.996   0.164   2.277  0.7526  4.0796  0.2799
   40TCq2    H3  621   2.409   0.233   2.270  0.5524 -1.5352  0.2009
   40TCq2    H4  622   2.253   4.624   2.052 -0.2249 -2.6648  2.1176
   41TMC2    C1  623   0.722   2.550  13.298  0.0447 -0.2948  0.0754
   41TMC2    C2  624   0.746   2.674  13.353 -0.0240  1.0909 -0.0088
   41TMC2    C3  625   0.844   2.747  13.294 -0.2504  0.0490 -0.5762
   41TMC2    C4  626   0.782   2.510  13.178  0.6949  0.5924 -0.0795
   41TMC2    C5  627   0.869   2.594  13.119  0.1043 -0.3064 -0.0046
   41TMC2    C6  628   0.898   2.713  13.178  0.3100  0.4438 -0.0269
   41TMC2     C  629   0.608   2.467  13.334  0.1155 -0.6621 -1.0185
   41TMC2     O  630   0.580   2.371  13.264 -0.5480  0.0382 -0.2383
   41TMC2     H  631   0.686   2.709  13.436  0.4901 -0.2880  0.9578
   41TMC2    H1  632   0.757   2.413  13.136 -0.9206  2.2906 -2.9575
   41TMC2    H2  633   0.972   2.778  13.132  0.8108  0.4452  0.7873
   41TMC2    C7  634   0.873   2.612  12.972 -0.0467  0.0133  0.4545
   41TMC2    C8  635   0.879   2.873  13.354  0.1022 -0.3521 -0.6987
   41TMC2    O1  636   0.910   2.720  12.931 -0.0444 -0.0407 -0.4467
   41TMC2    O2  637   0.804   2.945  13.414  0.1363 -0.6047  0.5077
   41TMC2    O5  638   1.015   2.875  13.359 -0.3549  0.4881 -0.2478
   41TMC2    H5  639   1.044   2.782  13.347 -2.1949  0.1352 -2.0306
   42MPD2     C  640   0.341   2.372  13.420  0.5447  0.1105 -0.1835
   42MPD2    C1  641   0.422   2.461  13.492 -0.2449 -0.1116  0.3967
   42MPD2    C2  642   0.367   2.510  13.610  0.4097  0.2789 -0.1215
   42MPD2    C3  643   0.241   2.477  13.646  0.1627  0.4866  0.7275
   42MPD2    C4  644   0.165   2.388  13.575 -0.4085 -0.0111  0.3111
   42MPD2    C5  645   0.213   2.335  13.460 -0.1565  0.2946 -0.1870
   42MPD2     H  646   0.426   2.574  13.675 -2.1737  1.0855  1.4410
   42MPD2    H1  647   0.078   2.338  13.615 -1.1068  1.5541  0.7374
   42MPD2    H2  648   0.369   2.332  13.323 -1.5371  1.5996 -1.3910
   42MPD2    H3  649   0.160   2.256  13.408 -1.0804  0.4497  0.5322
   42MPD2     N  650   0.187   2.517  13.770 -0.1194  0.1678 -0.0310
   42MPD2    H5  651   0.092   2.492  13.795 -0.1183  1.2085  1.0242
   42MPD2    N1  652   0.553   2.501  13.449  0.5229 -0.6565  0.2648
   42MPD2    H7  653   0.601   2.559  13.517  0.8512 -0.1060 -0.4503
   43MPD2     C  654   2.318   0.740   0.652  0.0181 -0.4535 -0.1294
   43MPD2    C1  655   2.371   0.705   0.771  0.1356 -1.1279  0.1782
   43MPD2    C2  656   2.319   0.762   0.887  0.3407 -0.4795 -0.3085
   43MPD2    C3  657   2.214   0.855   0.883  0.7907  0.4147  0.5504
   43MPD2    C4  658   2.158   0.876   0.758 -0.3971 -0.9982  0.0499
   43MPD2    C5  659   2.208   0.821   0.644  0.3915  0.5687  0.1618
   43MPD2     H  660   2.373   0.733   0.976  0.0176  1.4712  0.5144
   43MPD2    H1  661   2.086   0.957   0.755  0.4233 -0.2098  1.7279
   43MPD2    H2  662   2.368   0.720   0.557  0.0508  1.6178 -0.5482
   43MPD2    H3  663   2.182   0.839   0.540  1.9168  0.0399 -0.3138
   43MPD2     N  664   2.155   0.915   1.001 -0.0980 -0.7694  0.5041
   43MPD2    H5  665   2.075   0.976   0.990  1.0620  0.4681 -1.0482
   43MPD2    N1  666   2.484   0.617   0.794  0.3078 -0.1419 -0.2251
   43MPD2    H7  667   2.512   0.584   0.886  0.0437  0.5011  0.0836
   44TCq2    C1  668   2.216   1.010   1.583 -0.0821  0.2613  0.2030
   44TCq2    O2  669   2.327   1.059   1.563  0.4715  0.4723 -0.9451
   44TCq2    C2  670   2.147   0.952   1.470 -0.5143 -0.0168  0.4037
   44TCq2    C3  671   2.020   0.913   1.486  0.2666 -0.1012  0.0064
   44TCq2    C4  672   1.944   0.905   1.370 -0.0520  0.8670 -0.0256
   44TCq2    C5  673   1.990   0.919   1.242 -0.6049 -0.0666  0.9521
   44TCq2    C6  674   2.119   0.960   1.238 -0.1679 -0.4382 -0.3218
   44TCq2    C7  675   2.200   0.988   1.349 -0.7333  0.3897  0.1777
   44TCq2    C8  676   2.206   0.913   1.134  0.2353 -0.1285 -0.0319
   44TCq2    O4  677   2.323   0.902   1.165 -0.0645 -0.1315  0.2099
   44TCq2    C9  678   1.809   0.874   1.393  0.1140  0.1950  0.0978
   44TCq2    O5  679   1.761   0.882   1.514 -0.1310  0.4561 -0.1987
   44TCq2    O6  680   1.743   0.857   1.288  0.4954  0.0536  0.4056
   44TCq2    H2  681   1.974   0.894   1.582 -0.4072 -2.6718 -0.8323
   44TCq2    H3  682   1.930   0.909   1.152  0.9179  1.6141 -0.2504
   44TCq2    H4  683   2.301   1.024   1.340  0.6045 -3.1657  0.7554
   45TMC2    C1  684   1.947   4.103   9.824 -0.5627  1.7163 -0.2290
   45TMC2    C2  685   1.976   3.971   9.862  0.8194 -0.6448 -0.0264
   45TMC2    C3  686   2.108   3.928   9.844 -0.3706  0.6551  0.4363
   45TMC2    C4  687   2.041   4.187   9.768 -0.0151 -0.6517 -0.2826
   45TMC2    C5  688   2.170   4.147   9.768 -0.5551 -0.2071 -0.6960
   45TMC2    C6  689   2.206   4.019   9.802 -0.2468 -0.0146 -0.0193
   45TMC2     C  690   1.805   4.122   9.786 -0.2861 -1.3900  0.5710
   45TMC2     O  691   1.765   4.238   9.767  0.4754 -0.0955  0.1903
   45TMC2     H  692   1.909   3.906   9.917  0.0010 -2.2461 -2.9237
   45TMC2    H1  693   2.007   4.289   9.753  1.1414 -0.2564 -0.2675
   45TMC2    H2  694   2.305   3.977   9.783 -1.3979 -1.8241 -2.0687
   45TMC2    C7  695   2.275   4.245   9.750  0.0335 -0.3208  0.4963
   45TMC2    C8  696   2.167   3.815   9.916  0.1237  0.0331 -0.3686
   45TMC2    O1  697   2.261   4.340   9.677 -0.4464 -0.5829  0.2578
   45TMC2    O2  698   2.286   3.811   9.943  0.5431  0.3260 -0.4508
   45TMC2    O5  699   2.101   3.710   9.874  0.1906  0.0553 -0.1165
   45TMC2    H5  700   2.004   3.724   9.869  0.5866  2.2372 -1.4517
   46MPD2     C  701   1.514   4.097   9.704  0.8126 -0.2060 -0.2646
   46MPD2    C1  702   1.604   3.994   9.707  0.1804  0.3512  0.3567
   46MPD2    C2  703   1.568   3.873   9.666  0.0110  0.2529  0.4863
   46MPD2    C3  704   1.449   3.838   9.617 -0.5001 -0.2506 -0.3475
   46MPD2    C4  705   1.352   3.942   9.608 -0.3629  0.7370 -1.0674
   46MPD2    C5  706   1.387   4.069   9.654  0.0115 -0.6922  0.1233
   46MPD2     H  707   1.639   3.791   9.669 -1.0051 -0.6846 -1.7220
   46MPD2    H1  708   1.252   3.935   9.567 -0.7510  0.5919 -0.0879
   46MPD2    H2  709   1.545   4.200   9.721  1.3878 -0.3265 -0.5863
   46MPD2    H3  710   1.314   4.148   9.639 -1.8495 -1.8572  2.9817
   46MPD2     N  711   1.432   3.714   9.551  0.8226  0.1425  0.3886
   46MPD2    H5  712   1.506   3.647   9.565  0.6307  0.1579  1.4391
   46MPD2    N1  713   1.738   4.005   9.759  0.2830  0.0044  0.2053
   46MPD2    H7  714   1.798   3.923   9.768  0.5131 -0.0644 -1.9810
   47TMC2    C1  715   4.458   3.666  10.125  0.6718 -0.0638 -0.8679
   47TMC2    C2  716   4.487   3.545  10.179 -0.4144 -0.0480 -0.1061
   47TMC2    C3  717   4.389   3.454  10.205  0.1694 -0.3825 -0.4550
   47TMC2    C4  718   4.339   3.673  10.062  0.1457  0.3110  0.1786
   47TMC2    C5  719   4.244   3.576  10.075 -0.1542  0.6936  0.1199
   47TMC2    C6  720   4.266   3.466  10.150 -0.3340 -0.0451  0.5958
   47TMC2     C  721   4.564   3.747  10.070  0.0281 -0.1065 -0.0355
   47TMC2     O  722   4.528   3.855  10.023 -0.4049  0.2956  0.4379
   47TMC2     H  723   4.585   3.527  10.222 -0.9838  0.1661  1.2679
   47TMC2    H1  724   4.322   3.761  10.001  3.5865  1.1873  0.4641
   47TMC2    H2  725   4.180   3.407  10.177 -1.0190  1.1935  1.1115
   47TMC2    C7  726   4.127   3.582   9.987 -0.3853  1.1458 -0.0795
   47TMC2    C8  727   4.439   3.323  10.225 -0.2660 -0.2878  1.1977
   47TMC2    O1  728   4.035   3.506  10.014 -0.4841  0.4611 -0.1750
   47TMC2    O2  729   4.559   3.296  10.202 -0.3670 -0.2149 -0.6386
   47TMC2    O5  730   4.351   3.242  10.278  0.5571 -0.1265  0.4042
   47TMC2    H5  731   4.274   3.291  10.314  1.3693  0.9152  0.7445
   48MPD2     C  732   0.090   3.813   9.893 -0.7335  0.6018 -0.4183
   48MPD2    C1  733   0.051   3.691   9.931 -0.2506  0.4955  0.0967
   48MPD2    C2  734   0.101   3.586   9.857 -0.1375  0.1375  0.1044
   48MPD2    C3  735   0.216   3.596   9.779  0.0178 -0.2968  0.7705
   48MPD2    C4  736   0.263   3.722   9.748 -1.1812 -0.2168  0.0368
   48MPD2    C5  737   0.198   3.822   9.808  0.6086 -0.1972  0.5470
   48MPD2     H  738   0.067   3.483   9.869  0.7560 -0.3286 -1.3718
   48MPD2    H1  739   0.343   3.744   9.679 -1.1479  0.5333  0.3165
   48MPD2    H2  740   0.048   3.907   9.928  1.0656  1.4948 -0.6553
   48MPD2    H3  741   0.236   3.921   9.788  0.2591 -0.9465 -3.8607
   48MPD2     N  742   0.269   3.474   9.731 -0.3967 -0.7564 -0.3565
   48MPD2    H5  743   0.227   3.383   9.744  1.8354 -2.0844 -2.4110
   48MPD2    N1  744   4.661   3.664  10.019 -0.7055  0.4519 -0.2291
   48MPD2    H7  745   4.649   3.568  10.050 -1.2743  1.2717  2.1469
   49MPD2     C  746   4.512   0.318  10.490  0.4334 -0.0044  0.3155
   49MPD2    C1  747   4.398   0.367  10.542  0.2496 -0.0319 -0.4188
   49MPD2    C2  748   4.352   0.306  10.653  0.8205 -0.4980 -0.0985
   49MPD2    C3  749   4.424   0.211  10.726 -0.0242 -0.2716  0.5398
   49MPD2    C4  750   4.551   0.179  10.682 -0.4047 -0.6315  0.0307
   49MPD2    C5  751   4.589   0.233  10.565  0.0334 -0.2334 -0.2062
   49MPD2     H  752   4.252   0.335  10.683 -0.3532 -0.0001 -4.5402
   49MPD2    H1  753   4.625   0.117  10.731 -1.7873 -0.9090  1.7542
   49MPD2    H2  754   4.549   0.341  10.391  2.4659  0.9220  1.2718
   49MPD2    H3  755   4.680   0.200  10.516  1.3273 -0.0030  2.0751
   49MPD2     N  756   4.373   0.148  10.846  0.1097 -0.0556 -0.3535
   49MPD2    H5  757   4.427   0.072  10.886  0.0873 -0.0003 -0.2181
   49MPD2    N1  758   4.312   0.462  10.476  0.0116  0.3241  0.3537
   49MPD2    H7  759   4.220   0.478  10.516  0.4687  1.0647  1.0988
   50TCq2    C1  760   4.353   0.533  10.372 -0.2777  0.3618  0.1205
   50TCq2    O2  761   4.451   0.530  10.300 -0.4748 -0.4376  0.1273
   50TCq2    C2  762   4.253   0.631  10.318  0.8962 -0.1377 -0.0292
   50TCq2    C3  763   4.297   0.730  10.230 -0.0592  1.1337  0.8092
   50TCq2    C4  764   4.206   0.812  10.170 -0.1400  0.2376  0.2821
   50TCq2    C5  765   4.069   0.791  10.191 -0.6595  0.5918  0.1743
   50TCq2    C6  766   4.029   0.681  10.268  0.3935  0.1130 -0.2495
   50TCq2    C7  767   4.122   0.606  10.335  0.0467  1.0731  0.2919
   50TCq2    C8  768   3.889   0.651  10.283 -0.4941  0.1907  0.4953
   50TCq2    O4  769   3.813   0.743  10.255 -0.3690 -0.2163  0.0672
   50TCq2    C9  770   4.258   0.928  10.076  0.2665  0.6260 -0.0491
   50TCq2    O5  771   4.380   0.924  10.042 -0.1653  0.0501 -0.1683
   50TCq2    O6  772   4.167   1.012  10.048 -0.4261  0.3571  0.1078
   50TCq2    H2  773   4.403   0.748  10.219  0.7610 -2.0518  3.6389
   50TCq2    H3  774   3.996   0.859  10.148 -0.0017 -0.4401 -2.5633
   50TCq2    H4  775   4.092   0.533  10.410 -0.1374  2.2004  1.3157
   51MPD2     C  776   3.520   3.881   1.204 -0.2351  0.0706 -0.1116
   51MPD2    C1  777   3.494   3.744   1.192  0.3480 -0.1491 -0.2108
   51MPD2    C2  778   3.506   3.658   1.304  0.5521 -0.5398  0.1062
   51MPD2    C3  779   3.550   3.719   1.426  0.4811 -0.9295 -0.7520
   51MPD2    C4  780   3.572   3.852   1.434 -0.4084 -0.5496  0.7404
   51MPD2    C5  781   3.553   3.933   1.327  0.6178 -0.4494  0.2225
   51MPD2     H  782   3.488   3.551   1.300  1.0684 -0.6215 -0.0684
   51MPD2    H1  783   3.609   3.902   1.523  2.3722 -1.8920  0.3653
   51MPD2    H2  784   3.492   3.961   1.136  0.2282  0.8387  0.5892
   51MPD2    H3  785   3.570   4.040   1.333  1.0063 -0.4761 -0.4576
   51MPD2     N  786   3.569   3.646   1.548 -0.3015 -0.6299 -0.3581
   51MPD2    H5  787   3.598   3.713   1.619  2.4674  1.3684 -3.3559
   51MPD2    N1  788   3.461   3.688   1.063  0.1732  0.7139  0.3874
   51MPD2    H7  789   3.439   3.589   1.060  1.6944  0.4142 -0.9932
   52TCq2    C1  790   3.533   3.516   1.583  0.0098  0.2005 -0.9057
   52TCq2    O2  791   3.491   3.431   1.509  0.1674  0.6796 -0.1737
   52TCq2    C2  792   3.549   3.483   1.722 -0.3002  0.2113  0.4518
   52TCq2    C3  793   3.481   3.375   1.778  0.4926 -0.0304 -0.4066
   52TCq2    C4  794   3.518   3.335   1.905  0.2747 -0.4544 -0.5591
   52TCq2    C5  795   3.619   3.398   1.970 -0.3338  0.2275 -0.2839
   52TCq2    C6  796   3.675   3.515   1.926 -0.0323 -0.1825  0.1861
   52TCq2    C7  797   3.642   3.551   1.797 -0.1162 -0.0361 -0.2983
   52TCq2    C8  798   3.765   3.599   2.003 -0.2640  0.2727 -0.0157
   52TCq2    O4  799   3.829   3.687   1.946 -0.6437 -0.4234 -0.3464
   52TCq2    C9  800   3.457   3.213   1.950 -0.4567 -0.1714 -0.0502
   52TCq2    O5  801   3.506   3.170   2.063  0.2768  0.0701  0.0846
   52TCq2    O6  802   3.376   3.151   1.874  0.4995 -0.2890 -0.1345
   52TCq2    H2  803   3.404   3.320   1.726 -0.1116  1.2046 -0.8233
   52TCq2    H3  804   3.637   3.344   2.061 -1.2241  1.3113  0.5356
   52TCq2    H4  805   3.701   3.633   1.758  0.0234 -0.8219 -1.7421
   53TMC2    C1  806   4.283   2.484  12.315 -0.1242 -1.2066  0.2248
   53TMC2    C2  807   4.373   2.448  12.414  0.0665 -0.6406  0.6542
   53TMC2    C3  808   4.325   2.442  12.545 -0.1983 -0.2023  0.4774
   53TMC2    C4  809   4.150   2.517  12.348  0.4738  0.5772  0.3101
   53TMC2    C5  810   4.116   2.519  12.485  0.6146  0.2031 -0.1818
   53TMC2    C6  811   4.200   2.480  12.582 -0.0017 -0.4128  0.0876
   53TMC2     C  812   4.330   2.488  12.179  0.2780 -0.1317 -0.4403
   53TMC2     O  813   4.427   2.408  12.165  0.0789 -0.1395  0.3235
   53TMC2     H  814   4.477   2.433  12.390  0.2705 -1.1259  1.8169
   53TMC2    H1  815   4.083   2.570  12.281  1.1628  0.6199 -0.3336
   53TMC2    H2  816   4.173   2.467  12.687  0.2532 -0.3774  0.1565
   53TMC2    C7  817   3.973   2.546  12.518  0.1744 -0.6396  0.2789
   53TMC2    C8  818   4.418   2.438  12.654  0.2285 -0.2616  0.3462
   53TMC2    O1  819   3.894   2.574  12.434  0.0105  0.1409  0.0039
   53TMC2    O2  820   4.430   2.540  12.723 -0.2029  0.2926  0.3587
   53TMC2    O5  821   4.410   2.315  12.707  0.3344 -0.0380  0.6750
   53TMC2    H5  822   4.386   2.253  12.635 -3.2662  0.6010  1.3168
   54MPD2     C  823   4.328   2.432  11.884  0.5558  0.3008 -0.1859
   54MPD2    C1  824   4.252   2.538  11.950  0.5942 -0.2018  0.1251
   54MPD2    C2  825   4.169   2.618  11.875  0.2897 -0.7979  0.2074
   54MPD2    C3  826   4.163   2.606  11.735 -0.5949 -0.1326  0.0632
   54MPD2    C4  827   4.249   2.516  11.678  0.2246 -0.1423  0.5714
   54MPD2    C5  828   4.324   2.431  11.752 -0.7703 -0.6313  0.1976
   54MPD2     H  829   4.121   2.703  11.923  0.8000 -0.4792  0.1482
   54MPD2    H1  830   4.233   2.498  11.573 -0.7737  2.3535  0.3078
   54MPD2    H2  831   4.383   2.358  11.942  0.0745 -1.0712 -1.4701
   54MPD2    H3  832   4.373   2.353  11.694 -0.6629 -0.1938 -0.3027
   54MPD2     N  833   4.083   2.689  11.654  0.2930 -0.4722 -0.1533
   54MPD2    H5  834   4.091   2.673  11.554  0.9590  0.1020 -0.1874
   54MPD2    N1  835   4.251   2.561  12.091  0.4727  0.1681  0.6463
   54MPD2    H7  836   4.174   2.614  12.129  0.4779  0.3653  0.3840
   55MPD2     C  837   0.182   4.640   0.040  0.2627  0.9133  0.1464
   55MPD2    C1  838   0.111   4.563   0.135  0.0080  0.7275 -0.4266
   55MPD2    C2  839   0.038   4.624   0.235 -0.1847  0.5902 -0.0945
   55MPD2    C3  840   0.039   0.045   0.241  0.0026  0.2224 -0.5166
   55MPD2    C4  841   0.116   0.116   0.149 -0.1994  0.0804  0.1518
   55MPD2    C5  842   0.180   0.054   0.045  0.5132 -0.4448 -0.1737
   55MPD2     H  843   4.700   4.561   0.302  0.1337 -1.6913 -2.0048
   55MPD2    H1  844   0.110   0.224   0.143  2.5056  0.3310  1.8890
   55MPD2    H2  845   0.225   4.587  17.637  0.3653 -0.3030  0.9653
   55MPD2    H3  846   0.237   0.116  17.657  0.4591  0.3152  0.4650
   55MPD2     N  847   4.689   0.105   0.347  0.1811  0.9121 -0.3050
   55MPD2    H5  848   4.630   0.051   0.409  1.1457  0.9540  0.6436
   55MPD2    N1  849   0.134   4.423   0.132 -0.2735 -0.7483  0.0439
   55MPD2    H7  850   0.200   4.387   0.064  0.5904  1.8536 -0.4995
   56TCq2    C1  851   0.072   4.324   0.206  0.1337  0.0720 -0.1976
   56TCq2    O2  852   4.700   4.330   0.293 -0.2969  0.0521  0.1971
   56TCq2    C2  853   0.135   4.191   0.194  1.0348  0.0242  0.0747
   56TCq2    C3  854   0.201   4.161   0.079 -0.3367  0.2586  0.7037
   56TCq2    C4  855   0.246   4.028   0.069 -0.4735  0.6597  0.3499
   56TCq2    C5  856   0.246   3.943   0.179  0.0957 -0.3060 -0.0178
   56TCq2    C6  857   0.189   3.992   0.300 -0.4264 -0.4746 -0.3492
   56TCq2    C7  858   0.128   4.114   0.308  0.5871  0.4069  0.3223
   56TCq2    C8  859   0.161   3.897   0.403 -0.7092 -0.0493 -0.1639
   56TCq2    O4  860   0.222   3.785   0.397 -0.6921  0.3188 -1.6091
   56TCq2    C9  861   0.296   3.989  17.620 -0.4288  0.9473  0.0616
   56TCq2    O5  862   0.394   3.913  17.616  0.1168 -0.0588 -0.0903
   56TCq2    O6  863   0.234   4.043  17.527 -0.1677  0.0488  0.3902
   56TCq2    H2  864   0.195   4.227  17.674  1.1899  1.6998  1.7141
   56TCq2    H3  865   0.272   3.839   0.165 -2.7629 -0.5653 -3.2351
   56TCq2    H4  866   0.106   4.162   0.402 -1.0948  0.1630  0.0581
   57TMC2    C1  867   3.938   1.739  13.790  0.7106  1.2260  1.1160
   57TMC2    C2  868   4.025   1.776  13.889 -0.5061 -0.1441 -0.1490
   57TMC2    C3  869   4.147   1.725  13.882  0.9407  0.0104  0.3198
   57TMC2    C4  870   3.966   1.653  13.684 -0.0041  0.1996  0.1065
   57TMC2    C5  871   4.096   1.597  13.689  0.1921 -0.0279  0.1930
   57TMC2    C6  872   4.187   1.637  13.788  0.1773  0.2133 -0.8265
   57TMC2     C  873   3.797   1.780  13.794 -0.3096  0.3033 -0.3652
   57TMC2     O  874   3.732   1.768  13.693  0.2724  0.2104 -0.4573
   57TMC2     H  875   4.005   1.849  13.967  0.1704 -0.5710  0.4234
   57TMC2    H1  876   3.897   1.632  13.603 -2.1027 -0.4277  2.0404
   57TMC2    H2  877   4.289   1.598  13.788  0.3693  0.7203  0.6578
   57TMC2    C7  878   4.135   1.516  13.570  0.4885  0.5811  0.2201
   57TMC2    C8  879   4.230   1.753  13.998  1.6402  0.1235  0.2394
   57TMC2    O1  880   4.066   1.529  13.470  0.0033 -0.3001 -0.3127
   57TMC2    O2  881   4.197   1.796  14.108  0.2834  0.0871 -0.4456
   57TMC2    O5  882   4.344   1.795  13.934 -0.8801  0.3891  0.4997
   57TMC2    H5  883   4.351   1.766  13.840  0.2435 -2.0100  1.3199
   58MPD2     C  884   3.359   1.791  14.065 -0.7680  0.6374 -0.4848
   58MPD2    C1  885   3.377   1.808  13.928 -0.6001 -0.1466 -0.4490
   58MPD2    C2  886   3.508   1.810  13.875 -0.2059 -0.7227 -1.1856
   58MPD2    C3  887   3.613   1.802  13.961  0.2621 -0.2693  0.3882
   58MPD2    C4  888   3.591   1.793  14.097 -0.3930  0.5129 -0.0499
   58MPD2    C5  889   3.466   1.785  14.148  0.8429 -0.7831  0.3829
   58MPD2     H  890   3.528   1.822  13.769  0.3117  0.6503 -0.9397
   58MPD2    H1  891   3.670   1.786  14.171 -0.4900  0.6461  0.0665
   58MPD2    H2  892   3.262   1.798  14.113 -0.7969  1.4806 -0.6675
   58MPD2    H3  893   3.471   1.781  14.256  2.4812 -0.2575  0.3288
   58MPD2     N  894   3.747   1.796  13.920  0.7181 -0.2778  0.0493
   58MPD2    H5  895   3.812   1.795  13.998 -0.8714 -2.0127  1.3458
   58MPD2    N1  896   3.269   1.842  13.846 -1.0198  0.5455  0.0830
   58MPD2    H7  897   3.289   1.854  13.747  0.7975  3.2068  0.7972
   59MPD2     C  898   1.327   1.327  13.290 -0.0097  0.2406  0.1520
   59MPD2    C1  899   1.418   1.384  13.204  0.0355 -0.1889 -0.1563
   59MPD2    C2  900   1.480   1.498  13.246 -0.5067 -0.0143 -0.2837
   59MPD2    C3  901   1.455   1.558  13.365 -0.6448  0.2187 -0.3402
   59MPD2    C4  902   1.358   1.496  13.440  0.2034  0.5986 -0.2146
   59MPD2    C5  903   1.301   1.378  13.408  0.1712  0.1161 -0.0830
   59MPD2     H  904   1.546   1.542  13.172  1.4982 -2.4009  0.0610
   59MPD2    H1  905   1.326   1.534  13.536 -0.7313 -0.0429 -0.2690
   59MPD2    H2  906   1.277   1.238  13.255  1.6018  0.2007 -2.0320
   59MPD2    H3  907   1.225   1.343  13.478 -0.3218  0.3046 -0.5180
   59MPD2     N  908   1.526   1.674  13.419 -0.0630  0.0033 -0.0916
   59MPD2    H5  909   1.502   1.694  13.516  1.1351  1.5760 -0.1199
   59MPD2    N1  910   1.450   1.322  13.082 -0.4830 -0.5071 -0.0997
   59MPD2    H7  911   1.490   1.387  13.014 -0.4763  0.2415  0.6112
   60TCq2    C1  912   1.427   1.186  13.054  1.2792  0.5698 -0.4858
   60TCq2    O2  913   1.407   1.095  13.135 -0.0211 -0.2267 -0.5896
   60TCq2    C2  914   1.446   1.151  12.913 -0.0006 -0.5255 -0.1938
   60TCq2    C3  915   1.395   1.021  12.878  0.4098 -0.0715 -0.3218
   60TCq2    C4  916   1.407   0.977  12.748 -0.9753 -0.2273  0.3288
   60TCq2    C5  917   1.448   1.075  12.658  0.3991 -0.2966  0.2360
   60TCq2    C6  918   1.488   1.201  12.698 -0.3216 -0.3198  0.7020
   60TCq2    C7  919   1.507   1.233  12.828  0.1408  0.8730  0.9224
   60TCq2    C8  920   1.565   1.262  12.590  0.4400 -0.1771  0.0370
   60TCq2    O4  921   1.644   1.184  12.527  0.9441  0.0183 -0.2638
   60TCq2    C9  922   1.357   0.847  12.706 -0.3606  0.7614  0.2172
   60TCq2    O5  923   1.358   0.821  12.581  0.2001 -0.2876 -0.3310
   60TCq2    O6  924   1.304   0.779  12.800 -0.8361 -0.2509  0.0207
   60TCq2    H2  925   1.346   0.954  12.948  0.8297  0.7421  0.7338
   60TCq2    H3  926   1.456   1.047  12.554 -0.3624 -0.0206  0.1037
   60TCq2    H4  927   1.561   1.322  12.859  0.4455  0.9936  0.0491
   61MPD2     C  928   0.910   2.603  14.882 -0.2899 -0.8508 -0.0288
   61MPD2    C1  929   0.921   2.742  14.910  0.9139 -0.4087 -0.3181
   61MPD2    C2  930   0.969   2.820  14.804 -0.1234 -0.7445  0.0299
   61MPD2    C3  931   1.006   2.767  14.682  0.0238  0.1675 -0.2036
   61MPD2    C4  932   0.977   2.629  14.659  0.5637  0.8397  0.0184
   61MPD2    C5  933   0.925   2.556  14.756  0.3167 -0.2907 -0.3105
   61MPD2     H  934   0.988   2.926  14.821  0.4212 -0.9227  0.5491
   61MPD2    H1  935   0.971   2.587  14.559  2.9818  1.5715 -0.4226
   61MPD2    H2  936   0.865   2.534  14.952  2.2832 -0.9755  1.4594
   61MPD2    H3  937   0.883   2.458  14.734 -0.8416  0.2487 -0.5242
   61MPD2     N  938   1.045   2.858  14.581 -0.2286  0.3820 -0.6836
   61MPD2    H5  939   1.031   2.826  14.485 -0.9985  0.1437 -0.4920
   61MPD2    N1  940   0.893   2.808  15.030  0.5826  0.1177 -0.5036
   61MPD2    H7  941   0.924   2.904  15.040 -1.7600  1.0005 -1.5566
   62TCq2    C1  942   0.820   2.757  15.129 -0.0949  0.6300  0.2826
   62TCq2    O2  943   0.804   2.640  15.159 -0.0998  0.8250 -0.3079
   62TCq2    C2  944   0.785   2.856  15.226  0.0419  0.4570 -0.0726
   62TCq2    C3  945   0.776   2.815  15.357 -0.2402  0.3243  0.2017
   62TCq2    C4  946   0.738   2.905  15.460  0.1003  0.9807  0.4417
   62TCq2    C5  947   0.722   3.039  15.427 -0.6601 -0.3434  0.5277
   62TCq2    C6  948   0.708   3.069  15.288  0.5786 -0.6889  0.2177
   62TCq2    C7  949   0.738   2.981  15.189  0.4460 -0.6551 -0.0456
   62TCq2    C8  950   0.669   3.204  15.241  0.4783  0.9119 -0.3615
   62TCq2    O4  951   0.651   3.285  15.329 -0.3731  0.1976 -0.0958
   62TCq2    C9  952   0.737   2.869  15.594  0.0992 -0.8022 -0.0210
   62TCq2    O5  953   0.753   2.964  15.678  0.7316 -0.2399 -0.7599
   62TCq2    O6  954   0.772   2.753  15.620 -0.7394 -0.0725 -0.0867
   62TCq2    H2  955   0.805   2.713  15.379 -1.6646 -0.1638 -0.1701
   62TCq2    H3  956   0.706   3.114  15.503 -1.0157  1.5286 -1.3742
   62TCq2    H4  957   0.741   3.008  15.084  0.6395  1.9130  0.6181
   63TMC2    C1  958   0.856   3.103  11.055 -0.2041 -0.9057 -0.6344
   63TMC2    C2  959   0.957   3.144  11.137  0.5705 -0.2055 -0.3860
   63TMC2    C3  960   1.073   3.194  11.085 -0.2148 -0.0077  0.8556
   63TMC2    C4  961   0.874   3.129  10.920 -0.2893 -0.5138  0.8205
   63TMC2    C5  962   0.976   3.201  10.871 -0.2258  0.4962 -0.2887
   63TMC2    C6  963   1.082   3.220  10.950 -0.2038 -0.1045 -0.9730
   63TMC2     C  964   0.725   3.078  11.115  0.3786 -0.1404 -0.5694
   63TMC2     O  965   0.728   3.099  11.238 -0.1735  0.0098  0.4730
   63TMC2     H  966   0.948   3.127  11.244  2.8864  1.9710  0.1467
   63TMC2    H1  967   0.780   3.118  10.866  0.0274  0.0397  0.1590
   63TMC2    H2  968   1.176   3.259  10.915  1.0503 -1.5339  0.8042
   63TMC2    C7  969   0.967   3.232  10.734  0.9400  0.6522 -0.4841
   63TMC2    C8  970   1.188   3.215  11.172  0.9445  0.1475  0.5045
   63TMC2    O1  971   0.890   3.165  10.670 -0.0658  0.5127  0.8093
   63TMC2    O2  972   1.181   3.235  11.291 -1.0124  0.6099  0.1244
   63TMC2    O5  973   1.295   3.150  11.115  0.1399 -0.2722 -0.0639
   63TMC2    H5  974   1.271   3.103  11.032 -1.9933  0.0399  0.3621
   64MPD2     C  975   0.338   2.748  11.182  0.1185  0.2522  0.8382
   64MPD2    C1  976   0.366   2.752  11.046  0.0454 -0.5839 -0.1988
   64MPD2    C2  977   0.464   2.836  11.007 -0.0707  0.2205  0.8258
   64MPD2    C3  978   0.529   2.921  11.089 -0.6473 -0.0366 -0.2043
   64MPD2    C4  979   0.504   2.915  11.226 -0.3689 -0.1045  0.1537
   64MPD2    C5  980   0.406   2.829  11.270 -0.3962 -0.5560 -0.9226
   64MPD2     H  981   0.484   2.840  10.900  0.9982  0.4799  1.0313
   64MPD2    H1  982   0.567   2.967  11.298  0.2882 -0.3507 -0.2365
   64MPD2    H2  983   0.262   2.679  11.218 -1.1834 -0.2018 -2.8044
   64MPD2    H3  984   0.384   2.815  11.375  1.4052  2.5183 -0.1362
   64MPD2     N  985   0.637   2.998  11.040 -0.6150 -0.0148 -0.3752
   64MPD2    H5  986   0.653   2.987  10.941  2.5965 -2.3460  0.4178
   64MPD2    N1  987   0.316   2.664  10.956 -0.2029  0.0048 -0.3049
   64MPD2    H7  988   0.372   2.659  10.871  2.1090 -3.4279  1.4679
   65MPD2     C  989   1.575   1.585  16.252 -0.4648 -0.2018  0.5786
   65MPD2    C1  990   1.497   1.677  16.193  0.0964 -0.9336 -0.1818
   65MPD2    C2  991   1.399   1.643  16.100 -0.0708  0.1683  0.2088
   65MPD2    C3  992   1.368   1.509  16.077  0.8510 -0.6440  0.3159
   65MPD2    C4  993   1.457   1.422  16.136  0.2551  0.1639  0.3071
   65MPD2    C5  994   1.548   1.454  16.229  0.1264  0.2378  0.1625
   65MPD2     H  995   1.354   1.731  16.056 -1.5026 -0.7712 -0.2079
   65MPD2    H1  996   1.448   1.318  16.108  0.2121 -0.2030  1.6733
   65MPD2    H2  997   1.654   1.611  16.322  1.2270  0.8773 -1.6741
   65MPD2    H3  998   1.611   1.384  16.284 -2.2171 -1.3016  0.8551
   65MPD2     N  999   1.273   1.464  15.984 -0.5126 -0.1604 -0.3033
   65MPD2    H5 1000   1.273   1.364  15.964 -0.7622 -0.1674 -0.2683
   65MPD2    N1 1001   1.517   1.810  16.224 -0.4756  1.1123  0.1198
   65MPD2    H7 1002   1.460   1.875  16.171  2.2210  3.9376  0.6966
   66TCq2    C1 1003   1.608   1.868  16.304 -0.1230  0.2459  0.1415
   66TCq2    O2 1004   1.717   1.827  16.340  0.0619  0.2100  0.0731
   66TCq2    C2 1005   1.581   2.012  16.325 -0.6435 -0.3257  0.0471
   66TCq2    C3 1006   1.687   2.091  16.344 -1.1135 -0.2125 -0.4078
   66TCq2    C4 1007   1.660   2.225  16.349  0.5082 -0.1773 -0.6474
   66TCq2    C5 1008   1.540   2.284  16.333  0.1188  0.0749  0.6571
   66TCq2    C6 1009   1.432   2.197  16.323  0.6818  0.7559  0.2525
   66TCq2    C7 1010   1.457   2.063  16.300  0.3906  0.1740 -0.1200
   66TCq2    C8 1011   1.290   2.249  16.324 -0.3320  1.3873  0.4530
   66TCq2    O4 1012   1.200   2.169  16.320  0.1707 -0.4186 -0.3386
   66TCq2    C9 1013   1.791   2.299  16.369 -0.0408  0.4465  0.3761
   66TCq2    O5 1014   1.796   2.422  16.354  0.1048 -0.4218  0.0741
   66TCq2    O6 1015   1.881   2.232  16.431  0.3144  0.4424 -0.0605
   66TCq2    H2 1016   1.787   2.054  16.361 -1.3093 -0.3019  0.5660
   66TCq2    H3 1017   1.532   2.392  16.339  2.8213  0.2251  1.3476
   66TCq2    H4 1018   1.371   1.997  16.290  1.8632 -1.4401 -2.4646
   67MPD2     C 1019   1.537   1.568  14.338 -0.3699  0.1594  0.6542
   67MPD2    C1 1020   1.462   1.613  14.442  0.3473 -0.5525  0.2621
   67MPD2    C2 1021   1.332   1.651  14.425  0.0934 -0.0245  0.7399
   67MPD2    C3 1022   1.274   1.645  14.299 -0.4415  0.0083  0.4149
   67MPD2    C4 1023   1.346   1.595  14.193  0.1866 -0.2735  0.3379
   67MPD2    C5 1024   1.482   1.561  14.213  0.1460  0.3711  0.3008
   67MPD2     H 1025   1.274   1.691  14.507 -1.8900  1.5622 -1.4424
   67MPD2    H1 1026   1.299   1.601  14.096 -0.1477  0.4721  0.5411
   67MPD2    H2 1027   1.643   1.543  14.338 -0.7421 -1.4401  0.0875
   67MPD2    H3 1028   1.537   1.535  14.123 -0.8783  0.8236 -0.4573
   67MPD2     N 1029   1.145   1.700  14.269 -0.3013 -1.0604  0.0232
   67MPD2    H5 1030   1.107   1.699  14.175 -0.6794  0.9742  0.1526
   67MPD2    N1 1031   1.516   1.642  14.567 -0.4993 -0.0484 -0.0095
   67MPD2    H7 1032   1.448   1.678  14.634  1.3779  1.1496  1.2541
   68TCq2    C1 1033   1.643   1.610  14.611  0.5533  0.0057 -0.0472
   68TCq2    O2 1034   1.734   1.550  14.554  0.5610 -0.0634  1.0716
   68TCq2    C2 1035   1.661   1.653  14.745 -0.2515  0.2884  0.1220
   68TCq2    C3 1036   1.589   1.753  14.801 -0.3416 -0.2482  0.5246
   68TCq2    C4 1037   1.614   1.790  14.934  0.0968  0.1334 -0.9991
   68TCq2    C5 1038   1.699   1.722  15.016  0.4715 -0.4194  0.1471
   68TCq2    C6 1039   1.776   1.630  14.952 -1.0948 -0.3304  0.8706
   68TCq2    C7 1040   1.761   1.589  14.818  0.0007  0.6516  0.7312
   68TCq2    C8 1041   1.879   1.563  15.019 -0.7770 -0.0025 -0.4159
   68TCq2    O4 1042   1.945   1.481  14.955  0.3817 -0.0718  0.3642
   68TCq2    C9 1043   1.541   1.895  14.987 -0.2926  0.2042 -0.2575
   68TCq2    O5 1044   1.535   1.906  15.110  0.1570  0.2550 -0.1929
   68TCq2    O6 1045   1.477   1.964  14.900  0.8006 -0.2160 -1.4090
   68TCq2    H2 1046   1.507   1.801  14.748 -0.8498 -0.4244  1.1595
   68TCq2    H3 1047   1.720   1.774  15.109 -1.8407  1.4065 -0.3366
   68TCq2    H4 1048   1.813   1.509  14.766 -1.1855 -0.5764  1.4482
   69TMC2    C1 1049   3.404   3.192  12.176 -0.0246 -0.3897  0.2032
   69TMC2    C2 1050   3.302   3.213  12.087 -0.5205 -0.1089 -0.1065
   69TMC2    C3 1051   3.332   3.247  11.957  0.4558 -0.1043  0.3186
   69TMC2    C4 1052   3.534   3.187  12.134 -0.5512  0.3463  0.1809
   69TMC2    C5 1053   3.553   3.215  11.999  0.1718 -0.6807 -0.2424
   69TMC2    C6 1054   3.457   3.243  11.911  0.2205 -0.3547  0.4532
   69TMC2     C 1055   3.366   3.140  12.305 -0.6194 -0.5900  0.0393
   69TMC2     O 1056   3.251   3.135  12.344  0.5832  0.0524 -0.2068
   69TMC2     H 1057   3.199   3.212  12.120 -0.3471  2.2998  0.4727
   69TMC2    H1 1058   3.618   3.171  12.201 -0.8224  2.1544  0.9514
   69TMC2    H2 1059   3.481   3.251  11.806  0.5919  3.2949  0.8028
   69TMC2    C7 1060   3.690   3.205  11.946 -0.1944 -0.6128  0.0213
   69TMC2    C8 1061   3.218   3.259  11.871 -0.5151 -0.7174  0.1305
   69TMC2    O1 1062   3.771   3.142  12.015 -0.0751 -0.4230  0.3904
   69TMC2    O2 1063   3.112   3.201  11.892  0.6795  0.1477  0.2592
   69TMC2    O5 1064   3.245   3.374  11.801  0.0980  0.3036  0.2074
   69TMC2    H5 1065   3.333   3.410  11.826 -0.0470 -0.7726  2.2717
   70MPD2     C 1066   3.599   3.037  12.561  0.5852 -0.6482 -0.4902
   70MPD2    C1 1067   3.477   3.068  12.513 -0.6576  0.4540  0.1050
   70MPD2    C2 1068   3.364   3.046  12.596  0.2720 -0.2955  0.0409
   70MPD2    C3 1069   3.386   2.991  12.721 -0.1487  0.1582 -0.1247
   70MPD2    C4 1070   3.521   2.968  12.770  0.0173  0.2621 -0.2750
   70MPD2    C5 1071   3.623   2.983  12.681  0.0541 -0.1501 -0.7975
   70MPD2     H 1072   3.261   3.071  12.570  0.4293  0.4830  0.1754
   70MPD2    H1 1073   3.542   2.914  12.862  0.8652  2.5249  0.8775
   70MPD2    H2 1074   3.681   3.043  12.490  1.0831 -0.6092  0.0895
   70MPD2    H3 1075   3.728   2.963  12.703 -0.2619 -0.8201  0.1044
   70MPD2     N 1076   3.282   2.958  12.810 -0.6192  0.1653 -0.3628
   70MPD2    H5 1077   3.315   2.899  12.885 -2.6692  0.7758  0.9976
   70MPD2    N1 1078   3.481   3.117  12.384  0.8616  0.9417  0.6639
   70MPD2    H7 1079   3.570   3.137  12.340  0.5920  0.7291  0.0081
   71TMC2    C1 1080   2.935   3.720   1.969  0.1355  0.5793  0.2838
   71TMC2    C2 1081   3.006   3.817   2.034 -0.1761 -0.6182 -0.2129
   71TMC2    C3 1082   3.015   3.809   2.168 -0.0362 -0.2624 -0.7041
   71TMC2    C4 1083   2.869   3.623   2.037  0.1160 -0.0104 -0.9967
   71TMC2    C5 1084   2.859   3.633   2.173  0.6185  0.7415 -0.7723
   71TMC2    C6 1085   2.936   3.725   2.241 -0.0478 -0.3483 -0.1879
   71TMC2     C 1086   2.887   3.751   1.842 -0.5106 -0.7247 -0.1275
   71TMC2     O 1087   2.912   3.863   1.795  0.0545 -0.1919 -0.0288
   71TMC2     H 1088   3.085   3.869   1.982  1.3934 -0.9373  1.8570
   71TMC2    H1 1089   2.818   3.539   1.991  1.3690 -1.4501  0.2476
   71TMC2    H2 1090   2.935   3.725   2.349 -0.9431  1.5756 -0.2175
   71TMC2    C7 1091   2.742   3.574   2.240  0.1826 -0.0056  0.3072
   71TMC2    C8 1092   3.137   3.853   2.237  0.4009 -0.3231  0.1448
   71TMC2    O1 1093   2.757   3.555   2.356  0.1811 -0.1249 -0.3225
   71TMC2    O2 1094   3.183   3.819   2.348  0.1989 -0.5576  0.4084
   71TMC2    O5 1095   3.170   3.974   2.187 -0.1109  0.1112  0.0701
   71TMC2    H5 1096   3.115   3.994   2.109  1.3025  0.7920 -0.7432
   72MPD2     C 1097   2.762   3.626   1.351  0.8394 -0.4029 -0.5607
   72MPD2    C1 1098   2.751   3.749   1.416 -0.1085 -0.3935 -0.1094
   72MPD2    C2 1099   2.790   3.756   1.548  0.5221 -0.3749  0.0638
   72MPD2    C3 1100   2.823   3.640   1.623 -0.0664  0.9197  0.0856
   72MPD2    C4 1101   2.827   3.516   1.557  0.3734  0.2433 -0.0697
   72MPD2    C5 1102   2.802   3.515   1.420  0.2295  0.3539  0.0438
   72MPD2     H 1103   2.794   3.853   1.597  2.2440 -1.1287  1.4329
   72MPD2    H1 1104   2.849   3.425   1.611 -1.0913 -1.2006 -1.9015
   72MPD2    H2 1105   2.745   3.620   1.244 -0.3528 -2.2087 -0.2543
   72MPD2    H3 1106   2.812   3.420   1.367  2.7208  0.9290 -0.5343
   72MPD2     N 1107   2.856   3.635   1.764  0.2146  0.8138 -0.0321
   72MPD2    H5 1108   2.876   3.541   1.797 -0.1847 -0.1606 -2.5310
   72MPD2    N1 1109   2.719   3.866   1.346  0.2310 -0.8908  0.3342
   72MPD2    H7 1110   2.709   3.950   1.402  2.5868 -0.8104  0.6460
   73TMC2    C1 1111   1.598   0.761  14.192 -0.1114  1.0797  0.1226
   73TMC2    C2 1112   1.476   0.764  14.247  0.3345  0.2062  0.5437
   73TMC2    C3 1113   1.467   0.831  14.365 -0.0674 -0.5108  0.2564
   73TMC2    C4 1114   1.702   0.838  14.236 -0.3089  0.0562 -0.4741
   73TMC2    C5 1115   1.684   0.924  14.344  0.8675 -0.1462  0.0004
   73TMC2    C6 1116   1.567   0.912  14.415 -0.1528  0.2044  0.2119
   73TMC2     C 1117   1.604   0.727  14.051  0.1489  0.4725 -0.8699
   73TMC2     O 1118   1.707   0.762  13.996  0.6120 -0.2220 -0.3912
   73TMC2     H 1119   1.388   0.711  14.212  0.9944  0.0040 -0.7678
   73TMC2    H1 1120   1.800   0.837  14.190  0.7108 -0.0291  1.7081
   73TMC2    H2 1121   1.542   0.982  14.495  0.4785  1.7786 -0.9731
   73TMC2    C7 1122   1.704   1.067  14.319  0.2999  1.0070  0.5974
   73TMC2    C8 1123   1.349   0.793  14.446 -0.3637 -0.0014 -0.0657
   73TMC2    O1 1124   1.753   1.136  14.407  0.3389  0.6480  0.0616
   73TMC2    O2 1125   1.238   0.782  14.402 -0.9651  0.0510  0.3741
   73TMC2    O5 1126   1.389   0.759  14.568  0.3984 -0.5429  0.6171
   73TMC2    H5 1127   1.479   0.781  14.601  0.8425 -0.3566 -0.7180
   74MPD2     C 1128   1.404   0.658  13.587 -0.0396 -0.3537  0.2841
   74MPD2    C1 1129   1.479   0.760  13.638 -0.3275  0.1511  0.0920
   74MPD2    C2 1130   1.524   0.743  13.770 -0.2842  0.2160  0.0991
   74MPD2    C3 1131   1.469   0.654  13.859 -0.2838 -0.1203 -0.5062
   74MPD2    C4 1132   1.387   0.556  13.803 -0.5045  0.0125 -0.1727
   74MPD2    C5 1133   1.365   0.552  13.665  0.6772  0.1780 -0.3223
   74MPD2     H 1134   1.587   0.822  13.809 -0.0005  0.5667 -1.0604
   74MPD2    H1 1135   1.335   0.479  13.860 -1.7524  2.5830  2.1920
   74MPD2    H2 1136   1.380   0.664  13.482 -0.0391 -0.5461  0.2721
   74MPD2    H3 1137   1.307   0.467  13.632 -0.5907  0.3391  1.5359
   74MPD2     N 1138   1.493   0.674  13.997  0.2807  0.0848  0.4212
   74MPD2    H5 1139   1.424   0.642  14.065 -0.4639  0.5341 -0.1375
   74MPD2    N1 1140   1.508   0.859  13.544  0.3620 -0.1517 -0.0430
   74MPD2    H7 1141   1.499   0.833  13.446 -1.1668  0.7394 -0.1260
   75TCq2    C1 1142   1.053   1.760  14.358 -0.0105  0.0007 -0.2620
   75TCq2    O2 1143   1.069   1.776  14.479 -0.1456 -0.1053  0.0762
   75TCq2    C2 1144   0.933   1.821  14.290 -0.0092  0.1906  1.1894
   75TCq2    C3 1145   0.829   1.846  14.373 -0.6552 -0.4229  0.2855
   75TCq2    C4 1146   0.706   1.876  14.323 -0.1181 -0.0381 -0.2578
   75TCq2    C5 1147   0.685   1.904  14.192  0.2372  0.4750 -0.0499
   75TCq2    C6 1148   0.799   1.899  14.118  0.4841  0.8044 -1.4110
   75TCq2    C7 1149   0.927   1.856  14.155 -0.3520 -0.8567  0.2299
   75TCq2    C8 1150   0.785   1.944  13.978 -0.8139  0.6562 -0.1357
   75TCq2    O4 1151   0.864   1.904  13.898 -0.3430 -0.0572 -0.1561
   75TCq2    C9 1152   0.602   1.895  14.418  0.4040 -0.0449  0.2578
   75TCq2    O5 1153   0.521   1.799  14.420  0.3254 -0.3345 -0.2605
   75TCq2    O6 1154   0.639   1.965  14.519  0.0462  0.0230 -0.4623
   75TCq2    H2 1155   0.846   1.848  14.480 -0.3224 -0.5019  0.2339
   75TCq2    H3 1156   0.586   1.941  14.169 -0.1589 -0.8233 -0.4416
   75TCq2    H4 1157   1.001   1.833  14.080 -0.3421  0.0935 -0.0539
   76MPD2     C 1158   4.647   2.547  11.965  0.2886  0.7981 -0.5964
   76MPD2    C1 1159   4.657   2.550  11.829  0.3210  0.5434  0.8414
   76MPD2    C2 1160   4.719   2.442  11.764 -0.0111  1.3969 -0.2341
   76MPD2    C3 1161   0.065   2.345  11.840  0.3902 -0.7699 -0.4176
   76MPD2    C4 1162   0.045   2.340  11.976 -0.0349 -0.1524 -0.1564
   76MPD2    C5 1163   4.695   2.443  12.039 -0.5385 -0.5849 -0.6761
   76MPD2     H 1164   0.021   2.434  11.658  0.5665 -0.3886  0.0185
   76MPD2    H1 1165   0.089   2.265  12.040 -0.8847  1.1400  1.9559
   76MPD2    H2 1166   4.598   2.623  12.024 -0.5223 -0.6591  0.6369
   76MPD2    H3 1167   4.673   2.436  12.145  1.9205 -1.1337 -0.2099
   76MPD2     N 1168   0.151   2.248  11.778  0.5650  0.1281 -0.7211
   76MPD2    H5 1169   0.202   2.181  11.835  1.4754  1.0711 -0.4137
   76MPD2    N1 1170   4.610   2.654  11.750  0.0631  0.3242  0.0465
   76MPD2    H7 1171   4.590   2.629  11.654 -1.8419 -0.3031  0.6084
   77TCq2    C1 1172   0.190   2.242  11.646 -0.1550  0.9940 -0.6071
   77TCq2    O2 1173   0.158   2.312  11.551  0.0920 -0.9144 -0.2560
   77TCq2    C2 1174   0.279   2.133  11.613 -0.0793 -0.3093  0.1042
   77TCq2    C3 1175   0.351   2.133  11.497 -0.4989  0.9640  0.5904
   77TCq2    C4 1176   0.425   2.024  11.464  0.3625 -0.2852 -0.0062
   77TCq2    C5 1177   0.429   1.913  11.539  0.2354  0.3029 -0.0128
   77TCq2    C6 1178   0.350   1.913  11.650  0.0650  0.0840  0.2297
   77TCq2    C7 1179   0.282   2.022  11.695 -0.7636 -0.1295 -0.7672
   77TCq2    C8 1180   0.352   1.803  11.741 -0.0772  0.6612 -0.1609
   77TCq2    O4 1181   0.363   1.689  11.696 -0.2156 -0.3001 -0.2673
   77TCq2    C9 1182   0.499   2.017  11.343 -0.0180  0.0611  0.0236
   77TCq2    O5 1183   0.535   1.904  11.305 -0.5626  0.0659 -0.0950
   77TCq2    O6 1184   0.514   2.120  11.274  0.2245 -0.0574  0.3836
   77TCq2    H2 1185   0.355   2.220  11.433 -0.1041  0.7064  0.2629
   77TCq2    H3 1186   0.490   1.825  11.521 -0.2937  0.2903 -1.7773
   77TCq2    H4 1187   0.222   2.018  11.785 -1.4055  0.9637 -1.1441
   78MPD1     C 1188   1.227   3.715   1.621 -0.3364  0.0198 -0.7983
   78MPD1    C1 1189   1.343   3.682   1.690 -0.3927  0.3812  0.7348
   78MPD1    C2 1190   1.417   3.573   1.649  0.2361 -0.0365 -0.4803
   78MPD1    C3 1191   1.379   3.506   1.533  0.3719 -0.7514  0.6880
   78MPD1    C4 1192   1.266   3.541   1.471 -0.3942 -0.0110  0.1975
   78MPD1    C5 1193   1.190   3.644   1.513  0.3606  0.3569  0.1673
   78MPD1     H 1194   1.513   3.545   1.689 -0.8951  0.1745  2.4138
   78MPD1    H1 1195   1.227   3.497   1.380  0.5482 -0.8562  0.1921
   78MPD1    H2 1196   1.150   3.779   1.663 -0.4188 -0.5944  0.0014
   78MPD1    H3 1197   1.092   3.663   1.469  0.9464  1.3700 -0.7076
   78MPD1     N 1198   1.446   3.392   1.479  0.0586 -0.9892 -0.4581
   78MPD1    H5 1199   1.403   3.361   1.391 -0.9123 -1.0595  0.0359
   78MPD1    N1 1200   1.356   3.742   1.819  0.0666 -0.6563 -0.3093
   78MPD1    H6 1201   1.329   3.840   1.822  0.3444 -0.5499 -1.0823
   78MPD1    H7 1202   1.451   3.726   1.853 -0.5755  0.8685  2.1469
   79TCq2    C1 1203   1.551   3.323   1.536  0.1628 -0.5021  0.1414
   79TCq2    O2 1204   1.600   3.347   1.643 -0.4723 -0.2415 -0.2384
   79TCq2    C2 1205   1.597   3.221   1.447 -0.2070 -0.0473 -0.5426
   79TCq2    C3 1206   1.506   3.170   1.358 -0.7585 -0.1873  0.3188
   79TCq2    C4 1207   1.556   3.083   1.264  1.2091 -0.0666 -0.4786
   79TCq2    C5 1208   1.686   3.043   1.261  0.4778 -0.0096 -0.3413
   79TCq2    C6 1209   1.772   3.091   1.364  0.9995 -0.2777 -0.0505
   79TCq2    C7 1210   1.727   3.184   1.453 -0.8039  0.9475  0.0424
   79TCq2    C8 1211   1.915   3.061   1.365 -0.9518 -0.2648  0.1585
   79TCq2    O4 1212   1.978   3.102   1.459 -0.3835  0.7750  0.2997
   79TCq2    C9 1213   1.477   3.025   1.167  0.0292 -0.2947 -0.4883
   79TCq2    O5 1214   1.366   3.075   1.163 -0.4330  0.4814  0.2607
   79TCq2    O6 1215   1.516   2.920   1.116  0.5177 -0.1540  0.3725
   79TCq2    H2 1216   1.399   3.182   1.370 -0.4526  0.2323  2.6270
   79TCq2    H3 1217   1.719   2.968   1.191  0.1161 -0.7718  0.3042
   79TCq2    H4 1218   1.799   3.227   1.522 -1.1626  0.3972  0.7579
   80MPD2     C 1219   3.579   2.212  12.704  0.2348 -0.2868 -0.0395
   80MPD2    C1 1220   3.607   2.244  12.575 -0.4633 -0.6438 -0.6522
   80MPD2    C2 1221   3.499   2.274  12.494  0.0491  0.4537 -0.8208
   80MPD2    C3 1222   3.364   2.273  12.539  0.4088  0.2963  0.4071
   80MPD2    C4 1223   3.344   2.233  12.670 -0.4438 -0.0761 -0.1186
   80MPD2    C5 1224   3.451   2.188  12.744 -0.0196 -0.1189 -0.5169
   80MPD2     H 1225   3.519   2.296  12.390  0.4707  0.0257 -0.8336
   80MPD2    H1 1226   3.252   2.218  12.725 -0.2583  1.5681  0.6274
   80MPD2    H2 1227   3.652   2.173  12.774 -0.3312 -1.6115 -0.1785
   80MPD2    H3 1228   3.434   2.158  12.847 -0.2732 -1.0830 -0.8336
   80MPD2     N 1229   3.253   2.303  12.461 -0.3201 -0.2383  0.6508
   80MPD2    H5 1230   3.166   2.291  12.513 -1.8297 -1.7353 -2.2066
   80MPD2    N1 1231   3.738   2.237  12.520 -0.1603 -0.1327 -0.2760
   80MPD2    H7 1232   3.750   2.268  12.424 -1.6013  0.7963 -0.1653
   81TCq2    C1 1233   3.849   2.182  12.578 -0.1642 -0.5467 -0.4896
   81TCq2    O2 1234   3.868   2.152  12.693  0.0301  0.6127  0.0397
   81TCq2    C2 1235   3.950   2.164  12.473  0.4689 -1.0072 -0.1131
   81TCq2    C3 1236   4.082   2.159  12.504  0.4750 -0.1624  0.4319
   81TCq2    C4 1237   4.166   2.146  12.393  0.3427  0.4715  1.1576
   81TCq2    C5 1238   4.127   2.144  12.264  0.9598  0.0012  0.1642
   81TCq2    C6 1239   3.992   2.137  12.239  0.4144  0.4203 -0.0418
   81TCq2    C7 1240   3.904   2.154  12.342  0.0884 -0.3830 -0.1468
   81TCq2    C8 1241   3.949   2.101  12.110 -0.9613  0.1689 -0.2678
   81TCq2    O4 1242   4.020   2.141  12.017 -0.2169 -0.8598 -0.2354
   81TCq2    C9 1243   4.305   2.121  12.408  0.4711 -0.7422  0.3464
   81TCq2    O5 1244   4.339   2.144  12.531 -0.6140 -0.2012  0.1416
   81TCq2    O6 1245   4.383   2.090  12.312 -0.2040  0.3073 -0.5017
   81TCq2    H2 1246   4.119   2.156  12.606 -0.1338 -1.6267  0.6167
   81TCq2    H3 1247   4.198   2.125  12.185 -0.1014 -0.9396 -0.5756
   81TCq2    H4 1248   3.801   2.138  12.312 -0.1635 -2.1967  1.6889
   82MPD2     C 1249   2.141   2.268  10.737  0.2822 -0.0330  0.1091
   82MPD2    C1 1250   2.050   2.164  10.715  0.0928 -0.5316  0.4478
   82MPD2    C2 1251   2.070   2.054  10.787 -0.3997  0.3679  0.8253
   82MPD2    C3 1252   2.172   2.044  10.882  0.4172 -0.1316 -0.9409
   82MPD2    C4 1253   2.259   2.151  10.902 -0.0476  0.3550  0.4682
   82MPD2    C5 1254   2.246   2.262  10.825 -0.4855 -0.4644  0.5554
   82MPD2     H 1255   2.010   1.965  10.778 -2.1406  1.5771  0.5925
   82MPD2    H1 1256   2.337   2.154  10.978 -0.6981  3.8924  0.9925
   82MPD2    H2 1257   2.115   2.359  10.684  0.1245 -1.0791 -1.5855
   82MPD2    H3 1258   2.309   2.350  10.833 -0.3861 -0.4444 -0.4399
   82MPD2     N 1259   2.201   1.933  10.962 -0.2148 -0.6044  0.3914
   82MPD2    H5 1260   2.269   1.939  11.036 -1.3797 -4.2331  1.7581
   82MPD2    N1 1261   1.945   2.180  10.621  0.2779 -0.1446  0.0821
   82MPD2    H7 1262   1.933   2.271  10.579 -0.2017  0.7299  2.0766
   83TCq2    C1 1263   2.141   1.810  10.950  0.3143  0.0779 -0.4315
   83TCq2    O2 1264   2.073   1.770  10.855  0.3020 -0.0748 -0.7354
   83TCq2    C2 1265   2.183   1.718  11.055  0.5710 -0.2665 -0.2959
   83TCq2    C3 1266   2.285   1.748  11.141  0.1457  0.2686  0.0850
   83TCq2    C4 1267   2.352   1.642  11.198  0.4898 -0.1593 -0.0799
   83TCq2    C5 1268   2.309   1.509  11.184 -0.2249  0.9209  0.3255
   83TCq2    C6 1269   2.207   1.485  11.091  0.3123 -0.6887  0.1197
   83TCq2    C7 1270   2.139   1.592  11.033 -0.1449 -0.2881 -0.8740
   83TCq2    C8 1271   2.141   1.355  11.101  0.1880  0.1822  0.5481
   83TCq2    O4 1272   2.169   1.289  11.199  0.4068 -0.0416 -0.3870
   83TCq2    C9 1273   2.467   1.679  11.283 -0.3799  0.2144 -0.5383
   83TCq2    O5 1274   2.521   1.584  11.344  0.1097  0.2029  0.8915
   83TCq2    O6 1275   2.456   1.796  11.330 -0.0058  0.0554 -0.2623
   83TCq2    H2 1276   2.313   1.851  11.157 -1.5169  0.9437 -1.4276
   83TCq2    H3 1277   2.373   1.426  11.211  0.3985  0.6580 -1.9211
   83TCq2    H4 1278   2.055   1.585  10.965 -0.6825  0.6837 -0.3052
   84TCq2    C1 1279   4.260   0.193  10.911 -0.3248  0.3406  0.7537
   84TCq2    O2 1280   4.203   0.301  10.918  0.0075 -0.3964  1.0243
   84TCq2    C2 1281   4.201   0.092  10.989  0.8157  0.1223 -0.1754
   84TCq2    C3 1282   4.192   4.681  10.939 -0.0829  0.6722  0.4930
   84TCq2    C4 1283   4.094   4.600  10.995  0.4370  0.1091  0.1633
   84TCq2    C5 1284   4.015   4.645  11.099 -0.3901 -0.2858  0.2175
   84TCq2    C6 1285   4.029   0.051  11.140 -0.4257 -0.6144  0.1658
   84TCq2    C7 1286   4.119   0.139  11.087 -0.1608 -0.7164  0.0011
   84TCq2    C8 1287   3.912   0.110  11.204 -0.0024  0.4263 -0.3640
   84TCq2    O4 1288   3.818   0.144  11.133 -0.8512  0.1253 -0.0614
   84TCq2    C9 1289   4.070   4.464  10.946  0.6273  0.0211  0.4313
   84TCq2    O5 1290   4.129   4.430  10.842 -0.0265 -0.5182  0.0945
   84TCq2    O6 1291   3.983   4.398  11.008  0.0148  0.1843 -0.0063
   84TCq2    H2 1292   4.248   4.639  10.857 -0.8763  3.0933 -1.3047
   84TCq2    H3 1293   3.930   4.588  11.134 -1.9500  0.7415 -1.8598
   84TCq2    H4 1294   4.106   0.244  11.110  0.6369  0.0373 -2.9299
   85MPD2     C 1295   3.692   2.749  16.545 -0.7952  0.0464 -0.1671
   85MPD2    C1 1296   3.608   2.724  16.438 -0.0229  0.1424 -0.2569
   85MPD2    C2 1297   3.651   2.786  16.315 -0.7758 -0.7554 -0.0906
   85MPD2    C3 1298   3.751   2.879  16.309 -0.0674  0.4519 -0.4678
   85MPD2    C4 1299   3.824   2.908  16.420  0.3281 -0.4060  0.1647
   85MPD2    C5 1300   3.790   2.840  16.532  0.3126 -0.3374  0.2499
   85MPD2     H 1301   3.600   2.775  16.221  0.9403 -2.4130 -0.8339
   85MPD2    H1 1302   3.914   2.969  16.427  1.0705 -1.3702 -0.8381
   85MPD2    H2 1303   3.682   2.715  16.648  0.9086  1.1493  0.3675
   85MPD2    H3 1304   3.841   2.865  16.624  0.5897  1.9708 -0.5417
   85MPD2     N 1305   3.781   2.941  16.181  0.0505 -0.4271 -0.1624
   85MPD2    H5 1306   3.736   2.898  16.101  1.9383 -2.3046 -0.2273
   85MPD2    N1 1307   3.486   2.657  16.448 -0.0109  0.1520 -0.4068
   85MPD2    H7 1308   3.427   2.656  16.365 -1.4099 -0.7935  0.5920
   86TCq2    C1 1309   3.875   3.043  16.167 -0.0496 -1.0244 -0.0116
   86TCq2    O2 1310   3.945   3.103  16.250  0.1943 -0.4675 -0.3874
   86TCq2    C2 1311   3.892   3.074  16.023  0.3715  0.5239 -0.4945
   86TCq2    C3 1312   3.781   3.085  15.945 -0.2377  0.6777 -0.2995
   86TCq2    C4 1313   3.811   3.119  15.812 -0.3820  0.1192  0.3111
   86TCq2    C5 1314   3.934   3.106  15.757  0.5284 -0.3309 -0.3327
   86TCq2    C6 1315   4.040   3.101  15.840  0.3934  0.4910  0.1560
   86TCq2    C7 1316   4.018   3.089  15.975  0.6568  0.6994 -0.0654
   86TCq2    C8 1317   4.161   3.039  15.797 -0.4997  0.4507  0.6979
   86TCq2    O4 1318   4.231   2.977  15.871  0.4082 -0.5580 -0.2604
   86TCq2    C9 1319   3.700   3.135  15.720  0.0396  0.1954  0.5498
   86TCq2    O5 1320   3.584   3.128  15.759 -0.0460 -0.3251  0.0962
   86TCq2    O6 1321   3.735   3.134  15.601 -0.5013  0.2620  0.0655
   86TCq2    H2 1322   3.683   3.069  15.988 -0.1134 -2.1654 -1.0724
   86TCq2    H3 1323   3.947   3.112  15.650 -2.6352 -0.3517 -0.7263
   86TCq2    H4 1324   4.100   3.087  16.046 -1.1558 -0.7148  1.9731
   87MPD2     C 1325   0.250   2.309   1.112 -0.0512  0.5844  0.0888
   87MPD2    C1 1326   0.327   2.223   1.037 -0.4394 -0.0738 -0.0018
   87MPD2    C2 1327   0.289   2.189   0.908 -0.0602 -0.7029 -0.0703
   87MPD2    C3 1328   0.180   2.246   0.848 -0.3709 -0.2361  0.7478
   87MPD2    C4 1329   0.106   2.335   0.919 -0.3091  0.2158  0.0571
   87MPD2    C5 1330   0.143   2.369   1.046 -0.4619  0.3585 -0.5438
   87MPD2     H 1331   0.361   2.125   0.858  1.8779 -1.1943  3.3606
   87MPD2    H1 1332   0.015   2.380   0.879 -0.8951 -1.7730 -0.8638
   87MPD2    H2 1333   0.278   2.341   1.212  1.3966  0.1187 -0.1615
   87MPD2    H3 1334   0.085   2.443   1.100  0.1343 -0.0279  0.6232
   87MPD2     N 1335   0.133   2.220   0.714  1.3710  0.0737  0.0231
   87MPD2    H5 1336   0.065   2.288   0.682  0.2461 -0.7834  0.6206
   87MPD2    N1 1337   0.448   2.175   1.102  0.7526  0.7765 -0.8376
   87MPD2    H7 1338   0.463   2.211   1.195 -3.2874 -1.2675  0.5932
   88TCq2    C1 1339   0.534   2.079   1.050 -0.1086 -0.6842  0.4082
   88TCq2    O2 1340   0.541   2.032   0.934 -0.8943 -0.1333  0.1321
   88TCq2    C2 1341   0.633   2.030   1.142 -0.7196 -0.3252  0.2245
   88TCq2    C3 1342   0.610   2.044   1.281 -0.3140 -1.0268  0.3961
   88TCq2    C4 1343   0.696   1.977   1.365  0.7272  0.1464  0.3219
   88TCq2    C5 1344   0.785   1.886   1.324 -0.3734 -0.3323 -0.5570
   88TCq2    C6 1345   0.807   1.874   1.189  0.1322 -0.5263 -0.0480
   88TCq2    C7 1346   0.735   1.951   1.098 -0.2925  0.4355  0.2819
   88TCq2    C8 1347   0.929   1.812   1.136 -0.1042  0.4207  0.1842
   88TCq2    O4 1348   0.966   1.831   1.025  0.1805 -0.1846  0.2993
   88TCq2    C9 1349   0.676   1.992   1.508  0.5598 -0.8009  0.0476
   88TCq2    O5 1350   0.586   2.069   1.544 -0.2324 -0.2969  0.9107
   88TCq2    O6 1351   0.733   1.909   1.585 -0.2971  0.6115 -0.2017
   88TCq2    H2 1352   0.526   2.094   1.330  0.4568 -0.1779  0.8522
   88TCq2    H3 1353   0.838   1.827   1.399 -0.8009 -1.1309 -0.8788
   88TCq2    H4 1354   0.756   1.959   0.991  0.9613 -3.3716  0.2588
   89MPD2     C 1355   2.770   4.689   2.086  0.3227 -0.0327 -0.6071
   89MPD2    C1 1356   2.715   0.088   2.136 -0.0417  0.4050 -0.4291
   89MPD2    C2 1357   2.802   0.192   2.162  0.9138 -0.3507 -0.1598
   89MPD2    C3 1358   2.936   0.185   2.130  0.0934 -0.6038  0.0043
   89MPD2    C4 1359   2.991   0.073   2.077 -0.2987 -0.5649 -0.5935
   89MPD2    C5 1360   2.904   4.683   2.053 -0.0663  0.2815  0.0020
   89MPD2     H 1361   2.759   0.289   2.189  2.5414  0.8762 -2.0453
   89MPD2    H1 1362   3.093   0.071   2.039 -0.3414  0.0907 -0.7320
   89MPD2    H2 1363   2.716   4.598   2.061 -0.2130 -0.5786  2.5451
   89MPD2    H3 1364   2.942   4.594   2.003  2.2572  1.9425 -1.1996
   89MPD2     N 1365   3.014   0.287   2.186  0.5533  0.7420  0.1870
   89MPD2    H5 1366   2.966   0.346   2.253 -0.2039  0.7268 -0.3460
   89MPD2    N1 1367   2.577   0.104   2.147 -0.2174 -0.3851  0.1767
   89MPD2    H7 1368   2.546   0.179   2.208  1.1522  0.4037 -0.0932
   90TCq2    C1 1369   3.143   0.322   2.152  0.0949 -0.0766 -0.1420
   90TCq2    O2 1370   3.208   0.299   2.055  0.3681 -0.1530 -0.0849
   90TCq2    C2 1371   3.190   0.420   2.246  0.2345  0.1304 -0.0436
   90TCq2    C3 1372   3.135   0.420   2.374  0.0060 -0.1702 -0.0671
   90TCq2    C4 1373   3.201   0.490   2.475 -0.1397 -0.1461 -0.3399
   90TCq2    C5 1374   3.318   0.559   2.449  0.5295  0.6228 -0.0388
   90TCq2    C6 1375   3.367   0.550   2.323  0.4466 -0.3828 -1.1143
   90TCq2    C7 1376   3.306   0.482   2.219  0.0725  0.3023  0.0859
   90TCq2    C8 1377   3.490   0.627   2.293 -0.1245 -0.5404  0.5624
   90TCq2    O4 1378   3.542   0.686   2.392  0.0963  0.5241 -0.8473
   90TCq2    C9 1379   3.147   0.485   2.608  0.4848  0.0946  0.0470
   90TCq2    O5 1380   3.034   0.439   2.637 -0.4952  0.0773 -0.5476
   90TCq2    O6 1381   3.209   0.555   2.691 -0.5017 -0.1059 -0.8287
   90TCq2    H2 1382   3.044   0.371   2.406 -0.8522  2.0120  0.8314
   90TCq2    H3 1383   3.369   0.612   2.529 -0.7044  0.7024  0.7011
   90TCq2    H4 1384   3.360   0.451   2.130 -0.7287  0.4089 -0.4407
   91TMC2    C1 1385   4.110   3.941  16.289  0.5340 -0.1737  0.1788
   91TMC2    C2 1386   4.162   3.976  16.172  0.2085  0.0412  0.2330
   91TMC2    C3 1387   4.090   3.949  16.064  0.0789 -0.1310 -0.2794
   91TMC2    C4 1388   3.991   3.871  16.296  0.5864  0.4356  0.0728
   91TMC2    C5 1389   3.916   3.855  16.182  0.1302 -0.0022 -0.2162
   91TMC2    C6 1390   3.960   3.896  16.063 -0.6331 -0.8705 -0.1287
   91TMC2     C 1391   4.194   3.942  16.406  0.3293  0.2549 -0.6696
   91TMC2     O 1392   4.192   3.842  16.473  0.0022  0.1136  0.3721
   91TMC2     H 1393   4.262   4.017  16.162  0.1584  0.5195  1.6468
   91TMC2    H1 1394   3.944   3.854  16.392  2.0443  0.3697  0.7727
   91TMC2    H2 1395   3.908   3.884  15.969  1.6617  0.9657 -1.6331
   91TMC2    C7 1396   3.790   3.790  16.196  0.2909 -0.2891  0.2827
   91TMC2    C8 1397   4.126   3.996  15.934  0.1210 -0.1811  0.6596
   91TMC2    O1 1398   3.759   3.777  16.315 -0.5282 -0.1898  0.1490
   91TMC2    O2 1399   4.046   4.050  15.855  0.5948 -0.1466 -0.6066
   91TMC2    O5 1400   4.262   4.003  15.928 -0.0187 -0.2604  0.4583
   91TMC2    H5 1401   4.289   3.935  15.993  0.3066 -1.8548 -1.3200
   92MPD2     C 1402   4.421   3.982  16.602 -0.8599  0.4730  0.0781
   92MPD2    C1 1403   4.375   4.076  16.517  0.2671 -0.4060 -0.0083
   92MPD2    C2 1404   4.450   4.188  16.508 -0.2707  0.4572  0.6809
   92MPD2    C3 1405   4.575   4.202  16.565  0.1326 -0.0860  0.6259
   92MPD2    C4 1406   4.619   4.105  16.651  0.2929  0.1243  0.0222
   92MPD2    C5 1407   4.542   3.994  16.668  0.2533 -0.4469 -1.1867
   92MPD2     H 1408   4.415   4.262  16.438 -0.4684  0.5493  0.8790
   92MPD2    H1 1409   4.710   4.110  16.711 -1.0202 -1.4591  2.1602
   92MPD2    H2 1410   4.375   3.885  16.612 -2.2474  1.0173 -0.9624
   92MPD2    H3 1411   4.572   3.919  16.741 -0.7361 -0.8124 -1.1464
   92MPD2     N 1412   4.650   4.310  16.520  0.0536  0.0379 -0.1276
   92MPD2    H5 1413   4.607   4.384  16.466  2.7559  0.2875 -1.9450
   92MPD2    N1 1414   4.272   4.056  16.419  0.2969 -0.6926 -0.1245
   92MPD2    H7 1415   4.244   4.144  16.377 -2.0633 -0.6792  1.4544
   93MPD2     C 1416   0.830   4.130  13.660  0.5549  0.0399  0.2295
   93MPD2    C1 1417   0.808   4.235  13.750 -0.1923 -0.1442 -0.0148
   93MPD2    C2 1418   0.676   4.268  13.777 -0.3161  0.0905  0.2311
   93MPD2    C3 1419   0.573   4.188  13.724 -0.5568  0.3670 -0.2478
   93MPD2    C4 1420   0.599   4.081  13.641  0.0647 -0.5526 -0.1081
   93MPD2    C5 1421   0.728   4.051  13.611  0.0822 -0.5916 -0.3441
   93MPD2     H 1422   0.652   4.352  13.840 -1.7433  0.0398 -0.2367
   93MPD2    H1 1423   0.524   4.012  13.604 -0.9167 -0.0094  0.8725
   93MPD2    H2 1424   0.932   4.107  13.632  1.2247  0.6831  2.1600
   93MPD2    H3 1425   0.738   3.957  13.558 -0.5272 -0.4345 -0.7361
   93MPD2     N 1426   0.438   4.226  13.722  0.7128 -0.0460  0.0292
   93MPD2    H5 1427   0.385   4.182  13.648  1.0044  1.3541 -1.0257
   93MPD2    N1 1428   0.907   4.332  13.787  0.3335 -0.0750 -0.5303
   93MPD2    H7 1429   0.877   4.415  13.836 -0.3967  0.0405 -1.1573
   94TCq2    C1 1430   1.039   4.324  13.783 -0.0108 -0.8541  0.4506
   94TCq2    O2 1431   1.105   4.225  13.746 -0.0331 -1.0044 -0.2699
   94TCq2    C2 1432   1.098   4.439  13.834  0.0826  0.6661 -0.4212
   94TCq2    C3 1433   1.031   4.555  13.875 -0.2189 -0.7102  0.0065
   94TCq2    C4 1434   1.096   4.679  13.878 -0.9568  0.4930 -0.5362
   94TCq2    C5 1435   1.227   4.686  13.841 -0.1137 -0.6700 -0.4305
   94TCq2    C6 1436   1.290   4.583  13.789 -0.2002  0.2744  0.5133
   94TCq2    C7 1437   1.232   4.463  13.799 -0.3439  0.5725  0.1137
   94TCq2    C8 1438   1.427   4.598  13.735  0.6795 -0.7288  0.1892
   94TCq2    O4 1439   1.470   4.503  13.676  0.3820 -0.3318  0.2166
   94TCq2    C9 1440   1.026   0.079  13.925  1.0624  0.0507 -0.5447
   94TCq2    O5 1441   0.903   0.069  13.933 -0.0510 -0.4841 -0.2111
   94TCq2    O6 1442   1.101   0.176  13.952 -0.4760  0.1941 -0.5081
   94TCq2    H2 1443   0.927   4.547  13.905 -0.2192  1.6263  0.6121
   94TCq2    H3 1444   1.269   0.066  13.843  1.3471 -1.3261  1.4498
   94TCq2    H4 1445   1.288   4.375  13.771 -0.8875  0.8021 -1.6637
   95TMC2    C1 1446   0.918   0.548  15.790 -0.4599  0.7496  0.1416
   95TMC2    C2 1447   1.023   0.460  15.810  0.4195  0.3843 -0.2593
   95TMC2    C3 1448   1.059   0.411  15.939 -0.2652  0.1538 -0.3073
   95TMC2    C4 1449   0.853   0.592  15.908 -0.3234 -0.1448 -0.4977
   95TMC2    C5 1450   0.890   0.550  16.038  0.0052  0.4210  0.2573
   95TMC2    C6 1451   1.005   0.469  16.053 -0.0137 -0.8797  0.6939
   95TMC2     C 1452   0.950   0.657  15.707 -0.0370  0.0261 -0.5301
   95TMC2     O 1453   0.888   0.761  15.712  0.6968 -0.3807  0.0678
   95TMC2     H 1454   1.050   0.404  15.722  2.3527  0.7065  0.1375
   95TMC2    H1 1455   0.771   0.661  15.895 -0.6534 -0.5797 -0.7168
   95TMC2    H2 1456   1.027   0.430  16.152 -1.0528  0.5089  1.4685
   95TMC2    C7 1457   0.842   0.625  16.157 -0.5348 -0.4210  0.5928
   95TMC2    C8 1458   1.142   0.300  15.960  0.1797 -0.1265 -0.3699
   95TMC2    O1 1459   0.895   0.604  16.268 -0.1406  0.2114 -0.0101
   95TMC2    O2 1460   1.177   0.265  16.072  1.1002 -0.1684 -0.0460
   95TMC2    O5 1461   1.110   0.210  15.861  0.3017 -0.6406 -0.0645
   95TMC2    H5 1462   1.058   0.249  15.787  1.1523 -1.4136 -1.0547
   96MPD2     C 1463   1.256   0.916  15.396  0.6791 -0.5511  0.2528
   96MPD2    C1 1464   1.177   0.954  15.500 -1.0215  0.8840  0.1940
   96MPD2    C2 1465   1.121   0.862  15.584 -0.3518 -0.2183  0.2778
   96MPD2    C3 1466   1.130   0.721  15.554 -1.0605 -0.0249 -0.6522
   96MPD2    C4 1467   1.215   0.683  15.448  0.1941 -0.3118  0.6691
   96MPD2    C5 1468   1.271   0.781  15.369  0.2567 -0.0379  0.6426
   96MPD2     H 1469   1.059   0.891  15.668 -0.4588  0.0260  0.1159
   96MPD2    H1 1470   1.243   0.579  15.431  0.2842 -0.3721  1.1743
   96MPD2    H2 1471   1.313   0.992  15.344 -0.0813  1.0469  1.7727
   96MPD2    H3 1472   1.340   0.756  15.290 -0.2132  1.4526 -0.2348
   96MPD2     N 1473   1.063   0.630  15.632  0.1148  0.6316 -0.5329
   96MPD2    H5 1474   1.099   0.535  15.624 -1.7692  0.0925 -2.9621
   96MPD2    N1 1475   1.175   1.092  15.531 -0.2499  0.0750  0.1505
   96MPD2    H7 1476   1.217   1.156  15.464 -0.4424 -0.9381 -0.9364
   97MPD2     C 1477   3.078   3.459   1.135 -0.7366  0.0380  0.3233
   97MPD2    C1 1478   3.082   3.595   1.125  0.3623 -0.5407  0.2387
   97MPD2    C2 1479   3.054   3.644   0.998 -0.1740 -0.4820 -0.4327
   97MPD2    C3 1480   3.014   3.567   0.894  0.3939  0.2190 -0.2335
   97MPD2    C4 1481   3.004   3.431   0.914  0.1143  0.6888 -0.2791
   97MPD2    C5 1482   3.039   3.373   1.030 -0.2098  0.0169 -0.0308
   97MPD2     H 1483   3.072   3.750   0.980  0.9540 -0.6987 -0.5836
   97MPD2    H1 1484   2.961   3.379   0.829  1.9483 -0.6112 -0.4124
   97MPD2    H2 1485   3.092   3.419   1.235 -0.3828 -0.9043 -0.0943
   97MPD2    H3 1486   3.025   3.266   1.041 -1.7903 -0.0786 -2.9262
   97MPD2     N 1487   2.985   3.619   0.765 -0.4833  0.2548  0.8426
   97MPD2    H5 1488   2.943   3.552   0.701  0.8898 -0.1822  0.3888
   97MPD2    N1 1489   3.109   3.666   1.242 -0.3311  1.0512  0.7896
   97MPD2    H7 1490   3.137   3.605   1.317 -0.5490  0.0570  0.0695
   98TCq2    C1 1491   2.996   3.746   0.719  0.1335  0.1123  0.5530
   98TCq2    O2 1492   3.017   3.852   0.780 -0.6736 -0.6040  0.2145
   98TCq2    C2 1493   2.949   3.749   0.581 -0.3107 -0.0235  0.1464
   98TCq2    C3 1494   2.963   3.640   0.501  0.0628 -0.9212 -0.2684
   98TCq2    C4 1495   2.965   3.659   0.365 -0.7589  0.3678  0.3787
   98TCq2    C5 1496   2.987   3.792   0.314 -0.5654  0.9988  0.1778
   98TCq2    C6 1497   2.978   3.900   0.396  0.0321 -0.3142  0.5924
   98TCq2    C7 1498   2.958   3.883   0.530 -0.1038  0.2944 -0.3723
   98TCq2    C8 1499   3.051   4.019   0.352  0.1612 -0.4262 -0.6443
   98TCq2    O4 1500   3.070   4.089   0.448  0.6273  0.0784 -0.4637
   98TCq2    C9 1501   2.975   3.546   0.274 -0.4110 -0.9037 -0.3372
   98TCq2    O5 1502   2.966   3.572   0.152  0.0420 -0.3244  0.1648
   98TCq2    O6 1503   2.985   3.437   0.328  0.1577  0.0891  0.5265
   98TCq2    H2 1504   2.952   3.538   0.537  0.0099 -0.5975  0.6346
   98TCq2    H3 1505   2.991   3.803   0.207  1.5207 -1.2469  0.0118
   98TCq2    H4 1506   2.948   3.964   0.602 -1.5315 -0.5140  0.3440
   99MPD2     C 1507   2.204   1.257   2.031 -0.5391 -0.3766 -0.4042
   99MPD2    C1 1508   2.071   1.223   1.995 -0.0424 -1.0361  0.0198
   99MPD2    C2 1509   2.047   1.154   1.876  0.0493 -1.0498  0.8539
   99MPD2    C3 1510   2.155   1.118   1.801  0.4731 -0.0685  0.2017
   99MPD2    C4 1511   2.282   1.136   1.850 -0.1339 -0.0275 -0.4879
   99MPD2    C5 1512   2.305   1.209   1.962  0.1504  0.2667 -0.0464
   99MPD2     H 1513   1.947   1.127   1.847  0.1054  0.1413 -0.4636
   99MPD2    H1 1514   2.366   1.091   1.799 -0.8389 -2.8248  0.8138
   99MPD2    H2 1515   2.229   1.304   2.125 -3.1557 -1.5876  0.9130
   99MPD2    H3 1516   2.408   1.222   1.993 -0.2659  3.1849  0.0861
   99MPD2     N 1517   2.126   1.049   1.685  0.1723  0.7142 -0.0414
   99MPD2    H5 1518   2.030   1.019   1.677  0.3734  0.3961 -1.2612
   99MPD2    N1 1519   1.962   1.263   2.075  0.6242 -0.1257 -0.2236
   99MPD2    H7 1520   1.873   1.224   2.047  0.9526 -1.2883  0.3479
  100TCq2    C1 1521   1.973   1.347   2.190  0.2088  0.3429 -0.1177
  100TCq2    O2 1522   2.064   1.411   2.241 -0.1811 -0.2495  0.0253
  100TCq2    C2 1523   1.842   1.361   2.255  0.2027  0.0996 -0.0238
  100TCq2    C3 1524   1.825   1.478   2.318  0.4942 -0.5001 -0.2274
  100TCq2    C4 1525   1.698   1.506   2.361 -0.3033  0.2280 -0.4753
  100TCq2    C5 1526   1.604   1.406   2.360  1.1035  0.1451  0.4399
  100TCq2    C6 1527   1.634   1.282   2.308 -0.8699  0.0223 -0.3527
  100TCq2    C7 1528   1.758   1.256   2.264 -0.0810  0.2308 -0.0570
  100TCq2    C8 1529   1.551   1.168   2.337 -0.1693 -0.2327 -0.4425
  100TCq2    O4 1530   1.484   1.191   2.434 -0.7737  0.5827 -0.4745
  100TCq2    C9 1531   1.656   1.634   2.406  0.0395  0.2373 -0.6188
  100TCq2    O5 1532   1.534   1.649   2.436  0.5313 -0.0523  0.3783
  100TCq2    O6 1533   1.740   1.725   2.404  0.3853 -0.2974  0.1457
  100TCq2    H2 1534   1.890   1.565   2.308 -0.2207  0.1923  1.1515
  100TCq2    H3 1535   1.502   1.422   2.394 -0.0346 -1.6538 -2.1031
  100TCq2    H4 1536   1.796   1.156   2.244 -0.6935 -0.0655  0.2814
  101MPD2     C 1537   2.271   2.127  12.933  0.1927  0.1216  0.2433
  101MPD2    C1 1538   2.174   2.217  12.973 -0.4539 -0.7816  0.0818
  101MPD2    C2 1539   2.099   2.183  13.088 -0.4695 -0.1649 -0.5989
  101MPD2    C3 1540   2.123   2.066  13.154  0.3552 -0.1647 -0.5531
  101MPD2    C4 1541   2.224   1.976  13.113  0.0569  0.1099 -0.6459
  101MPD2    C5 1542   2.300   2.014  13.008  0.2375  0.2301  0.6281
  101MPD2     H 1543   2.024   2.254  13.124  0.2883 -0.5680  1.7909
  101MPD2    H1 1544   2.244   1.878  13.155 -1.5979  0.5220  1.1217
  101MPD2    H2 1545   2.326   2.148  12.842 -0.9017  0.8747 -0.2437
  101MPD2    H3 1546   2.385   1.955  12.975  0.1087 -0.7348  1.9962
  101MPD2     N 1547   2.038   2.033  13.263 -0.1656  0.1177 -0.7035
  101MPD2    H5 1548   1.955   2.092  13.269  0.6708  1.2026  0.2398
  101MPD2    N1 1549   2.169   2.334  12.894  0.3858 -0.6698  0.4214
  101MPD2    H7 1550   2.218   2.324  12.805  0.0614 -2.7111  0.4859
  102TCq2    C1 1551   2.318   2.698  12.607  0.2694 -0.1308  0.1642
  102TCq2    O2 1552   2.396   2.609  12.580 -0.5348  0.4498  0.1143
  102TCq2    C2 1553   2.179   2.666  12.644 -0.2956  0.2170  1.0907
  102TCq2    C3 1554   2.094   2.774  12.667  0.4182 -0.1032 -0.0517
  102TCq2    C4 1555   2.000   2.760  12.762 -0.0445  0.0544 -0.6527
  102TCq2    C5 1556   1.993   2.648  12.838  1.1591 -0.4659 -0.5465
  102TCq2    C6 1557   2.086   2.547  12.818  0.3214 -0.7845  0.1516
  102TCq2    C7 1558   2.180   2.556  12.723 -0.0324  0.1245 -0.0995
  102TCq2    C8 1559   2.090   2.441  12.921  0.7836 -0.7319  0.0586
  102TCq2    O4 1560   1.999   2.447  13.000  0.4857 -0.2761 -0.5813
  102TCq2    C9 1561   1.903   2.864  12.785 -0.4022 -0.4046  0.1387
  102TCq2    O5 1562   1.803   2.836  12.852 -0.3797  0.1165 -0.2255
  102TCq2    O6 1563   1.908   2.970  12.714  0.2046 -0.1438  0.0220
  102TCq2    H2 1564   2.093   2.862  12.604  2.2176 -0.2946 -0.3448
  102TCq2    H3 1565   1.916   2.639  12.914 -0.1343 -0.0893 -1.8204
  102TCq2    H4 1566   2.260   2.484  12.713  1.5579  1.8555  0.3923
  103TMC2    C1 1567   0.647   1.829  12.434 -0.5741  0.2272 -0.0755
  103TMC2    C2 1568   0.694   1.706  12.464 -0.3938  0.5891  0.6289
  103TMC2    C3 1569   0.808   1.707  12.538 -0.8255  0.1267  0.5575
  103TMC2    C4 1570   0.713   1.945  12.471  0.5452 -0.0067 -0.4713
  103TMC2    C5 1571   0.831   1.937  12.535  0.1901 -0.7356 -0.1552
  103TMC2    C6 1572   0.871   1.817  12.586  0.3467 -0.2134 -0.2732
  103TMC2     C 1573   0.538   1.850  12.342 -0.4941 -0.1740 -1.2411
  103TMC2     O 1574   0.535   1.962  12.295  0.2989 -0.7078 -0.9317
  103TMC2     H 1575   0.653   1.615  12.422  0.3647 -0.2510  1.7021
  103TMC2    H1 1576   0.660   2.040  12.465 -1.9973 -1.3356  0.7819
  103TMC2    H2 1577   0.961   1.825  12.647  0.3672 -0.6990 -0.2376
  103TMC2    C7 1578   0.856   2.056  12.616  0.2094  0.0260  0.4463
  103TMC2    C8 1579   0.858   1.582  12.581 -0.6883  0.4762 -0.0456
  103TMC2    O1 1580   0.890   2.027  12.727 -0.5176  0.2620  0.1080
  103TMC2    O2 1581   0.787   1.476  12.583 -0.7014  0.0691 -0.4477
  103TMC2    O5 1582   0.990   1.586  12.596 -0.7005  0.1015 -0.0584
  103TMC2    H5 1583   1.038   1.662  12.557  3.3165 -0.9447  2.8221
  104MPD2     C 1584   0.341   1.575  12.181  0.8614  0.5727 -0.2423
  104MPD2    C1 1585   0.399   1.699  12.197 -0.5471  1.1352 -0.2910
  104MPD2    C2 1586   0.383   1.787  12.096  0.4495  0.0193 -0.2220
  104MPD2    C3 1587   0.338   1.750  11.974 -0.1646 -0.3607  0.1008
  104MPD2    C4 1588   0.265   1.638  11.965  0.3891 -0.5363  0.5802
  104MPD2    C5 1589   0.265   1.555  12.070 -0.1727  0.1221 -0.5376
  104MPD2     H 1590   0.416   1.890  12.099  1.0459 -0.1328 -1.8444
  104MPD2    H1 1591   0.217   1.593  11.879  2.4725 -0.3069 -0.7038
  104MPD2    H2 1592   0.346   1.497  12.256 -2.0471  1.3789  0.8249
  104MPD2    H3 1593   0.221   1.456  12.070 -0.2329  0.1397  1.9517
  104MPD2     N 1594   0.349   1.845  11.871 -0.1544  0.7286 -0.5097
  104MPD2    H5 1595   0.382   1.938  11.897  0.1326 -0.1317  2.1894
  104MPD2    N1 1596   0.470   1.729  12.316 -0.4063  0.0106 -0.0821
  104MPD2    H7 1597   0.494   1.652  12.378 -3.0002  0.1020  1.0415
  105MPD2     C 1598   2.193   1.191   0.348  0.2481 -0.7397 -0.3641
  105MPD2    C1 1599   2.096   1.279   0.293 -0.5836 -0.7425 -0.4106
  105MPD2    C2 1600   2.002   1.333   0.372  0.4301 -0.5271 -0.4339
  105MPD2    C3 1601   1.998   1.312   0.506  0.4958 -1.0966  0.4959
  105MPD2    C4 1602   2.090   1.228   0.564  0.3156 -0.5713  0.6706
  105MPD2    C5 1603   2.188   1.168   0.484  0.0735 -0.0404  0.1547
  105MPD2     H 1604   1.926   1.395   0.326  2.1048  0.9620 -1.1825
  105MPD2    H1 1605   2.105   1.229   0.671 -1.4778 -0.0662  0.9128
  105MPD2    H2 1606   2.277   1.164   0.286 -0.6408  1.8721 -2.6921
  105MPD2    H3 1607   2.271   1.123   0.538 -0.7334  0.6214  1.9306
  105MPD2     N 1608   1.895   1.373   0.575 -0.3429 -0.6008 -0.1547
  105MPD2    H5 1609   1.825   1.425   0.524  1.3931  1.2150 -0.7115
  105MPD2    N1 1610   2.085   1.308   0.154 -0.7512 -0.2859  0.2018
  105MPD2    H7 1611   2.024   1.385   0.126 -1.3809 -0.1775  1.9041
  106TCq2    C1 1612   1.872   1.379   0.708 -0.2518 -0.5535 -0.1046
  106TCq2    O2 1613   1.908   1.295   0.792 -0.5658 -0.1705 -0.6513
  106TCq2    C2 1614   1.780   1.484   0.749 -0.0220 -0.2607 -0.6625
  106TCq2    C3 1615   1.749   1.586   0.666  0.0222  0.0700 -0.6597
  106TCq2    C4 1616   1.660   1.683   0.702  0.8582 -0.8667  0.1084
  106TCq2    C5 1617   1.587   1.670   0.818  0.2264 -0.0914  0.3665
  106TCq2    C6 1618   1.613   1.558   0.892 -0.1537  0.8454 -0.2981
  106TCq2    C7 1619   1.709   1.463   0.862  0.3179  0.5335 -0.3603
  106TCq2    C8 1620   1.531   1.520   1.008  0.3914  0.0051  0.8242
  106TCq2    O4 1621   1.579   1.432   1.081  0.1011 -0.0567 -0.2168
  106TCq2    C9 1622   1.630   1.788   0.607  0.5586 -0.1741 -0.0683
  106TCq2    O5 1623   1.560   1.881   0.648  0.1009 -0.4161 -0.2953
  106TCq2    O6 1624   1.676   1.773   0.491  0.3808 -0.2228  0.0542
  106TCq2    H2 1625   1.806   1.604   0.576  0.8469  0.7203 -0.0052
  106TCq2    H3 1626   1.507   1.740   0.840  0.4212 -0.3601  1.9760
  106TCq2    H4 1627   1.730   1.382   0.931  2.7583  0.8050 -0.7834
  107TMC2    C1 1628   3.233   0.704  11.512 -0.0783  0.3636  0.5877
  107TMC2    C2 1629   3.272   0.733  11.385 -0.3196 -0.5324 -0.0167
  107TMC2    C3 1630   3.363   0.653  11.322  0.6184  0.3240  0.2919
  107TMC2    C4 1631   3.298   0.600  11.579  0.6316  0.2769  0.0921
  107TMC2    C5 1632   3.390   0.521  11.509 -0.0919  0.6902  0.1530
  107TMC2    C6 1633   3.417   0.541  11.379  0.0542 -0.0254 -0.4850
  107TMC2     C 1634   3.143   0.794  11.580  0.1297  0.5506  0.1212
  107TMC2     O 1635   3.095   0.762  11.693  0.1678 -0.1590 -0.2347
  107TMC2     H 1636   3.241   0.821  11.330  0.0060  1.7284  3.4059
  107TMC2    H1 1637   3.270   0.574  11.681  0.7506 -1.2386 -0.2652
  107TMC2    H2 1638   3.491   0.478  11.330 -1.3084 -0.5415 -1.8774
  107TMC2    C7 1639   3.451   0.402  11.578 -0.2976  0.2650  0.0898
  107TMC2    C8 1640   3.390   0.694  11.190 -0.0268  0.4226  0.0228
  107TMC2    O1 1641   3.404   0.365  11.685 -0.7331 -0.4003  0.3482
  107TMC2    O2 1642   3.305   0.721  11.109  0.1359  0.0843  0.3750
  107TMC2    O5 1643   3.514   0.653  11.160  0.3124  0.4837  0.5200
  107TMC2    H5 1644   3.566   0.636  11.242  0.4451  2.7514  0.9065
  108MPD2     C 1645   3.021   1.111  11.460  1.0636 -0.0282  0.6945
  108MPD2    C1 1646   3.019   1.009  11.550 -0.3132 -0.0313 -0.9910
  108MPD2    C2 1647   2.942   1.000  11.662 -0.1662  0.0246 -0.1853
  108MPD2    C3 1648   2.853   1.103  11.682 -0.1796  0.1728  0.1109
  108MPD2    C4 1649   2.854   1.210  11.594  0.1401 -0.2906 -0.1775
  108MPD2    C5 1650   2.939   1.216  11.481  0.4560  0.2242 -0.4222
  108MPD2     H 1651   2.949   0.921  11.736 -0.1221 -0.3803 -0.6273
  108MPD2    H1 1652   2.793   1.299  11.601  0.5488 -0.1229  1.1756
  108MPD2    H2 1653   3.080   1.104  11.369 -0.5625  0.6810 -0.4014
  108MPD2    H3 1654   2.933   1.303  11.417  0.1519  0.7590  0.3268
  108MPD2     N 1655   2.759   1.121  11.791 -0.8149 -0.2845 -0.8628
  108MPD2    H5 1656   2.713   1.211  11.799  0.6829  0.2015  2.1213
  108MPD2    N1 1657   3.118   0.910  11.514  0.2896 -0.1145 -0.2023
  108MPD2    H7 1658   3.179   0.947  11.441 -1.2515 -0.9365 -1.9037
  109MPD2     C 1659   2.977   2.632   2.038  0.2667 -0.3571 -0.4394
  109MPD2    C1 1660   2.901   2.733   1.995  1.1375  0.5567 -0.6661
  109MPD2    C2 1661   2.923   2.855   2.048 -0.1879  0.0840 -0.2338
  109MPD2    C3 1662   3.024   2.873   2.149 -0.0580  0.1058  0.5451
  109MPD2    C4 1663   3.089   2.761   2.200 -0.1638  0.3229 -0.6609
  109MPD2    C5 1664   3.062   2.641   2.142  0.6696 -0.2940 -0.2832
  109MPD2     H 1665   2.895   2.945   1.995  0.7874  0.9994  0.8293
  109MPD2    H1 1666   3.164   2.769   2.278  0.6626  1.1277 -1.5257
  109MPD2    H2 1667   2.966   2.531   1.998 -0.4036  0.4714 -2.3518
  109MPD2    H3 1668   3.123   2.555   2.169  1.9611  0.1154 -1.8531
  109MPD2     N 1669   3.054   2.999   2.203  0.4968  0.4755  0.0712
  109MPD2    H5 1670   3.010   3.079   2.158 -1.2551  0.2426  1.3750
  109MPD2    N1 1671   2.814   2.705   1.889  0.4394 -0.4872 -0.2285
  109MPD2    H7 1672   2.800   2.605   1.879  1.0099 -0.4519 -1.4892
  110TCq2    C1 1673   3.118   3.021   2.320  0.6443  0.1419  0.1200
  110TCq2    O2 1674   3.143   2.951   2.416 -0.6602 -0.2606 -0.0293
  110TCq2    C2 1675   3.134   3.161   2.344  0.5337 -0.1113  0.5089
  110TCq2    C3 1676   3.154   3.193   2.479 -0.5606  0.8143  0.2821
  110TCq2    C4 1677   3.217   3.307   2.504 -0.1467 -0.3023 -0.7223
  110TCq2    C5 1678   3.265   3.383   2.400 -0.1861 -0.1913 -0.5399
  110TCq2    C6 1679   3.250   3.352   2.264  0.0047  0.3768 -0.0430
  110TCq2    C7 1680   3.174   3.236   2.236 -0.6892 -0.2411 -0.1471
  110TCq2    C8 1681   3.272   3.451   2.155  0.0598  0.1669  0.5624
  110TCq2    O4 1682   3.190   3.456   2.062  0.0071 -0.0876 -0.0282
  110TCq2    C9 1683   3.217   3.370   2.630  0.2209 -0.3848  0.6077
  110TCq2    O5 1684   3.250   3.494   2.630  0.1874 -0.0278 -0.6543
  110TCq2    O6 1685   3.163   3.301   2.722  0.1702  0.1701 -0.0917
  110TCq2    H2 1686   3.113   3.131   2.557  1.5447  0.3097  0.9821
  110TCq2    H3 1687   3.306   3.481   2.423 -1.5205 -0.0281  1.1331
  110TCq2    H4 1688   3.158   3.200   2.134 -0.7200  0.9687 -0.5646
  111TMC2    C1 1689   3.094   2.902  11.401  0.5582  0.0967 -0.1229
  111TMC2    C2 1690   3.199   2.925  11.314 -0.1362 -1.0256 -0.1144
  111TMC2    C3 1691   3.323   2.945  11.359  0.2431  0.3063 -0.4446
  111TMC2    C4 1692   3.110   2.892  11.540 -0.0819  0.0678 -0.2375
  111TMC2    C5 1693   3.242   2.912  11.576  0.5362 -0.0402 -0.0821
  111TMC2    C6 1694   3.343   2.954  11.490  0.0443 -0.2210 -0.2557
  111TMC2     C 1695   2.968   2.945  11.351  0.0258  0.5626 -0.0841
  111TMC2     O 1696   2.976   2.985  11.233  0.9868 -0.1216 -0.7393
  111TMC2     H 1697   3.183   2.929  11.207  4.4588  1.8381 -0.6628
  111TMC2    H1 1698   3.041   2.846  11.610  1.8811 -0.7652  1.1428
  111TMC2    H2 1699   3.437   2.991  11.528 -0.9637  2.0466  0.0221
  111TMC2    C7 1700   3.263   2.918  11.718  0.2109  0.0634  0.0107
  111TMC2    C8 1701   3.436   2.979  11.273  0.2636 -0.8276 -0.1785
  111TMC2    O1 1702   3.163   2.903  11.785 -0.4080  0.5512 -0.0540
  111TMC2    O2 1703   3.537   3.039  11.312 -0.2103  0.3996 -0.1771
  111TMC2    O5 1704   3.410   2.921  11.153  0.2658  0.0233  0.3221
  111TMC2    H5 1705   3.340   2.852  11.153 -0.7725  1.0921  0.8853
  112MPD2     C 1706   2.509   3.169  11.400  0.8189 -0.0819 -0.5708
  112MPD2    C1 1707   2.613   3.196  11.317 -0.7379 -1.2245  0.4930
  112MPD2    C2 1708   2.725   3.110  11.325 -0.1478 -0.1688  0.1655
  112MPD2    C3 1709   2.742   3.014  11.426 -0.4383 -0.0411 -0.4854
  112MPD2    C4 1710   2.635   2.996  11.505 -0.7389  0.2472  0.7735
  112MPD2    C5 1711   2.525   3.072  11.494 -0.3500  0.4630  0.5590
  112MPD2     H 1712   2.807   3.125  11.256 -0.9892  0.5455 -0.6829
  112MPD2    H1 1713   2.629   2.923  11.585  0.3507 -1.1615 -0.4409
  112MPD2    H2 1714   2.416   3.224  11.394 -0.3820 -1.9517  0.7344
  112MPD2    H3 1715   2.445   3.037  11.559 -0.2814 -0.0864  0.3493
  112MPD2     N 1716   2.869   2.950  11.447  0.3534 -0.2093  0.1127
  112MPD2    H5 1717   2.887   2.901  11.534 -1.3621 -0.0583  0.5559
  112MPD2    N1 1718   2.617   3.297  11.221  0.3111  0.4249  0.1310
  112MPD2    H7 1719   2.708   3.306  11.178  1.2104 -1.5681  1.6207
  113MPD2     C 1720   1.338   0.800   0.991  0.3082 -0.0388  0.2236
  113MPD2    C1 1721   1.255   0.736   1.075 -0.5959 -0.5661 -0.0297
  113MPD2    C2 1722   1.146   0.682   1.015  0.5925  0.4081 -0.3198
  113MPD2    C3 1723   1.099   0.715   0.886  0.1162  0.1908 -0.4300
  113MPD2    C4 1724   1.185   0.786   0.807  0.2018 -0.4313  0.0615
  113MPD2    C5 1725   1.306   0.815   0.857 -0.6225 -0.2629  0.3010
  113MPD2     H 1726   1.090   0.610   1.074 -0.9359  1.4805 -0.4521
  113MPD2    H1 1727   1.166   0.827   0.708 -1.2536  0.3450  0.6547
  113MPD2    H2 1728   1.428   0.852   1.021 -0.7925  1.0941  1.4924
  113MPD2    H3 1729   1.366   0.867   0.784  0.0678 -0.5640  0.6452
  113MPD2     N 1730   0.975   0.669   0.833  0.6714 -0.0741 -0.2506
  113MPD2    H5 1731   0.943   0.700   0.742  0.8251  1.7868  0.3316
  113MPD2    N1 1732   1.257   0.731   1.215  0.5000  0.4808 -0.7682
  113MPD2    H7 1733   1.182   0.672   1.247 -0.0747  2.7709  2.0532
  114TCq2    C1 1734   0.884   0.587   0.895 -0.7057  0.3359  0.0758
  114TCq2    O2 1735   0.884   0.532   1.005  0.1916 -0.0268  0.6105
  114TCq2    C2 1736   0.763   0.578   0.814  0.4734 -0.1362  0.3279
  114TCq2    C3 1737   0.734   0.681   0.723  0.2645 -0.3676 -0.2150
  114TCq2    C4 1738   0.617   0.664   0.649  0.1830  0.1399 -0.4154
  114TCq2    C5 1739   0.540   0.550   0.655 -0.3462 -0.2108  0.3372
  114TCq2    C6 1740   0.567   0.465   0.758 -0.3462 -0.4984  0.7950
  114TCq2    C7 1741   0.680   0.475   0.838 -0.4212 -0.2990  0.4747
  114TCq2    C8 1742   0.491   0.346   0.769  0.1260 -0.3070 -0.3514
  114TCq2    O4 1743   0.437   0.305   0.668  0.0968 -0.0582  0.1699
  114TCq2    C9 1744   0.593   0.758   0.543 -0.1237  0.0880 -0.0328
  114TCq2    O5 1745   0.697   0.816   0.501 -0.0264  0.1030 -0.0475
  114TCq2    O6 1746   0.478   0.779   0.504 -0.3721 -0.0546  0.0772
  114TCq2    H2 1747   0.791   0.772   0.707  0.6004 -0.5447 -0.0265
  114TCq2    H3 1748   0.449   0.539   0.597 -0.2219 -0.5175  0.2034
  114TCq2    H4 1749   0.713   0.400   0.908  0.4179 -0.5198 -0.1580
  115TMC2    C1 1750   1.371   3.069  17.267  0.4085  0.0815  0.0542
  115TMC2    C2 1751   1.299   3.071  17.154  0.0842  0.1620  0.0953
  115TMC2    C3 1752   1.289   3.194  17.091  0.0341 -0.3067 -0.0238
  115TMC2    C4 1753   1.447   3.174  17.312  0.4957 -0.0655  0.3399
  115TMC2    C5 1754   1.459   3.285  17.230  0.5434  0.2086  0.2957
  115TMC2    C6 1755   1.373   3.297  17.126  0.0048 -0.5111  0.2818
  115TMC2     C 1756   1.404   2.940  17.327 -0.0008  0.6611 -0.2631
  115TMC2     O 1757   1.432   2.854  17.239  0.0233  0.3908 -0.1081
  115TMC2     H 1758   1.237   2.986  17.130  0.6857  0.0636 -1.0829
  115TMC2    H1 1759   1.521   3.146  17.387  2.2033  0.8868 -0.9958
  115TMC2    H2 1760   1.365   3.379  17.056 -1.5610 -0.2096  0.8191
  115TMC2    C7 1761   1.524   3.396  17.300 -0.1772  0.0567 -0.3620
  115TMC2    C8 1762   1.238   3.194  16.953  0.1744 -0.3271 -0.1065
  115TMC2    O1 1763   1.577   3.365  17.406 -0.2552  0.3573  0.2327
  115TMC2    O2 1764   1.287   3.268  16.867 -0.2006 -0.1578 -0.1859
  115TMC2    O5 1765   1.141   3.103  16.933 -0.1995  0.0853 -0.2381
  115TMC2    H5 1766   1.100   3.070  17.016 -0.9375  1.8529  0.0995
  116MPD2     C 1767   1.463   2.618   0.040 -0.7534  0.3786  1.0402
  116MPD2    C1 1768   1.443   2.592  17.589  0.3018  0.0672  0.3022
  116MPD2    C2 1769   1.406   2.687  17.502 -0.0729  0.2529  0.7365
  116MPD2    C3 1770   1.396   2.819  17.545  0.5474 -0.0298 -0.1394
  116MPD2    C4 1771   1.416   2.850  17.680 -0.3405  0.4462  0.1918
  116MPD2    C5 1772   1.441   2.745   0.085 -0.1185  0.1228  0.0155
  116MPD2     H 1773   1.399   2.659  17.398 -0.7443 -0.8850  1.0931
  116MPD2    H1 1774   1.402   2.951   0.034 -0.2721  1.4541 -2.7150
  116MPD2    H2 1775   1.487   2.545   0.116  0.1489 -1.1753 -0.7218
  116MPD2    H3 1776   1.447   2.765   0.192  0.7804 -1.5186  0.2654
  116MPD2     N 1777   1.375   2.931  17.462  0.4999  0.0455 -0.0130
  116MPD2    H5 1778   1.355   3.015  17.515 -1.9572  0.2229 -1.2241
  116MPD2    N1 1779   1.458   2.459  17.548 -0.1321  0.2387  1.0518
  116MPD2    H7 1780   1.482   2.388  17.617 -0.6715  0.4559  1.4604
  117TMC2    C1 1781   0.389   0.109  13.965  0.1317 -0.3780  0.6433
  117TMC2    C2 1782   0.458   0.008  13.899  0.6981  1.0487 -0.2418
  117TMC2    C3 1783   0.571   0.039  13.842  0.1594  0.1403 -0.0803
  117TMC2    C4 1784   0.445   0.231  13.990 -0.0473 -0.3799 -0.1396
  117TMC2    C5 1785   0.558   0.261  13.911  0.7290 -0.3528  0.6033
  117TMC2    C6 1786   0.620   0.165  13.836  0.5866 -0.0152 -1.1878
  117TMC2     C 1787   0.263   0.071  14.039 -0.5342  0.6841 -0.5492
  117TMC2     O 1788   0.230   4.676  14.045 -0.0814  0.0091  0.4626
  117TMC2     H 1789   0.413   4.631  13.881 -0.5530  1.3086  1.4381
  117TMC2    H1 1790   0.408   0.291  14.073  1.2622 -0.2636  0.3573
  117TMC2    H2 1791   0.700   0.187  13.766  1.7458  0.1402  0.1814
  117TMC2    C7 1792   0.654   0.373  13.938 -0.5131 -0.7949 -0.5571
  117TMC2    C8 1793   0.633   4.668  13.747 -0.4141  0.1284 -0.1050
  117TMC2    O1 1794   0.756   0.387  13.871  0.5777 -0.0203 -0.2609
  117TMC2    O2 1795   0.570   4.573  13.701 -0.4771  0.0526 -0.1169
  117TMC2    O5 1796   0.769   4.672  13.744 -0.3234 -0.2431 -0.1451
  117TMC2    H5 1797   0.797   0.007  13.820 -1.4917 -3.2355  2.4452
  118MPD2     C 1798   0.614   0.616  14.202 -0.0258 -0.5899  0.0407
  118MPD2    C1 1799   0.664   0.573  14.085  0.0497 -0.4949 -0.2478
  118MPD2    C2 1800   0.776   0.631  14.028  0.6137  0.1737  0.9700
  118MPD2    C3 1801   0.824   0.746  14.084 -0.3303 -0.6455 -0.2741
  118MPD2    C4 1802   0.768   0.794  14.204 -0.1425  0.7341 -0.3083
  118MPD2    C5 1803   0.660   0.728  14.266 -0.2811 -0.4055 -0.7781
  118MPD2     H 1804   0.813   0.597  13.932 -0.6950 -0.1158  0.5726
  118MPD2    H1 1805   0.821   0.870  14.260  2.9979 -0.4643 -1.6285
  118MPD2    H2 1806   0.524   0.573  14.243 -0.4185 -0.1415 -0.3563
  118MPD2    H3 1807   0.618   0.766  14.358 -0.1517  0.5329 -1.0947
  118MPD2     N 1808   0.937   0.807  14.029  0.1414 -0.6108  0.0722
  118MPD2    H5 1809   0.955   0.905  14.050  0.1705 -0.8868  1.3318
  118MPD2    N1 1810   0.603   0.456  14.035  0.5065 -0.1787  0.3129
  118MPD2    H7 1811   0.515   0.448  14.084  0.0139 -0.5704 -0.6341
  119MPD2     C 1812   2.998   1.526  13.177  0.7891  0.1635  0.3168
  119MPD2    C1 1813   2.902   1.510  13.273  0.4339  0.7396  0.6472
  119MPD2    C2 1814   2.814   1.406  13.264  0.5804 -0.5730  0.0346
  119MPD2    C3 1815   2.801   1.331  13.152 -0.0674 -0.0318 -0.4352
  119MPD2    C4 1816   2.882   1.361  13.047  0.1627  0.4305  0.0927
  119MPD2    C5 1817   2.988   1.445  13.067  0.9010  0.1975  0.5776
  119MPD2     H 1818   2.734   1.386  13.334  0.4172 -1.8227 -0.4982
  119MPD2    H1 1819   2.878   1.307  12.953 -0.8038  2.1546 -0.8394
  119MPD2    H2 1820   3.066   1.610  13.176  1.1557 -0.1314  0.2391
  119MPD2    H3 1821   3.061   1.451  12.987 -2.0766  0.0093 -2.1438
  119MPD2     N 1822   2.700   1.227  13.161  0.3954 -0.5471  0.0653
  119MPD2    H5 1823   2.662   1.212  13.254 -0.1293 -1.3229 -0.2796
  119MPD2    N1 1824   2.902   1.580  13.395 -0.3419  0.0539 -0.0748
  119MPD2    H7 1825   2.828   1.553  13.459 -0.9372 -2.4428 -1.7875
  120TCq2    C1 1826   2.707   1.119  13.074  0.1704  0.1875 -0.0731
  120TCq2    O2 1827   2.795   1.085  12.994  0.0047 -0.0123  0.4614
  120TCq2    C2 1828   2.625   1.011  13.119 -0.3567 -0.5180 -0.0251
  120TCq2    C3 1829   2.697   0.896  13.126 -0.0365 -0.3310 -0.2437
  120TCq2    C4 1830   2.647   0.804  13.210 -0.2446 -0.2069  0.0848
  120TCq2    C5 1831   2.543   0.829  13.298 -0.1263 -0.0590 -0.8709
  120TCq2    C6 1832   2.490   0.957  13.304  0.5373 -0.3289 -0.0426
  120TCq2    C7 1833   2.520   1.044  13.199 -0.0974 -0.1085 -0.1515
  120TCq2    C8 1834   2.482   1.023  13.434  0.1113  0.1170  0.2531
  120TCq2    O4 1835   2.521   1.138  13.430 -0.0303  0.2122  0.3624
  120TCq2    C9 1836   2.709   0.677  13.216  0.3292 -0.0527 -0.5547
  120TCq2    O5 1837   2.805   0.664  13.138 -0.0504 -0.3570  0.3657
  120TCq2    O6 1838   2.668   0.591  13.300 -0.1055  0.2732 -0.3146
  120TCq2    H2 1839   2.789   0.881  13.071  0.6367  2.0603  0.2178
  120TCq2    H3 1840   2.520   0.759  13.376  0.2045  1.5258  0.6520
  120TCq2    H4 1841   2.475   1.142  13.187  1.9689  0.7158 -1.0824
  121TMC2    C1 1842   4.257   2.994  14.250  0.1821 -0.0143  0.0101
  121TMC2    C2 1843   4.261   2.872  14.307  0.0221  0.1340 -0.0729
  121TMC2    C3 1844   4.159   2.781  14.286  0.0287  0.0824  0.5222
  121TMC2    C4 1845   4.144   3.032  14.184 -0.0241  0.4804 -0.6611
  121TMC2    C5 1846   4.028   2.951  14.178  0.0629 -0.7343 -0.2107
  121TMC2    C6 1847   4.042   2.818  14.220  0.5152  0.0887  0.5459
  121TMC2     C 1848   4.371   3.079  14.264  0.4682  0.5213  0.5859
  121TMC2     O 1849   4.412   3.092  14.380 -0.6629  0.0716  0.1394
  121TMC2     H 1850   4.342   2.851  14.376 -0.1989 -1.1733 -0.1974
  121TMC2    H1 1851   4.149   3.125  14.130  1.1148 -0.3228 -1.9362
  121TMC2    H2 1852   3.961   2.746  14.211  1.0981 -0.4465 -0.4045
  121TMC2    C7 1853   3.915   2.989  14.105 -0.6363  0.1903  0.0491
  121TMC2    C8 1854   4.159   2.658  14.355  0.5270 -0.0615 -0.0134
  121TMC2    O1 1855   3.835   2.899  14.091  0.1793  0.0213 -0.4416
  121TMC2    O2 1856   4.053   2.614  14.395  0.1298 -0.0105  0.2603
  121TMC2    O5 1857   4.281   2.601  14.349  0.3980 -0.2165  0.5477
  121TMC2    H5 1858   4.346   2.641  14.287  0.9110 -0.2841  1.0473
  122MPD2     C 1859   4.577   3.303  14.215  0.9138  0.9267  0.1122
  122MPD2    C1 1860   4.528   3.213  14.117  0.3298  0.1745 -0.0976
  122MPD2    C2 1861   4.582   3.225  13.990 -0.3017  0.1002  0.0264
  122MPD2    C3 1862   4.698   3.302  13.968  0.7281 -0.0286 -0.9311
  122MPD2    C4 1863   0.028   3.378  14.070  0.7376  0.8079  0.0822
  122MPD2    C5 1864   4.691   3.374  14.196  1.0805 -0.4259 -0.5180
  122MPD2     H 1865   4.534   3.163  13.914 -0.3129 -0.4192  0.4624
  122MPD2    H1 1866   0.121   3.432  14.058  1.0170  0.3781  0.3268
  122MPD2    H2 1867   4.540   3.296  14.317  0.0721  0.9619 -0.1871
  122MPD2    H3 1868   0.007   3.421  14.288  0.8038  2.0579 -1.6654
  122MPD2     N 1869   0.044   3.319  13.842  0.4204 -0.1506  0.5841
  122MPD2    H5 1870   0.127   3.378  13.845  0.9714 -0.8725 -0.5732
  122MPD2    N1 1871   4.419   3.122  14.138  0.1746  0.0445  0.0650
  122MPD2    H7 1872   4.366   3.099  14.055 -1.6596 -0.1654  1.2811
  123MPD2     C 1873   2.826   1.093  10.475 -0.3034  0.1329 -0.3369
  123MPD2    C1 1874   2.828   1.150  10.352  0.3027 -1.4177 -0.0683
  123MPD2    C2 1875   2.932   1.241  10.320  0.4038  0.4251 -0.1448
  123MPD2    C3 1876   3.042   1.257  10.402 -0.0657  0.2090 -0.1243
  123MPD2    C4 1877   3.038   1.196  10.526  0.0054 -0.1280 -0.2045
  123MPD2    C5 1878   2.932   1.117  10.561  0.3700  0.2205 -0.1120
  123MPD2     H 1879   2.942   1.280  10.219 -1.5451  0.0179 -0.4886
  123MPD2    H1 1880   3.121   1.216  10.591  0.3874 -0.7726 -0.4910
  123MPD2    H2 1881   2.749   1.025  10.509 -1.7182  1.3017 -1.2636
  123MPD2    H3 1882   2.929   1.072  10.659  1.9533 -2.6867 -1.3803
  123MPD2     N 1883   3.150   1.338  10.353  0.4007  0.2349 -0.1521
  123MPD2    H5 1884   3.144   1.380  10.261  1.3989 -1.7807 -1.1454
  123MPD2    N1 1885   2.721   1.123  10.261 -0.1187 -0.6844 -0.7258
  123MPD2    H7 1886   2.661   1.049  10.296  1.2179 -0.2980  2.3809
  124TCq2    C1 1887   3.253   1.380  10.426  0.0121  0.1334  0.4240
  124TCq2    O2 1888   3.297   1.333  10.529 -0.4308  0.2036  0.7287
  124TCq2    C2 1889   3.348   1.465  10.362  0.4252  0.1289 -0.2283
  124TCq2    C3 1890   3.446   1.520  10.438 -0.4693 -0.4484 -1.0226
  124TCq2    C4 1891   3.507   1.635  10.394  0.5924  0.6772  0.5244
  124TCq2    C5 1892   3.475   1.698  10.277 -0.2958 -0.4046  0.3593
  124TCq2    C6 1893   3.392   1.629  10.198  0.2287 -0.3436 -0.4063
  124TCq2    C7 1894   3.327   1.512  10.236  0.4452 -0.2236 -0.2948
  124TCq2    C8 1895   3.351   1.694  10.072  0.4633  0.0309 -0.3217
  124TCq2    O4 1896   3.253   1.643  10.023 -0.1510  0.6558  0.1223
  124TCq2    C9 1897   3.590   1.714  10.485 -0.1131 -0.2741  0.3410
  124TCq2    O5 1898   3.640   1.653  10.583 -0.1686 -0.2313 -0.1652
  124TCq2    O6 1899   3.627   1.831  10.465  0.3060 -0.5278  0.1888
  124TCq2    H2 1900   3.478   1.475  10.532 -0.9282 -1.7013 -1.4701
  124TCq2    H3 1901   3.522   1.793  10.255  1.6733 -1.1147  1.4875
  124TCq2    H4 1902   3.251   1.474  10.169 -1.7839  3.9117 -0.0742
  125TMC2    C1 1903   3.183   3.625   9.747  0.4868  0.5116 -0.2357
  125TMC2    C2 1904   3.172   3.507   9.814 -0.0815 -0.3141 -0.4796
  125TMC2    C3 1905   3.293   3.438   9.820  0.4026 -0.5676  0.3547
  125TMC2    C4 1906   3.309   3.686   9.718  0.0276  0.7526 -0.7668
  125TMC2    C5 1907   3.421   3.612   9.734 -0.5240  0.3133  0.5467
  125TMC2    C6 1908   3.414   3.488   9.781 -1.0565  0.4625  0.3941
  125TMC2     C 1909   3.077   3.717   9.741  0.5182  0.0963 -0.4813
  125TMC2     O 1910   3.101   3.834   9.718  0.7071  0.7396 -0.0515
  125TMC2     H 1911   3.087   3.448   9.846  1.0253 -1.4792  0.3093
  125TMC2    H1 1912   3.313   3.785   9.674  1.0479  0.6470 -0.9161
  125TMC2    H2 1913   3.500   3.427   9.756 -1.0393  0.1484  1.2197
  125TMC2    C7 1914   3.550   3.678   9.692  0.2109  0.2027  0.2059
  125TMC2    C8 1915   3.278   3.293   9.814  0.5613 -0.1529 -0.1082
  125TMC2    O1 1916   3.537   3.756   9.599 -0.2956  0.8167  0.4669
  125TMC2    O2 1917   3.173   3.241   9.801  0.1064 -0.3508  0.0594
  125TMC2    O5 1918   3.391   3.242   9.875  0.1873 -0.0269  0.1301
  125TMC2    H5 1919   3.462   3.306   9.896 -0.8496  0.6558  1.5076
  126MPD1     C 1920   2.602   3.861   9.833  0.7687 -0.9446 -0.7276
  126MPD1    C1 1921   2.619   3.744   9.907 -0.6230 -0.3187  0.8455
  126MPD1    C2 1922   2.742   3.680   9.893 -0.5666  0.7861 -0.1854
  126MPD1    C3 1923   2.842   3.731   9.809 -1.0462  0.6723  0.4223
  126MPD1    C4 1924   2.817   3.836   9.720  0.0425 -0.0862  0.0323
  126MPD1    C5 1925   2.696   3.903   9.739  0.1969 -0.4294 -0.1031
  126MPD1     H 1926   2.769   3.596   9.956 -3.9112 -0.5405 -0.5167
  126MPD1    H1 1927   2.892   3.881   9.656  0.8798 -0.0065  1.0710
  126MPD1    H2 1928   2.512   3.920   9.847  2.7273  2.3784 -2.3203
  126MPD1    H3 1929   2.683   3.992   9.678  0.3866  2.6990  4.3933
  126MPD1     N 1930   2.962   3.661   9.792 -0.7942  0.4694  0.4504
  126MPD1    H5 1931   2.965   3.569   9.834  0.0745 -1.4458 -3.7227
  126MPD1    N1 1932   2.532   3.705  10.006  0.5050  0.5577 -0.0271
  126MPD1    H6 1933   2.526   3.604  10.017  1.3794  0.4174 -0.7675
  126MPD1    H7 1934   2.438   3.742   9.995  0.1018  0.1828  2.1859
  127MPD2     C 1935   0.005   2.573   9.622  0.2573  0.1753 -0.7488
  127MPD2    C1 1936   0.121   2.564   9.700 -0.3692 -0.0365  0.2710
  127MPD2    C2 1937   0.207   2.675   9.703  0.0415  0.0922 -0.1081
  127MPD2    C3 1938   0.185   2.784   9.619 -0.2604 -0.2963 -0.2731
  127MPD2    C4 1939   0.071   2.792   9.546 -0.0606 -0.0371 -0.3095
  127MPD2    C5 1940   4.706   2.686   9.553 -0.3017  0.3505 -0.1183
  127MPD2     H 1941   0.292   2.691   9.770 -0.6684  6.2860 -0.6370
  127MPD2    H1 1942   0.043   2.879   9.488  0.0690 -1.1277 -2.0129
  127MPD2    H2 1943   4.650   2.494   9.627 -2.0903  2.4931  1.0244
  127MPD2    H3 1944   4.610   2.700   9.506 -0.8740 -2.3019  0.2977
  127MPD2     N 1945   0.277   2.892   9.625 -0.3410  0.1525  0.0586
  127MPD2    H5 1946   0.361   2.876   9.679 -1.7021 -2.6837  1.3114
  127MPD2    N1 1947   0.138   2.451   9.784 -0.5525  0.5532 -0.3751
  127MPD2    H7 1948   0.066   2.380   9.783  0.0190 -0.0739  1.3015
  128TCq2    C1 1949   0.240   2.427   9.870 -0.3332 -1.0529 -0.6917
  128TCq2    O2 1950   0.349   2.477   9.864 -0.2498  0.1715 -0.8185
  128TCq2    C2 1951   0.215   2.337   9.981  0.4986 -0.1520  0.5496
  128TCq2    C3 1952   0.321   2.285  10.051  0.2393  0.2031 -0.5300
  128TCq2    C4 1953   0.307   2.191  10.150  0.0305 -0.3014  0.7415
  128TCq2    C5 1954   0.180   2.167  10.190 -0.7225 -0.6017  0.1874
  128TCq2    C6 1955   0.077   2.222  10.128  0.2325 -0.2616 -0.3758
  128TCq2    C7 1956   0.094   2.301  10.016  0.3203  0.1480 -0.4584
  128TCq2    C8 1957   4.662   2.226  10.175 -0.2655 -0.1120 -0.5278
  128TCq2    O4 1958   4.582   2.308  10.137 -0.0469 -0.3127  0.2858
  128TCq2    C9 1959   0.420   2.131  10.217 -0.0160  0.4033  0.7802
  128TCq2    O5 1960   0.535   2.172  10.193 -0.5909  0.2650  1.0149
  128TCq2    O6 1961   0.386   2.067  10.323 -0.4600 -0.1999 -0.3680
  128TCq2    H2 1962   0.424   2.298  10.020 -0.4240  1.0273 -2.4050
  128TCq2    H3 1963   0.168   2.109  10.281 -0.9786  0.9112  1.1238
  128TCq2    H4 1964   0.005   2.346   9.973 -0.1056 -0.1297  0.1374
  129MPD2     C 1965   3.180   2.880   0.804  0.7426 -0.0767 -0.1424
  129MPD2    C1 1966   3.275   2.929   0.895 -0.3840 -0.0986  0.0980
  129MPD2    C2 1967   3.311   3.065   0.891  0.1355  0.0953 -0.3730
  129MPD2    C3 1968   3.261   3.142   0.794 -0.0750 -0.1952 -0.3171
  129MPD2    C4 1969   3.161   3.097   0.711  0.0697 -0.4224  1.0889
  129MPD2    C5 1970   3.117   2.966   0.715 -0.8110 -0.1984  0.5768
  129MPD2     H 1971   3.390   3.096   0.959  0.1811  0.2242 -0.4837
  129MPD2    H1 1972   3.109   3.156   0.637 -1.6994 -2.0680  1.0066
  129MPD2    H2 1973   3.148   2.777   0.803  0.3797  0.0292  0.3051
  129MPD2    H3 1974   3.036   2.932   0.651  0.1414  0.0637 -0.7700
  129MPD2     N 1975   3.296   3.282   0.796 -0.0279 -0.4143 -0.4986
  129MPD2    H5 1976   3.357   3.318   0.868  0.6317 -0.7986 -0.8621
  129MPD2    N1 1977   3.338   2.845   0.982  0.5014 -0.0755  0.0965
  129MPD2    H7 1978   3.408   2.884   1.045  1.1521 -2.3698  0.8086
  130TCq2    C1 1979   3.310   2.708   1.002  0.6233  0.0767  0.0574
  130TCq2    O2 1980   3.223   2.634   0.956  0.5377  0.1426  0.1764
  130TCq2    C2 1981   3.415   2.643   1.084  0.7752 -0.4059 -0.6426
  130TCq2    C3 1982   3.540   2.699   1.103  0.0310 -0.3009  0.2187
  130TCq2    C4 1983   3.628   2.653   1.197  0.2651  0.3110 -0.1318
  130TCq2    C5 1984   3.583   2.570   1.288 -0.4017  0.0325  0.0817
  130TCq2    C6 1985   3.451   2.532   1.282 -0.2763 -0.3623  0.3818
  130TCq2    C7 1986   3.364   2.556   1.173 -0.6888 -1.0586 -0.3554
  130TCq2    C8 1987   3.400   2.427   1.362 -0.5096 -0.0940 -0.0042
  130TCq2    O4 1988   3.312   2.349   1.325  0.0616 -0.5759 -0.2287
  130TCq2    C9 1989   3.768   2.697   1.206  0.0610 -0.7223 -0.3425
  130TCq2    O5 1990   3.797   2.808   1.153 -0.3664  0.0778 -0.2932
  130TCq2    O6 1991   3.837   2.651   1.301 -0.0675  0.1462  0.1710
  130TCq2    H2 1992   3.578   2.769   1.029 -0.7446  0.6000  0.6798
  130TCq2    H3 1993   3.654   2.535   1.362  0.0494 -0.3023 -0.5092
  130TCq2    H4 1994   3.261   2.521   1.176 -0.9534 -0.2616 -0.0806
  131MPD2     C 1995   2.319   1.649   9.546 -0.2490 -0.0833  0.3649
  131MPD2    C1 1996   2.387   1.665   9.665 -0.4072 -1.0861  0.2092
  131MPD2    C2 1997   2.395   1.566   9.764 -0.9236  0.4302 -0.4307
  131MPD2    C3 1998   2.337   1.444   9.736  0.5878  0.4952 -0.3874
  131MPD2    C4 1999   2.276   1.419   9.617 -0.0965  0.1314 -0.1572
  131MPD2    C5 2000   2.266   1.526   9.531 -0.2121 -0.4465 -0.2192
  131MPD2     H 2001   2.443   1.585   9.860 -0.1959 -3.6002 -0.0232
  131MPD2    H1 2002   2.220   1.327   9.602  1.6440 -1.1012  0.8558
  131MPD2    H2 2003   2.299   1.723   9.468 -0.6340 -1.4674 -0.8558
  131MPD2    H3 2004   2.206   1.508   9.443  0.0368  1.1357 -0.7221
  131MPD2     N 2005   2.361   1.345   9.828 -0.3958 -0.1735 -0.5144
  131MPD2    H5 2006   2.419   1.363   9.910  0.2632  0.4504 -1.1111
  131MPD2    N1 2007   2.430   1.795   9.684  0.6486  0.3704  0.2684
  131MPD2    H7 2008   2.427   1.849   9.599 -3.0537  2.0644  1.4802
  132TCq2    C1 2009   2.470   2.274   9.561 -0.1958 -0.0167 -0.3491
  132TCq2    O2 2010   2.407   2.220   9.470  0.0988 -0.5615 -0.2171
  132TCq2    C2 2011   2.533   2.191   9.661 -0.2442  0.1658  0.0149
  132TCq2    C3 2012   2.635   2.238   9.743 -0.0892  0.5451  0.3851
  132TCq2    C4 2013   2.680   2.154   9.840 -0.4751 -0.0335 -0.0078
  132TCq2    C5 2014   2.638   2.024   9.856  0.9460  0.0957 -0.2085
  132TCq2    C6 2015   2.539   1.983   9.770  0.1455  0.1956  0.5172
  132TCq2    C7 2016   2.483   2.062   9.675  0.2469 -0.4565 -0.9832
  132TCq2    C8 2017   2.484   1.847   9.797  0.6497 -0.4269  0.4205
  132TCq2    O4 2018   2.493   1.804   9.912  0.5908  0.0530  0.4093
  132TCq2    C9 2019   2.782   2.208   9.931 -0.9482  0.1627  0.2976
  132TCq2    O5 2020   2.837   2.318   9.900 -0.1594  0.4671  0.2661
  132TCq2    O6 2021   2.811   2.134  10.029 -0.1497 -0.4892  0.1228
  132TCq2    H2 2022   2.674   2.339   9.747 -0.9779  0.9069 -0.0711
  132TCq2    H3 2023   2.684   1.957   9.928  0.5543 -0.0549 -0.0966
  132TCq2    H4 2024   2.395   2.031   9.619 -0.5258  1.8961 -1.0647
  133MPD2     C 2025   1.134   2.903   8.905 -1.0553  0.0729  0.0225
  133MPD2    C1 2026   1.061   3.009   8.955 -0.3764  0.2484  0.3188
  133MPD2    C2 2027   1.130   3.124   9.001 -0.2745 -0.6494  0.1464
  133MPD2    C3 2028   1.268   3.119   9.018  0.1391 -0.1376 -0.4558
  133MPD2    C4 2029   1.333   3.016   8.962  0.1683 -0.1770  0.5994
  133MPD2    C5 2030   1.268   2.915   8.908 -0.1898 -0.0108 -0.7874
  133MPD2     H 2031   1.071   3.194   9.058 -0.3341 -0.6492  0.0839
  133MPD2    H1 2032   1.441   3.006   8.960 -0.0155 -1.6900 -1.0171
  133MPD2    H2 2033   1.089   2.814   8.864  1.3878 -1.1678  0.1056
  133MPD2    H3 2034   1.336   2.837   8.876  1.2913  1.5745 -1.5026
  133MPD2     N 2035   1.342   3.213   9.092  0.4075  0.4284 -0.2566
  133MPD2    H5 2036   1.442   3.200   9.100  0.4426 -0.5022 -2.3227
  133MPD2    N1 2037   0.922   2.998   8.948 -0.0905  0.1853 -0.1824
  133MPD2    H7 2038   0.886   2.908   8.917 -1.0397  0.3563  0.3984
  134TCq2    C1 2039   0.822   3.095   8.982  0.1886  0.2785  0.9756
  134TCq2    O2 2040   0.838   3.211   9.008 -0.2301  0.1781  0.2306
  134TCq2    C2 2041   0.686   3.038   8.953 -0.0467  0.6467  0.5722
  134TCq2    C3 2042   0.667   2.903   8.944  0.6686 -0.6061  0.3483
  134TCq2    C4 2043   0.538   2.866   8.909  0.9664  0.3797  0.5795
  134TCq2    C5 2044   0.435   2.958   8.900  0.6785 -0.3179 -0.7635
  134TCq2    C6 2045   0.458   3.092   8.917 -0.1836  0.0650 -0.1335
  134TCq2    C7 2046   0.588   3.132   8.946 -0.6149 -0.2169 -0.0965
  134TCq2    C8 2047   0.360   3.185   8.867 -0.1246  0.5892  0.2519
  134TCq2    O4 2048   0.259   3.125   8.846 -0.0229  0.2515  0.2018
  134TCq2    C9 2049   0.502   2.725   8.887 -0.0637  0.3045 -0.3862
  134TCq2    O5 2050   0.399   2.712   8.815  0.0974  0.3074  0.2201
  134TCq2    O6 2051   0.573   2.638   8.936 -0.2863 -0.2631  0.5384
  134TCq2    H2 2052   0.737   2.820   8.944  0.4143 -0.8281 -2.2712
  134TCq2    H3 2053   0.336   2.923   8.874  0.2215  1.1996 -1.0700
  134TCq2    H4 2054   0.620   3.232   8.973 -3.0587  1.0394 -1.7696
  135MPD2     C 2055   0.100   4.211   9.743 -0.9637 -0.3401  0.2598
  135MPD2    C1 2056   4.712   4.129   9.737 -0.0442 -0.3005  0.5293
  135MPD2    C2 2057   4.700   4.038   9.635 -0.0849  0.2549  0.7831
  135MPD2    C3 2058   0.096   4.018   9.557  0.5472  0.1508  0.2787
  135MPD2    C4 2059   0.208   4.090   9.577  0.1911  0.2108  0.5192
  135MPD2    C5 2060   0.215   4.189   9.671  0.0243 -0.1336  0.6362
  135MPD2     H 2061   4.625   3.963   9.613 -0.9627  1.1247  0.8247
  135MPD2    H1 2062   0.294   4.083   9.511  0.4689  0.1807  0.8852
  135MPD2    H2 2063   0.097   4.285   9.822 -0.0659  1.9950 -1.8871
  135MPD2    H3 2064   0.297   4.259   9.680  0.4411 -0.8720  2.5455
  135MPD2     N 2065   0.098   3.924   9.450  0.0598 -0.5701 -0.1565
  135MPD2    H5 2066   0.193   3.903   9.422  0.4757  0.2319  0.6782
  135MPD2    N1 2067   4.597   4.142   9.825 -0.3226  0.3631  0.8214
  135MPD2    H7 2068   4.512   4.091   9.803 -0.6782  1.1474  0.3729
  136TCq2    C1 2069   4.578   4.237   9.926 -0.2090  0.1107  0.1824
  136TCq2    O2 2070   4.653   4.317   9.983 -0.3285  0.1852 -0.5528
  136TCq2    C2 2071   4.447   4.232   9.978 -0.0716 -0.7155 -0.4492
  136TCq2    C3 2072   4.427   4.268  10.111 -0.1860  0.1430  0.5123
  136TCq2    C4 2073   4.296   4.277  10.153 -0.6667 -0.1704 -0.0905
  136TCq2    C5 2074   4.188   4.243  10.072 -0.0256  0.0581  0.2535
  136TCq2    C6 2075   4.223   4.204   9.943 -0.5584  0.2858  0.0178
  136TCq2    C7 2076   4.351   4.192   9.895  0.3081 -0.2586 -0.1494
  136TCq2    C8 2077   4.125   4.136   9.866 -0.6228  0.0097 -0.3631
  136TCq2    O4 2078   4.130   4.149   9.745  0.0626 -0.3778 -0.5772
  136TCq2    C9 2079   4.277   4.295  10.295  0.6714 -0.1859 -0.6198
  136TCq2    O5 2080   4.156   4.308  10.325  0.0964 -0.2310  0.2077
  136TCq2    O6 2081   4.369   4.253  10.367  0.3653  0.3045  0.4386
  136TCq2    H2 2082   4.509   4.297  10.175 -1.0063  2.7197  0.3884
  136TCq2    H3 2083   4.090   4.251  10.117  0.6890  1.2436  1.6018
  136TCq2    H4 2084   4.367   4.166   9.791  1.8828 -1.0399  0.2950
  137MPD2     C 2085   4.047   3.411   9.613  0.4733 -0.1403 -0.9174
  137MPD2    C1 2086   3.974   3.292   9.626  0.1475  0.6826 -0.9430
  137MPD2    C2 2087   4.026   3.198   9.709 -0.6328 -0.1140  0.4667
  137MPD2    C3 2088   4.145   3.219   9.782  0.1772 -0.0008  0.0779
  137MPD2    C4 2089   4.229   3.330   9.750  0.3096 -0.3251 -0.1942
  137MPD2    C5 2090   4.169   3.431   9.671 -0.3334 -0.0148 -0.6891
  137MPD2     H 2091   3.978   3.104   9.731 -1.8223  0.9188  2.2647
  137MPD2    H1 2092   4.327   3.345   9.794  0.0330  0.3908  0.1833
  137MPD2    H2 2093   4.012   3.497   9.558 -0.7883  1.6122  2.6758
  137MPD2    H3 2094   4.227   3.522   9.660  0.5152 -0.4105  0.5613
  137MPD2     N 2095   4.187   3.124   9.879 -0.1051  0.1867  0.2908
  137MPD2    H5 2096   4.133   3.039   9.893 -2.2594  1.3016 -1.1322
  137MPD2    N1 2097   3.848   3.288   9.557  0.1961 -0.3469  0.1852
  137MPD2    H7 2098   3.818   3.364   9.497  1.8810 -1.6816 -2.3426
  138TCq2    C1 2099   3.789   3.163   9.534 -0.5796 -0.1461  0.6260
  138TCq2    O2 2100   3.804   3.053   9.588 -0.0401 -0.6606  0.1776
  138TCq2    C2 2101   3.670   3.175   9.451  0.8567  0.3827 -0.2683
  138TCq2    C3 2102   3.625   3.053   9.406 -0.6959 -0.0800 -0.2409
  138TCq2    C4 2103   3.501   3.048   9.352  0.2312 -0.0653 -0.1296
  138TCq2    C5 2104   3.411   3.148   9.355  0.3015  0.0358  0.0508
  138TCq2    C6 2105   3.455   3.272   9.406  0.5907 -1.0981  0.3316
  138TCq2    C7 2106   3.591   3.286   9.443  0.2483 -0.7357 -0.6717
  138TCq2    C8 2107   3.384   3.393   9.405  0.7173 -0.0301 -0.1847
  138TCq2    O4 2108   3.439   3.503   9.403 -0.7661 -0.4691 -0.0311
  138TCq2    C9 2109   3.458   2.923   9.299  0.4380 -0.1707  0.3388
  138TCq2    O5 2110   3.545   2.845   9.257 -0.1341 -0.2949 -0.1781
  138TCq2    O6 2111   3.333   2.895   9.305  0.1753  0.6309  0.0883
  138TCq2    H2 2112   3.678   2.962   9.432 -0.8461 -0.0712  0.0994
  138TCq2    H3 2113   3.315   3.130   9.309 -0.8556 -0.2457  2.5825
  138TCq2    H4 2114   3.627   3.379   9.487  1.1145 -1.0524 -0.7170
  139TMC2    C1 2115   0.011   1.512  13.514  0.7958  0.1993 -0.2168
  139TMC2    C2 2116   0.027   1.509  13.380 -0.0963  0.5874  0.6432
  139TMC2    C3 2117   4.658   1.579  13.299 -0.2205 -0.1229 -0.0963
  139TMC2    C4 2118   4.627   1.586  13.574  0.3399  0.0840  0.1352
  139TMC2    C5 2119   4.546   1.659  13.487 -0.1709 -0.2921  0.4896
  139TMC2    C6 2120   4.562   1.658  13.349 -0.3869  0.2601 -0.5864
  139TMC2     C 2121   0.099   1.430  13.601 -0.2563  0.0167  0.5046
  139TMC2     O 2122   0.200   1.393  13.547  0.0989 -0.3023 -0.8973
  139TMC2     H 2123   0.104   1.456  13.326  0.0569  0.9059  0.5519
  139TMC2    H1 2124   4.609   1.593  13.680 -0.0799  1.4374 -0.0352
  139TMC2    H2 2125   4.498   1.721  13.288 -2.6395 -2.7726 -1.3222
  139TMC2    C7 2126   4.446   1.740  13.551 -0.1475 -0.5430 -1.0493
  139TMC2    C8 2127   4.650   1.527  13.163 -0.6412  0.7117 -0.6684
  139TMC2    O1 2128   4.438   1.735  13.673  0.2712 -0.0690  0.1070
  139TMC2    O2 2129   4.662   1.406  13.136 -0.6235 -0.3858  0.3585
  139TMC2    O5 2130   4.592   1.621  13.081  0.3452  0.1111  0.1803
  139TMC2    H5 2131   4.598   1.717  13.102 -1.6616 -0.1861  2.1042
  140MPD2     C 2132   4.677   1.202  13.859  0.1014 -0.0761  0.7434
  140MPD2    C1 2133   0.055   1.252  13.774 -0.8592  0.2891  0.3269
  140MPD2    C2 2134   0.171   1.177  13.756  0.5115 -0.2032 -0.3383
  140MPD2    C3 2135   0.204   1.068  13.834  0.2825 -0.4015  0.5424
  140MPD2    C4 2136   0.108   1.019  13.924 -0.8056 -0.1869 -0.2070
  140MPD2    C5 2137   4.705   1.083  13.926 -0.3837  0.0862  0.4637
  140MPD2     H 2138   0.243   1.209  13.682  0.9205  0.0395  0.1604
  140MPD2    H1 2139   0.121   0.932  13.986  3.3627  0.1436 -0.6471
  140MPD2    H2 2140   4.589   1.261  13.881  1.0763  1.4268  0.6188
  140MPD2    H3 2141   4.626   1.057  13.995 -0.1979 -0.3659  0.5103
  140MPD2     N 2142   0.323   0.996  13.808  0.0227  0.4219 -0.3358
  140MPD2    H5 2143   0.385   1.052  13.751  0.1292  0.8266  0.1724
  140MPD2    N1 2144   0.021   1.368  13.696 -0.3408  0.0812 -0.2133
  140MPD2    H7 2145   4.645   1.403  13.705 -0.5326 -0.3944 -0.4267
  141TCq2    C1 2146   0.252   2.605  13.857  0.4632 -0.1040 -0.1814
  141TCq2    O2 2147   0.372   2.630  13.880 -0.7111  0.4892  0.0868
  141TCq2    C2 2148   0.161   2.664  13.961  0.2558 -0.1812  0.0751
  141TCq2    C3 2149   0.022   2.648  13.960 -0.2062 -0.7539  0.3382
  141TCq2    C4 2150   4.665   2.695  14.067  0.7072 -0.0131 -1.3234
  141TCq2    C5 2151   0.006   2.763  14.168  0.3120  0.6077  1.0321
  141TCq2    C6 2152   0.143   2.787  14.164  0.8804  0.0969 -0.3948
  141TCq2    C7 2153   0.220   2.738  14.058  0.4085  0.0769 -0.7817
  141TCq2    C8 2154   0.201   2.859  14.278 -0.2237  0.3046 -0.2089
  141TCq2    O4 2155   0.129   2.876  14.374  0.4893  0.2155 -0.0474
  141TCq2    C9 2156   4.524   2.673  14.072 -0.2105  1.0335  0.2073
  141TCq2    O5 2157   4.474   2.664  14.188 -0.3925  0.4465  0.0555
  141TCq2    O6 2158   4.469   2.649  13.961  0.2147  0.5473  0.2534
  141TCq2    H2 2159   4.695   2.594  13.878 -1.1733  2.2940 -1.1331
  141TCq2    H3 2160   4.666   2.794  14.253  0.0635  1.7722  0.4343
  141TCq2    H4 2161   0.329   2.740  14.058  0.4618 -3.6821 -0.3085
  142MPD2     C 2162   2.584   1.065   9.452 -0.1749  0.7257  0.2676
  142MPD2    C1 2163   2.657   1.090   9.561  0.1125 -0.0346 -0.4380
  142MPD2    C2 2164   2.686   1.221   9.594 -0.3330 -0.2598  0.2260
  142MPD2    C3 2165   2.642   1.324   9.512  0.3940 -0.3606 -0.2913
  142MPD2    C4 2166   2.570   1.289   9.399 -0.9526 -0.0456 -0.5763
  142MPD2    C5 2167   2.543   1.165   9.366 -0.4171 -0.0511 -0.5262
  142MPD2     H 2168   2.748   1.242   9.681 -1.6568 -1.5103  1.4681
  142MPD2    H1 2169   2.527   1.360   9.329  1.4246 -1.5731 -3.5604
  142MPD2    H2 2170   2.566   0.959   9.437  1.3822  0.5396 -0.3294
  142MPD2    H3 2171   2.496   1.145   9.270 -1.9528  1.8525 -0.1474
  142MPD2     N 2172   2.665   1.459   9.527 -0.5994  0.3486 -0.0257
  142MPD2    H5 2173   2.639   1.519   9.450  0.7909  0.3599 -0.4794
  142MPD2    N1 2174   2.694   0.978   9.637 -0.3540  0.6085  0.0789
  142MPD2    H7 2175   2.670   0.889   9.596 -0.8236  0.2929  1.0506
  143TCq2    C1 2176   2.723   1.526   9.631  0.3436 -0.3143  0.4637
  143TCq2    O2 2177   2.755   1.487   9.740  0.3527 -0.1191  0.4682
  143TCq2    C2 2178   2.741   1.675   9.603  0.3110  0.2151 -0.2992
  143TCq2    C3 2179   2.720   1.726   9.478  0.6070  0.2947  0.0672
  143TCq2    C4 2180   2.786   1.841   9.445  0.6777  0.2287  0.6129
  143TCq2    C5 2181   2.869   1.901   9.536 -0.0745  0.2067 -0.4843
  143TCq2    C6 2182   2.887   1.846   9.659 -0.2613 -0.2787  0.6580
  143TCq2    C7 2183   2.823   1.734   9.697  0.6006  0.4270 -0.1165
  143TCq2    C8 2184   2.974   1.897   9.758 -0.3806 -0.4974  0.3685
  143TCq2    O4 2185   2.944   1.878   9.871  0.2730  0.0259  0.0392
  143TCq2    C9 2186   2.764   1.904   9.321 -0.9279 -0.2981 -0.1387
  143TCq2    O5 2187   2.828   2.010   9.294 -0.0118  0.1628 -0.1239
  143TCq2    O6 2188   2.680   1.845   9.247 -0.1287  0.3723 -0.4594
  143TCq2    H2 2189   2.651   1.682   9.407 -1.4771  2.6541  0.6119
  143TCq2    H3 2190   2.901   2.003   9.521  1.9213 -0.3432  0.0048
  143TCq2    H4 2191   2.848   1.684   9.791  0.4635 -0.2261 -0.4254
  144MPD2     C 2192   1.029   0.153   0.916 -0.4603 -0.6340 -0.0191
  144MPD2    C1 2193   1.044   0.045   0.834  0.3492 -0.8275  0.6270
  144MPD2    C2 2194   1.149   4.682   0.864 -1.3091  0.0621 -0.5923
  144MPD2    C3 2195   1.244   4.712   0.970 -0.1826  0.3805 -0.0932
  144MPD2    C4 2196   1.231   0.107   1.040 -0.2945  0.2029  0.2343
  144MPD2    C5 2197   1.125   0.181   1.011 -0.0746  0.4099 -0.8986
  144MPD2     H 2198   1.168   4.593   0.804  1.0176  0.5127 -0.5174
  144MPD2    H1 2199   1.301   0.145   1.113 -1.7447  0.2512  1.6182
  144MPD2    H2 2200   0.951   0.225   0.894 -0.8941 -0.7042  1.2819
  144MPD2    H3 2201   1.102   0.272   1.064 -1.1898  0.2422 -1.0948
  144MPD2     N 2202   1.373   4.655   0.984  0.7540 -0.1269 -0.6107
  144MPD2    H5 2203   1.432   4.683   1.062  1.1800  1.9703 -1.6795
  144MPD2    N1 2204   0.952   0.022   0.727 -0.0432 -0.5159  0.2474
  144MPD2    H7 2205   0.947   4.645   0.694  0.4018 -1.0511  1.7102
  145TCq2    C1 2206   1.434   4.553   0.909 -0.1840 -0.5690  0.1378
  145TCq2    O2 2207   1.387   4.507   0.804 -0.0941 -0.5860  0.2505
  145TCq2    C2 2208   1.564   4.531   0.948  0.4838 -0.3432 -0.7107
  145TCq2    C3 2209   1.630   4.435   0.867 -0.7193  0.9156  0.3407
  145TCq2    C4 2210   1.764   4.423   0.885  0.1037 -0.5528  0.3871
  145TCq2    C5 2211   1.828   4.491   0.984  1.2575  0.0011  0.3248
  145TCq2    C6 2212   1.748   4.562   1.069  0.7350 -0.9029  0.5750
  145TCq2    C7 2213   1.617   4.586   1.059 -0.2087  0.2263 -0.2509
  145TCq2    C8 2214   1.820   4.640   1.166 -0.3342  0.2016  0.9220
  145TCq2    O4 2215   1.932   4.605   1.196 -0.2677 -0.3411  0.2048
  145TCq2    C9 2216   1.843   4.328   0.810 -0.7989 -0.1885  0.7726
  145TCq2    O5 2217   1.969   4.341   0.806 -0.3371  0.8256 -0.0425
  145TCq2    O6 2218   1.783   4.245   0.734 -0.2682 -0.0057 -0.2855
  145TCq2    H2 2219   1.585   4.395   0.776 -4.1044 -0.1276  2.4594
  145TCq2    H3 2220   1.935   4.487   0.999  1.0315 -1.3359  1.6238
  145TCq2    H4 2221   1.558   4.631   1.138 -0.3089  0.2055 -0.3136
  146TMC2    C1 2222   2.291   3.801  12.825  0.3307 -0.9721  0.5701
  146TMC2    C2 2223   2.345   3.915  12.775 -0.1238 -0.5539  0.1444
  146TMC2    C3 2224   2.469   3.906  12.714  0.0816 -0.7091  0.6243
  146TMC2    C4 2225   2.362   3.683  12.829 -0.2998  0.5150  0.5103
  146TMC2    C5 2226   2.488   3.683  12.768 -0.1066  0.0967  0.3433
  146TMC2    C6 2227   2.538   3.793  12.707 -0.3203 -0.0558  0.4879
  146TMC2     C 2228   2.158   3.801  12.888  0.1660 -0.2807 -0.7074
  146TMC2     O 2229   2.088   3.900  12.873 -0.6990  0.3040  0.3305
  146TMC2     H 2230   2.283   4.003  12.764 -0.3307 -0.7794 -0.5369
  146TMC2    H1 2231   2.312   3.591  12.857 -0.7876  0.3090 -1.0175
  146TMC2    H2 2232   2.641   3.803  12.674  0.0850  1.0546  2.1145
  146TMC2    C7 2233   2.572   3.562  12.769  0.1497 -0.3629  0.1778
  146TMC2    C8 2234   2.532   4.023  12.654  0.1265 -0.4381  0.6058
  146TMC2    O1 2235   2.669   3.568  12.693  0.1097  0.3876  0.0490
  146TMC2    O2 2236   2.646   4.019  12.610  0.9733  0.3845  0.4006
  146TMC2    O5 2237   2.467   4.132  12.684  0.0318  0.2780  0.1480
  146TMC2    H5 2238   2.377   4.117  12.719 -0.9151  1.2961 -1.8442
  147MPD2     C 2239   2.750   3.129  12.966 -0.0365 -0.7209 -0.7287
  147MPD2    C1 2240   2.623   3.149  13.020 -0.3072  0.7059  0.1875
  147MPD2    C2 2241   2.545   3.257  12.981  1.0607 -0.1565 -0.2834
  147MPD2    C3 2242   2.605   3.353  12.895 -0.3543 -0.8782 -0.4079
  147MPD2    C4 2243   2.725   3.320  12.832 -0.0360 -0.1750 -0.4623
  147MPD2    C5 2244   2.798   3.208  12.868 -0.7700 -0.4177  0.2465
  147MPD2     H 2245   2.449   3.278  13.025  1.2454  2.2944 -1.0359
  147MPD2    H1 2246   2.768   3.385  12.757 -0.0269  1.2526  0.7886
  147MPD2    H2 2247   2.806   3.041  12.993 -0.1949  0.0122  2.0052
  147MPD2    H3 2248   2.888   3.175  12.817  0.5175  2.7272  0.4428
  147MPD2     N 2249   2.535   3.467  12.861 -0.6652 -0.0459 -0.3059
  147MPD2    H5 2250   2.456   3.486  12.922 -1.0522  1.7340 -1.3301
  147MPD2    N1 2251   2.583   3.053  13.117  0.2598  0.1410 -0.1916
  147MPD2    H7 2252   2.655   2.990  13.150  1.8020  1.6666 -0.6577
  148MPD2     C 2253   2.602   1.603  10.898 -0.1247  0.1021 -0.4130
  148MPD2    C1 2254   2.658   1.722  10.848 -0.7377  0.0934  1.2846
  148MPD2    C2 2255   2.606   1.784  10.735  1.0031  0.1141 -0.0610
  148MPD2    C3 2256   2.490   1.732  10.680  0.6451  0.6544 -0.3401
  148MPD2    C4 2257   2.416   1.628  10.744 -0.0209 -0.0269  0.0678
  148MPD2    C5 2258   2.478   1.563  10.852  0.1085 -0.2160  0.0230
  148MPD2     H 2259   2.654   1.875  10.703  0.4419  0.7224  0.7970
  148MPD2    H1 2260   2.320   1.594  10.706 -0.3129 -0.4752  1.2264
  148MPD2    H2 2261   2.651   1.543  10.974  0.0557 -1.3240 -1.6638
  148MPD2    H3 2262   2.434   1.471  10.889 -0.4519 -0.8475 -2.1905
  148MPD2     N 2263   2.424   1.794  10.575 -0.1916 -0.6989 -0.0491
  148MPD2    H5 2264   2.332   1.757  10.551 -1.2605  2.2186 -0.4032
  148MPD2    N1 2265   2.782   1.769  10.892  0.5676 -0.0741 -0.6293
  148MPD2    H7 2266   2.826   1.834  10.828 -1.8938  1.5547 -0.6460
  149TCq2    C1 2267   2.851   1.739  11.006 -0.1663 -1.0449 -0.8707
  149TCq2    O2 2268   2.828   1.660  11.092  0.8593 -0.1514  0.2527
  149TCq2    C2 2269   2.972   1.828  11.017 -0.9345 -0.2674  0.1896
  149TCq2    C3 2270   2.942   1.956  10.992  0.2879  0.3728  0.2935
  149TCq2    C4 2271   3.046   2.036  10.956  0.2929 -0.2254 -0.8061
  149TCq2    C5 2272   3.172   1.982  10.937 -0.5717  0.1515  0.3140
  149TCq2    C6 2273   3.200   1.849  10.961  0.2233 -0.6004 -0.6054
  149TCq2    C7 2274   3.100   1.772  11.022 -0.0703  1.0048 -0.1111
  149TCq2    C8 2275   3.280   1.779  10.862  0.3218  0.0410 -0.3004
  149TCq2    O4 2276   3.297   1.660  10.869 -0.0602  0.3598  0.4876
  149TCq2    C9 2277   3.014   2.162  10.891 -0.0100 -0.4466 -0.0741
  149TCq2    O5 2278   2.893   2.189  10.874 -0.0033  0.2480  0.0711
  149TCq2    O6 2279   3.114   2.208  10.829  0.3790  0.4839  0.2627
  149TCq2    H2 2280   2.845   2.004  11.003 -0.1328 -0.0443 -1.5511
  149TCq2    H3 2281   3.252   2.048  10.904  1.6243 -1.6044  2.1499
  149TCq2    H4 2282   3.097   1.663  11.024  0.9246  0.9904  0.7313
  150MPD2     C 2283   4.437   1.208  12.126  0.0654  0.2491  1.2123
  150MPD2    C1 2284   4.376   1.329  12.104 -0.1207 -0.3923 -0.8475
  150MPD2    C2 2285   4.438   1.440  12.164 -0.0558  0.3219  0.5812
  150MPD2    C3 2286   4.558   1.430  12.232 -0.0295 -0.1715  0.5105
  150MPD2    C4 2287   4.617   1.311  12.238 -0.7281 -0.2193  0.3046
  150MPD2    C5 2288   4.558   1.202  12.180 -0.3536  0.2547 -0.7820
  150MPD2     H 2289   4.387   1.536  12.163 -0.6093  0.0212 -0.4926
  150MPD2    H1 2290   4.706   1.291  12.297 -1.1952 -0.5010  0.9077
  150MPD2    H2 2291   4.396   1.113  12.092  0.3425  0.0566  1.4234
  150MPD2    H3 2292   4.602   1.104  12.193 -2.3000 -0.7172 -1.5053
  150MPD2     N 2293   4.616   1.548  12.289  0.2562  0.4060  0.3295
  150MPD2    H5 2294   4.560   1.631  12.275  2.4543  2.0088  0.9939
  150MPD2    N1 2295   4.258   1.339  12.022 -0.2892  0.0296  0.1614
  150MPD2    H7 2296   4.232   1.246  11.990  2.2813 -1.4359  2.4168
  151TCq2    C1 2297   0.020   1.558  12.360 -0.2131  0.4582 -1.3981
  151TCq2    O2 2298   0.106   1.475  12.390 -0.1999  0.8546 -0.1105
  151TCq2    C2 2299   0.048   1.690  12.395  0.3230  0.2065  0.6087
  151TCq2    C3 2300   0.001   1.780  12.304 -0.5392 -0.2871  0.5001
  151TCq2    C4 2301   0.043   1.914  12.322 -0.7382 -0.7459 -0.6678
  151TCq2    C5 2302   0.142   1.939  12.414 -0.0494 -0.4107 -1.4017
  151TCq2    C6 2303   0.196   1.839  12.488 -0.0463  0.6141 -0.0175
  151TCq2    C7 2304   0.151   1.713  12.479  0.8369 -0.1940 -0.4745
  151TCq2    C8 2305   0.295   1.873  12.590  0.1526 -0.0882 -0.0630
  151TCq2    O4 2306   0.314   1.988  12.615 -0.0429 -0.2609  0.0207
  151TCq2    C9 2307   4.712   2.024  12.230 -0.2242  0.2790  0.0341
  151TCq2    O5 2308   0.009   2.146  12.265  0.0761 -0.4266 -0.3722
  151TCq2    O6 2309   4.620   1.995  12.149 -0.2682 -0.1464  0.1563
  151TCq2    H2 2310   4.658   1.764  12.218  1.1148 -0.2131 -0.7115
  151TCq2    H3 2311   0.176   2.041  12.422 -0.9681 -0.2619  0.4423
  151TCq2    H4 2312   0.182   1.633  12.545 -1.0783  0.8740  1.7191
  152MPD2     C 2313   3.980   1.001  12.375  0.3397 -0.6379 -0.2558
  152MPD2    C1 2314   3.988   1.140  12.379  0.0552 -0.0917 -0.4091
  152MPD2    C2 2315   3.876   1.214  12.345 -0.6375  0.0980  0.5551
  152MPD2    C3 2316   3.754   1.158  12.316  0.8499 -0.3724 -0.1549
  152MPD2    C4 2317   3.744   1.024  12.324  0.0279 -0.8897  0.3658
  152MPD2    C5 2318   3.854   0.946  12.356  0.3807  0.1018  0.1145
  152MPD2     H 2319   3.894   1.321  12.354 -0.5156  0.2480 -1.3414
  152MPD2    H1 2320   3.654   0.967  12.304 -0.1444 -0.9745  1.3799
  152MPD2    H2 2321   4.065   0.940  12.402  0.1679  0.4080  2.6947
  152MPD2    H3 2322   3.846   0.838  12.362 -1.9132  0.3742  1.8097
  152MPD2     N 2323   3.649   1.256  12.290 -0.0624  0.2439 -0.1686
  152MPD2    H5 2324   3.676   1.353  12.274  0.5922  0.3206  1.3647
  152MPD2    N1 2325   4.115   1.190  12.432  0.2259  0.0130 -0.0450
  152MPD2    H7 2326   4.185   1.119  12.448  0.9044  0.8041  0.4487
  153TCq2    C1 2327   4.154   1.324  12.450  0.0474 -0.0286 -0.6583
  153TCq2    O2 2328   4.097   1.426  12.419 -0.3604 -0.1482  0.2258
  153TCq2    C2 2329   4.297   1.329  12.498  0.0583 -0.7361 -0.1253
  153TCq2    C3 2330   4.371   1.214  12.502  0.0570  0.2973  0.5962
  153TCq2    C4 2331   4.504   1.229  12.535  0.1485  0.3524  0.4288
  153TCq2    C5 2332   4.547   1.346  12.584  0.0502 -0.2490 -0.9943
  153TCq2    C6 2333   4.464   1.453  12.584  0.8365  0.1823 -0.4481
  153TCq2    C7 2334   4.335   1.446  12.544  0.1122  0.0169  0.6902
  153TCq2    C8 2335   4.522   1.582  12.616 -0.0699  0.1552  0.0610
  153TCq2    O4 2336   4.460   1.678  12.573 -0.5883 -0.2832  0.5717
  153TCq2    C9 2337   4.597   1.121  12.515  0.3655  0.0523 -0.4816
  153TCq2    O5 2338   4.554   1.018  12.457  0.4021 -0.6347 -0.5084
  153TCq2    O6 2339   4.715   1.138  12.563 -0.0330 -0.2416  0.1922
  153TCq2    H2 2340   4.343   1.115  12.468  3.7138 -0.4182 -0.3713
  153TCq2    H3 2341   4.653   1.359  12.601 -1.0634  1.4462  4.6898
  153TCq2    H4 2342   4.271   1.534  12.543  0.8828  0.5814  2.0949
  154MPD2     C 2343   1.356   1.532   0.527  0.2599  0.2685 -0.6060
  154MPD2    C1 2344   1.359   1.454   0.641  0.1020 -0.2531  0.1701
  154MPD2    C2 2345   1.250   1.464   0.727  0.0049  0.3816 -0.1458
  154MPD2    C3 2346   1.146   1.554   0.710 -0.1304  0.4457 -0.4128
  154MPD2    C4 2347   1.156   1.635   0.598 -0.0196 -0.9421  1.0062
  154MPD2    C5 2348   1.258   1.625   0.504  0.0580  0.1659  0.8042
  154MPD2     H 2349   1.238   1.396   0.810 -1.0820  0.5345 -0.1793
  154MPD2    H1 2350   1.074   1.702   0.575  1.2122 -0.0049 -0.7313
  154MPD2    H2 2351   1.429   1.522   0.448 -0.3990  1.1344 -1.3206
  154MPD2    H3 2352   1.253   1.687   0.415 -1.3426  1.5731  1.8617
  154MPD2     N 2353   1.034   1.560   0.794 -0.4410 -0.3840  0.1803
  154MPD2    H5 2354   1.043   1.492   0.869 -0.8616  0.4114  0.9551
  154MPD2    N1 2355   1.465   1.354   0.650  0.5939  0.8692  0.4192
  154MPD2    H7 2356   1.524   1.347   0.568 -2.2016  0.7059 -1.6015
  155TCq2    C1 2357   1.465   1.259   0.745 -0.2495 -0.1712 -0.0111
  155TCq2    O2 2358   1.386   1.249   0.837  0.4256 -0.3464  0.0605
  155TCq2    C2 2359   1.562   1.154   0.712  0.2914 -0.9582  0.5466
  155TCq2    C3 2360   1.600   1.065   0.806  0.5071 -0.1405  0.7904
  155TCq2    C4 2361   1.696   0.974   0.787  0.7238 -0.3450 -0.1302
  155TCq2    C5 2362   1.771   0.972   0.679  0.4156 -0.0912 -0.4757
  155TCq2    C6 2363   1.728   1.057   0.583 -0.5342  0.4333  0.2346
  155TCq2    C7 2364   1.630   1.151   0.594  0.9161 -0.5669  0.2462
  155TCq2    C8 2365   1.779   1.049   0.450 -0.7392 -0.0345  0.3943
  155TCq2    O4 2366   1.729   1.115   0.357 -0.0979 -0.2763 -0.2072
  155TCq2    C9 2367   1.718   0.883   0.895  0.1919 -0.2596 -0.2764
  155TCq2    O5 2368   1.784   0.782   0.867  0.5308  0.1899 -0.5177
  155TCq2    O6 2369   1.645   0.889   0.996  0.9160 -0.0244 -0.3737
  155TCq2    H2 2370   1.558   1.079   0.905 -2.5932 -1.1544 -0.3997
  155TCq2    H3 2371   1.845   0.892   0.673 -1.2541 -1.4965 -2.2034
  155TCq2    H4 2372   1.585   1.200   0.508  0.1581  2.3069  2.3077
  156MPD2     C 2373   0.201   3.325  12.406 -0.0157 -0.0418 -0.6932
  156MPD2    C1 2374   0.113   3.393  12.323 -1.1266  0.0581  0.3956
  156MPD2    C2 2375   0.080   3.516  12.367 -0.7441 -0.4089  0.3906
  156MPD2    C3 2376   0.112   3.563  12.488 -0.3118 -0.0258 -0.0966
  156MPD2    C4 2377   0.177   3.482  12.571  0.2711  1.1509  0.4697
  156MPD2    C5 2378   0.226   3.365  12.528  0.7413 -0.5328  0.8382
  156MPD2     H 2379   0.033   3.586  12.299  0.4713  1.2043  1.2171
  156MPD2    H1 2380   0.217   3.524  12.663  3.1716  2.2911 -1.3410
  156MPD2    H2 2381   0.246   3.236  12.362 -0.3136  0.7798 -2.6903
  156MPD2    H3 2382   0.294   3.303  12.586 -1.1998 -1.7459  1.8420
  156MPD2     N 2383   0.061   3.689  12.526 -0.1244 -0.4631  0.8591
  156MPD2    H5 2384   0.010   3.740  12.455  2.6181  0.0087 -0.7750
  156MPD2    N1 2385   0.079   3.335  12.198 -0.3510  0.5987  0.1312
  156MPD2    H7 2386   0.129   3.253  12.165 -0.3647  0.3175  0.8243
  157TCq2    C1 2387   4.689   3.381  12.125 -0.5030 -0.3078 -0.1587
  157TCq2    O2 2388   4.603   3.461  12.160  0.0967  0.7580  0.4433
  157TCq2    C2 2389   4.677   3.328  11.991 -0.4380 -0.2961  0.3844
  157TCq2    C3 2390   0.014   3.204  11.966  0.6988  0.4091  0.2603
  157TCq2    C4 2391   0.025   3.166  11.833 -0.1712 -0.6496 -0.3867
  157TCq2    C5 2392   4.711   3.254  11.731  0.6848  0.4488 -0.7824
  157TCq2    C6 2393   4.641   3.369  11.758 -0.1891 -0.1810  0.6001
  157TCq2    C7 2394   4.629   3.408  11.889  0.1570  1.1367  0.0086
  157TCq2    C8 2395   4.629   3.476  11.664  0.3630 -0.2987 -0.0062
  157TCq2    O4 2396   4.577   3.580  11.704 -0.3037  0.5462 -0.4780
  157TCq2    C9 2397   0.093   3.038  11.808 -0.2411 -0.3989 -0.2449
  157TCq2    O5 2398   0.119   2.965  11.905 -0.1052 -0.3176 -0.3287
  157TCq2    O6 2399   0.159   3.036  11.701 -0.0808  0.2600  0.2269
  157TCq2    H2 2400   0.040   3.134  12.044 -1.1706 -2.1693 -1.4280
  157TCq2    H3 2401   0.014   3.207  11.636 -1.4543 -0.4496 -0.8238
  157TCq2    H4 2402   4.582   3.502  11.916 -3.7802 -1.0833  0.7807
  158TMC2    C1 2403   0.466   2.609  14.836  0.3841  0.1833 -0.4994
  158TMC2    C2 2404   0.540   2.730  14.861  0.2832  0.3205 -1.0133
  158TMC2    C3 2405   0.567   2.814  14.757 -0.7670 -0.8729  0.8167
  158TMC2    C4 2406   0.429   2.575  14.707 -0.4096  0.4532  0.3882
  158TMC2    C5 2407   0.444   2.668  14.607 -0.1507  0.1485  0.9286
  158TMC2    C6 2408   0.521   2.781  14.630 -0.7138 -0.0940  0.5310
  158TMC2     C 2409   0.447   2.518  14.942  0.5028  0.4664  0.5061
  158TMC2     O 2410   0.496   2.552  15.045 -0.5663 -0.5586 -0.0379
  158TMC2     H 2411   0.559   2.763  14.963  0.3660 -1.5442 -0.4203
  158TMC2    H1 2412   0.368   2.489  14.683 -0.6265  0.4116  1.0698
  158TMC2    H2 2413   0.542   2.849  14.549  0.0302  0.0471  0.8386
  158TMC2    C7 2414   0.433   2.628  14.469  0.2232 -0.2811  0.5544
  158TMC2    C8 2415   0.634   2.948  14.791  0.6870  0.2240 -0.2894
  158TMC2    O1 2416   0.507   2.675  14.387 -0.6875  0.2790 -0.2236
  158TMC2    O2 2417   0.607   3.012  14.892  0.2844 -0.2413  0.3117
  158TMC2    O5 2418   0.718   2.976  14.687  0.5381  0.0312 -0.3581
  158TMC2    H5 2419   0.726   2.903  14.621  0.0833  2.1720 -2.7732
  159MPD2     C 2420   0.318   2.081  15.163 -0.5815 -0.0739  0.5044
  159MPD2    C1 2421   0.265   2.088  15.038 -0.1395  0.4727  0.1098
  159MPD2    C2 2422   0.255   2.214  14.972 -0.5776  0.2218 -0.0742
  159MPD2    C3 2423   0.332   2.316  15.015  0.2319  0.4383 -0.1846
  159MPD2    C4 2424   0.394   2.307  15.138  0.6096 -0.2570  0.5254
  159MPD2    C5 2425   0.386   2.195  15.209 -0.4064 -0.9870  0.1778
  159MPD2     H 2426   0.203   2.221  14.877  3.3736  0.6718 -2.2112
  159MPD2    H1 2427   0.440   2.391  15.188 -0.6542 -0.6529  2.3652
  159MPD2    H2 2428   0.318   1.990  15.222 -0.5866  0.7446  1.7589
  159MPD2    H3 2429   0.429   2.196  15.308 -0.1734  1.5575  0.0440
  159MPD2     N 2430   0.360   2.415  14.916  0.3242  0.1882 -0.1811
  159MPD2    H5 2431   0.301   2.423  14.834 -0.6939 -1.9455  0.3251
  159MPD2    N1 2432   0.200   1.973  14.980  0.3935  0.2066  0.3650
  159MPD2    H7 2433   0.196   1.889  15.037  0.0452  1.4259  2.1463
  160TMC2    C1 2434   4.528   0.022   1.515 -0.3318 -0.5336 -0.2663
  160TMC2    C2 2435   4.470   4.619   1.516 -0.3654 -0.8800  0.6090
  160TMC2    C3 2436   4.498   4.537   1.407  0.5654 -0.0618 -0.0582
  160TMC2    C4 2437   4.599   0.067   1.408 -0.0128  0.1093  0.1046
  160TMC2    C5 2438   4.614   4.706   1.294  0.4659 -0.2792 -0.2249
  160TMC2    C6 2439   4.572   4.577   1.299 -0.1414 -0.2554  0.8706
  160TMC2     C 2440   4.529   0.083   1.645 -0.1759  0.6882 -0.2692
  160TMC2     O 2441   4.504   0.010   1.743 -0.0156 -0.0229  0.1157
  160TMC2     H 2442   4.410   4.590   1.601  0.8673 -0.6590  1.5430
  160TMC2    H1 2443   4.638   0.168   1.415  1.4575 -0.6431  2.5649
  160TMC2    H2 2444   4.577   4.512   1.213 -2.5521 -1.8619  1.9454
  160TMC2    C7 2445   4.695   0.028   1.177  0.3629 -0.4300  0.2815
  160TMC2    C8 2446   4.413   4.423   1.400 -0.6221  0.4296 -0.2498
  160TMC2    O1 2447   4.705   4.672   1.082 -0.5484  0.4152 -0.5769
  160TMC2    O2 2448   4.327   4.409   1.484 -0.1002  0.1417 -0.1794
  160TMC2    O5 2449   4.459   4.323   1.322  0.3658  0.6540 -0.2564
  160TMC2    H5 2450   4.547   4.330   1.278 -0.4098  2.1978 -1.5252
  161MPD2     C 2451   4.506   0.278   1.867 -0.4367 -0.3435  0.5169
  161MPD2    C1 2452   4.500   0.317   1.736 -0.0641 -0.4525 -0.0699
  161MPD2    C2 2453   4.459   0.443   1.705 -0.1550  0.4646 -0.3821
  161MPD2    C3 2454   4.431   0.533   1.805 -0.3743  0.1428 -0.2576
  161MPD2    C4 2455   4.439   0.490   1.936 -0.1814  0.3461 -0.1157
  161MPD2    C5 2456   4.480   0.364   1.971 -0.1473 -0.0728  0.6377
  161MPD2     H 2457   4.461   0.472   1.600  1.8186  0.3492 -0.3762
  161MPD2    H1 2458   4.402   0.554   2.015  1.0389  0.0546  0.6868
  161MPD2    H2 2459   4.525   0.174   1.890  0.3049 -0.2398  0.3654
  161MPD2    H3 2460   4.481   0.341   2.077  1.2275  0.5035  0.7379
  161MPD2     N 2461   4.387   0.669   1.791 -0.2486  0.0919  0.5273
  161MPD2    H5 2462   4.381   0.722   1.877  3.3414 -3.1975  2.7963
  161MPD2    N1 2463   4.521   0.222   1.633 -0.6322 -0.1820 -0.1857
  161MPD2    H7 2464   4.500   0.247   1.537 -0.0666  0.4251 -0.1566
  162TMC2    C1 2465   2.127   2.500   1.419  0.1750  0.1750  0.7978
  162TMC2    C2 2466   2.039   2.607   1.409 -0.3342  0.4017 -0.7770
  162TMC2    C3 2467   2.007   2.677   1.522  0.0010  0.8626 -0.7921
  162TMC2    C4 2468   2.184   2.467   1.537 -0.3097  0.8118 -0.0230
  162TMC2    C5 2469   2.148   2.539   1.652  1.6232 -0.3296  0.6254
  162TMC2    C6 2470   2.067   2.645   1.643 -0.1393 -0.1171 -0.0158
  162TMC2     C 2471   2.169   2.425   1.303  0.2139 -0.7046 -0.0727
  162TMC2     O 2472   2.232   2.323   1.313  0.7041  0.1766 -0.7596
  162TMC2     H 2473   2.010   2.655   1.316 -0.8330  0.5899 -0.5226
  162TMC2    H1 2474   2.234   2.371   1.536 -0.8043  0.5770 -1.3854
  162TMC2    H2 2475   2.040   2.701   1.731 -2.5439  0.2580 -0.9781
  162TMC2    C7 2476   2.249   2.550   1.764 -0.3695  0.3447  0.5030
  162TMC2    C8 2477   1.900   2.774   1.527 -0.1595  0.6118 -0.3509
  162TMC2    O1 2478   2.240   2.646   1.834 -0.5932 -0.2044  0.0487
  162TMC2    O2 2479   1.864   2.830   1.629 -0.6094  0.5873  0.1597
  162TMC2    O5 2480   1.813   2.747   1.429 -0.5994 -0.3986 -0.2052
  162TMC2    H5 2481   1.846   2.701   1.349 -0.8974 -2.6358  0.9828
  163MPD2     C 2482   2.170   2.418   0.791  0.5727 -0.0675 -0.2938
  163MPD2    C1 2483   2.247   2.351   0.879  0.2899 -0.8975  0.1645
  163MPD2    C2 2484   2.229   2.367   1.014  0.2371 -0.4596 -0.2427
  163MPD2    C3 2485   2.130   2.448   1.057  0.3099  0.7944 -0.1753
  163MPD2    C4 2486   2.044   2.506   0.965  0.1861 -0.3535 -0.3449
  163MPD2    C5 2487   2.071   2.500   0.832  0.9762  0.0367 -0.4795
  163MPD2     H 2488   2.299   2.326   1.087 -1.0044 -1.7632  0.2146
  163MPD2    H1 2489   1.963   2.568   1.000  1.2646  1.7297 -1.5229
  163MPD2    H2 2490   2.186   2.413   0.684  0.0270 -1.8709 -0.2843
  163MPD2    H3 2491   1.994   2.537   0.765  0.2680  0.8569  0.7962
  163MPD2     N 2492   2.119   2.485   1.189 -0.0228 -0.5026 -0.2693
  163MPD2    H5 2493   2.061   2.568   1.192 -1.7733 -1.6881 -1.4665
  163MPD2    N1 2494   2.361   2.284   0.825  0.3339 -0.4319  0.0534
  163MPD2    H7 2495   2.372   2.280   0.724  2.0103  3.5512  0.1102
  164TCq2    C1 2496   3.064   1.990  11.377  0.3323  0.1956 -0.0875
  164TCq2    O2 2497   2.969   1.959  11.445 -0.4589 -0.3875 -0.1656
  164TCq2    C2 2498   3.066   2.124  11.321 -0.8192  0.6470  0.6618
  164TCq2    C3 2499   3.187   2.172  11.265  0.7150  0.2034 -0.3660
  164TCq2    C4 2500   3.172   2.283  11.182 -0.2617 -0.3683 -0.5183
  164TCq2    C5 2501   3.062   2.362  11.177  0.0624 -0.8343  0.4083
  164TCq2    C6 2502   2.949   2.314  11.240 -0.9053  0.1735  0.2327
  164TCq2    C7 2503   2.954   2.197  11.311 -1.0258  0.5663  0.1179
  164TCq2    C8 2504   2.860   2.422  11.279  0.2256  0.3142  0.0203
  164TCq2    O4 2505   2.859   2.527  11.223  0.1819 -0.1933 -0.0202
  164TCq2    C9 2506   3.293   2.331  11.109  0.1923  0.4262  0.2568
  164TCq2    O5 2507   3.273   2.429  11.032 -0.3150 -0.0825 -0.2648
  164TCq2    O6 2508   3.397   2.262  11.115 -0.2531  0.0636 -0.5037
  164TCq2    H2 2509   3.284   2.127  11.282 -0.0500 -1.1332  0.4856
  164TCq2    H3 2510   3.061   2.456  11.123  1.0445 -1.5766 -0.9099
  164TCq2    H4 2511   2.861   2.159  11.352 -0.7132 -2.2901 -1.7773
  165MPD2     C 2512   3.791   3.590   2.378 -0.0109  0.6759  1.0109
  165MPD2    C1 2513   3.817   3.635   2.250 -0.0021  0.3604  0.3236
  165MPD2    C2 2514   3.880   3.757   2.230  0.4118 -0.0733  0.4448
  165MPD2    C3 2515   3.923   3.839   2.335  0.3186  0.4144  0.1531
  165MPD2    C4 2516   3.909   3.778   2.457 -0.4296 -0.1232  0.7073
  165MPD2    C5 2517   3.839   3.667   2.478 -0.2853 -0.5997 -0.5593
  165MPD2     H 2518   3.871   3.812   2.137 -0.8550  0.1645  0.6953
  165MPD2    H1 2519   3.949   3.816   2.551  2.4894  1.9982 -1.4107
  165MPD2    H2 2520   3.730   3.504   2.404  1.6376 -1.6679 -2.9448
  165MPD2    H3 2521   3.829   3.631   2.580  0.4823 -0.5028 -0.4465
  165MPD2     N 2522   3.977   3.970   2.328  0.3933 -0.3066 -0.1636
  165MPD2    H5 2523   4.001   4.018   2.414  2.4893  0.7431 -1.3391
  165MPD2    N1 2524   3.753   3.564   2.142  0.2379  0.4124  0.1399
  165MPD2    H7 2525   3.695   3.484   2.164 -0.1931  0.3530 -1.2150
  166TCq2    C1 2526   4.017   4.033   2.211 -0.5695 -0.6954  0.4684
  166TCq2    O2 2527   4.023   3.983   2.101  0.2256  0.3090  0.0982
  166TCq2    C2 2528   4.078   4.166   2.228 -0.6680  0.3117  0.3437
  166TCq2    C3 2529   4.086   4.226   2.352 -1.1675  0.1150 -0.6564
  166TCq2    C4 2530   4.185   4.322   2.368  0.3791 -0.2184  0.1472
  166TCq2    C5 2531   4.282   4.348   2.275 -0.5187 -0.2580  0.2081
  166TCq2    C6 2532   4.275   4.290   2.152 -0.3804  0.4083  0.4135
  166TCq2    C7 2533   4.174   4.190   2.132 -0.0129  0.2379 -0.1877
  166TCq2    C8 2534   4.392   4.302   2.074  0.8288  1.0913  0.0126
  166TCq2    O4 2535   4.461   4.401   2.085 -0.1025  0.3366  0.0887
  166TCq2    C9 2536   4.188   4.397   2.490  1.1744 -0.2710 -0.3170
  166TCq2    O5 2537   4.084   4.408   2.563 -0.5230 -0.4443 -0.2116
  166TCq2    O6 2538   4.286   4.475   2.499 -0.5853 -0.2356 -0.4948
  166TCq2    H2 2539   4.015   4.206   2.431  0.7321 -0.4677  0.9269
  166TCq2    H3 2540   4.365   4.415   2.296  1.2202 -2.0526 -0.9409
  166TCq2    H4 2541   4.169   4.148   2.032  0.0571 -1.6520  0.6076
  167TMC2    C1 2542   1.783   2.505  12.637 -0.2415  0.0606  0.7898
  167TMC2    C2 2543   1.703   2.584  12.715 -0.3723 -0.3627  0.1588
  167TMC2    C3 2544   1.670   2.530  12.842 -0.0365 -0.3031 -0.1832
  167TMC2    C4 2545   1.830   2.375  12.670 -0.3330 -0.0679 -0.6218
  167TMC2    C5 2546   1.790   2.333  12.797  0.0063 -0.0301 -0.1083
  167TMC2    C6 2547   1.711   2.405  12.879 -0.2166 -0.1471  0.5561
  167TMC2     C 2548   1.811   2.567  12.505  0.6801 -0.2643 -0.1794
  167TMC2     O 2549   1.771   2.684  12.496 -0.1155  0.3737 -0.2248
  167TMC2     H 2550   1.664   2.679  12.682  1.6281  1.1095  2.1007
  167TMC2    H1 2551   1.905   2.324  12.610 -0.5395 -0.0481 -0.8965
  167TMC2    H2 2552   1.668   2.359  12.967  1.9991 -0.0521  1.6809
  167TMC2    C7 2553   1.826   2.200  12.845  0.1030  0.7337  0.3905
  167TMC2    C8 2554   1.558   2.591  12.912  0.3283 -0.5245 -0.6269
  167TMC2    O1 2555   1.787   2.178  12.957 -0.2107 -0.2800 -0.8826
  167TMC2    O2 2556   1.462   2.533  12.955  0.3316  0.3432 -0.3270
  167TMC2    O5 2557   1.588   2.716  12.943  0.0882  0.1100 -0.0561
  167TMC2    H5 2558   1.671   2.742  12.898 -0.3267  0.6299 -0.5234
  168MPD2     C 2559   1.869   2.637  12.216  0.4802 -0.5904  0.1378
  168MPD2    C1 2560   1.900   2.524  12.280  0.5881  0.3765  0.2356
  168MPD2    C2 2561   1.977   2.434  12.212 -0.0906  0.2487  0.1629
  168MPD2    C3 2562   2.011   2.443  12.077 -0.4823  0.1968  0.0658
  168MPD2    C4 2563   1.970   2.562  12.016  0.7051  0.7434 -0.2446
  168MPD2    C5 2564   1.897   2.660  12.084  0.1752  0.4623  0.1453
  168MPD2     H 2565   2.006   2.347  12.269 -1.0248 -0.2122 -0.0656
  168MPD2    H1 2566   1.989   2.589  11.912 -0.6818  0.8564 -0.4607
  168MPD2    H2 2567   1.822   2.710  12.280 -1.9065 -0.3576 -1.8777
  168MPD2    H3 2568   1.874   2.759  12.046  1.0291 -0.3181 -2.3517
  168MPD2     N 2569   2.067   2.336  12.000 -0.1984 -0.3955 -0.5277
  168MPD2    H5 2570   2.080   2.339  11.899 -2.2886 -1.2819 -0.8325
  168MPD2    N1 2571   1.879   2.493  12.418 -0.3918 -0.0283  0.0831
  168MPD2    H7 2572   1.920   2.404  12.446 -0.9511  0.0945  1.2790
  169MPD1     C 2573   4.053   2.533  10.070  0.1417  0.9106 -0.0172
  169MPD1    C1 2574   4.188   2.542  10.051  0.0738 -0.5063  0.1283
  169MPD1    C2 2575   4.262   2.426  10.051  0.4288  0.2520 -0.3464
  169MPD1    C3 2576   4.200   2.304  10.053  0.4485 -0.3622 -0.2793
  169MPD1    C4 2577   4.064   2.294  10.052  0.4958 -0.2328 -0.0777
  169MPD1    C5 2578   3.993   2.411  10.070  0.1094 -0.3932 -0.0551
  169MPD1     H 2579   4.370   2.435  10.055  0.5828 -2.3870  1.0714
  169MPD1    H1 2580   4.010   2.200  10.044 -0.9269  0.6792 -1.1353
  169MPD1    H2 2581   3.981   2.613  10.078 -0.4689  0.1971  1.5872
  169MPD1    H3 2582   3.885   2.404  10.064 -0.1905  3.0852  1.0196
  169MPD1     N 2583   4.279   2.187  10.054  0.1514  0.0386 -0.1286
  169MPD1    H5 2584   4.380   2.188  10.048  0.1690 -0.7585  0.0404
  169MPD1    N1 2585   4.259   2.667  10.060  0.2565  0.3770  0.0013
  169MPD1    H6 2586   4.342   2.651  10.004  0.0147 -1.1279  0.0902
  169MPD1    H7 2587   4.201   2.745  10.029  3.0708  2.9562  1.2568
  170MPD1     C 2588   2.921   4.371  13.091 -0.1650 -0.5577 -0.5017
  170MPD1    C1 2589   2.959   4.488  13.158 -0.2225 -0.0388 -0.0730
  170MPD1    C2 2590   3.080   4.478  13.222  0.9312  0.1237 -0.3858
  170MPD1    C3 2591   3.158   4.368  13.217  0.2614 -0.2157 -0.6915
  170MPD1    C4 2592   3.108   4.252  13.150 -0.1933 -1.2452  0.0177
  170MPD1    C5 2593   2.992   4.253  13.090 -0.4301 -0.5331 -0.1048
  170MPD1     H 2594   3.111   4.563  13.282 -3.7756  1.5187  0.0929
  170MPD1    H1 2595   3.148   4.152  13.145 -0.9217 -1.5362 -0.0830
  170MPD1    H2 2596   2.830   4.382  13.034 -1.2992 -2.7807  0.9290
  170MPD1    H3 2597   2.964   4.168  13.029 -0.6794 -0.7668  0.3379
  170MPD1     N 2598   3.282   4.364  13.293  0.1202  0.1006 -0.7410
  170MPD1    H5 2599   3.315   4.444  13.347  1.8322 -0.7355 -0.5563
  170MPD1    N1 2600   2.884   4.601  13.148  0.0401  0.7117 -0.2079
  170MPD1    H6 2601   2.784   4.584  13.153  0.4254 -1.0108  1.3270
  170MPD1    H7 2602   2.902   4.682  13.208  1.5231  0.3441 -0.1561
  171MPD1     C 2603   2.175   0.731  15.500 -0.5293 -0.8872 -0.0915
  171MPD1    C1 2604   2.090   0.640  15.441  0.7228  0.4345  0.4502
  171MPD1    C2 2605   2.057   0.529  15.514 -0.3432 -0.1501  0.2785
  171MPD1    C3 2606   2.123   0.494  15.628  0.0680  0.5011  0.1603
  171MPD1    C4 2607   2.215   0.586  15.678  0.5038  0.5551 -0.4642
  171MPD1    C5 2608   2.237   0.705  15.617 -0.2704  0.2301 -0.0620
  171MPD1     H 2609   1.986   0.458  15.471 -1.7443  0.3880  1.7123
  171MPD1    H1 2610   2.268   0.563  15.770 -0.4114 -1.2606 -0.3923
  171MPD1    H2 2611   2.183   0.833  15.464 -0.2312 -1.7284 -2.3685
  171MPD1    H3 2612   2.293   0.779  15.673  1.8024 -0.5782 -1.0841
  171MPD1     N 2613   2.115   0.374  15.703 -0.2408 -0.2550 -0.0676
  171MPD1    H5 2614   2.188   0.359  15.772 -0.0208  1.3656  0.0469
  171MPD1    N1 2615   2.011   0.677  15.330  0.5329 -0.0488  0.2337
  171MPD1    H6 2616   1.990   0.604  15.262 -1.3945 -1.1593  1.9984
  171MPD1    H7 2617   2.045   0.757  15.277 -0.5976 -0.4459 -1.1117
  172MPD1     C 2618   1.044   4.435   0.190 -0.2445  0.1351 -0.0128
  172MPD1    C1 2619   1.088   4.560   0.150  0.5628 -0.4784  0.9233
  172MPD1    C2 2620   1.141   4.636   0.256 -0.4754 -0.0633  0.1323
  172MPD1    C3 2621   1.144   4.592   0.387 -0.0643  0.0011 -0.4116
  172MPD1    C4 2622   1.087   4.472   0.419  0.0502  0.2915 -1.0090
  172MPD1    C5 2623   1.033   4.393   0.320 -1.0598 -0.6760  0.3096
  172MPD1     H 2624   1.203   0.001   0.228 -0.2063 -0.0506  0.7682
  172MPD1    H1 2625   1.090   4.434   0.521  0.6260  2.0425 -0.3785
  172MPD1    H2 2626   1.020   4.363   0.113 -2.1722 -0.2992  0.9928
  172MPD1    H3 2627   0.987   4.298   0.346 -1.0511 -0.7346  0.1131
  172MPD1     N 2628   1.189   4.678   0.497 -0.6553  0.2556  0.2978
  172MPD1    H5 2629   1.209   4.632   0.585  1.4327 -0.0359 -0.3330
  172MPD1    N1 2630   1.120   4.591   0.015 -0.1097  0.5635  0.3849
  172MPD1    H6 2631   1.052   4.555  17.629 -0.0670  0.1651  0.5611
  172MPD1    H7 2632   1.127   4.689  17.668  1.3243  0.6293  0.9670
  173MPD1     C 2633   3.009   4.404  13.559  1.0828 -0.6287 -0.8918
  173MPD1    C1 2634   2.873   4.390  13.561  0.9135  0.5656 -0.0916
  173MPD1    C2 2635   2.806   4.378  13.685 -0.7582 -0.0631  0.4388
  173MPD1    C3 2636   2.875   4.371  13.801 -0.4979  0.2550  0.0292
  173MPD1    C4 2637   3.008   4.366  13.799 -0.3494  0.1811 -0.3591
  173MPD1    C5 2638   3.074   4.379  13.681 -0.0893  0.0295 -0.1208
  173MPD1     H 2639   2.698   4.367  13.687 -0.6545 -1.0886  0.0662
  173MPD1    H1 2640   3.071   4.370  13.887 -1.4159  0.1298  0.4216
  173MPD1    H2 2641   3.077   4.412  13.475  0.9265  0.9381 -0.8749
  173MPD1    H3 2642   3.181   4.362  13.676 -0.4738 -2.7078  0.6923
  173MPD1     N 2643   2.793   4.357  13.919  0.4908 -0.0833  0.2035
  173MPD1    H5 2644   2.696   4.387  13.914  0.1049 -1.3003  0.5106
  173MPD1    N1 2645   2.817   4.410  13.439  0.0642 -0.5147  0.0974
  173MPD1    H6 2646   2.882   4.401  13.361 -2.6134 -4.9319 -1.6667
  173MPD1    H7 2647   2.732   4.357  13.420  0.3768 -1.3515  0.9759
  174MPD1     C 2648   3.061   3.833  14.747 -1.0606  0.2244 -0.8786
  174MPD1    C1 2649   2.922   3.849  14.758 -0.4798  0.0587 -0.0998
  174MPD1    C2 2650   2.857   3.918  14.653  0.0388  0.4268  0.2346
  174MPD1    C3 2651   2.920   3.970  14.541 -0.4169 -0.4362  0.2609
  174MPD1    C4 2652   3.055   3.940  14.531  1.0363 -0.2529 -0.0449
  174MPD1    C5 2653   3.116   3.869  14.629 -0.2222 -0.0825  0.6237
  174MPD1     H 2654   2.750   3.935  14.655  0.2620  1.7267  1.6198
  174MPD1    H1 2655   3.096   3.967  14.435  0.1057  1.3068 -0.0065
  174MPD1    H2 2656   3.113   3.771  14.820  1.2035  2.8556 -0.2597
  174MPD1    H3 2657   3.217   3.840  14.600 -0.4745  0.6466 -1.0124
  174MPD1     N 2658   2.858   4.035  14.434  0.8611  0.3024  0.2554
  174MPD1    H5 2659   2.925   4.063  14.362  0.7961 -0.8965 -0.2652
  174MPD1    N1 2660   2.843   3.779  14.851  0.2001  0.4435  0.5460
  174MPD1    H6 2661   2.749   3.815  14.866 -0.1992  0.0751 -1.0043
  174MPD1    H7 2662   2.895   3.790  14.937 -0.1499  1.9605  0.5719
  175MPD1     C 2663   0.634   0.336  15.746  0.3541 -0.2544 -0.1919
  175MPD1    C1 2664   0.527   0.409  15.806 -0.1236  0.1165 -0.1757
  175MPD1    C2 2665   0.522   0.428  15.938  0.1847 -0.9007  0.0111
  175MPD1    C3 2666   0.602   0.350  16.024  0.3938 -0.1515 -0.2812
  175MPD1    C4 2667   0.693   0.263  15.970 -0.7226 -0.4519  0.2288
  175MPD1    C5 2668   0.708   0.262  15.833 -0.2614  0.1774 -0.2486
  175MPD1     H 2669   0.459   0.507  15.978 -2.1253 -3.3603  1.2241
  175MPD1    H1 2670   0.755   0.205  16.036 -1.4394 -0.3236  1.0104
  175MPD1    H2 2671   0.639   0.334  15.638 -0.2311  0.1832 -0.2231
  175MPD1    H3 2672   0.773   0.190  15.784  0.7771  2.0568 -1.6316
  175MPD1     N 2673   0.595   0.366  16.162  0.4097  0.4479 -0.3041
  175MPD1    H5 2674   0.673   0.329  16.214  0.7465  2.2101  0.4474
  175MPD1    N1 2675   0.452   0.495  15.719 -0.2785 -0.3483 -0.0477
  175MPD1    H6 2676   0.367   0.526  15.764 -0.4580  0.7186 -1.1234
  175MPD1    H7 2677   0.425   0.442  15.636  0.3285 -0.0162 -0.4597
  176MPD1     C 2678   2.612   4.003   0.723 -0.4753 -0.0745  0.1811
  176MPD1    C1 2679   2.627   4.052   0.597  0.2252  0.4343 -0.0047
  176MPD1    C2 2680   2.626   3.965   0.496  0.0259  0.8488 -0.2276
  176MPD1    C3 2681   2.627   3.823   0.510 -0.7986 -0.2279 -0.7365
  176MPD1    C4 2682   2.634   3.777   0.637  0.6294 -0.8109  0.4319
  176MPD1    C5 2683   2.627   3.872   0.738  0.0789  0.0890  0.4337
  176MPD1     H 2684   2.639   4.018   0.403  1.1422 -0.4867 -0.8306
  176MPD1    H1 2685   2.632   3.670   0.654 -0.3173 -0.9675 -0.7364
  176MPD1    H2 2686   2.599   4.067   0.809 -3.0175  0.3433 -0.5020
  176MPD1    H3 2687   2.617   3.827   0.836 -2.3096  1.2296  0.7140
  176MPD1     N 2688   2.622   3.746   0.389 -0.2974 -0.2207  0.1257
  176MPD1    H5 2689   2.637   3.799   0.304  2.8858 -0.6886  0.4022
  176MPD1    N1 2690   2.616   4.183   0.564 -0.4440  0.6010 -0.0737
  176MPD1    H6 2691   2.681   4.196   0.487 -0.7743  2.4940 -0.0252
  176MPD1    H7 2692   2.665   4.239   0.633 -1.0932  1.0873  0.0001
  177MPD1     C 2693   1.124   2.775   9.693  0.5596 -0.0264 -0.2408
  177MPD1    C1 2694   1.018   2.710   9.645  0.9385  0.1065 -0.0121
  177MPD1    C2 2695   0.893   2.774   9.646  0.1971 -0.1035  0.1286
  177MPD1    C3 2696   0.890   2.909   9.681 -0.1923  0.1951 -0.5414
  177MPD1    C4 2697   1.001   2.978   9.726 -0.2001  0.7428 -0.0858
  177MPD1    C5 2698   1.123   2.913   9.734 -0.1290 -0.1735 -0.3268
  177MPD1     H 2699   0.806   2.726   9.604 -1.4336  1.2598  1.9517
  177MPD1    H1 2700   0.988   3.080   9.759 -2.3031  1.0006 -1.6918
  177MPD1    H2 2701   1.220   2.726   9.688 -0.4078 -1.8921 -0.6868
  177MPD1    H3 2702   1.211   2.971   9.755 -0.7399  0.9416 -0.8132
  177MPD1     N 2703   0.765   2.975   9.670  0.0251  0.0306  0.5187
  177MPD1    H5 2704   0.688   2.913   9.648  1.6025 -1.3257 -1.3010
  177MPD1    N1 2705   1.020   2.572   9.617 -0.4582  0.2108  0.5316
  177MPD1    H6 2706   1.112   2.545   9.584 -0.0650  0.3545  1.5338
  177MPD1    H7 2707   0.946   2.549   9.551  0.0250 -4.6094  1.7185
  178MPD1     C 2708   2.726   3.027   0.630  0.2342  0.4979 -0.3942
  178MPD1    C1 2709   2.666   2.966   0.522 -0.5219  0.3024 -0.4707
  178MPD1    C2 2710   2.692   3.014   0.395  0.9614 -0.6653  0.2809
  178MPD1    C3 2711   2.784   3.121   0.381  0.1511 -0.1098  0.3565
  178MPD1    C4 2712   2.829   3.182   0.493  0.0776 -0.1668 -0.1156
  178MPD1    C5 2713   2.796   3.138   0.617 -0.5349 -0.0170  0.1801
  178MPD1     H 2714   2.642   2.977   0.306 -0.6317  0.4519  0.7063
  178MPD1    H1 2715   2.895   3.268   0.493 -2.0368  1.4362  1.1936
  178MPD1    H2 2716   2.733   2.989   0.731 -1.1735  0.9851 -0.1119
  178MPD1    H3 2717   2.836   3.189   0.704 -1.0245  1.2980 -0.3573
  178MPD1     N 2718   2.815   3.182   0.255 -0.0547 -0.8501  0.1477
  178MPD1    H5 2719   2.879   3.261   0.261 -1.5633  0.6533 -3.6186
  178MPD1    N1 2720   2.616   2.835   0.536 -0.6510  0.8106 -0.3699
  178MPD1    H6 2721   2.569   2.831   0.625 -0.4544  2.1417 -0.2113
  178MPD1    H7 2722   2.539   2.816   0.472 -0.5054  0.6658 -0.5044
  179MPD1     C 2723   3.110   1.767  16.340  0.0709 -0.0708  0.1327
  179MPD1    C1 2724   2.980   1.762  16.341  0.0841  0.8571 -0.4144
  179MPD1    C2 2725   2.918   1.646  16.296 -0.0232 -0.8093 -0.0892
  179MPD1    C3 2726   2.997   1.541  16.243 -0.2597  0.2284 -0.3616
  179MPD1    C4 2727   3.138   1.555  16.250  0.4161  0.2431  0.8409
  179MPD1    C5 2728   3.189   1.671  16.290  0.8712  0.2427 -0.6337
  179MPD1     H 2729   2.809   1.640  16.301  0.0199 -1.7624 -0.3235
  179MPD1    H1 2730   3.208   1.481  16.212 -0.2262  0.8919 -1.5815
  179MPD1    H2 2731   3.166   1.855  16.370 -1.5321  0.0220  2.8220
  179MPD1    H3 2732   3.295   1.696  16.295  0.0947  2.7313  3.0418
  179MPD1     N 2733   2.952   1.416  16.203 -0.3159 -0.0925 -0.1752
  179MPD1    H5 2734   3.015   1.340  16.179  0.6309  0.4592  0.5863
  179MPD1    N1 2735   2.906   1.855  16.417 -0.2384  0.3122  0.0791
  179MPD1    H6 2736   2.944   1.950  16.418  0.3250  0.1075 -2.5182
  179MPD1    H7 2737   2.806   1.839  16.407  0.2132 -0.4382 -3.1639
  180MPD1     C 2738   2.881   3.007  15.564  0.3419 -0.3566  0.5197
  180MPD1    C1 2739   2.748   2.986  15.529  0.1031 -0.8229  0.2127
  180MPD1    C2 2740   2.710   2.944  15.406 -0.1483 -0.6500  0.0885
  180MPD1    C3 2741   2.806   2.935  15.308  0.2050  0.0818  0.1299
  180MPD1    C4 2742   2.940   2.962  15.339 -0.0143  0.3231  0.1287
  180MPD1    C5 2743   2.972   2.993  15.465 -0.7997 -0.8155  0.6548
  180MPD1     H 2744   2.603   2.938  15.388 -0.1707  0.7891 -0.2782
  180MPD1    H1 2745   3.021   2.963  15.266 -0.0074  0.0992  0.1338
  180MPD1    H2 2746   2.917   3.036  15.662 -0.4008  0.9754  0.4098
  180MPD1    H3 2747   3.076   3.014  15.484 -1.2335  1.3427  0.6912
  180MPD1     N 2748   2.757   2.913  15.174  0.5166 -0.2157  0.4877
  180MPD1    H5 2749   2.657   2.908  15.159  0.3441  2.0270  0.8904
  180MPD1    N1 2750   2.654   3.006  15.629 -0.5914  1.1521 -0.4710
  180MPD1    H6 2751   2.688   3.066  15.704 -1.6340  0.7920  0.2890
  180MPD1    H7 2752   2.572   3.056  15.596 -0.5233  2.7696  1.7933
  181MPD1     C 2753   4.321   4.560   9.828 -0.7382  0.1744  0.2774
  181MPD1    C1 2754   4.295   4.599   9.957  0.2526 -0.1876 -0.2099
  181MPD1    C2 2755   4.401   4.643  10.030  0.0046  0.1703  0.9790
  181MPD1    C3 2756   4.524   4.649   9.980  0.2845 -0.6340 -0.0396
  181MPD1    C4 2757   4.549   4.600   9.851  0.0193  0.4780  0.2780
  181MPD1    C5 2758   4.448   4.557   9.774  0.1269 -0.7686  0.3489
  181MPD1     H 2759   4.378   4.683  10.127 -2.1791  1.2234  0.0203
  181MPD1    H1 2760   4.650   4.600   9.814  0.1045  0.2388  0.5107
  181MPD1    H2 2761   4.242   4.537   9.758 -0.0044  0.1191 -0.5301
  181MPD1    H3 2762   4.462   4.515   9.675  1.9588 -3.1696  1.6130
  181MPD1     N 2763   4.640   4.703  10.052  0.7835  0.1763  0.8219
  181MPD1    H5 2764   0.015   4.673  10.031  0.6071  1.2426 -1.5067
  181MPD1    N1 2765   4.161   4.633   9.986  0.7878 -0.4301  0.1971
  181MPD1    H6 2766   4.146   4.623  10.086  0.7217  0.1298  0.2397
  181MPD1    H7 2767   4.092   4.577   9.936  0.9180  0.5612 -1.0931
  182MPD1     C 2768   2.379   3.704   1.392  0.7186 -0.0262 -0.1022
  182MPD1    C1 2769   2.321   3.727   1.514 -0.4036  0.6086 -0.5594
  182MPD1    C2 2770   2.196   3.784   1.506 -0.2849 -0.3293  0.3075
  182MPD1    C3 2771   2.125   3.797   1.389  0.3052  0.1136 -0.4560
  182MPD1    C4 2772   2.189   3.770   1.269  0.0246  0.4099  0.0968
  182MPD1    C5 2773   2.318   3.721   1.270  0.2439  0.1011  0.2994
  182MPD1     H 2774   2.151   3.819   1.598  1.4562  0.5903  0.8087
  182MPD1    H1 2775   2.137   3.770   1.174  0.7605 -3.0168 -0.3255
  182MPD1    H2 2776   2.477   3.657   1.391  0.5922 -0.3225  0.9880
  182MPD1    H3 2777   2.373   3.694   1.182  0.4806 -2.2544  1.1828
  182MPD1     N 2778   1.989   3.841   1.384  0.2230 -0.4696 -0.1660
  182MPD1    H5 2779   1.934   3.822   1.301  1.5584  1.3524 -1.4681
  182MPD1    N1 2780   2.400   3.737   1.632  0.0935  0.3407  0.3857
  182MPD1    H6 2781   2.483   3.678   1.630 -0.6651 -0.7700  1.9599
  182MPD1    H7 2782   2.355   3.697   1.714 -0.2664  1.3182  0.6700
  183MPD1     C 2783   2.020   0.633   9.163  0.0673  0.1386 -0.4578
  183MPD1    C1 2784   1.955   0.523   9.221 -0.4679  0.9104 -0.6009
  183MPD1    C2 2785   1.884   0.548   9.340 -0.5173  0.0267  0.2482
  183MPD1    C3 2786   1.885   0.670   9.403  0.1622 -0.1874  0.5312
  183MPD1    C4 2787   1.960   0.772   9.351 -0.4460 -0.5579  0.4309
  183MPD1    C5 2788   2.030   0.746   9.237  0.1478 -0.3648  0.3674
  183MPD1     H 2789   1.836   0.468   9.396 -2.1956  1.9274  1.4966
  183MPD1    H1 2790   1.965   0.869   9.400  0.1913 -0.5519  0.3530
  183MPD1    H2 2791   2.080   0.628   9.072  1.3954  0.7718  0.3854
  183MPD1    H3 2792   2.092   0.821   9.189  2.0684 -3.0133 -1.3197
  183MPD1     N 2793   1.810   0.679   9.527 -0.2843  0.0678 -0.5045
  183MPD1    H5 2794   1.779   0.591   9.566  0.2002 -1.4470 -3.4792
  183MPD1    N1 2795   1.928   0.405   9.150 -0.2867 -0.7616  0.4755
  183MPD1    H6 2796   2.010   0.380   9.094  0.5844 -0.3658  1.5612
  183MPD1    H7 2797   1.908   0.331   9.217 -0.6100 -0.8082  0.3263
  184MPD1     C 2798   4.500   2.448  10.801 -0.5018 -0.3267 -0.1958
  184MPD1    C1 2799   4.574   2.362  10.728  0.1259 -0.4051 -0.0034
  184MPD1    C2 2800   4.642   2.411  10.622  0.0509 -0.0324 -0.3157
  184MPD1    C3 2801   4.638   2.542  10.576 -1.1241  0.1165  0.3920
  184MPD1    C4 2802   4.555   2.626  10.649 -0.1378 -0.1525 -0.2353
  184MPD1    C5 2803   4.498   2.580  10.772 -0.7372 -0.6485 -0.1987
  184MPD1     H 2804   4.703   2.339  10.568  0.3437  0.3533 -0.4946
  184MPD1    H1 2805   4.539   2.728  10.618 -1.1586  0.2502  1.6477
  184MPD1    H2 2806   4.449   2.416  10.891  1.4746 -0.7870  0.7633
  184MPD1    H3 2807   4.433   2.644  10.830  1.4204  1.3795 -0.0351
  184MPD1     N 2808   4.689   2.584  10.456  0.3888  0.1730 -0.2790
  184MPD1    H5 2809   4.662   2.672  10.413  2.1537  2.4857  3.3179
  184MPD1    N1 2810   4.606   2.238  10.788 -0.4827 -0.3209 -0.2434
  184MPD1    H6 2811   4.620   2.172  10.711 -0.6456  0.5437 -1.0157
  184MPD1    H7 2812   4.532   2.189  10.837 -2.9676  1.3417 -2.2686
  185MPD1     C 2813   4.362   2.939   9.616 -0.3723  0.1726 -0.2105
  185MPD1    C1 2814   4.327   2.833   9.696 -0.6466  0.2002 -0.4813
  185MPD1    C2 2815   4.420   2.792   9.790 -0.2755  0.5215  0.5630
  185MPD1    C3 2816   4.538   2.871   9.813 -0.3587 -0.0659 -0.2008
  185MPD1    C4 2817   4.561   2.985   9.738 -1.1760  0.6373 -0.0939
  185MPD1    C5 2818   4.474   3.015   9.635  0.2160 -0.1216 -0.9384
  185MPD1     H 2819   4.401   2.701   9.845 -1.4037  1.3065  1.4692
  185MPD1    H1 2820   4.647   3.049   9.752 -0.0454 -0.8302 -0.3205
  185MPD1    H2 2821   4.303   2.967   9.530 -1.2100 -0.6716  0.0991
  185MPD1    H3 2822   4.488   3.096   9.564  1.4243 -1.2554 -1.9969
  185MPD1     N 2823   4.634   2.836   9.904 -0.1412 -0.0995  0.1360
  185MPD1    H5 2824   4.698   2.912   9.922  0.8738 -1.2240  1.2486
  185MPD1    N1 2825   4.217   2.752   9.657 -0.1880  0.5951 -0.0765
  185MPD1    H6 2826   4.177   2.709   9.740  1.9267  0.3550  0.8341
  185MPD1    H7 2827   4.141   2.800   9.611  0.4664  0.4961 -1.2476
  186MPD1     C 2828   3.466   1.014  16.230  0.2843  0.1153  0.0990
  186MPD1    C1 2829   3.355   0.991  16.307 -0.4065 -0.9428  0.9949
  186MPD1    C2 2830   3.307   1.100  16.381 -0.1590  0.2172  0.2986
  186MPD1    C3 2831   3.381   1.216  16.395  0.2123  0.2685 -0.4066
  186MPD1    C4 2832   3.495   1.230  16.319 -0.8647  0.3445  0.1898
  186MPD1    C5 2833   3.535   1.133  16.232 -0.3004  0.2384  0.3069
  186MPD1     H 2834   3.208   1.094  16.425 -0.4196 -1.0124 -0.4661
  186MPD1    H1 2835   3.551   1.323  16.317  0.0114 -0.2191 -1.5369
  186MPD1    H2 2836   3.508   0.940  16.164  0.9525 -0.9515  1.7054
  186MPD1    H3 2837   3.627   1.146  16.177  0.7551  0.8493  2.2154
  186MPD1     N 2838   3.343   1.323  16.479  0.2781  0.1084  0.3471
  186MPD1    H5 2839   3.408   1.401  16.478  2.2214 -1.5173 -0.7191
  186MPD1    N1 2840   3.290   0.872  16.297 -0.0167 -0.6536 -0.9835
  186MPD1    H6 2841   3.358   0.796  16.300  1.3716  0.4727 -4.0122
  186MPD1    H7 2842   3.233   0.847  16.377 -1.0292 -1.1965 -1.8715
  187MPD1     C 2843   2.184   3.697   0.448  0.4198 -0.0322 -0.6249
  187MPD1    C1 2844   2.065   3.641   0.413 -0.4731  0.9024 -0.5043
  187MPD1    C2 2845   2.026   3.639   0.278 -0.0325 -0.1610  0.7449
  187MPD1    C3 2846   2.115   3.683   0.184  0.1062  0.4511  0.3407
  187MPD1    C4 2847   2.239   3.723   0.225  0.1653  0.2864 -0.1732
  187MPD1    C5 2848   2.269   3.743   0.354 -0.1581  0.2556  0.2453
  187MPD1     H 2849   1.923   3.612   0.258  0.5031 -2.3437  0.9376
  187MPD1    H1 2850   2.322   3.739   0.157  2.5189  1.8282  3.0678
  187MPD1    H2 2851   2.217   3.704   0.552  0.0100  0.1154 -0.5047
  187MPD1    H3 2852   2.366   3.779   0.385  0.2006  0.7396 -1.4241
  187MPD1     N 2853   2.090   3.679   0.044 -0.0576  0.9883 -0.0086
  187MPD1    H5 2854   2.160   3.713  17.660  1.1714  2.2270  1.9679
  187MPD1    N1 2855   1.964   3.609   0.503 -0.7999 -0.8143 -0.2335
  187MPD1    H6 2856   2.004   3.559   0.582  0.9638  2.8738  1.1960
  187MPD1    H7 2857   1.898   3.542   0.465 -0.5096 -0.5464 -1.2151
  188MPD1     C 2858   1.799   3.726   9.437  1.2186 -0.6757 -0.4294
  188MPD1    C1 2859   1.911   3.714   9.515 -1.1867  0.3922  0.0767
  188MPD1    C2 2860   1.943   3.594   9.576 -0.1184 -0.2435 -0.2193
  188MPD1    C3 2861   1.895   3.477   9.510  0.1649 -0.0422 -0.1745
  188MPD1    C4 2862   1.804   3.488   9.409 -0.7096  0.5509  0.6709
  188MPD1    C5 2863   1.751   3.609   9.380  0.1236 -0.7949  0.7379
  188MPD1     H 2864   2.022   3.593   9.650 -1.7515  1.3381  1.5220
  188MPD1    H1 2865   1.760   3.402   9.359  3.4398 -2.1835  1.6941
  188MPD1    H2 2866   1.759   3.820   9.402  1.8008 -0.2799 -0.0404
  188MPD1    H3 2867   1.681   3.613   9.298 -1.4264  0.2395  2.0967
  188MPD1     N 2868   1.939   3.348   9.545  0.5435  0.2546  0.5456
  188MPD1    H5 2869   1.892   3.268   9.503 -0.5816  0.4004  1.5157
  188MPD1    N1 2870   1.959   3.837   9.569  0.4338  0.1819 -0.2457
  188MPD1    H6 2871   1.939   3.921   9.514 -0.7682  0.8220  1.1429
  188MPD1    H7 2872   2.060   3.831   9.581  0.2986 -1.3951 -0.0304
  189MPD1     C 2873   4.134   3.822   0.656  0.3487 -0.3457  0.6908
  189MPD1    C1 2874   4.002   3.805   0.629  0.4749  0.1362 -0.5654
  189MPD1    C2 2875   3.936   3.922   0.608 -0.1037  0.5677 -0.4799
  189MPD1    C3 2876   3.994   4.043   0.576  0.6334 -0.1670 -0.6833
  189MPD1    C4 2877   4.124   4.058   0.598  0.2036  0.3097  0.4269
  189MPD1    C5 2878   4.193   3.946   0.645  0.4577 -0.1301 -0.8480
  189MPD1     H 2879   3.828   3.914   0.605 -0.1861  1.6288 -0.3498
  189MPD1    H1 2880   4.184   4.148   0.593 -0.4914  0.6065 -2.2898
  189MPD1    H2 2881   4.207   3.747   0.687  1.4235  0.2412 -0.4103
  189MPD1    H3 2882   4.300   3.958   0.658  0.3325  1.9665 -1.8045
  189MPD1     N 2883   3.904   4.149   0.530 -0.3898  0.0595  0.1610
  189MPD1    H5 2884   3.807   4.117   0.522 -0.0079 -0.6573 -1.4393
  189MPD1    N1 2885   3.931   3.690   0.663  0.5747  0.5643  0.0655
  189MPD1    H6 2886   3.998   3.614   0.652  0.3970  0.3744  0.2784
  189MPD1    H7 2887   3.848   3.683   0.605  0.4002  1.7172  0.1724
  190MPD1     C 2888   2.073   2.702  16.050 -0.0231 -0.9908  0.5700
  190MPD1    C1 2889   2.129   2.581  16.100  0.9151  0.4749  0.9925
  190MPD1    C2 2890   2.262   2.561  16.126  0.0448  0.4328 -0.1378
  190MPD1    C3 2891   2.338   2.672  16.122  0.4528 -0.4680  0.3494
  190MPD1    C4 2892   2.291   2.795  16.086 -0.5659  0.1878 -0.5890
  190MPD1    C5 2893   2.158   2.804  16.054 -0.4241  0.0982  0.2773
  190MPD1     H 2894   2.296   2.464  16.162  0.0817  0.4943 -0.0052
  190MPD1    H1 2895   2.349   2.886  16.083  1.8380 -1.2945  0.6672
  190MPD1    H2 2896   1.970   2.720  16.019 -0.1545 -1.2761  0.8496
  190MPD1    H3 2897   2.131   2.907  16.032 -0.2600 -0.2562 -1.5961
  190MPD1     N 2898   2.474   2.653  16.145 -0.0168  0.0207 -0.0525
  190MPD1    H5 2899   2.494   2.561  16.184  1.8442  0.2349 -0.4710
  190MPD1    N1 2900   2.037   2.479  16.111 -0.1648  0.2311 -0.6466
  190MPD1    H6 2901   2.065   2.401  16.171 -0.9734  1.2592  1.0659
  190MPD1    H7 2902   1.944   2.514  16.130 -0.9414 -1.9725 -0.3834
  191MPD1     C 2903   2.764   4.346  12.447  0.5253 -0.3512 -0.2761
  191MPD1    C1 2904   2.674   4.433  12.495 -0.5435 -0.0862  0.2860
  191MPD1    C2 2905   2.698   4.565  12.468 -0.3091 -0.3559 -0.2807
  191MPD1    C3 2906   2.802   4.604  12.378 -0.7616 -0.3946  0.2386
  191MPD1    C4 2907   2.884   4.507  12.326 -1.0917 -0.4333  0.2585
  191MPD1    C5 2908   2.872   4.377  12.368  0.8970  0.4970  0.1455
  191MPD1     H 2909   2.641   4.643  12.516 -3.5539 -1.7886 -1.7842
  191MPD1    H1 2910   2.973   4.519  12.265 -0.2635  1.1169  1.7802
  191MPD1    H2 2911   2.742   4.242  12.467  1.0343 -0.0883  1.5803
  191MPD1    H3 2912   2.942   4.303  12.330 -0.2498 -0.7068  0.3698
  191MPD1     N 2913   2.817   0.020  12.343  0.0984  0.6800 -0.2405
  191MPD1    H5 2914   2.738   0.081  12.362 -0.3889 -0.1723  0.4546
  191MPD1    N1 2915   2.599   4.390  12.608  0.4200  0.3670  0.1536
  191MPD1    H6 2916   2.587   4.289  12.616 -0.6323  0.2657 -2.5767
  191MPD1    H7 2917   2.507   4.436  12.606  0.8197  1.1520 -0.1944
  192MPD1     C 2918   2.289   0.799  12.120 -0.5936 -0.2985 -0.1370
  192MPD1    C1 2919   2.287   0.683  12.195  0.3680 -0.2641 -0.0125
  192MPD1    C2 2920   2.398   0.601  12.195  0.4480 -0.2573  0.4873
  192MPD1    C3 2921   2.511   0.634  12.115  0.7752 -0.3187  0.0894
  192MPD1    C4 2922   2.499   0.745  12.027  0.8348  0.6124 -0.3189
  192MPD1    C5 2923   2.386   0.819  12.027 -0.5170  0.5064 -0.4661
  192MPD1     H 2924   2.400   0.516  12.262 -2.6387 -0.3985  0.3843
  192MPD1    H1 2925   2.576   0.781  11.960  0.4483 -2.3838 -2.3879
  192MPD1    H2 2926   2.220   0.882  12.129 -1.8794 -1.6064  2.0934
  192MPD1    H3 2927   2.379   0.898  11.953  2.3537  2.1855  1.0922
  192MPD1     N 2928   2.627   0.559  12.105 -0.1254  0.4875  0.2694
  192MPD1    H5 2929   2.696   0.596  12.041 -1.4393 -0.1959 -1.5383
  192MPD1    N1 2930   2.192   0.656  12.296  0.0345 -0.2764 -0.6463
  192MPD1    H6 2931   2.103   0.701  12.278 -0.1205  0.0038  0.8836
  192MPD1    H7 2932   2.177   0.555  12.305  0.7472 -0.4917 -1.7573
  193MPD1     C 2933   1.763   4.616  16.100 -0.6743 -0.3251 -1.0781
  193MPD1    C1 2934   1.748   4.709  16.197  0.4711 -0.5699 -0.4026
  193MPD1    C2 2935   1.840   4.717  16.300 -1.0163 -0.2733 -0.1083
  193MPD1    C3 2936   1.934   4.616  16.322 -0.8127  0.7546 -0.0478
  193MPD1    C4 2937   1.933   4.514  16.233  0.7757 -0.6467  0.0569
  193MPD1    C5 2938   1.846   4.511  16.121  0.3817  0.8885 -0.0657
  193MPD1     H 2939   1.836   0.081  16.368 -0.6575 -0.2609 -0.1038
  193MPD1    H1 2940   1.999   4.429  16.237  2.5347  0.6487 -1.3364
  193MPD1    H2 2941   1.695   4.617  16.016 -0.8801 -1.1164 -0.9190
  193MPD1    H3 2942   1.839   4.421  16.060  1.7906  1.8274 -1.6133
  193MPD1     N 2943   2.035   4.614  16.423 -0.0104  0.3971  0.2547
  193MPD1    H5 2944   2.116   4.556  16.406  0.1634  1.1322 -1.4922
  193MPD1    N1 2945   1.656   0.095  16.174 -0.3309 -0.0706  0.0262
  193MPD1    H6 2946   1.621   0.133  16.262 -1.9570 -0.3453 -0.5000
  193MPD1    H7 2947   1.570   0.068  16.127 -0.0641  0.4195 -0.7390
  194MPD1     C 2948   0.624   2.474  16.555 -0.1064 -0.5964 -0.3113
  194MPD1    C1 2949   0.609   2.569  16.647 -0.2346 -0.1937  0.2808
  194MPD1    C2 2950   0.537   2.538  16.764  0.3132 -0.3347  0.3104
  194MPD1    C3 2951   0.478   2.415  16.773  0.6267 -0.8108  0.8520
  194MPD1    C4 2952   0.493   2.323  16.674 -0.0075 -0.4417  0.0893
  194MPD1    C5 2953   0.571   2.350  16.569  0.2048  0.7033  0.2552
  194MPD1     H 2954   0.534   2.608  16.847  0.2527  1.4469 -1.1704
  194MPD1    H1 2955   0.449   2.224  16.674  2.3707 -1.5018  3.2414
  194MPD1    H2 2956   0.687   2.487  16.468 -0.0371 -1.8779 -0.4538
  194MPD1    H3 2957   0.599   2.281  16.489  0.2037 -1.1739  1.8628
  194MPD1     N 2958   0.397   2.377  16.883  0.1610  0.3021  0.8450
  194MPD1    H5 2959   0.349   2.289  16.868 -0.9511  1.0294  0.1641
  194MPD1    N1 2960   0.668   2.694  16.629  0.7061 -0.0759 -0.1771
  194MPD1    H6 2961   0.612   2.767  16.673  1.9233  1.4605 -1.2006
  194MPD1    H7 2962   0.669   2.723  16.532 -0.4328  0.4409 -0.0297
  195MPD1     C 2963   1.766   4.091   0.035 -0.0818  0.3395 -0.3040
  195MPD1    C1 2964   1.638   4.064  17.673 -0.8227  0.5333 -0.5981
  195MPD1    C2 2965   1.580   3.941   0.032 -0.0785  0.8338 -0.7629
  195MPD1    C3 2966   1.662   3.845   0.091 -0.1862  0.4689 -0.4846
  195MPD1    C4 2967   1.793   3.874   0.130 -0.6031 -0.1793 -0.2188
  195MPD1    C5 2968   1.839   3.999   0.113  0.3611  0.8151 -0.9029
  195MPD1     H 2969   1.474   3.928   0.013 -0.0020  1.7247 -1.8080
  195MPD1    H1 2970   1.859   3.794   0.161 -0.9359  0.2720  1.6290
  195MPD1    H2 2971   1.818   4.183   0.011 -1.3356  0.7315 -1.5382
  195MPD1    H3 2972   1.941   4.019   0.145  0.2676 -0.7076  0.3682
  195MPD1     N 2973   1.621   3.707   0.108 -0.6094  0.0873  0.1227
  195MPD1    H5 2974   1.683   3.638   0.149 -2.0676 -0.8689  0.7508
  195MPD1    N1 2975   1.570   4.163  17.595 -0.3969  0.6258 -0.3484
  195MPD1    H6 2976   1.621   4.206  17.518 -1.5916  0.6595 -1.1078
  195MPD1    H7 2977   1.476   4.142  17.562 -1.0870  1.0141  1.3790
  196MPD1     C 2978   3.246   4.506   0.996  0.4400 -0.0306  0.0718
  196MPD1    C1 2979   3.158   4.555   1.090 -0.2402 -0.1623  0.5246
  196MPD1    C2 2980   3.054   4.483   1.135 -0.4986 -0.3193 -0.4347
  196MPD1    C3 2981   3.028   4.360   1.085  0.0692 -0.2611  0.3266
  196MPD1    C4 2982   3.112   4.316   0.991 -0.2654  0.9715 -0.2286
  196MPD1    C5 2983   3.215   4.385   0.947  0.6206  0.2640 -0.5247
  196MPD1     H 2984   2.986   4.525   1.208  0.9856 -0.6809  1.1512
  196MPD1    H1 2985   3.099   4.224   0.935  1.6189  1.2019 -1.0525
  196MPD1    H2 2986   3.329   4.559   0.951  0.6193 -0.2832  0.1043
  196MPD1    H3 2987   3.285   4.341   0.877  2.0867  0.0610  1.0777
  196MPD1     N 2988   2.923   4.276   1.118  0.6404  0.3406 -0.6768
  196MPD1    H5 2989   2.905   4.187   1.073  0.5411 -0.8831  1.7826
  196MPD1    N1 2990   3.165   4.692   1.120  0.5453 -0.2675 -0.1162
  196MPD1    H6 2991   3.152   4.717   1.218 -3.5029  0.6331 -0.8746
  196MPD1    H7 2992   3.257   0.004   1.090 -0.6797  0.7268 -2.8201
  197MPD1     C 2993   1.285   1.579   0.154  0.6164 -0.3001  0.1691
  197MPD1    C1 2994   1.257   1.692   0.078  0.2942 -0.2864  0.5668
  197MPD1    C2 2995   1.154   1.686  17.669 -0.6867  0.3098 -0.2771
  197MPD1    C3 2996   1.097   1.562  17.634 -0.0101 -0.3289  0.0675
  197MPD1    C4 2997   1.134   1.451   0.021  0.5510 -0.4781  0.1953
  197MPD1    C5 2998   1.228   1.463   0.120 -0.6598 -0.9345  0.0411
  197MPD1     H 2999   1.113   1.778  17.629 -1.8754 -0.3430 -0.5510
  197MPD1    H1 3000   1.079   1.358   0.012 -0.5069  0.2922 -1.3778
  197MPD1    H2 3001   1.358   1.583   0.233  0.3765  1.6189  0.2805
  197MPD1    H3 3002   1.257   1.375   0.177 -0.8875 -1.7582 -1.1003
  197MPD1     N 3003   0.993   1.546  17.539  0.1896 -0.0852  0.0012
  197MPD1    H5 3004   0.953   1.453  17.531 -4.3242  1.8168  0.5844
  197MPD1    N1 3005   1.312   1.818   0.112  0.5150 -0.4904 -0.2549
  197MPD1    H6 3006   1.319   1.877   0.030 -1.2104  0.8442  0.5505
  197MPD1    H7 3007   1.403   1.813   0.157  2.4751 -0.1272 -4.1691
  198MPD1     C 3008   2.754   4.395  15.448 -0.1836 -0.1169  0.1081
  198MPD1    C1 3009   2.731   4.294  15.534  0.0802 -0.7459  0.1257
  198MPD1    C2 3010   2.831   4.203  15.556 -0.2830 -0.5492 -0.6046
  198MPD1    C3 3011   2.956   4.197  15.490 -0.5371  0.0504 -0.0903
  198MPD1    C4 3012   2.959   4.288  15.383  0.0510 -0.5277  0.5669
  198MPD1    C5 3013   2.867   4.384  15.365  0.5421  0.5185 -0.9925
  198MPD1     H 3014   2.812   4.119  15.623 -0.7929 -0.3531 -0.5032
  198MPD1    H1 3015   3.038   4.276  15.309  0.4041  0.3016  0.8123
  198MPD1    H2 3016   2.682   4.472  15.425 -1.1974 -0.9823  0.3646
  198MPD1    H3 3017   2.875   4.450  15.280 -0.1215 -0.3134 -1.7080
  198MPD1     N 3018   3.046   4.087  15.500  0.2586 -0.3728  0.0492
  198MPD1    H5 3019   3.024   4.007  15.558 -1.5656 -1.8425 -2.7011
  198MPD1    N1 3020   2.620   4.304  15.623 -0.5659 -0.1299  0.4320
  198MPD1    H6 3021   2.536   4.320  15.567 -0.5854 -1.1539  0.1672
  198MPD1    H7 3022   2.604   4.219  15.678  2.6825 -0.2189  1.2231
  199MPD1     C 3023   0.834   1.402   9.443 -0.0466 -0.4251 -1.0383
  199MPD1    C1 3024   0.879   1.322   9.545  0.2603  0.1326  0.3080
  199MPD1    C2 3025   0.793   1.247   9.623  0.4805  0.9660 -0.2147
  199MPD1    C3 3026   0.653   1.245   9.598 -0.0314 -0.2273  0.7333
  199MPD1    C4 3027   0.605   1.328   9.503  0.1260 -0.4418  0.1043
  199MPD1    C5 3028   0.692   1.408   9.428  0.2510  0.0061 -0.3815
  199MPD1     H 3029   0.833   1.195   9.709 -2.2662 -0.3283  0.2856
  199MPD1    H1 3030   0.500   1.337   9.477  0.1295  0.6414  0.4784
  199MPD1    H2 3031   0.894   1.463   9.377 -1.3874 -1.4959 -3.2428
  199MPD1    H3 3032   0.647   1.473   9.354 -0.9150 -2.0221 -1.4553
  199MPD1     N 3033   0.555   1.163   9.669  0.0690 -0.5451 -0.0314
  199MPD1    H5 3034   0.457   1.188   9.658  0.7457  0.5464 -3.5770
  199MPD1    N1 3035   1.021   1.302   9.560  0.4980 -0.5442  0.3022
  199MPD1    H6 3036   1.079   1.382   9.536 -0.2026 -0.7275 -1.9439
  199MPD1    H7 3037   1.042   1.274   9.656  1.7684 -1.7947 -0.3394
  200MPD1     C 3038   3.982   1.591  14.335  0.2153 -0.0356  0.0818
  200MPD1    C1 3039   3.844   1.581  14.308 -0.3450  0.2457 -0.6339
  200MPD1    C2 3040   3.797   1.524  14.195 -0.2895 -0.5028 -0.4352
  200MPD1    C3 3041   3.887   1.476  14.104 -0.5250  0.3568 -0.2533
  200MPD1    C4 3042   4.025   1.487  14.128  0.2431 -0.3542  0.0238
  200MPD1    C5 3043   4.069   1.545  14.240 -0.0400  0.4601  0.0448
  200MPD1     H 3044   3.691   1.503  14.186 -0.7649  1.2185  1.0184
  200MPD1    H1 3045   4.095   1.457  14.050  0.1181  1.3925 -0.7640
  200MPD1    H2 3046   4.026   1.638  14.423  1.4415  0.1593 -0.6313
  200MPD1    H3 3047   4.176   1.555  14.254 -0.2047 -0.0142  1.6441
  200MPD1     N 3048   3.842   1.411  13.988  0.2776 -0.0878 -0.1262
  200MPD1    H5 3049   3.743   1.421  13.967  0.2330 -0.9079 -0.3096
  200MPD1    N1 3050   3.756   1.642  14.397 -0.4019 -0.5002  0.2194
  200MPD1    H6 3051   3.665   1.596  14.401 -0.8169  0.2151 -0.9257
  200MPD1    H7 3052   3.796   1.648  14.491 -1.5228 -0.0819  0.6682
  201MPD1     C 3053   1.112   0.002  12.897  0.6436  0.5449 -0.9095
  201MPD1    C1 3054   1.104   4.626  12.795 -0.2635 -0.1915 -0.1982
  201MPD1    C2 3055   1.137   4.494  12.829  0.5173 -0.6495  0.3351
  201MPD1    C3 3056   1.168   4.456  12.957 -0.7757  0.2124 -0.2141
  201MPD1    C4 3057   1.185   4.557  13.048  0.1409  0.1997  0.0327
  201MPD1    C5 3058   1.157   4.683  13.023 -0.3563 -0.4639  0.0921
  201MPD1     H 3059   1.126   4.414  12.757 -0.1931  0.7463 -1.0911
  201MPD1    H1 3060   1.209   4.541  13.152 -0.9824  2.6352  0.6554
  201MPD1    H2 3061   1.110   0.107  12.873 -1.7193  0.9577  1.0665
  201MPD1    H3 3062   1.173   0.038  13.101 -0.2061 -0.3091 -0.0852
  201MPD1     N 3063   1.194   4.325  12.982  0.1347 -0.2222 -0.0188
  201MPD1    H5 3064   1.158   4.248  12.925  1.2302 -0.3978 -0.4909
  201MPD1    N1 3065   1.100   4.674  12.663  0.6528  0.0925 -0.3890
  201MPD1    H6 3066   1.050   0.041  12.648 -0.5120 -0.5344 -0.1294
  201MPD1    H7 3067   1.070   4.600  12.600 -0.7746  0.1573  0.2226
  202MPD1     C 3068   2.827   0.118   9.958 -0.3322 -0.5806  0.1936
  202MPD1    C1 3069   2.725   0.136   9.866 -0.7202  0.1526 -0.2611
  202MPD1    C2 3070   2.610   0.059   9.891 -0.2256  0.1633 -0.1680
  202MPD1    C3 3071   2.575   0.010  10.019  0.2162 -0.6170 -0.2454
  202MPD1    C4 3072   2.677   0.004  10.112 -0.6675  0.5508 -0.5315
  202MPD1    C5 3073   2.795   0.053  10.074 -0.1176 -0.7022  0.1078
  202MPD1     H 3074   2.531   0.054   9.818  0.0170 -1.5836 -0.3032
  202MPD1    H1 3075   2.665   4.681  10.211 -0.7130 -1.2731 -1.3204
  202MPD1    H2 3076   2.926   0.153   9.931  0.3711 -1.7193  1.3196
  202MPD1    H3 3077   2.870   0.044  10.153 -0.2991 -2.4047  0.0898
  202MPD1     N 3078   2.451   4.662  10.049 -0.1163 -0.0816  0.3849
  202MPD1    H5 3079   2.442   4.605  10.133 -0.5940 -0.9313 -0.2405
  202MPD1    N1 3080   2.757   0.160   9.729  0.0504  0.0073 -0.3317
  202MPD1    H6 3081   2.674   0.194   9.682 -0.1206 -0.9018 -0.6783
  202MPD1    H7 3082   2.830   0.231   9.729  0.5009 -0.4507  3.4795
  203MPD1     C 3083   4.599   4.610  12.663 -0.0529  0.5357 -0.5918
  203MPD1    C1 3084   4.700   4.622  12.749  0.1775  0.4695  0.6157
  203MPD1    C2 3085   0.081   4.518  12.742 -0.3336  0.2968 -0.3161
  203MPD1    C3 3086   0.070   4.401  12.673 -0.1231 -0.1131 -0.3388
  203MPD1    C4 3087   4.669   4.388  12.602  0.6823  0.4459 -0.0989
  203MPD1    C5 3088   4.586   4.494  12.595 -0.1539  0.3573 -0.4329
  203MPD1     H 3089   0.166   4.513  12.809  0.4329  1.2717 -1.2189
  203MPD1    H1 3090   4.648   4.300  12.542  0.2412  0.0481  0.6333
  203MPD1    H2 3091   4.526   4.689  12.650 -1.8825 -1.4192 -2.4298
  203MPD1    H3 3092   4.490   4.475  12.549 -0.2851 -0.9268  0.3445
  203MPD1     N 3093   0.167   4.305  12.682 -0.0451  0.4682 -0.0973
  203MPD1    H5 3094   0.249   4.333  12.734 -0.5128 -1.3007  1.5845
  203MPD1    N1 3095   0.004   0.024  12.817 -0.2170  0.2737 -0.1140
  203MPD1    H6 3096   4.635   0.055  12.856  1.8811  1.3051  3.8683
  203MPD1    H7 3097   0.078   0.027  12.887 -1.2523  1.6559  0.9184
  204MPD1     C 3098   4.331   0.420   0.162  0.2907 -0.4474 -0.6508
  204MPD1    C1 3099   4.464   0.420   0.132 -0.3980 -0.1472 -0.3366
  204MPD1    C2 3100   4.517   0.295   0.095 -0.2359 -0.0653 -0.0138
  204MPD1    C3 3101   4.444   0.179   0.106 -0.2779 -0.4947 -0.4455
  204MPD1    C4 3102   4.312   0.184   0.148  0.2242 -0.6920  0.0377
  204MPD1    C5 3103   4.257   0.308   0.180  0.1833  0.6957  0.2882
  204MPD1     H 3104   4.614   0.281   0.047 -0.3427 -1.7045  0.2505
  204MPD1    H1 3105   4.252   0.095   0.163 -1.4963  0.8534  2.4043
  204MPD1    H2 3106   4.290   0.515   0.195  0.6069 -0.5766  0.1095
  204MPD1    H3 3107   4.150   0.317   0.197  0.2820  0.6164  0.9332
  204MPD1     N 3108   4.498   0.059   0.048  0.5745 -0.7673  0.2450
  204MPD1    H5 3109   4.586   0.077   0.000  0.9284  0.3174  1.3013
  204MPD1    N1 3110   4.536   0.540   0.108  0.4074 -0.3241  0.3867
  204MPD1    H6 3111   4.634   0.541   0.137  0.0434  0.3387  1.5995
  204MPD1    H7 3112   4.499   0.619   0.160 -2.2506 -0.6626 -0.9824
  205MPD1     C 3113   0.087   3.075  17.081  0.4125 -0.0459 -0.8128
  205MPD1    C1 3114   0.096   3.007  17.200 -0.3271  0.3325  0.1431
  205MPD1    C2 3115   0.081   3.084  17.313 -0.5513  0.3134 -0.7121
  205MPD1    C3 3116   0.092   3.222  17.318  0.5100  0.4831  0.1632
  205MPD1    C4 3117   0.100   3.291  17.200  0.2585  0.3057  0.2150
  205MPD1    C5 3118   0.093   3.213  17.086 -0.4155  0.2860  0.5755
  205MPD1     H 3119   0.069   3.031  17.406 -1.2715  0.7199 -0.5674
  205MPD1    H1 3120   0.119   3.397  17.189  2.5909  0.0129  1.4115
  205MPD1    H2 3121   0.083   3.030  16.982 -2.0229  2.0271 -1.6315
  205MPD1    H3 3122   0.111   3.268  16.994  0.1061 -0.2117  0.3831
  205MPD1     N 3123   0.096   3.299  17.439 -0.8177  0.0712 -0.3861
  205MPD1    H5 3124   0.095   3.400  17.435  0.9001  0.0926 -0.5071
  205MPD1    N1 3125   0.080   2.867  17.213  0.0678 -0.4295  0.1266
  205MPD1    H6 3126   0.127   2.816  17.138 -1.2558 -2.8415  0.9491
  205MPD1    H7 3127   0.116   2.840  17.304  1.1404  0.0345 -0.1609
  206MPD1     C 3128   4.522   2.542  16.753  0.1669  0.2556  0.4434
  206MPD1    C1 3129   4.478   2.407  16.744 -0.7753  0.3038 -0.3816
  206MPD1    C2 3130   4.453   2.350  16.621  0.8880  0.2134 -0.4160
  206MPD1    C3 3131   4.480   2.419  16.503  0.1091  0.5843 -0.1197
  206MPD1    C4 3132   4.511   2.554  16.517 -0.2643  0.6115 -0.0488
  206MPD1    C5 3133   4.544   2.613  16.638 -0.1604  0.0203  0.0728
  206MPD1     H 3134   4.418   2.248  16.621  0.8812  0.2144 -1.4272
  206MPD1    H1 3135   4.530   2.613  16.428 -0.1228 -0.0522 -0.4583
  206MPD1    H2 3136   4.546   2.582  16.851 -2.4066 -1.3272  1.7207
  206MPD1    H3 3137   4.564   2.719  16.647  0.4785 -0.1271  0.4307
  206MPD1     N 3138   4.457   2.364  16.374 -0.0070 -0.1331 -0.0953
  206MPD1    H5 3139   4.435   2.426  16.296  1.5458  0.0044 -0.4392
  206MPD1    N1 3140   4.457   2.332  16.857 -0.7574  0.4026 -0.2316
  206MPD1    H6 3141   4.389   2.257  16.852  1.2860 -1.4245 -0.8882
  206MPD1    H7 3142   4.414   2.405  16.913 -1.2940 -0.1616  0.0947
  207MPD1     C 3143   2.818   0.218   9.245  0.4282  0.5722 -0.4854
  207MPD1    C1 3144   2.923   0.235   9.333 -0.6730  0.1517 -0.3771
  207MPD1    C2 3145   2.914   0.326   9.438 -0.1663 -0.1804 -0.5100
  207MPD1    C3 3146   2.791   0.389   9.459 -0.6465 -0.5804  0.0615
  207MPD1    C4 3147   2.694   0.375   9.365 -0.3947 -0.6870  0.3914
  207MPD1    C5 3148   2.712   0.293   9.257  0.3243  0.3674  0.1088
  207MPD1     H 3149   2.994   0.340   9.510  0.0235  1.3400 -1.0135
  207MPD1    H1 3150   2.603   0.434   9.375 -0.9102 -1.5208  0.6073
  207MPD1    H2 3151   2.818   0.143   9.167  1.6240  0.4276 -0.3436
  207MPD1    H3 3152   2.641   0.291   9.175 -0.7375 -2.3978  1.0847
  207MPD1     N 3153   2.775   0.487   9.564  0.2320  0.1736 -0.0068
  207MPD1    H5 3154   2.705   0.559   9.548  0.0353 -0.3404 -1.5502
  207MPD1    N1 3155   3.043   0.183   9.306 -0.3549  0.9270  0.3205
  207MPD1    H6 3156   3.043   0.102   9.244  0.3165  0.5503  0.8040
  207MPD1    H7 3157   3.105   0.164   9.385  0.5886 -2.0539 -1.1461
  208MPD1     C 3158   1.305   4.149   0.170  0.1342  0.6033 -0.0682
  208MPD1    C1 3159   1.302   4.183   0.303 -0.0674  0.3610 -0.1103
  208MPD1    C2 3160   1.250   4.084   0.392  0.1188  0.2306 -0.0913
  208MPD1    C3 3161   1.199   3.966   0.345 -0.3758  0.2217 -0.1318
  208MPD1    C4 3162   1.194   3.938   0.209  0.3882 -0.1903 -0.1442
  208MPD1    C5 3163   1.252   4.028   0.126 -0.3214  0.2201  0.4335
  208MPD1     H 3164   1.245   4.105   0.498 -0.6698 -0.7461  0.0621
  208MPD1    H1 3165   1.163   3.845   0.163  0.2262  0.1169 -0.6556
  208MPD1    H2 3166   1.345   4.222   0.101  0.4396 -1.1143 -1.7162
  208MPD1    H3 3167   1.258   4.001   0.022 -1.7781  1.6078 -0.0230
  208MPD1     N 3168   1.134   3.887   0.442 -0.4609 -0.8849  0.0494
  208MPD1    H5 3169   1.131   3.927   0.535  2.0556 -1.0815  0.2130
  208MPD1    N1 3170   1.367   4.298   0.352 -0.0172 -0.2054 -0.1949
  208MPD1    H6 3171   1.325   4.324   0.441  2.0316  1.6103  0.2404
  208MPD1    H7 3172   1.361   4.371   0.281 -0.4664 -1.2759 -1.2542
  209MPD1     C 3173   3.209   1.388  11.001  0.6541 -0.2359 -0.3672
  209MPD1    C1 3174   3.239   1.340  10.877  0.2988 -0.2489 -0.3614
  209MPD1    C2 3175   3.196   1.211  10.862 -0.8011  0.0181  0.4251
  209MPD1    C3 3176   3.119   1.144  10.953 -0.9975 -0.8837 -0.0298
  209MPD1    C4 3177   3.075   1.211  11.062 -0.4630  0.3301 -0.0445
  209MPD1    C5 3178   3.114   1.340  11.084  0.2881  0.1471 -0.0083
  209MPD1     H 3179   3.226   1.157  10.773  1.4292  2.0033 -0.0401
  209MPD1    H1 3180   3.001   1.157  11.120  0.3744  1.4962  2.0749
  209MPD1    H2 3181   3.262   1.478  11.029  0.4663  0.1121 -1.1239
  209MPD1    H3 3182   3.097   1.382  11.182  0.0754 -0.2118  0.1089
  209MPD1     N 3183   3.084   1.009  10.928  0.2793  0.6798  0.2839
  209MPD1    H5 3184   3.121   0.977  10.839  2.8005 -1.4518  2.0794
  209MPD1    N1 3185   3.344   1.382  10.801  0.4681  0.2935  0.2937
  209MPD1    H6 3186   3.349   1.484  10.808  0.0202  0.1447  2.5491
  209MPD1    H7 3187   3.329   1.360  10.703  0.4740  0.6850  0.2038
  210MPD1     C 3188   3.154   0.234  11.504 -0.1889  0.4034 -0.4988
  210MPD1    C1 3189   3.214   0.218  11.385  0.0743 -0.4050  0.0258
  210MPD1    C2 3190   3.171   0.289  11.275  0.7864 -0.2506  0.2635
  210MPD1    C3 3191   3.088   0.399  11.286  0.2670  0.2382  0.2613
  210MPD1    C4 3192   3.048   0.436  11.412  0.7570  0.0090  0.3732
  210MPD1    C5 3193   3.080   0.350  11.515  0.2493  0.2641 -0.0977
  210MPD1     H 3194   3.222   0.277  11.181 -0.5990  4.1031 -1.0470
  210MPD1    H1 3195   2.998   0.530  11.427 -2.0803 -0.8788 -3.4911
  210MPD1    H2 3196   3.183   0.171  11.588  0.2935 -0.4053 -1.2826
  210MPD1    H3 3197   3.051   0.380  11.615 -0.3760  3.1866 -1.1778
  210MPD1     N 3198   3.044   0.485  11.182 -0.6907 -0.1649 -0.4168
  210MPD1    H5 3199   2.984   0.561  11.212 -2.8952 -1.0016 -2.7241
  210MPD1    N1 3200   3.299   0.111  11.376  0.3223  0.3738  0.1233
  210MPD1    H6 3201   3.358   0.105  11.459  0.3156  0.3471  0.1259
  210MPD1    H7 3202   3.360   0.116  11.295 -0.6082 -0.7243 -0.6348
  211MPD1     C 3203   0.563   4.311  15.706  0.4124  0.5787 -0.7061
  211MPD1    C1 3204   0.427   4.296  15.679 -0.4605  0.2630  0.1866
  211MPD1    C2 3205   0.346   4.324  15.781 -0.4718 -0.2373 -0.5652
  211MPD1    C3 3206   0.392   4.347  15.912 -0.1595  0.3663 -0.5777
  211MPD1    C4 3207   0.529   4.354  15.937  0.0826  0.0168  0.0009
  211MPD1    C5 3208   0.611   4.339  15.830 -0.4147 -0.2870 -0.0529
  211MPD1     H 3209   0.241   4.325  15.755 -0.9527 -0.5109  1.2981
  211MPD1    H1 3210   0.584   4.381  16.026  0.4139  1.1209 -0.5328
  211MPD1    H2 3211   0.642   4.296  15.634  0.2006  1.2699 -1.0849
  211MPD1    H3 3212   0.716   4.340  15.855 -1.2114 -2.2955  3.3276
  211MPD1     N 3213   0.294   4.379  16.013  0.0197 -0.6863  0.1067
  211MPD1    H5 3214   0.197   4.398  15.990 -0.2074 -0.6567  1.0813
  211MPD1    N1 3215   0.379   4.268  15.558  0.1883 -0.4749 -0.4123
  211MPD1    H6 3216   0.285   4.229  15.563  0.6345 -1.3878  0.8742
  211MPD1    H7 3217   0.440   4.199  15.514  2.9795  2.0146 -0.3930
  212MPD1     C 3218   4.003   2.297  16.411  0.6805  0.6443  0.6540
  212MPD1    C1 3219   3.916   2.334  16.507  0.2079  0.2337 -0.1314
  212MPD1    C2 3220   3.920   2.266  16.624 -0.4230  0.3328 -0.4237
  212MPD1    C3 3221   4.023   2.181  16.650  0.5812 -0.4707  0.4328
  212MPD1    C4 3222   4.108   2.142  16.554  0.2023 -0.0585  0.5820
  212MPD1    C5 3223   4.091   2.194  16.431 -0.9248 -0.3273 -0.4608
  212MPD1     H 3224   3.845   2.278  16.701  1.2593  0.0896  1.2769
  212MPD1    H1 3225   4.185   2.066  16.560  0.5851  0.2520 -0.4084
  212MPD1    H2 3226   3.989   2.338  16.312 -0.0593 -2.7462 -0.6255
  212MPD1    H3 3227   4.145   2.162  16.343  0.6124  1.3087 -0.0911
  212MPD1     N 3228   4.048   2.119  16.776  0.1034 -0.4305  0.2243
  212MPD1    H5 3229   4.134   2.065  16.781  2.1276  2.6793 -0.9663
  212MPD1    N1 3230   3.807   2.408  16.468 -0.2608  0.4704  0.4071
  212MPD1    H6 3231   3.764   2.463  16.543  1.4145  2.1502  0.1316
  212MPD1    H7 3232   3.833   2.469  16.391 -0.0466  0.9117  0.8285
  213MPD1     C 3233   2.278   3.182  16.094  0.5823 -0.9329  0.7133
  213MPD1    C1 3234   2.144   3.178  16.121 -0.6072  0.8463 -1.4075
  213MPD1    C2 3235   2.060   3.181  16.015 -0.4048 -0.5749  0.6604
  213MPD1    C3 3236   2.097   3.241  15.894 -0.7294 -0.9023  0.1656
  213MPD1    C4 3237   2.232   3.269  15.878 -0.2754  0.4284  0.3923
  213MPD1    C5 3238   2.323   3.239  15.977 -0.1791 -0.0108 -0.0062
  213MPD1     H 3239   1.954   3.162  16.027 -0.6734  0.1975 -0.4604
  213MPD1    H1 3240   2.276   3.309  15.787  1.7995 -1.9388  0.3726
  213MPD1    H2 3241   2.359   3.160  16.163  1.6144  0.9183  0.1120
  213MPD1    H3 3242   2.430   3.242  15.958 -0.2104  2.4299  0.2274
  213MPD1     N 3243   1.992   3.256  15.801  0.4348 -0.2841  0.0653
  213MPD1    H5 3244   1.897   3.233  15.828 -0.3819  1.1812 -1.5084
  213MPD1    N1 3245   2.103   3.101  16.236  0.3878 -0.1126 -0.2971
  213MPD1    H6 3246   2.006   3.098  16.265  0.2786 -1.2256 -0.8101
  213MPD1    H7 3247   2.161   3.124  16.317 -0.1365  3.9089 -1.0250
  214MPD1     C 3248   1.079   3.148  15.663  0.2001  0.4706  0.2812
  214MPD1    C1 3249   1.169   3.076  15.736 -0.4834  0.3470 -0.0142
  214MPD1    C2 3250   1.297   3.089  15.694 -0.4066  0.6428  0.1354
  214MPD1    C3 3251   1.342   3.175  15.594 -0.2264 -0.8921 -1.0156
  214MPD1    C4 3252   1.247   3.249  15.527  0.1141  0.4484 -0.0905
  214MPD1    C5 3253   1.118   3.240  15.572  0.5901  0.5014  0.3263
  214MPD1     H 3254   1.375   3.033  15.745  0.3451 -1.1496 -2.9515
  214MPD1    H1 3255   1.258   3.315  15.441 -0.6415  0.4187 -0.2131
  214MPD1    H2 3256   0.972   3.142  15.680  0.7252 -1.3545  2.9505
  214MPD1    H3 3257   1.039   3.291  15.518 -0.7558 -0.6766  1.2003
  214MPD1     N 3258   1.477   3.194  15.554  0.4674  0.4371 -0.0910
  214MPD1    H5 3259   1.499   3.262  15.482  1.7806  0.8969  0.7356
  214MPD1    N1 3260   1.127   2.969  15.822 -0.4964  0.0282 -0.0345
  214MPD1    H6 3261   1.050   3.000  15.879 -0.2595 -1.1706  0.9371
  214MPD1    H7 3262   1.203   2.945  15.885 -1.6796  0.1520  1.4207
  215MPD1     C 3263   2.970   4.182  11.068 -0.2731 -0.1758  0.3178
  215MPD1    C1 3264   3.011   4.213  11.192 -0.1698 -0.4647 -0.4056
  215MPD1    C2 3265   2.991   4.343  11.231 -0.0659  0.0392 -0.1625
  215MPD1    C3 3266   2.942   4.444  11.155 -1.0205 -0.2099  0.1789
  215MPD1    C4 3267   2.915   4.409  11.022 -0.2031  0.3804 -0.1073
  215MPD1    C5 3268   2.929   4.277  10.979  0.4229  0.3815 -0.3529
  215MPD1     H 3269   3.025   4.376  11.329  1.5579 -1.4067 -0.2246
  215MPD1    H1 3270   2.895   4.488  10.951  1.1792  0.3911 -0.4825
  215MPD1    H2 3271   2.964   4.079  11.036 -0.8039  1.1328 -3.8192
  215MPD1    H3 3272   2.911   4.251  10.875 -2.0186  1.7878 -0.2638
  215MPD1     N 3273   2.922   4.579  11.202 -0.2516 -0.7773  0.0690
  215MPD1    H5 3274   2.949   4.595  11.299 -1.3018 -0.3885  0.3008
  215MPD1    N1 3275   3.034   4.109  11.282 -0.3736  0.2031 -0.0638
  215MPD1    H6 3276   3.073   4.032  11.229 -1.7821 -0.8191  0.3784
  215MPD1    H7 3277   3.096   4.142  11.356 -1.9585 -0.2413  1.4553
  216MPD1     C 3278   4.268   2.169  17.245 -0.4589 -0.1893 -0.1470
  216MPD1    C1 3279   4.205   2.111  17.353  0.7598  0.6424  0.7837
  216MPD1    C2 3280   4.229   1.972  17.370  1.0513  0.8836 -0.2205
  216MPD1    C3 3281   4.291   1.897  17.272 -0.3498  0.7211 -0.3456
  216MPD1    C4 3282   4.328   1.958  17.158  0.4127  0.0389 -0.2342
  216MPD1    C5 3283   4.324   2.094  17.144  0.7227  0.0981 -0.4180
  216MPD1     H 3284   4.214   1.923  17.466 -0.0608  0.8409 -0.4216
  216MPD1    H1 3285   4.380   1.907  17.077  0.3160  0.8316 -0.7959
  216MPD1    H2 3286   4.284   2.276  17.237  0.4151 -0.3514 -0.5692
  216MPD1    H3 3287   4.369   2.139  17.057  0.9089 -0.4732 -0.6160
  216MPD1     N 3288   4.300   1.755  17.291 -0.1014 -0.2662  0.3432
  216MPD1    H5 3289   4.289   1.716  17.384  0.6853 -0.5180  0.3274
  216MPD1    N1 3290   4.167   2.185  17.467 -0.4293 -0.6116 -0.5761
  216MPD1    H6 3291   4.112   2.266  17.438  0.5532 -0.0713 -0.9272
  216MPD1    H7 3292   4.104   2.123  17.517 -1.4584 -0.4530 -1.6705
  217MPD1     C 3293   4.394   3.333   8.613  0.4454 -0.4417  0.3374
  217MPD1    C1 3294   4.369   3.459   8.660 -0.2548  0.3068 -0.0662
  217MPD1    C2 3295   4.439   3.495   8.771  0.4404  0.5080 -0.0107
  217MPD1    C3 3296   4.519   3.414   8.846 -0.2735  0.3010 -0.2839
  217MPD1    C4 3297   4.535   3.285   8.800  0.2763 -0.2575  0.4404
  217MPD1    C5 3298   4.471   3.250   8.681 -0.1587  0.0707 -0.2360
  217MPD1     H 3299   4.427   3.596   8.808  1.6661  0.9231 -0.7539
  217MPD1    H1 3300   4.602   3.215   8.849  0.5022  0.4594  1.1605
  217MPD1    H2 3301   4.355   3.290   8.521  2.6634  0.5188 -1.0491
  217MPD1    H3 3302   4.493   3.155   8.634  0.7494 -0.4046  1.1341
  217MPD1     N 3303   4.585   3.455   8.961 -0.6699 -0.6138 -0.7760
  217MPD1    H5 3304   4.632   3.388   9.021  1.6625  1.2264 -0.5424
  217MPD1    N1 3305   4.313   3.554   8.575  0.1835  0.4618  0.2065
  217MPD1    H6 3306   4.238   3.512   8.520 -0.5635  0.2615  1.3850
  217MPD1    H7 3307   4.271   3.634   8.623 -2.7511 -0.0147 -1.5778
  218MPD1     C 3308   1.725   0.256  13.346  0.5662 -0.9533 -0.2225
  218MPD1    C1 3309   1.823   0.306  13.260 -0.2836 -1.6149  0.0084
  218MPD1    C2 3310   1.911   0.218  13.198  0.3150  0.1043  0.8932
  218MPD1    C3 3311   1.898   0.085  13.212  0.2576 -0.1248 -0.4935
  218MPD1    C4 3312   1.811   0.033  13.301 -0.0938  0.1383  0.6244
  218MPD1    C5 3313   1.719   0.119  13.365 -0.5502 -0.0411  0.4566
  218MPD1     H 3314   1.985   0.259  13.129  2.8307 -1.9288  2.3646
  218MPD1    H1 3315   1.808   4.645  13.315  1.0978  0.2631  1.8754
  218MPD1    H2 3316   1.660   0.317  13.407 -0.6369 -3.4185  0.9580
  218MPD1    H3 3317   1.649   0.075  13.435  0.1540 -0.4126  0.9271
  218MPD1     N 3318   1.993   0.004  13.141  0.5624 -0.5404 -0.8506
  218MPD1    H5 3319   2.062   0.052  13.083  0.2741  0.4167 -0.4020
  218MPD1    N1 3320   1.827   0.448  13.237 -0.0620 -0.0686  0.2870
  218MPD1    H6 3321   1.881   0.487  13.160  0.2342  2.8494  1.9815
  218MPD1    H7 3322   1.738   0.489  13.264 -0.0439  0.2953 -0.2026
  219MPD1     C 3323   2.321   0.252  12.429 -0.5016  0.3658 -0.2992
  219MPD1    C1 3324   2.401   0.138  12.449 -0.5242  0.0149  0.0885
  219MPD1    C2 3325   2.362   0.043  12.537 -0.1406  0.2528 -0.2220
  219MPD1    C3 3326   2.251   0.062  12.614 -0.4225  0.3944  0.3148
  219MPD1    C4 3327   2.168   0.172  12.593  0.1488  0.7391 -0.3070
  219MPD1    C5 3328   2.205   0.266  12.500 -0.5074 -0.1005  0.2081
  219MPD1     H 3329   2.420   4.671  12.542  0.1196  0.5250  1.8512
  219MPD1    H1 3330   2.069   0.184  12.635 -0.9768  1.9477 -3.3288
  219MPD1    H2 3331   2.355   0.332  12.365  2.3819  0.5469  1.4926
  219MPD1    H3 3332   2.137   0.347  12.474 -1.8707 -0.1770  3.5388
  219MPD1     N 3333   2.200   4.683  12.698 -0.1181  0.3014 -0.4366
  219MPD1    H5 3334   2.117   4.705  12.753 -0.8274  0.8585 -1.7191
  219MPD1    N1 3335   2.524   0.129  12.384 -0.3317 -0.5480  0.0346
  219MPD1    H6 3336   2.537   0.032  12.357  0.8705 -0.0054 -1.3198
  219MPD1    H7 3337   2.515   0.191  12.304 -1.4370 -0.9814 -0.1841
  220MPD1     C 3338   2.020   0.917   9.805  0.4479  0.1000 -0.0588
  220MPD1    C1 3339   2.026   0.958   9.939  0.5826  0.5061  0.2479
  220MPD1    C2 3340   2.066   0.864  10.035 -0.2476 -0.0669  0.7360
  220MPD1    C3 3341   2.111   0.741   9.998 -0.1172  0.5843 -0.3071
  220MPD1    C4 3342   2.107   0.699   9.867 -0.7679  0.8389 -0.2593
  220MPD1    C5 3343   2.073   0.795   9.773 -0.7500  1.0637 -0.0624
  220MPD1     H 3344   2.063   0.880  10.142  0.7384 -0.5343  0.8246
  220MPD1    H1 3345   2.133   0.604   9.822 -0.3898  0.0731  1.6020
  220MPD1    H2 3346   1.993   0.982   9.722  0.1251  0.3103  0.2141
  220MPD1    H3 3347   2.062   0.777   9.667  0.6867 -0.9688  0.1265
  220MPD1     N 3348   2.152   0.653  10.102  0.0492  0.3583 -0.1189
  220MPD1    H5 3349   2.162   0.686  10.197 -0.8371  1.3831 -0.3848
  220MPD1    N1 3350   1.982   1.091   9.968 -0.0194  0.2921 -0.0050
  220MPD1    H6 3351   2.006   1.128  10.060  1.2036  0.9885 -0.6021
  220MPD1    H7 3352   2.008   1.159   9.897 -0.1985 -0.5626 -0.8890
  221MPD1     C 3353   3.705   3.638  17.382 -0.3210  0.1179  0.4513
  221MPD1    C1 3354   3.822   3.697  17.335 -0.1566 -0.7846  0.0662
  221MPD1    C2 3355   3.872   3.632  17.224 -1.2794  0.1961 -0.3020
  221MPD1    C3 3356   3.827   3.516  17.167 -0.1231 -0.1310  0.4869
  221MPD1    C4 3357   3.713   3.458  17.225 -0.3822 -0.3230  0.4025
  221MPD1    C5 3358   3.650   3.526  17.331  0.1040  0.4898  0.4075
  221MPD1     H 3359   3.961   3.676  17.181 -1.8980  0.9431 -0.8353
  221MPD1    H1 3360   3.659   3.389  17.162  0.2384  0.6125 -1.1402
  221MPD1    H2 3361   3.657   3.687  17.466 -0.2327  0.0318  0.5521
  221MPD1    H3 3362   3.551   3.496  17.365 -0.1610  4.5527  3.2497
  221MPD1     N 3363   3.898   3.472  17.047  0.2256 -0.6287  0.0481
  221MPD1    H5 3364   3.977   3.524  17.010 -0.2242  1.2205  1.6150
  221MPD1    N1 3365   3.860   3.828  17.375 -0.5310  0.1386 -0.2343
  221MPD1    H6 3366   3.957   3.857  17.367 -0.0025 -1.8183 -0.9063
  221MPD1    H7 3367   3.828   3.858  17.467  0.8781  0.4768  0.1414
  222MPD1     C 3368   3.814   2.032   0.412  0.4058  0.8500  0.3102
  222MPD1    C1 3369   3.863   2.146   0.468  0.3462 -0.0732 -0.2216
  222MPD1    C2 3370   3.900   2.250   0.387 -0.7944 -0.0643  0.3546
  222MPD1    C3 3371   3.861   2.254   0.249  0.3922  0.2998  0.4243
  222MPD1    C4 3372   3.803   2.139   0.203  0.2675 -0.1254 -0.8504
  222MPD1    C5 3373   3.789   2.026   0.281 -0.1895 -0.4026  1.2713
  222MPD1     H 3374   3.924   2.345   0.434  1.2170  0.7251 -2.2396
  222MPD1    H1 3375   3.767   2.131   0.100  0.4540 -0.2313 -0.9066
  222MPD1    H2 3376   3.785   1.947   0.473 -1.9514 -0.0766 -2.1006
  222MPD1    H3 3377   3.748   1.934   0.241 -1.8739  1.2342 -0.8025
  222MPD1     N 3378   3.883   2.363   0.166  0.0823  0.0445 -0.8649
  222MPD1    H5 3379   3.867   2.348   0.067  0.3680 -0.1834 -0.8770
  222MPD1    N1 3380   3.889   2.156   0.608  0.2180 -0.2942  0.3610
  222MPD1    H6 3381   3.854   2.069   0.649 -2.0357  0.6085  0.3885
  222MPD1    H7 3382   3.828   2.223   0.655 -1.4816 -1.1636 -0.5778
  223MPD1     C 3383   3.997   2.524  16.882 -0.3608 -0.3833  0.3642
  223MPD1    C1 3384   3.927   2.637  16.927 -0.1481  0.1651 -0.0776
  223MPD1    C2 3385   3.906   2.656  17.061 -1.0858 -0.3432  0.5649
  223MPD1    C3 3386   3.958   2.576  17.156 -0.2305  0.3635  0.1800
  223MPD1    C4 3387   4.026   2.460  17.110 -0.1726 -0.4730  0.5204
  223MPD1    C5 3388   4.052   2.438  16.972  0.0303  0.1742  0.6485
  223MPD1     H 3389   3.848   2.740  17.097  0.6372  2.1557 -2.5173
  223MPD1    H1 3390   4.060   2.380  17.175  0.7540  0.2833  0.9609
  223MPD1    H2 3391   4.022   2.504  16.779 -0.1183 -0.6834  0.4808
  223MPD1    H3 3392   4.113   2.357  16.934  2.2553  1.8962  0.5292
  223MPD1     N 3393   3.944   2.608  17.291 -0.5292  0.2728 -0.0006
  223MPD1    H5 3394   3.910   2.700  17.318  1.4667  1.1711 -0.5204
  223MPD1    N1 3395   3.859   2.716  16.831  0.7665  0.1731  0.3749
  223MPD1    H6 3396   3.877   2.815  16.847  1.0315  0.2456 -0.3869
  223MPD1    H7 3397   3.884   2.707  16.733  1.1633 -1.1122  0.6002
  224MPD1     C 3398   0.851   4.208   9.030 -0.0494 -0.0602 -0.2269
  224MPD1    C1 3399   0.839   4.329   9.095  0.0034 -0.0710  0.2837
  224MPD1    C2 3400   0.871   4.324   9.232 -0.3856  0.4927 -0.1688
  224MPD1    C3 3401   0.885   4.210   9.305 -0.2342 -0.3059 -0.0041
  224MPD1    C4 3402   0.877   4.093   9.235 -0.0145  0.5146 -0.2920
  224MPD1    C5 3403   0.877   4.095   9.098 -0.5458  0.2796 -0.2964
  224MPD1     H 3404   0.887   4.419   9.282  1.7400  0.5550 -0.9610
  224MPD1    H1 3405   0.897   3.997   9.280  0.9681  0.5709 -0.6036
  224MPD1    H2 3406   0.855   4.202   8.922 -0.9045 -4.1224 -0.0082
  224MPD1    H3 3407   0.893   4.000   9.048 -0.2671 -0.8267  1.9149
  224MPD1     N 3408   0.906   4.203   9.445 -0.0664 -0.1099 -0.5907
  224MPD1    H5 3409   0.920   4.112   9.488  0.0231 -0.4614 -1.3732
  224MPD1    N1 3410   0.830   4.453   9.025 -0.0040 -0.1818 -0.1908
  224MPD1    H6 3411   0.791   4.529   9.081 -2.4485 -1.9113  0.4448
  224MPD1    H7 3412   0.769   4.434   8.946  0.0093 -1.3040  0.0779
  225MPD1     C 3413   2.200   1.115  12.494 -0.3531 -0.8574  0.0305
  225MPD1    C1 3414   2.192   0.988  12.442  0.6914 -0.7949  0.2897
  225MPD1    C2 3415   2.064   0.942  12.425  0.2781  0.1195 -0.3198
  225MPD1    C3 3416   1.948   1.021  12.445  0.0140  0.8925 -0.9263
  225MPD1    C4 3417   1.958   1.147  12.501 -1.1195  0.0882 -0.1317
  225MPD1    C5 3418   2.085   1.188  12.522  0.0645  0.8810 -0.1421
  225MPD1     H 3419   2.059   0.841  12.384 -1.4235  0.6003 -1.3180
  225MPD1    H1 3420   1.878   1.220  12.502 -1.6004 -0.4549  1.4194
  225MPD1    H2 3421   2.301   1.154  12.505 -0.3148 -0.6773 -0.9533
  225MPD1    H3 3422   2.100   1.283  12.573  1.6177 -0.7899  2.4891
  225MPD1     N 3423   1.818   0.975  12.404  0.2832  0.4012  0.1502
  225MPD1    H5 3424   1.746   1.044  12.422  0.8347  1.0260 -0.0512
  225MPD1    N1 3425   2.290   0.897  12.452  0.7455 -0.1501 -0.7996
  225MPD1    H6 3426   2.370   0.946  12.413  2.4286 -1.3951  1.0682
  225MPD1    H7 3427   2.284   0.817  12.390  2.0751  0.0101 -1.1469
  226MPD1     C 3428   0.691   1.150  10.681  0.3452  0.4554  0.1937
  226MPD1    C1 3429   0.725   1.045  10.596 -0.5431  0.3895 -0.2220
  226MPD1    C2 3430   0.705   1.063  10.463 -0.2041 -0.2720  0.0094
  226MPD1    C3 3431   0.674   1.192  10.405  1.0895  0.4288 -0.0399
  226MPD1    C4 3432   0.652   1.294  10.493  0.1804 -1.0808  0.1499
  226MPD1    C5 3433   0.662   1.278  10.630 -0.6594  0.0772  0.0537
  226MPD1     H 3434   0.718   0.980  10.394  0.4819 -0.3628  0.2435
  226MPD1    H1 3435   0.620   1.390  10.453 -0.2448 -1.7723 -1.1628
  226MPD1    H2 3436   0.707   1.131  10.786 -0.4173 -1.7035 -0.0899
  226MPD1    H3 3437   0.648   1.355  10.705  0.4111  1.8044 -1.5442
  226MPD1     N 3438   0.662   1.212  10.261 -1.0764 -0.0493  0.1951
  226MPD1    H5 3439   0.708   1.142  10.204 -3.5889 -1.2301 -0.4084
  226MPD1    N1 3440   0.737   0.916  10.645 -0.5161 -0.5286  0.1857
  226MPD1    H6 3441   0.770   0.916  10.742 -0.5787  0.0160  0.2103
  226MPD1    H7 3442   0.803   0.864  10.588 -0.1589  2.3826 -2.0782
  227MPD1     C 3443   4.702   1.672   9.672  0.1232 -1.0290  0.6191
  227MPD1    C1 3444   4.702   1.547   9.722  0.0963 -0.2658 -0.0676
  227MPD1    C2 3445   0.102   1.500   9.774 -0.1217 -0.0349 -0.6008
  227MPD1    C3 3446   0.218   1.569   9.763 -0.2119 -0.1422  0.1968
  227MPD1    C4 3447   0.223   1.684   9.697  0.6961  0.6004  0.6732
  227MPD1    C5 3448   0.102   1.735   9.665 -0.1405 -0.2876  0.6658
  227MPD1     H 3449   0.111   1.414   9.838 -0.0097  0.0816 -0.4605
  227MPD1    H1 3450   0.307   1.750   9.680  1.3091 -0.6540 -1.1278
  227MPD1    H2 3451   4.617   1.729   9.637  0.8999  0.2099  0.7587
  227MPD1    H3 3452   0.100   1.829   9.612 -0.7643 -1.2648 -1.0490
  227MPD1     N 3453   0.329   1.508   9.831  0.9132  0.2046  0.2325
  227MPD1    H5 3454   0.309   1.433   9.897 -0.0167 -0.3246 -0.6547
  227MPD1    N1 3455   4.579   1.477   9.747  0.0633 -0.3640 -0.0014
  227MPD1    H6 3456   4.499   1.500   9.688  0.0400  2.6493  1.1925
  227MPD1    H7 3457   4.588   1.376   9.744 -1.6040 -0.5063  0.0262
  228MPD1     C 3458   3.124   2.670  13.581 -0.0663  0.3591 -0.3606
  228MPD1    C1 3459   3.054   2.783  13.615  0.1113 -0.5057 -0.6176
  228MPD1    C2 3460   2.932   2.804  13.558  0.5562 -0.1653 -0.0691
  228MPD1    C3 3461   2.862   2.694  13.502  0.6958 -0.4813  0.2244
  228MPD1    C4 3462   2.917   2.573  13.497 -0.8740  0.4840 -0.2857
  228MPD1    C5 3463   3.054   2.567  13.523 -0.1540  0.7443  0.0760
  228MPD1     H 3464   2.885   2.901  13.565 -0.2020 -0.4927 -0.6313
  228MPD1    H1 3465   2.862   2.485  13.463 -0.4043 -0.4409  1.3488
  228MPD1    H2 3466   3.224   2.645  13.615 -0.7692 -1.1911  0.6051
  228MPD1    H3 3467   3.100   2.469  13.512 -2.2379 -0.3385  0.9259
  228MPD1     N 3468   2.731   2.730  13.459 -0.7334 -0.3783  0.4738
  228MPD1    H5 3469   2.699   2.826  13.472  1.6767  0.6287 -0.9856
  228MPD1    N1 3470   3.115   2.896  13.664 -0.0244 -0.0106 -0.1321
  228MPD1    H6 3471   3.047   2.951  13.714 -0.6524 -1.2976  0.4278
  228MPD1    H7 3472   3.183   2.880  13.738 -1.4328  0.5366  1.2585
  229MPD1     C 3473   2.958   1.904  15.444  0.4262  0.6294  0.3317
  229MPD1    C1 3474   3.080   1.922  15.384  0.0009  0.1383  0.1345
  229MPD1    C2 3475   3.116   1.827  15.293  0.7918  0.6219  0.9408
  229MPD1    C3 3476   3.027   1.724  15.249  0.1592 -0.1884 -0.5790
  229MPD1    C4 3477   2.905   1.724  15.300 -0.1370  0.7070  0.1675
  229MPD1    C5 3478   2.874   1.805  15.408 -0.5265 -0.3427 -0.7225
  229MPD1     H 3479   3.215   1.846  15.254  0.2030  2.9591  0.5331
  229MPD1    H1 3480   2.825   1.659  15.268  1.1170 -0.3221 -0.8439
  229MPD1    H2 3481   2.927   1.986  15.508  0.0055  1.1810 -0.5656
  229MPD1    H3 3482   2.775   1.800  15.453  0.1651 -1.3699  0.7057
  229MPD1     N 3483   3.057   1.636  15.140  0.7948  1.0467 -0.2944
  229MPD1    H5 3484   2.990   1.563  15.114 -1.8613  3.7789 -1.1032
  229MPD1    N1 3485   3.170   2.019  15.429 -0.2873 -0.1066  0.3907
  229MPD1    H6 3486   3.244   2.044  15.363  1.8208  0.8699  3.0649
  229MPD1    H7 3487   3.126   2.107  15.456 -1.1454 -0.0091 -1.3416
  230MPD1     C 3488   2.683   0.883  15.020  0.1451 -0.6522 -0.0780
  230MPD1    C1 3489   2.646   1.009  14.978 -1.3042  0.2218 -0.8047
  230MPD1    C2 3490   2.742   1.110  14.967  0.1443  0.2234  0.0669
  230MPD1    C3 3491   2.876   1.077  14.998 -0.0180  1.1736 -0.1868
  230MPD1    C4 3492   2.906   0.945  15.031 -0.4997  0.8029  0.5303
  230MPD1    C5 3493   2.811   0.853  15.042  0.5484  0.1332 -0.4979
  230MPD1     H 3494   2.722   1.215  14.945  0.5763  0.4507  0.7659
  230MPD1    H1 3495   3.009   0.920  15.055 -0.6473  1.0835  1.4758
  230MPD1    H2 3496   2.607   0.807  15.035 -0.1237 -0.4636 -0.4704
  230MPD1    H3 3497   2.845   0.755  15.073 -0.0100  0.7541  2.0518
  230MPD1     N 3498   2.969   1.180  14.991 -0.3843 -0.5595  0.3851
  230MPD1    H5 3499   2.940   1.274  14.967 -0.0360 -0.5271  0.0907
  230MPD1    N1 3500   2.510   1.039  14.964  0.4009 -0.4364  0.4936
  230MPD1    H6 3501   2.451   0.967  14.923  2.4534 -1.4622 -0.6291
  230MPD1    H7 3502   2.476   1.123  14.918  0.0368 -0.9855 -0.2310
  231MPD1     C 3503   1.706   3.625  15.497 -0.0593 -0.4305 -0.3201
  231MPD1    C1 3504   1.587   3.620  15.429  0.1558 -0.3375  0.4904
  231MPD1    C2 3505   1.582   3.690  15.309  0.0043  0.3080 -0.3234
  231MPD1    C3 3506   1.676   3.777  15.264  0.4004  0.5212  0.8125
  231MPD1    C4 3507   1.783   3.795  15.348 -0.2970 -0.2518  0.1061
  231MPD1    C5 3508   1.803   3.721  15.462 -0.8576  0.5366  0.1418
  231MPD1     H 3509   1.511   3.676  15.228 -2.3822 -1.6278  2.1078
  231MPD1    H1 3510   1.870   3.854  15.324 -0.7014  0.1762 -0.2876
  231MPD1    H2 3511   1.706   3.558  15.582 -1.5805 -1.6877 -1.3116
  231MPD1    H3 3512   1.888   3.742  15.527 -1.0866  0.5258  0.4439
  231MPD1     N 3513   1.657   3.847  15.140 -0.1440 -0.5807 -0.0859
  231MPD1    H5 3514   1.579   3.813  15.085 -1.6729  1.5776  0.7304
  231MPD1    N1 3515   1.502   3.520  15.469  0.0659  0.3789 -0.4850
  231MPD1    H6 3516   1.404   3.543  15.455  0.1783  3.6424  3.9414
  231MPD1    H7 3517   1.512   3.489  15.566 -3.3432  2.3107  0.4742
  232MPD1     C 3518   3.966   1.840   1.218 -0.0030 -1.7590 -0.1603
  232MPD1    C1 3519   3.901   1.736   1.278  0.5792 -0.9214  0.2433
  232MPD1    C2 3520   3.767   1.726   1.255 -0.4288 -0.3858 -0.2047
  232MPD1    C3 3521   3.705   1.778   1.145  0.3266 -0.1321 -0.0133
  232MPD1    C4 3522   3.775   1.880   1.076  0.0544  0.6014  0.0935
  232MPD1    C5 3523   3.906   1.904   1.111  0.5927 -0.7584  0.2580
  232MPD1     H 3524   3.709   1.653   1.310  1.2665 -0.1102  1.9153
  232MPD1    H1 3525   3.740   1.948   0.999 -1.7892  1.2906  1.5383
  232MPD1    H2 3526   4.072   1.857   1.236 -0.2400 -1.3333  0.8029
  232MPD1    H3 3527   3.963   1.983   1.063  0.4581 -0.8196 -0.0053
  232MPD1     N 3528   3.578   1.737   1.118  0.7096  0.0316 -0.2588
  232MPD1    H5 3529   3.539   1.660   1.170  0.2266  0.0445 -0.6065
  232MPD1    N1 3530   3.972   1.656   1.377 -0.7194  0.3072 -0.7738
  232MPD1    H6 3531   4.070   1.650   1.351 -0.6802  2.5525 -1.0897
  232MPD1    H7 3532   3.939   1.559   1.379 -1.6255  0.6458  0.4523
  233MPD1     C 3533   1.253   4.360   3.169  0.3248 -0.0955 -0.5023
  233MPD1    C1 3534   1.159   4.398   3.081  0.3377  0.4702  0.3953
  233MPD1    C2 3535   1.188   4.371   2.947 -0.5147 -0.4938 -0.0547
  233MPD1    C3 3536   1.292   4.287   2.910  0.3504 -0.1275 -0.3779
  233MPD1    C4 3537   1.382   4.250   2.998  0.4767 -0.1275 -0.4222
  233MPD1    C5 3538   1.363   4.282   3.127 -0.1971 -0.3104  0.0244
  233MPD1     H 3539   1.120   4.416   2.876 -0.3121  0.8248  0.6002
  233MPD1    H1 3540   1.457   4.173   2.981 -0.8904 -1.4258 -0.5869
  233MPD1    H2 3541   1.236   4.387   3.273 -1.2952 -2.3490 -0.1807
  233MPD1    H3 3542   1.429   4.251   3.208  2.0360 -1.5661 -2.3026
  233MPD1     N 3543   1.300   4.228   2.779  0.3514  0.5246 -0.3585
  233MPD1    H5 3544   1.380   4.166   2.774 -0.7676 -0.9607  0.0588
  233MPD1    N1 3545   1.057   4.491   3.113  0.0229 -0.2801  0.7952
  233MPD1    H6 3546   0.973   4.477   3.058 -1.0152 -2.9230  3.0430
  233MPD1    H7 3547   1.027   4.493   3.211 -1.8657  1.8782  0.1828
  234MPD1     C 3548   1.478   2.557   9.335 -0.0685 -0.2361  0.9535
  234MPD1    C1 3549   1.479   2.629   9.451 -0.9936 -0.3982  0.6705
  234MPD1    C2 3550   1.400   2.747   9.459  0.8682 -0.1347 -0.0325
  234MPD1    C3 3551   1.309   2.783   9.362  0.3507 -0.2750 -0.4815
  234MPD1    C4 3552   1.297   2.700   9.248 -0.1672  0.6274  0.0334
  234MPD1    C5 3553   1.395   2.605   9.231  0.6188 -1.1050  0.1500
  234MPD1     H 3554   1.418   2.818   9.538  1.8848 -1.1093  0.6065
  234MPD1    H1 3555   1.226   2.726   9.171 -2.5092 -1.3186  1.5301
  234MPD1    H2 3556   1.550   2.481   9.306 -1.5205 -1.4546  0.5375
  234MPD1    H3 3557   1.408   2.547   9.141  1.9354 -1.0299  0.2831
  234MPD1     N 3558   1.238   2.902   9.387 -0.0543  0.6307  0.2913
  234MPD1    H5 3559   1.261   2.958   9.468 -1.4815  0.6916  0.6555
  234MPD1    N1 3560   1.586   2.625   9.544  0.4273  0.0573  0.1847
  234MPD1    H6 3561   1.623   2.532   9.557  0.2903 -0.0083  0.1082
  234MPD1    H7 3562   1.570   2.661   9.638 -0.1247  2.6989 -0.8974
  235MPD1     C 3563   2.416   0.338   9.788 -0.5443  0.3087  0.3308
  235MPD1    C1 3564   2.385   0.436   9.700  0.1283 -0.2583  0.2128
  235MPD1    C2 3565   2.403   0.572   9.740  0.8326 -0.4044 -0.4653
  235MPD1    C3 3566   2.435   0.602   9.871 -0.6385  0.6281  0.5269
  235MPD1    C4 3567   2.452   0.500   9.960 -0.0266  0.3839  0.6079
  235MPD1    C5 3568   2.431   0.374   9.923  0.4166  0.2956  0.0345
  235MPD1     H 3569   2.376   0.653   9.673  0.8101  0.4267  0.5370
  235MPD1    H1 3570   2.456   0.525  10.065 -0.8722  1.2229  0.4398
  235MPD1    H2 3571   2.396   0.233   9.770  2.1410 -0.5769  2.5051
  235MPD1    H3 3572   2.437   0.292   9.994 -0.1009  0.7562  0.5950
  235MPD1     N 3573   2.439   0.736   9.901 -0.3757 -0.2368 -0.3465
  235MPD1    H5 3574   2.418   0.797   9.822 -0.7146  0.1899  0.0685
  235MPD1    N1 3575   2.359   0.401   9.570 -0.4655 -0.2003 -0.0794
  235MPD1    H6 3576   2.267   0.359   9.555 -0.0133 -1.3142  0.2778
  235MPD1    H7 3577   2.342   0.483   9.513 -0.8756 -0.5180 -0.4187
  236MPD1     C 3578   2.411   2.785  10.364  0.6572 -0.1628  0.2231
  236MPD1    C1 3579   2.281   2.736  10.330 -0.2987 -0.2123 -0.3020
  236MPD1    C2 3580   2.252   2.602  10.339 -0.6070 -0.1792  0.5666
  236MPD1    C3 3581   2.347   2.509  10.377 -0.5073 -0.1993  0.0386
  236MPD1    C4 3582   2.471   2.566  10.412  0.3469 -0.6872  0.4551
  236MPD1    C5 3583   2.504   2.696  10.399  0.0576  0.3732  0.1719
  236MPD1     H 3584   2.157   2.559  10.310 -0.1905 -0.9205  0.2795
  236MPD1    H1 3585   2.545   2.498  10.453  0.2696 -0.0459  1.6310
  236MPD1    H2 3586   2.436   2.890  10.350  1.6941 -0.6666 -1.6352
  236MPD1    H3 3587   2.597   2.734  10.439 -0.2493  0.2216  1.0320
  236MPD1     N 3588   2.329   2.365  10.380  0.3599 -0.2255 -0.3525
  236MPD1    H5 3589   2.411   2.306  10.389  0.9232  0.7402  0.8684
  236MPD1    N1 3590   2.182   2.831  10.299  0.0042 -0.1189  0.2354
  236MPD1    H6 3591   2.107   2.800  10.238 -0.7479 -0.0236  1.1145
  236MPD1    H7 3592   2.218   2.919  10.262 -1.0104  0.3558  0.3750
  237MPD1     C 3593   1.862   4.605  15.039 -0.3245  0.3863  0.8599
  237MPD1    C1 3594   1.810   0.014  15.037 -0.0199 -0.0485 -0.4685
  237MPD1    C2 3595   1.712   0.043  15.128 -0.0029 -0.3418  0.3802
  237MPD1    C3 3596   1.686   4.678  15.233 -0.0255 -0.0604 -0.4672
  237MPD1    C4 3597   1.756   4.557  15.247 -0.3087  0.1798 -0.2520
  237MPD1    C5 3598   1.835   4.512  15.139  0.3911  0.1109  0.4614
  237MPD1     H 3599   1.660   0.139  15.124 -0.0301 -0.3014  1.5083
  237MPD1    H1 3600   1.725   4.487  15.324  0.9478 -0.8043 -0.6402
  237MPD1    H2 3601   1.920   4.561  14.959  0.6719  0.5500  1.4869
  237MPD1    H3 3602   1.875   4.412  15.138  2.3902  0.9260 -0.5444
  237MPD1     N 3603   1.591   4.703  15.333  0.7887  0.4985  0.1774
  237MPD1    H5 3604   1.577   4.625  15.396 -1.8112  2.2969  1.8112
  237MPD1    N1 3605   1.827   0.090  14.918  0.0455  0.6215 -0.1783
  237MPD1    H6 3606   1.805   0.188  14.937 -3.1165 -0.4092  1.5772
  237MPD1    H7 3607   1.922   0.089  14.883  1.2498  1.9947  3.0494
  238MPD1     C 3608   2.691   3.912  15.734 -0.0582 -0.1897  0.1097
  238MPD1    C1 3609   2.815   3.858  15.718  0.7786  0.4141 -0.1386
  238MPD1    C2 3610   2.834   3.748  15.640  0.3568 -0.0079 -0.1472
  238MPD1    C3 3611   2.723   3.688  15.581  0.2426  0.1933  0.3153
  238MPD1    C4 3612   2.603   3.754  15.599  0.3791  0.0491 -0.0395
  238MPD1    C5 3613   2.582   3.866  15.674 -0.4322 -0.2126 -0.1660
  238MPD1     H 3614   2.931   3.699  15.633  0.3526 -0.0456  0.0638
  238MPD1    H1 3615   2.513   3.706  15.563 -0.9913  1.6304  1.2746
  238MPD1    H2 3616   2.685   3.998  15.801 -2.2465  0.2406 -0.6435
  238MPD1    H3 3617   2.480   3.902  15.690 -0.4817 -0.7171  0.6577
  238MPD1     N 3618   2.722   3.567  15.511  0.1838 -0.5755 -0.8441
  238MPD1    H5 3619   2.634   3.536  15.472  0.4749 -0.4766 -1.5706
  238MPD1    N1 3620   2.925   3.931  15.768 -0.0060 -0.0833  0.2750
  238MPD1    H6 3621   2.997   3.867  15.801  0.4834  1.1426  1.5925
  238MPD1    H7 3622   2.901   3.992  15.846 -1.0653 -2.4316  1.7742
  239MPD1     C 3623   2.802   3.878  15.283  0.4000 -0.1149  0.0092
  239MPD1    C1 3624   2.921   3.810  15.256 -0.7447 -0.9150 -0.2148
  239MPD1    C2 3625   3.005   3.886  15.172 -0.1484  0.2017  0.4553
  239MPD1    C3 3626   2.984   4.019  15.136  0.3388  0.2442 -0.0984
  239MPD1    C4 3627   2.864   4.077  15.171 -0.1104 -0.2745 -0.2396
  239MPD1    C5 3628   2.770   4.012  15.251 -0.6002  0.2334 -0.1305
  239MPD1     H 3629   3.091   3.837  15.129  1.2683  1.1236  2.2393
  239MPD1    H1 3630   2.837   4.177  15.140 -0.8069 -0.3523  0.1324
  239MPD1    H2 3631   2.733   3.826  15.348 -0.9685  0.0397 -1.2995
  239MPD1    H3 3632   2.676   4.057  15.280 -0.9918 -0.2868 -0.5857
  239MPD1     N 3633   3.061   4.096  15.046  0.3634 -0.4022 -0.4236
  239MPD1    H5 3634   3.013   4.178  15.010 -0.6193 -0.2942  1.1628
  239MPD1    N1 3635   2.937   3.668  15.278  0.1244 -0.2012  0.3904
  239MPD1    H6 3636   2.902   3.647  15.371 -2.8846 -0.3903 -0.7621
  239MPD1    H7 3637   3.033   3.638  15.288 -0.4185 -2.1484 -0.2503
  240MPD1     C 3638   2.760   4.039  13.351 -0.5272 -0.0129  0.0932
  240MPD1    C1 3639   2.703   4.051  13.471  0.5326  0.1462  0.0935
  240MPD1    C2 3640   2.778   3.996  13.577 -0.6796  0.3870  0.3800
  240MPD1    C3 3641   2.894   3.925  13.555 -0.3199  1.0150 -0.1124
  240MPD1    C4 3642   2.947   3.921  13.427  0.3514  0.0196  0.6262
  240MPD1    C5 3643   2.876   3.969  13.325  0.2439 -0.3719  0.2183
  240MPD1     H 3644   2.740   4.000  13.678 -1.2526 -1.1083  0.2243
  240MPD1    H1 3645   3.033   3.864  13.396  0.7071  1.1008 -0.3832
  240MPD1    H2 3646   2.709   4.091  13.271  3.3507  0.8679 -1.7978
  240MPD1    H3 3647   2.920   3.975  13.226 -1.4973  1.1316 -0.4745
  240MPD1     N 3648   2.960   3.874  13.667  0.2304  0.1004 -0.0245
  240MPD1    H5 3649   2.917   3.896  13.756 -0.0925 -1.1422  0.1197
  240MPD1    N1 3650   2.572   4.101  13.493 -0.1771 -0.1088 -0.1437
  240MPD1    H6 3651   2.553   4.168  13.418  1.4425 -1.3718 -1.6762
  240MPD1    H7 3652   2.546   4.140  13.583 -1.6779 -1.2850 -0.0555
  241MPD1     C 3653   3.672   3.296  14.251 -0.4891  0.2595  0.1603
  241MPD1    C1 3654   3.688   3.420  14.186  0.4250 -0.3036  0.2869
  241MPD1    C2 3655   3.585   3.475  14.124  0.1737  0.0917  0.5937
  241MPD1    C3 3656   3.462   3.416  14.125  0.1694  0.4805  0.4044
  241MPD1    C4 3657   3.439   3.297  14.196 -0.3439  0.5560 -0.4738
  241MPD1    C5 3658   3.550   3.237  14.260 -0.0576  0.0045  0.1571
  241MPD1     H 3659   3.593   3.575  14.084  1.5805  0.6220  2.2218
  241MPD1    H1 3660   3.345   3.244  14.205  1.1004 -1.7570  1.2564
  241MPD1    H2 3661   3.755   3.245  14.298 -0.0922  1.1293  0.3871
  241MPD1    H3 3662   3.533   3.144  14.312 -0.6051 -1.1727 -2.1287
  241MPD1     N 3663   3.348   3.473  14.065 -0.0621  0.0465  0.6143
  241MPD1    H5 3664   3.265   3.418  14.083  1.0006 -1.9223 -0.5249
  241MPD1    N1 3665   3.810   3.495  14.203 -0.2107 -0.3131 -0.2136
  241MPD1    H6 3666   3.844   3.532  14.114 -0.7626 -0.4833 -0.4938
  241MPD1    H7 3667   3.883   3.431  14.233 -1.9898 -0.5374  3.5999
  242MPD1     C 3668   1.973   1.992  16.138  0.8313 -0.2377  0.3923
  242MPD1    C1 3669   2.003   1.853  16.137  0.1604  0.2317  0.4360
  242MPD1    C2 3670   2.095   1.805  16.042 -0.4181 -0.2459  0.2404
  242MPD1    C3 3671   2.134   1.891  15.938  0.2102 -0.1293 -0.5061
  242MPD1    C4 3672   2.088   2.023  15.934  0.4113  0.2570 -0.5656
  242MPD1    C5 3673   2.009   2.079  16.038  0.2207  0.0409  0.7969
  242MPD1     H 3674   2.126   1.701  16.049 -1.7090 -0.5871  0.8268
  242MPD1    H1 3675   2.133   2.103  15.877  2.8054 -1.8181 -1.5680
  242MPD1    H2 3676   1.912   2.032  16.219 -1.3651  0.6594 -1.7073
  242MPD1    H3 3677   1.992   2.185  16.050  0.2994  0.3251 -1.6152
  242MPD1     N 3678   2.218   1.853  15.828 -0.1824  0.4731  0.1906
  242MPD1    H5 3679   2.223   1.922  15.753  3.8407  0.7008  0.6782
  242MPD1    N1 3680   1.983   1.775  16.250 -0.9148 -0.6582  0.0975
  242MPD1    H6 3681   1.995   1.674  16.237  0.2872 -0.6243  0.9491
  242MPD1    H7 3682   1.892   1.789  16.292 -0.6355  1.2287  0.0690
  243MPD1     C 3683   3.791   0.799   0.321 -0.4112  0.6736 -0.4495
  243MPD1    C1 3684   3.878   0.846   0.231 -0.5164 -1.4064  0.4564
  243MPD1    C2 3685   3.915   0.758   0.128 -0.2880 -0.8902  0.0264
  243MPD1    C3 3686   3.856   0.631   0.112  0.4899  0.2014 -0.0482
  243MPD1    C4 3687   3.751   0.600   0.196  0.1336 -0.4205 -0.1640
  243MPD1    C5 3688   3.730   0.680   0.309  0.3629 -0.4531  0.6211
  243MPD1     H 3689   3.979   0.792   0.048 -0.3303 -1.7004 -0.3531
  243MPD1    H1 3690   3.683   0.516   0.194  2.0615 -1.9376 -1.3672
  243MPD1    H2 3691   3.759   0.864   0.401  0.0392  0.8177 -0.3888
  243MPD1    H3 3692   3.663   0.649   0.388 -2.6602 -0.2838 -1.8313
  243MPD1     N 3693   3.898   0.543   0.007  0.5975  0.3662 -0.1066
  243MPD1    H5 3694   3.983   0.564  17.637  1.6614  1.7739  2.2593
  243MPD1    N1 3695   3.942   0.965   0.253 -0.4664 -0.5388  1.1521
  243MPD1    H6 3696   3.883   1.042   0.285 -0.5193  0.4487 -1.3471
  243MPD1    H7 3697   3.998   0.982   0.169 -0.0813 -0.6761  1.3799
  244MPD1     C 3698   4.267   4.306  17.441  0.0182 -0.4458 -0.0161
  244MPD1    C1 3699   4.313   4.394  17.340  0.5983  0.1982 -0.2674
  244MPD1    C2 3700   4.278   4.530  17.354 -0.3215 -0.5691 -0.1446
  244MPD1    C3 3701   4.209   4.571  17.467  0.9452  0.0340  0.0659
  244MPD1    C4 3702   4.176   4.484  17.562  0.4721 -0.3768 -0.8624
  244MPD1    C5 3703   4.203   4.352  17.547 -0.3769 -1.0221  0.2740
  244MPD1     H 3704   4.302   4.601  17.276  0.2613 -0.5956  0.0091
  244MPD1    H1 3705   4.113   4.512  17.645  1.6469 -1.7260  0.4753
  244MPD1    H2 3706   4.282   4.199  17.432  2.0944 -0.0267 -1.4366
  244MPD1    H3 3707   4.178   4.283  17.627 -0.9084  1.3709  2.1457
  244MPD1     N 3708   4.186   4.711  17.474  0.4744  0.6099 -0.1396
  244MPD1    H5 3709   4.212   0.039  17.388  2.9232  0.5793  0.5651
  244MPD1    N1 3710   4.364   4.345  17.220  0.2753  0.1171  0.2474
  244MPD1    H6 3711   4.419   4.423  17.184  2.0797 -1.7142 -1.0336
  244MPD1    H7 3712   4.415   4.257  17.227 -0.6058 -0.4826 -0.7990
  245MPD1     C 3713   1.036   1.620  13.440  0.4925 -0.0218  0.5388
  245MPD1    C1 3714   0.960   1.624  13.559 -0.4486 -0.7106  0.4394
  245MPD1    C2 3715   0.973   1.741  13.633 -0.2329 -0.2268 -0.5370
  245MPD1    C3 3716   1.030   1.859  13.591 -0.2670 -0.2505  0.4142
  245MPD1    C4 3717   1.104   1.855  13.474 -0.6582 -0.4889  0.3102
  245MPD1    C5 3718   1.103   1.741  13.403 -0.3444  0.7165  0.2282
  245MPD1     H 3719   0.914   1.734  13.724  0.2142  2.5128 -0.0289
  245MPD1    H1 3720   1.160   1.940  13.437  0.6042 -0.4595  2.2742
  245MPD1    H2 3721   1.045   1.533  13.376 -0.9345  0.1541  0.1024
  245MPD1    H3 3722   1.150   1.742  13.305  0.9852 -3.1123  0.7951
  245MPD1     N 3723   1.036   1.975  13.682  0.4277 -0.7072 -0.5750
  245MPD1    H5 3724   0.996   1.963  13.775 -1.8988  1.7260 -1.2472
  245MPD1    N1 3725   0.898   1.509  13.611 -0.3092 -0.5846 -0.0535
  245MPD1    H6 3726   0.898   1.428  13.549 -2.3371 -1.6954  1.3759
  245MPD1    H7 3727   0.813   1.515  13.666  0.3875 -0.8061  1.0518
  246MPD1     C 3728   0.160   3.652   8.826 -0.1636  0.3007  0.0373
  246MPD1    C1 3729   0.272   3.663   8.902  0.1216 -0.0387  0.2936
  246MPD1    C2 3730   0.359   3.549   8.908  0.3006 -0.0976 -0.0048
  246MPD1    C3 3731   0.318   3.428   8.857  0.1017  0.2227  0.3796
  246MPD1    C4 3732   0.201   3.419   8.789  0.8430  0.1025  0.3103
  246MPD1    C5 3733   0.130   3.537   8.761 -0.4397 -0.0245 -0.4069
  246MPD1     H 3734   0.448   3.545   8.971  0.0960  2.6928  0.4736
  246MPD1    H1 3735   0.160   3.329   8.745  1.9167 -0.3208  0.1803
  246MPD1    H2 3736   0.086   3.730   8.813  0.0175  0.4042 -0.3576
  246MPD1    H3 3737   0.034   3.532   8.711 -0.4720  1.1076 -0.4589
  246MPD1     N 3738   0.397   3.316   8.890  0.3045  0.3339  0.8037
  246MPD1    H5 3739   0.483   3.341   8.938  0.5345  2.6955 -0.8653
  246MPD1    N1 3740   0.301   3.789   8.949 -0.3813  0.4338 -0.1993
  246MPD1    H6 3741   0.227   3.850   8.982  0.9317  0.8053  2.0602
  246MPD1    H7 3742   0.369   3.784   9.025  0.2397 -0.0995 -0.7926
  247MPD1     C 3743   0.506   0.915  16.411 -0.2465 -0.2052 -0.7501
  247MPD1    C1 3744   0.623   0.861  16.458 -0.0395 -0.1337 -0.8142
  247MPD1    C2 3745   0.710   0.800  16.363 -0.1743 -0.4203 -1.0065
  247MPD1    C3 3746   0.665   0.783  16.232 -0.4699 -0.3991  0.2983
  247MPD1    C4 3747   0.544   0.850  16.187 -0.3270 -0.5359 -0.0165
  247MPD1    C5 3748   0.472   0.920  16.282  0.2245  0.1497 -0.1544
  247MPD1     H 3749   0.811   0.771  16.391 -1.8005 -2.9557  2.3212
  247MPD1    H1 3750   0.504   0.841  16.087  0.6186 -0.5433 -0.3913
  247MPD1    H2 3751   0.438   0.956  16.486 -1.1883 -1.2395 -1.0430
  247MPD1    H3 3752   0.385   0.982  16.265 -0.0383  0.0006  0.6632
  247MPD1     N 3753   0.742   0.718  16.131  0.3114 -0.4297 -0.0996
  247MPD1    H5 3754   0.711   0.729  16.036  0.6565  4.0939  0.2746
  247MPD1    N1 3755   0.674   0.883  16.588 -0.2863  0.2055 -0.4397
  247MPD1    H6 3756   0.746   0.813  16.606 -1.2285 -0.7238 -0.3456
  247MPD1    H7 3757   0.610   0.888  16.667 -1.7031  0.4748 -1.6248
  248MPD1     C 3758   2.031   0.815   0.086 -0.1849 -0.6116 -0.4983
  248MPD1    C1 3759   2.023   0.725   0.187  0.0895  0.5507  1.3804
  248MPD1    C2 3760   1.949   0.767   0.294 -0.2736 -0.3854  0.2165
  248MPD1    C3 3761   1.900   0.896   0.310  0.4210  0.6255  0.1075
  248MPD1    C4 3762   1.928   0.983   0.202  0.0449 -0.5310  0.0422
  248MPD1    C5 3763   1.987   0.941   0.088  0.0143  0.2040  0.0419
  248MPD1     H 3764   1.929   0.698   0.375 -1.0899  1.3953  1.5090
  248MPD1    H1 3765   1.893   1.085   0.200  1.5610 -0.0197  0.0340
  248MPD1    H2 3766   2.081   0.785  17.675 -0.7272  2.0354 -1.6665
  248MPD1    H3 3767   1.987   1.007   0.003  3.6740 -0.5748 -0.5574
  248MPD1     N 3768   1.830   0.924   0.431  0.4744  0.2408  0.3531
  248MPD1    H5 3769   1.827   0.848   0.499  0.3490 -0.2161 -0.1679
  248MPD1    N1 3770   2.085   0.598   0.169  0.0167 -0.0527  0.5726
  248MPD1    H6 3771   2.142   0.591   0.086  1.4488 -1.3679  1.6747
  248MPD1    H7 3772   2.137   0.565   0.250 -0.1173 -1.5561  0.0353
  249MPD1     C 3773   3.495   0.339  10.367 -0.1306 -0.9639 -0.2301
  249MPD1    C1 3774   3.618   0.270  10.369 -0.4935 -0.7322 -0.1854
  249MPD1    C2 3775   3.731   0.333  10.327 -0.3464  0.1370 -0.3725
  249MPD1    C3 3776   3.738   0.464  10.329  0.8576 -0.0337  0.3203
  249MPD1    C4 3777   3.619   0.538  10.355  0.2653  0.3239  0.3789
  249MPD1    C5 3778   3.500   0.473  10.365  0.0871 -0.3658  0.0682
  249MPD1     H 3779   3.819   0.274  10.306  0.3621  0.8153  0.6957
  249MPD1    H1 3780   3.618   0.646  10.352 -0.8933  0.3528  2.5600
  249MPD1    H2 3781   3.400   0.291  10.388  0.8295 -2.0021  1.7028
  249MPD1    H3 3782   3.404   0.516  10.393  0.3088  0.8425 -1.0004
  249MPD1     N 3783   3.862   0.519  10.311  1.0667 -0.2781 -0.1946
  249MPD1    H5 3784   3.940   0.456  10.325 -0.0813 -1.8849 -1.1482
  249MPD1    N1 3785   3.614   0.130  10.364  0.0116  0.1640 -0.9148
  249MPD1    H6 3786   3.707   0.093  10.380  0.5812  0.9254 -2.4422
  249MPD1    H7 3787   3.546   0.092  10.429  0.0568 -1.1053 -1.5987
  250MPD2     C 3788   4.484   0.362  13.797  0.6652  0.0965 -0.6445
  250MPD2    C1 3789   4.522   0.394  13.675  0.5305 -0.2860  0.0323
  250MPD2    C2 3790   4.471   0.337  13.561 -0.2365  0.0156 -0.0326
  250MPD2    C3 3791   4.377   0.228  13.568  0.0815 -1.1009  0.0532
  250MPD2    C4 3792   4.340   0.194  13.699 -0.5129  0.0694 -0.6131
  250MPD2    C5 3793   4.379   0.272  13.805  0.6124 -0.5933  0.2454
  250MPD2     H 3794   4.508   0.365  13.463  1.7292  1.1984  1.0428
  250MPD2    H1 3795   4.270   0.113  13.717  0.9952 -1.3010 -0.9538
  250MPD2    H2 3796   4.516   0.409  13.889 -0.8964 -1.4699  0.6947
  250MPD2    H3 3797   4.348   0.234  13.902  0.7130 -0.0885  0.4722
  250MPD2     N 3798   4.324   0.169  13.449 -0.5118 -0.4554 -0.3838
  250MPD2    H5 3799   4.370   0.189  13.360 -1.5483 -0.4846 -0.9257
  250MPD2    N1 3800   4.614   0.503  13.671 -0.1216  0.0715  0.1189
  250MPD2    H7 3801   4.640   0.551  13.756 -0.3807  0.2169  0.1150
  251TMC3    C1 3802   4.718   0.686  13.572  0.1919 -0.1624  0.1392
  251TMC3    C2 3803   4.625   0.783  13.596 -0.2384  0.7099  0.8883
  251TMC3    C3 3804   4.654   0.913  13.551 -0.4007 -0.7380 -0.6753
  251TMC3    C4 3805   0.108   0.714  13.489 -0.0459 -0.7175  0.1953
  251TMC3    C5 3806   0.134   0.845  13.448 -0.0279  0.4093 -0.0727
  251TMC3    C6 3807   0.047   0.949  13.484 -0.2933 -0.0078  0.3639
  251TMC3     C 3808   4.672   0.550  13.555  0.5293 -0.3973 -0.7499
  251TMC3     O 3809   4.683   0.493  13.445 -0.1473 -0.0447 -0.3935
  251TMC3     H 3810   4.537   0.776  13.660 -0.5275  0.1238  0.4352
  251TMC3    H1 3811   0.185   0.642  13.466 -0.9284 -2.5704  3.0993
  251TMC3    H2 3812   0.068   1.055  13.474 -1.7265  0.2943  0.6261
  251TMC3    C7 3813   0.273   0.882  13.448  0.2829 -0.6711  0.0772
  251TMC3    C8 3814   4.546   1.011  13.575 -0.1762 -0.4801 -0.5245
  251TMC3    O1 3815   0.357   0.800  13.480  0.0771  0.0482  0.2217
  251TMC3    O2 3816   4.471   0.991  13.668 -0.0646 -0.5271 -0.1516
  252TMC3    C1 3817   4.342   1.961  10.043 -0.2092 -0.2136 -0.2900
  252TMC3    C2 3818   4.443   2.006   9.962 -0.5596 -0.2127  1.0199
  252TMC3    C3 3819   4.546   1.921   9.954 -0.3128 -0.1709  0.1341
  252TMC3    C4 3820   4.336   1.842  10.117 -0.6367 -0.2405 -0.2181
  252TMC3    C5 3821   4.445   1.764  10.094 -0.1201  0.0597 -0.2144
  252TMC3    C6 3822   4.555   1.802  10.021 -0.1011 -0.2204 -0.8635
  252TMC3     C 3823   4.237   2.059  10.072  0.5627  0.2321  0.6255
  252TMC3     O 3824   4.135   2.012  10.120  0.8152  0.7031 -0.1896
  252TMC3     H 3825   4.443   2.100   9.908 -2.6059  0.7908  2.7607
  252TMC3    H1 3826   4.256   1.807  10.182 -1.0234  0.6402 -0.2178
  252TMC3    H2 3827   4.632   1.729   9.998  0.4107  0.0717 -0.0815
  252TMC3    C7 3828   4.440   1.632  10.142 -0.1993  0.4284  0.3421
  252TMC3    C8 3829   4.668   1.972   9.900  0.0414 -0.4922 -0.3042
  252TMC3    O1 3830   4.334   1.599  10.199 -0.0353  0.4867 -0.2920
  252TMC3    O2 3831   4.662   2.083   9.851  0.8822 -0.1066  0.0475
  253MPD2     C 3832   0.841   4.641  15.647 -0.8353  0.5359 -0.3465
  253MPD2    C1 3833   0.707   4.694  15.634  0.3588 -0.3811  0.0187
  253MPD2    C2 3834   0.631   4.692  15.749 -0.0348 -0.1789  0.8172
  253MPD2    C3 3835   0.686   4.664  15.873  0.9788  0.4863  0.3436
  253MPD2    C4 3836   0.817   4.629  15.887 -0.1842 -0.7564  0.1903
  253MPD2    C5 3837   0.890   4.623  15.770  0.5571  0.2942  0.1679
  253MPD2     H 3838   0.526   4.717  15.739  0.6675  1.8580 -1.5342
  253MPD2    H1 3839   0.867   4.609  15.981  0.4343 -1.3443 -0.2686
  253MPD2    H2 3840   0.899   4.628  15.556 -2.0055  1.9365 -1.2970
  253MPD2    H3 3841   0.995   4.600  15.775  0.2418 -1.5626 -1.5517
  253MPD2     N 3842   0.615   4.675  15.992  0.2209  0.3164 -0.1064
  253MPD2    H5 3843   0.670   4.676  16.076  1.8069  1.1995 -1.1572
  253MPD2    N1 3844   0.647   0.024  15.513 -0.0858  0.4730 -0.2759
  253MPD2    H7 3845   0.558   0.066  15.533  0.5221  1.3520  0.5671
  254TMC3    C1 3846   0.447   0.003  16.146  0.1003  0.1118 -0.5027
  254TMC3    C2 3847   0.348   0.095  16.175  0.1839 -0.1162  0.5655
  254TMC3    C3 3848   0.331   0.128  16.301  0.1829  0.1313  0.0331
  254TMC3    C4 3849   0.500   4.634  16.246 -1.2812 -0.2886  0.3905
  254TMC3    C5 3850   0.482   4.675  16.374 -0.5678 -0.0675 -0.7134
  254TMC3    C6 3851   0.389   0.050  16.400  1.1005 -0.9047  0.7651
  254TMC3     C 3852   0.487   4.702  16.005  0.7454 -0.2823  0.1830
  254TMC3     O 3853   0.399   4.714  15.918 -0.1900 -0.0343 -0.0279
  254TMC3     H 3854   0.303   0.157  16.098  1.2604 -1.7431 -1.3881
  254TMC3    H1 3855   0.576   4.562  16.219 -0.4534  0.7188  0.0093
  254TMC3    H2 3856   0.369   0.070  16.505 -3.5857 -1.3682 -0.0383
  254TMC3    C7 3857   0.524   4.603  16.488 -0.2104  0.2366 -0.1748
  254TMC3    C8 3858   0.237   0.233  16.350  0.1666 -0.2019  0.4252
  254TMC3    O1 3859   0.528   4.666  16.591 -0.0334 -0.2333  0.0286
  254TMC3    O2 3860   0.245   0.265  16.467  0.2541  0.3715 -1.0237
  255MPD2     C 3861   3.590   3.101  10.478 -0.1720  0.8116 -0.7006
  255MPD2    C1 3862   3.644   3.184  10.381  0.2856 -0.6866 -0.5577
  255MPD2    C2 3863   3.763   3.159  10.328  0.3882 -0.2466  0.3289
  255MPD2    C3 3864   3.837   3.044  10.360 -0.1199 -0.4086 -0.1842
  255MPD2    C4 3865   3.789   2.955  10.452 -0.9590 -0.3378  0.0808
  255MPD2    C5 3866   3.663   2.992  10.513  0.1612  0.0963  0.0713
  255MPD2     H 3867   3.816   3.226  10.262  0.4770 -0.5856  0.0595
  255MPD2    H1 3868   3.838   2.869  10.496 -0.1453 -1.1799 -2.5145
  255MPD2    H2 3869   3.500   3.125  10.533 -0.4734  2.4439 -1.9116
  255MPD2    H3 3870   3.624   2.923  10.587  0.7262 -1.1887 -0.8454
  255MPD2     N 3871   3.969   3.035  10.301  0.1063  0.4558 -0.4716
  255MPD2    H5 3872   3.988   3.116  10.242  2.2388  0.1418 -0.2195
  255MPD2    N1 3873   3.577   3.301  10.357  0.0679 -0.3638 -0.0550
  255MPD2    H7 3874   3.490   3.321  10.406  0.5320  2.7692 -0.4810
  256TMC3    C1 3875   3.506   3.492  10.246  0.2640  0.4283 -0.1324
  256TMC3    C2 3876   3.546   3.613  10.197 -0.6567  0.1846  0.2796
  256TMC3    C3 3877   3.455   3.687  10.125 -0.3287  0.2472 -0.1267
  256TMC3    C4 3878   3.382   3.435  10.232 -0.1377  0.7723  0.1962
  256TMC3    C5 3879   3.287   3.523  10.179 -0.2227 -0.3318  0.5081
  256TMC3    C6 3880   3.326   3.642  10.123  0.4017  0.0735  0.5613
  256TMC3     C 3881   3.614   3.398  10.272  0.7046 -0.1636  0.4920
  256TMC3     O 3882   3.720   3.426  10.217  1.1625  0.2761 -0.3035
  256TMC3     H 3883   3.650   3.641  10.207 -0.4791  0.4597 -2.2408
  256TMC3    H1 3884   3.354   3.334  10.262  0.0227  1.6415  3.2679
  256TMC3    H2 3885   3.257   3.710  10.073 -1.3110 -0.5705  2.0123
  256TMC3    C7 3886   3.149   3.481  10.169  0.7443 -0.0055  0.3481
  256TMC3    C8 3887   3.491   3.796  10.044 -0.3231  0.2836  0.0422
  256TMC3    O1 3888   3.078   3.547  10.090  0.4444 -0.3225 -0.8438
  256TMC3    O2 3889   3.414   3.842   9.961  0.0426 -0.2480  0.1865
  257MPD2     C 3890   3.735   0.302  13.498 -0.3088  0.2198 -0.2828
  257MPD2    C1 3891   3.661   0.258  13.388 -0.6081 -0.4210  0.2301
  257MPD2    C2 3892   3.629   0.124  13.379  0.1230 -0.4248 -0.0421
  257MPD2    C3 3893   3.669   0.033  13.467 -1.0548 -0.4689  0.0220
  257MPD2    C4 3894   3.723   0.080  13.583  0.4729  0.2438 -0.1343
  257MPD2    C5 3895   3.752   0.214  13.600 -0.0007 -1.1495  0.0314
  257MPD2     H 3896   3.578   0.096  13.288 -0.7805 -0.7851  0.5652
  257MPD2    H1 3897   3.756   0.012  13.661  1.2204  1.2511  0.4152
  257MPD2    H2 3898   3.759   0.408  13.506  3.6606 -0.6091 -1.3338
  257MPD2    H3 3899   3.793   0.249  13.694 -0.1116  0.4399 -0.5064
  257MPD2     N 3900   3.647   4.611  13.447 -0.2366 -0.0516 -0.6078
  257MPD2    H5 3901   3.587   4.579  13.371 -1.1907 -2.3130  1.1156
  257MPD2    N1 3902   3.642   0.347  13.280 -0.0110  0.5518  0.3024
  257MPD2    H7 3903   3.682   0.440  13.287 -2.8225  1.7498  0.3351
  258TMC3    C1 3904   3.653   4.371  13.483 -0.1211 -0.1896 -0.0506
  258TMC3    C2 3905   3.533   4.371  13.417  0.1305 -0.4715  0.5019
  258TMC3    C3 3906   3.460   4.257  13.406  0.0975 -0.4543  0.1448
  258TMC3    C4 3907   3.686   4.269  13.558  0.0326  0.2826 -0.0481
  258TMC3    C5 3908   3.601   4.158  13.554 -0.0147 -0.1292  0.1405
  258TMC3    C6 3909   3.488   4.146  13.479 -0.9871 -0.2697 -0.1057
  258TMC3     C 3910   3.690   4.504  13.529 -0.7744  1.0309 -0.0311
  258TMC3     O 3911   3.773   4.506  13.618  0.0402 -0.0941  0.1883
  258TMC3     H 3912   3.508   4.439  13.336  0.7564 -2.6294 -1.4932
  258TMC3    H1 3913   3.780   4.265  13.612 -0.1116  1.7495  0.3196
  258TMC3    H2 3914   3.421   4.061  13.486 -0.1101 -0.8618  1.1102
  258TMC3    C7 3915   3.609   4.071  13.673  0.2918  0.0011 -0.3477
  258TMC3    C8 3916   3.354   4.248  13.306  0.4733  0.3498 -0.0663
  258TMC3    O1 3917   3.537   3.969  13.673  0.4659 -0.6097 -0.5284
  258TMC3    O2 3918   3.360   4.142  13.241  0.8574 -0.0432 -0.0979
  259MPD2     C 3919   2.048   1.654   0.849  0.4008 -0.2342 -0.4852
  259MPD2    C1 3920   2.130   1.547   0.859  0.0753  0.1796  0.3008
  259MPD2    C2 3921   2.200   1.507   0.746  0.3187 -0.1645  0.2901
  259MPD2    C3 3922   2.191   1.585   0.624 -0.8513  0.1272 -0.4392
  259MPD2    C4 3923   2.108   1.697   0.621 -0.0968  0.2012  0.1147
  259MPD2    C5 3924   2.040   1.725   0.732 -0.2972  0.5751  0.2810
  259MPD2     H 3925   2.269   1.423   0.748  0.9511  0.3226 -0.6921
  259MPD2    H1 3926   2.098   1.754   0.529  0.6857 -0.2437 -0.2443
  259MPD2    H2 3927   1.982   1.685   0.929 -0.6724 -1.3231 -0.9490
  259MPD2    H3 3928   1.974   1.811   0.732  0.0091  0.8145 -1.4555
  259MPD2     N 3929   2.280   1.547   0.511 -0.6603  0.2318  0.5131
  259MPD2    H5 3930   2.343   1.467   0.518  0.0498  0.6654 -1.1275
  259MPD2    N1 3931   2.130   1.487   0.989 -0.4172  0.1804  0.5973
  259MPD2    H7 3932   2.059   1.509   1.057 -2.7775 -2.4724 -1.0111
  260TMC3    C1 3933   2.411   1.577   0.327  0.0215  0.1174 -0.1541
  260TMC3    C2 3934   2.491   1.679   0.284 -0.0596  0.5730  0.5054
  260TMC3    C3 3935   2.615   1.658   0.233 -1.0157  0.1913 -0.4411
  260TMC3    C4 3936   2.454   1.446   0.319  0.4817 -0.0434 -0.0489
  260TMC3    C5 3937   2.584   1.431   0.286 -0.4203  0.4945  0.5139
  260TMC3    C6 3938   2.667   1.530   0.228 -0.0152 -0.2993  0.0565
  260TMC3     C 3939   2.288   1.615   0.397  0.9556  0.4945  0.5463
  260TMC3     O 3940   2.231   1.713   0.357 -0.0919 -0.2257 -0.2331
  260TMC3     H 3941   2.460   1.781   0.304  0.8610  0.4839  2.3177
  260TMC3    H1 3942   2.397   1.368   0.370  1.1012  0.2612  1.1185
  260TMC3    H2 3943   2.772   1.522   0.201 -0.7135 -0.8543 -2.4533
  260TMC3    C7 3944   2.621   1.292   0.275  0.2260 -0.1030 -0.0722
  260TMC3    C8 3945   2.707   1.774   0.255 -0.4389  0.6634  0.2315
  260TMC3    O1 3946   2.534   1.207   0.275  0.2485  0.4232 -0.9347
  260TMC3    O2 3947   2.688   1.881   0.197 -0.8424  0.4380  0.6801
  261MPD2     C 3948   3.748   0.126  12.836 -0.2712 -0.2479  0.0061
  261MPD2    C1 3949   3.882   0.154  12.819 -0.5894 -0.4070 -0.6963
  261MPD2    C2 3950   3.914   0.202  12.701  0.5573  0.1747  0.5163
  261MPD2    C3 3951   3.826   0.226  12.599 -0.0892 -0.3647  0.1148
  261MPD2    C4 3952   3.696   0.194  12.614  0.1694  0.4485  0.0516
  261MPD2    C5 3953   3.659   0.141  12.735 -0.1809  0.5968  0.1338
  261MPD2     H 3954   4.017   0.235  12.693  1.0194 -1.1622  0.9640
  261MPD2    H1 3955   3.619   0.218  12.542 -0.4357  1.2992  0.9921
  261MPD2    H2 3956   3.704   0.094  12.929 -1.7952  0.4928 -0.4690
  261MPD2    H3 3957   3.557   0.112  12.756 -0.9394  1.5430 -2.2276
  261MPD2     N 3958   3.870   0.302  12.483  0.1816 -0.3209  0.4782
  261MPD2    H5 3959   3.971   0.312  12.481  0.1442 -0.0118  0.1313
  261MPD2    N1 3960   3.974   0.123  12.922 -0.3276 -0.3097 -0.2690
  261MPD2    H7 3961   4.073   0.132  12.903 -0.1119 -0.6707  0.6693
  262TMC3    C1 3962   3.867   0.411  12.272 -0.1074  0.5940  0.6081
  262TMC3    C2 3963   3.808   0.519  12.205 -0.7938  0.2040 -0.2833
  262TMC3    C3 3964   3.890   0.582  12.119 -0.4139 -0.3459  0.0171
  262TMC3    C4 3965   3.991   0.356  12.250  0.3276 -0.2180 -0.2043
  262TMC3    C5 3966   4.067   0.428  12.167  0.1980 -0.6939  0.2366
  262TMC3    C6 3967   4.018   0.544  12.109  0.8063 -0.7516  0.6018
  262TMC3     C 3968   3.791   0.348  12.378 -0.9033  0.0275 -0.7128
  262TMC3     O 3969   3.668   0.359  12.369 -0.4032 -0.6475  0.0729
  262TMC3     H 3970   3.708   0.557  12.220 -1.4265 -0.7585 -2.1115
  262TMC3    H1 3971   4.018   0.258  12.289 -1.3393 -0.5103  0.2219
  262TMC3    H2 3972   4.083   0.600  12.044  0.9950  0.1552  1.5803
  262TMC3    C7 3973   4.197   0.372  12.131  0.1148  0.9050 -0.4015
  262TMC3    C8 3974   3.862   0.720  12.082  0.1218 -0.2365 -0.7602
  262TMC3    O1 3975   4.223   0.267  12.188  0.0213 -0.4778  0.3876
  262TMC3    O2 3976   3.965   0.784  12.070  0.4486  0.1768 -0.5456
  263MPD2     C 3977   0.225   3.954  11.262  0.1013  0.0504 -0.0277
  263MPD2    C1 3978   0.288   4.071  11.300  0.1451  0.0972  0.6333
  263MPD2    C2 3979   0.313   4.172  11.208 -0.0248 -0.0681  0.5264
  263MPD2    C3 3980   0.284   4.147  11.075 -0.0320 -0.1900  1.2131
  263MPD2    C4 3981   0.239   4.023  11.034 -0.4211 -0.1043 -1.0347
  263MPD2    C5 3982   0.200   3.935  11.130  0.1775  0.1235  0.0992
  263MPD2     H 3983   0.358   4.267  11.233 -1.7996  1.1526 -0.9703
  263MPD2    H1 3984   0.220   3.999  10.930 -0.3234 -3.1126 -0.3545
  263MPD2    H2 3985   0.215   3.867  11.326 -0.8127 -0.3914 -0.7675
  263MPD2    H3 3986   0.168   3.835  11.101  1.4131 -0.2373 -0.0196
  263MPD2     N 3987   0.334   4.246  10.985  0.3748 -0.2961  0.1142
  263MPD2    H5 3988   0.346   4.336  11.031 -0.1803 -0.7934  1.2329
  263MPD2    N1 3989   0.341   4.071  11.433  0.6196 -0.1302 -0.8000
  263MPD2    H7 3990   0.361   3.977  11.464  0.4703 -0.1344 -0.7214
  264TMC3    C1 3991   0.437   4.343  10.793 -0.7003  0.5191  0.7139
  264TMC3    C2 3992   0.409   4.468  10.850  0.2050 -0.8411  0.1633
  264TMC3    C3 3993   0.482   4.578  10.807 -0.5515  0.0883 -0.9831
  264TMC3    C4 3994   0.543   4.320  10.706 -0.1459 -0.7943  0.0985
  264TMC3    C5 3995   0.603   4.434  10.666 -0.6742  0.0240 -0.5156
  264TMC3    C6 3996   0.579   4.555  10.713  0.0320 -0.1263  0.6701
  264TMC3     C 3997   0.372   4.227  10.852 -0.4446  0.3683  0.5106
  264TMC3     O 3998   0.360   4.127  10.782  0.3732  0.4147 -0.1078
  264TMC3     H 3999   0.324   4.488  10.914 -0.5275 -0.3681 -0.9737
  264TMC3    H1 4000   0.561   4.217  10.680 -1.0794 -0.3878 -2.1718
  264TMC3    H2 4001   0.639   4.639  10.680  2.7458 -1.6706  1.6753
  264TMC3    C7 4002   0.710   4.421  10.566  1.1572  0.0793 -0.2898
  264TMC3    C8 4003   0.459   4.713  10.855 -0.2633 -0.0915 -0.4111
  264TMC3    O1 4004   0.760   4.308  10.568  0.0948 -0.3739 -0.1965
  264TMC3    O2 4005   0.514   0.076  10.784 -0.3743  0.3720 -0.3561
  265MPD2     C 4006   1.967   4.245  15.632 -0.1382  0.1972 -0.7316
  265MPD2    C1 4007   2.000   4.359  15.561  0.3955  0.3340 -0.0616
  265MPD2    C2 4008   2.028   4.351  15.422  0.7220 -0.1161  0.9668
  265MPD2    C3 4009   2.035   4.228  15.364 -0.1065  0.8637 -0.0456
  265MPD2    C4 4010   1.998   4.116  15.439 -1.2095 -0.2242 -0.3963
  265MPD2    C5 4011   1.969   4.123  15.574  0.4918 -1.4697  0.3387
  265MPD2     H 4012   2.050   4.441  15.366 -0.1228 -1.0129 -0.8129
  265MPD2    H1 4013   1.984   4.020  15.391 -1.7185 -0.0986 -0.4985
  265MPD2    H2 4014   1.935   4.244  15.736  1.6893  0.6409 -0.1512
  265MPD2    H3 4015   1.927   4.043  15.634 -0.8671 -0.0276  1.3039
  265MPD2     N 4016   2.073   4.199  15.232  0.1985  0.4548  0.1243
  265MPD2    H5 4017   2.065   4.101  15.210 -3.2236  0.9183 -0.7892
  265MPD2    N1 4018   2.011   4.486  15.619  0.2206  0.3001 -0.2926
  265MPD2    H7 4019   2.051   4.562  15.564 -0.3498 -0.2803 -1.4952
  266TMC3    C1 4020   2.009   4.649  15.793 -0.1806 -0.2378  0.0385
  266TMC3    C2 4021   2.066   4.653  15.914 -0.2235  0.1799  0.2450
  266TMC3    C3 4022   2.089   0.053  15.967 -0.5869  0.2256 -0.0805
  266TMC3    C4 4023   1.982   0.040  15.720 -0.3605 -0.2467  0.4632
  266TMC3    C5 4024   2.019   0.162  15.772 -0.4119  0.1919 -0.8956
  266TMC3    C6 4025   2.072   0.167  15.896  0.2695 -0.4814  0.2759
  266TMC3     C 4026   1.980   4.516  15.750  0.4339  0.2245 -0.3034
  266TMC3     O 4027   1.943   4.445  15.842  0.2821 -0.3804  0.2923
  266TMC3     H 4028   2.096   4.566  15.972 -0.1163  1.7437  2.5496
  266TMC3    H1 4029   1.922   0.044  15.630 -1.4654  2.5257  1.3156
  266TMC3    H2 4030   2.084   0.265  15.939  1.8149 -0.9006  0.7943
  266TMC3    C7 4031   2.021   0.270  15.681 -0.1636 -0.2187  0.5196
  266TMC3    C8 4032   2.190   0.048  16.067  1.1985  0.2472  0.1953
  266TMC3    O1 4033   1.937   0.262  15.591  1.1864  0.3228  0.1883
  266TMC3    O2 4034   2.263   4.669  16.063  0.6681 -0.5454 -0.6285
  267MPD2     C 4035   0.260   1.062  17.548 -1.0676 -0.4819  1.0245
  267MPD2    C1 4036   0.222   1.181  17.609  0.3850  0.4978 -0.1231
  267MPD2    C2 4037   0.102   1.237  17.567 -0.2328 -0.2174 -0.2472
  267MPD2    C3 4038   0.021   1.179  17.468  0.2182 -0.3103  0.4221
  267MPD2    C4 4039   0.067   1.067  17.410 -0.3777 -0.3539 -0.2091
  267MPD2    C5 4040   0.183   1.005  17.448  0.7683 -1.1803 -0.0521
  267MPD2     H 4041   0.072   1.327  17.621  0.0596 -1.0972  1.3943
  267MPD2    H1 4042   0.018   1.011  17.331 -0.3815 -2.4798  1.2762
  267MPD2    H2 4043   0.355   1.014  17.568 -0.3691  0.1632 -0.6599
  267MPD2    H3 4044   0.208   0.909  17.406 -0.7208 -1.1443 -0.9852
  267MPD2     N 4045   4.613   1.224  17.417 -0.6195 -0.2915  0.2789
  267MPD2    H5 4046   4.566   1.163  17.351 -0.0559  0.0252 -0.4154
  267MPD2    N1 4047   0.314   1.234   0.021 -0.9091  0.8875 -0.0448
  267MPD2    H7 4048   0.399   1.183   0.045 -0.9098  1.5376  1.3436
  268TMC3    C1 4049   0.429   1.409   0.142  0.2601 -0.5759  0.2288
  268TMC3    C2 4050   0.452   1.541   0.133  0.1624  0.3756  0.7258
  268TMC3    C3 4051   0.547   1.588   0.222 -0.1023  0.6033  0.0242
  268TMC3    C4 4052   0.494   1.324   0.232  0.6032 -0.0287 -0.3474
  268TMC3    C5 4053   0.560   1.382   0.330  0.4972  0.9381  0.6000
  268TMC3    C6 4054   0.597   1.510   0.330  0.3210  0.3951 -0.2343
  268TMC3     C 4055   0.304   1.361   0.080  0.1645  0.3778  0.2055
  268TMC3     O 4056   0.214   1.447   0.086  0.3514  0.2624 -0.0712
  268TMC3     H 4057   0.411   1.587   0.044 -2.8837 -1.1736  1.3445
  268TMC3    H1 4058   0.474   1.218   0.241  0.0569  0.1974  1.1780
  268TMC3    H2 4059   0.655   1.555   0.409  0.1833 -0.3879  0.3139
  268TMC3    C7 4060   0.584   1.304   0.452 -0.3351  0.3398  0.2867
  268TMC3    C8 4061   0.559   1.735   0.235  0.1418 -0.7140  0.2326
  268TMC3    O1 4062   0.506   1.213   0.473 -0.0024 -0.0241  0.1789
  268TMC3    O2 4063   0.634   1.780   0.322 -0.6416 -0.4215  0.0377
  269MPD2     C 4064   0.083   0.137  15.824 -0.5211 -0.2812 -0.6337
  269MPD2    C1 4065   4.667   0.151  15.818 -0.1766 -0.6399  0.7220
  269MPD2    C2 4066   4.608   0.277  15.810  0.3621 -0.2199 -0.2453
  269MPD2    C3 4067   4.695   0.381  15.801  0.0409 -0.1992 -0.0568
  269MPD2    C4 4068   0.115   0.369  15.814  0.2345 -0.2515  0.3675
  269MPD2    C5 4069   0.171   0.244  15.815 -0.5025  0.0431  0.2719
  269MPD2     H 4070   4.501   0.295  15.806  0.4674  0.7042  1.0139
  269MPD2    H1 4071   0.184   0.452  15.816  1.0116 -0.9197  1.0680
  269MPD2    H2 4072   0.129   0.041  15.841 -0.1306  0.2111  1.0724
  269MPD2    H3 4073   0.275   0.223  15.839 -1.2560 -3.0274  0.7825
  269MPD2     N 4074   4.629   0.509  15.787 -0.0723 -0.2973  0.1619
  269MPD2    H5 4075   4.528   0.514  15.781 -0.0706 -1.3540 -0.8227
  269MPD2    N1 4076   4.587   0.036  15.827  0.0760  0.1746 -0.1544
  269MPD2    H7 4077   4.641   4.669  15.822  0.3348  0.4334 -1.7212
  270TMC3    C1 4078   4.387   4.624  15.839  0.2208 -0.3916 -1.0266
  270TMC3    C2 4079   4.258   4.613  15.796  0.6575 -0.2208  0.4227
  270TMC3    C3 4080   4.195   4.499  15.821 -0.1515  0.7264  0.0465
  270TMC3    C4 4081   4.452   4.520  15.902  0.2096 -0.7474  1.2833
  270TMC3    C5 4082   4.379   4.407  15.926  0.2269 -0.1103 -0.3855
  270TMC3    C6 4083   4.249   4.392  15.885  0.5063 -0.3936 -0.4234
  270TMC3     C 4084   4.450   0.034  15.839  0.1228  0.5881  0.6151
  270TMC3     O 4085   4.364   0.127  15.836  0.0843 -0.2579  0.0060
  270TMC3     H 4086   4.211   4.695  15.743 -3.0836 -2.4573  0.2683
  270TMC3    H1 4087   4.547   4.540  15.950 -0.5707  0.0541  2.4876
  270TMC3    H2 4088   4.193   4.299  15.887 -0.9430  0.5096  1.7937
  270TMC3    C7 4089   4.429   4.316  16.025  0.2335 -0.0568 -0.5460
  270TMC3    C8 4090   4.092   4.465  15.722  0.3563 -0.0466 -0.0272
  270TMC3    O1 4091   4.346   4.275  16.106  0.1558  0.1230 -0.1948
  270TMC3    O2 4092   4.011   4.378  15.741  0.5219  0.7120  0.1399
  271MPD2     C 4093   3.461   0.361  14.215  0.6693 -0.0781 -0.2840
  271MPD2    C1 4094   3.479   0.223  14.218 -0.4361  0.4974 -0.3991
  271MPD2    C2 4095   3.407   0.140  14.135  0.2429  0.1790 -0.0156
  271MPD2    C3 4096   3.312   0.196  14.052 -0.4679  0.0103  0.4750
  271MPD2    C4 4097   3.289   0.329  14.050  0.6122 -0.2847  0.1261
  271MPD2    C5 4098   3.365   0.415  14.131 -0.4304  0.0687  0.2832
  271MPD2     H 4099   3.418   0.034  14.154  0.3822  0.5344  1.8164
  271MPD2    H1 4100   3.210   0.368  13.987 -1.5009 -3.1063  1.0204
  271MPD2    H2 4101   3.521   0.426  14.278  0.1762 -1.9223  2.1044
  271MPD2    H3 4102   3.345   0.522  14.132 -0.2363  0.1104 -0.7191
  271MPD2     N 4103   3.232   0.117  13.971  0.4193  0.2637 -0.2369
  271MPD2    H5 4104   3.156   0.159  13.919  2.4715 -0.4638 -3.8156
  271MPD2    N1 4105   3.574   0.166  14.306  0.1446 -0.0671  0.7891
  271MPD2    H7 4106   3.605   0.225  14.383 -2.2597  0.2405  1.5380
  272TMC3    C1 4107   3.705   0.006  14.408  0.5626 -0.0193 -0.2215
  272TMC3    C2 4108   3.815   4.645  14.398  0.1023  0.2105 -0.7497
  272TMC3    C3 4109   3.885   4.625  14.515 -0.1590 -0.7194  0.4503
  272TMC3    C4 4110   3.654   0.041  14.533 -0.1905 -0.3030 -0.4130
  272TMC3    C5 4111   3.730   0.023  14.650  0.3269  0.2303  0.4670
  272TMC3    C6 4112   3.849   4.671  14.640  0.4351  0.7690 -0.0955
  272TMC3     C 4113   3.635   0.044  14.292 -0.2786 -0.7027  0.7106
  272TMC3     O 4114   3.635   4.685  14.198  0.2720 -0.4697 -0.0687
  272TMC3     H 4115   3.853   4.620  14.300  0.2489 -0.0199 -0.6325
  272TMC3    H1 4116   3.550   0.068  14.551  0.0823  0.7907 -0.5209
  272TMC3    H2 4117   3.913   4.648  14.724  0.3287  0.2538 -0.1534
  272TMC3    C7 4118   3.674   0.047  14.781 -0.4460 -0.1573 -0.3742
  272TMC3    C8 4119   4.030   4.613  14.493 -0.2310  0.5157 -0.0420
  272TMC3    O1 4120   3.561   0.010  14.808  0.5420  0.6710  0.1155
  272TMC3    O2 4121   4.069   4.645  14.382  0.3087 -0.4489 -0.0560
  273MPD2     C 4122   0.697   3.083  11.824  0.5716 -0.9377  0.2838
  273MPD2    C1 4123   0.761   3.205  11.836 -0.1622  0.0393 -0.1132
  273MPD2    C2 4124   0.798   3.268  11.717 -0.0813 -0.4814 -1.0485
  273MPD2    C3 4125   0.755   3.210  11.599 -0.4939 -0.2972 -0.2291
  273MPD2    C4 4126   0.701   3.090  11.590  0.0350  0.0196  0.4084
  273MPD2    C5 4127   0.669   3.023  11.702 -0.0285  0.5334  0.0884
  273MPD2     H 4128   0.844   3.366  11.715 -1.0997  0.0126 -0.0731
  273MPD2    H1 4129   0.692   3.038  11.495  0.8893 -0.2009  0.4521
  273MPD2    H2 4130   0.666   3.020  11.906 -1.0715 -0.9779 -0.3740
  273MPD2    H3 4131   0.637   2.920  11.708 -0.7484  0.7229 -0.4378
  273MPD2     N 4132   0.773   3.279  11.477  0.4730  0.0349 -0.0515
  273MPD2    H5 4133   0.746   3.232  11.391  0.2993  0.4300 -0.2105
  273MPD2    N1 4134   0.784   3.258  11.965  0.1095  0.1645 -0.1043
  273MPD2    H7 4135   0.792   3.188  12.039 -2.5678  1.6991  1.6650
  274TMC3    C1 4136   0.834   3.441  11.321  0.5101 -0.1074 -0.3704
  274TMC3    C2 4137   0.735   3.410  11.227 -0.3051  0.2885  0.7886
  274TMC3    C3 4138   0.746   3.463  11.103  1.2323  0.2617 -0.0054
  274TMC3    C4 4139   0.928   3.539  11.302  0.4178  0.6781  0.0933
  274TMC3    C5 4140   0.934   3.585  11.176  0.0920 -0.7286  0.0932
  274TMC3    C6 4141   0.842   3.552  11.079 -0.5946 -0.4692  0.1841
  274TMC3     C 4142   0.822   3.408  11.460  0.5224  0.0291 -0.1935
  274TMC3     O 4143   0.870   3.489  11.541 -0.1182  0.4146  0.4765
  274TMC3     H 4144   0.655   3.339  11.247  0.4745 -0.9102 -0.4096
  274TMC3    H1 4145   1.002   3.573  11.373 -0.2048  0.8721  0.6520
  274TMC3    H2 4146   0.872   3.563  10.975 -0.1669 -1.2780  0.2200
  274TMC3    C7 4147   1.067   3.613  11.125  0.5386  0.3593 -0.6128
  274TMC3    C8 4148   0.647   3.421  10.991  0.4781  0.5274 -0.2187
  274TMC3    O1 4149   1.134   3.517  11.096 -0.4942 -0.2113  0.0158
  274TMC3    O2 4150   0.572   3.332  11.025 -0.2272 -0.0743 -0.5029
  275MPD2     C 4151   0.326   1.285  14.308 -0.3357 -0.2020 -0.3503
  275MPD2    C1 4152   0.324   1.214  14.429 -0.2499  0.3436 -0.1523
  275MPD2    C2 4153   0.206   1.154  14.474  0.3987  0.2224 -0.2639
  275MPD2    C3 4154   0.094   1.156  14.385 -0.4127  0.0866 -0.3265
  275MPD2    C4 4155   0.097   1.225  14.266  0.1741  0.2070 -0.7047
  275MPD2    C5 4156   0.211   1.295  14.238  0.2731 -0.2907  0.1164
  275MPD2     H 4157   0.199   1.102  14.568  0.8907  3.0149  1.3047
  275MPD2    H1 4158   0.014   1.218  14.197 -1.1198 -2.7421  1.1474
  275MPD2    H2 4159   0.417   1.337  14.281 -0.8870  0.1164 -1.5884
  275MPD2    H3 4160   0.223   1.347  14.143  0.7298 -0.9833 -0.2058
  275MPD2     N 4161   4.692   1.090  14.425 -0.7087 -0.1509 -0.1853
  275MPD2    H5 4162   4.629   1.063  14.351  1.4402  1.5660 -2.6129
  275MPD2    N1 4163   0.427   1.205  14.521 -0.3322  0.2844 -0.2192
  275MPD2    H7 4164   0.406   1.134  14.591  1.3753 -1.2629 -1.2653
  276TMC3    C1 4165   0.642   1.207  14.598 -0.5956  0.6556 -0.5398
  276TMC3    C2 4166   0.676   1.077  14.574  0.6584  0.2157 -0.1005
  276TMC3    C3 4167   0.731   1.007  14.676 -0.1771 -0.2712 -0.2938
  276TMC3    C4 4168   0.651   1.271  14.723  0.7178 -0.2720 -0.2748
  276TMC3    C5 4169   0.711   1.193  14.821 -0.1066 -0.0807 -0.1880
  276TMC3    C6 4170   0.753   1.065  14.797 -0.3226 -0.2526 -0.4336
  276TMC3     C 4171   0.548   1.273  14.506 -0.3183 -0.0109  0.1572
  276TMC3     O 4172   0.576   1.368  14.441 -0.1965  0.2240 -0.1424
  276TMC3     H 4173   0.658   1.024  14.482 -2.8766 -0.9817  1.2504
  276TMC3    H1 4174   0.626   1.376  14.737  0.9634 -0.2377 -0.1046
  276TMC3    H2 4175   0.787   1.011  14.884 -0.1999  1.3346  0.4950
  276TMC3    C7 4176   0.752   1.249  14.945  0.1211 -0.2990  0.3456
  276TMC3    C8 4177   0.771   0.874  14.654 -0.3583 -0.2392 -0.4668
  276TMC3    O1 4178   0.786   1.173  15.035 -0.7033  0.1098 -0.6392
  276TMC3    O2 4179   0.799   0.849  14.540 -0.1034  0.1735  0.7537
  277MPD2     C 4180   2.571   4.710  12.937  0.7735 -0.0763  0.0807
  277MPD2    C1 4181   2.453   0.048  12.983 -0.4345 -0.0278 -0.8591
  277MPD2    C2 4182   2.406   0.002  13.109 -0.0346 -0.1235  0.1205
  277MPD2    C3 4183   2.465   4.611  13.171  0.4226 -0.3606  0.2366
  277MPD2    C4 4184   2.567   4.540  13.109  0.6741  0.1465 -0.4728
  277MPD2    C5 4185   2.618   4.592  12.994 -0.0970 -0.1759 -0.0595
  277MPD2     H 4186   2.322   0.055  13.153 -1.0824  0.2780 -2.3226
  277MPD2    H1 4187   2.611   4.452  13.155 -1.0288 -0.4745 -0.0047
  277MPD2    H2 4188   2.622   0.030  12.850  0.7767  0.2051  0.2107
  277MPD2    H3 4189   2.698   4.534  12.951 -0.3310 -0.7867  0.3328
  277MPD2     N 4190   2.412   4.583  13.302  0.3255 -0.4293  0.4635
  277MPD2    H5 4191   2.338   4.640  13.340 -0.8027 -2.4424  1.3273
  277MPD2    N1 4192   2.396   0.161  12.917  0.2934  0.4619 -0.1694
  277MPD2    H7 4193   2.445   0.196  12.835 -0.5067 -1.6716 -1.5503
  278TMC3    C1 4194   2.338   4.453  13.475  0.1349  0.7659 -0.0387
  278TMC3    C2 4195   2.301   4.325  13.509  0.9906  0.2320 -0.4184
  278TMC3    C3 4196   2.189   4.308  13.580 -0.1508 -0.5868 -0.3034
  278TMC3    C4 4197   2.263   4.559  13.512  0.6151 -0.7666 -0.2052
  278TMC3    C5 4198   2.154   4.540  13.591  0.0174 -0.1378  0.2206
  278TMC3    C6 4199   2.109   4.417  13.622 -0.1002  0.0865  0.5730
  278TMC3     C 4200   2.436   4.470  13.373  0.0730 -0.1906 -0.0326
  278TMC3     O 4201   2.514   4.378  13.358 -0.4308 -0.1602  0.0255
  278TMC3     H 4202   2.363   4.238  13.493  1.2693 -0.1958  2.9385
  278TMC3    H1 4203   2.302   4.660  13.506 -1.9477  0.2815  0.6591
  278TMC3    H2 4204   2.027   4.403  13.692 -1.3742  1.1153 -0.7070
  278TMC3    C7 4205   2.081   4.657  13.639  0.8581 -0.1728  0.8380
  278TMC3    C8 4206   2.131   4.176  13.593 -0.6246 -0.2035 -0.3357
  278TMC3    O1 4207   2.147   0.037  13.660  0.1596  0.2499  0.4150
  278TMC3    O2 4208   2.206   4.077  13.613  0.6817  0.2769  0.3414
  279MPD2     C 4209   1.876   0.321   0.621  0.3315  0.4526  0.9033
  279MPD2    C1 4210   1.762   0.242   0.598  0.3257 -0.5552 -0.0628
  279MPD2    C2 4211   1.711   0.227   0.473  0.6627 -0.3543  0.0790
  279MPD2    C3 4212   1.762   0.303   0.369  0.1721 -0.1138  0.0922
  279MPD2    C4 4213   1.879   0.379   0.392  0.3031 -0.0871 -0.0745
  279MPD2    C5 4214   1.940   0.380   0.516  0.3188  1.3564  0.4129
  279MPD2     H 4215   1.630   0.159   0.451  0.9406 -0.6169 -0.1367
  279MPD2    H1 4216   1.928   0.427   0.309 -0.6794 -1.1925 -1.2908
  279MPD2    H2 4217   1.909   0.345   0.722 -1.3070  1.5902  1.1612
  279MPD2    H3 4218   2.033   0.435   0.527 -0.2770  2.0319  1.9576
  279MPD2     N 4219   1.706   0.294   0.235  0.2470 -0.2125 -0.0829
  279MPD2    H5 4220   1.750   0.355   0.166 -1.4321 -0.7512 -1.6148
  279MPD2    N1 4221   1.688   0.189   0.706 -0.2791 -0.0156 -0.0015
  279MPD2    H7 4222   1.700   0.238   0.793  0.3358 -2.3804  1.2429
  280TMC3    C1 4223   1.455   0.149   0.717  0.2767 -0.7342  0.8070
  280TMC3    C2 4224   1.360   0.079   0.645  0.0850  0.5537 -0.1558
  280TMC3    C3 4225   1.267   0.150   0.588 -0.0468  0.4788 -0.2140
  280TMC3    C4 4226   1.445   0.281   0.744 -0.1497  0.2113 -0.4006
  280TMC3    C5 4227   1.343   0.349   0.684 -0.2016  0.2189  0.4684
  280TMC3    C6 4228   1.250   0.282   0.603 -0.0381 -0.7275  0.5114
  280TMC3     C 4229   1.591   0.092   0.697  0.0169 -0.1890 -0.6140
  280TMC3     O 4230   1.599   4.703   0.638  0.0417  0.2557 -0.2403
  280TMC3     H 4231   1.375   4.692   0.642  2.5746  0.9112 -0.2627
  280TMC3    H1 4232   1.523   0.329   0.802 -0.0583 -0.7859  0.2936
  280TMC3    H2 4233   1.180   0.338   0.542  0.8131  2.2773  2.3038
  280TMC3    C7 4234   1.365   0.490   0.673  0.1398  0.1247 -0.2852
  280TMC3    C8 4235   1.193   0.093   0.482 -0.1280  0.0892 -0.1825
  280TMC3    O1 4236   1.459   0.541   0.738 -0.6720  0.0528 -0.0348
  280TMC3    O2 4237   1.159   0.160   0.386 -0.0116  0.1006  0.5677
  281TMC3    C1 4238   0.477   0.818  13.791  0.3019  0.4807 -0.0603
  281TMC3    C2 4239   0.573   0.913  13.761 -0.3194  0.1903  0.0733
  281TMC3    C3 4240   0.681   0.881  13.692  0.2213 -0.3031  0.3107
  281TMC3    C4 4241   0.490   0.683  13.750 -0.4028  0.2514  0.2434
  281TMC3    C5 4242   0.600   0.656  13.669 -0.2799 -0.0993 -0.7253
  281TMC3    C6 4243   0.696   0.751  13.644  0.2611  0.8663  0.7828
  281TMC3     C 4244   0.347   0.864  13.841 -0.8316  0.0169  0.1365
  281TMC3     O 4245   0.267   0.782  13.883 -0.7077  0.1397 -0.1991
  281TMC3     H 4246   0.568   1.010  13.810  0.7307 -0.3499  1.2423
  281TMC3    H1 4247   0.415   0.604  13.757 -0.3972  0.1434 -0.9584
  281TMC3    H2 4248   0.791   0.730  13.598 -0.4359  0.8264 -0.6257
  281TMC3    C7 4249   0.621   0.532  13.595 -0.4150 -0.2276  0.2833
  281TMC3    C8 4250   0.778   0.977  13.646  0.0598 -0.5121 -0.6606
  281TMC3    O1 4251   0.718   0.540  13.521  0.1226 -0.7434  0.1632
  281TMC3    O2 4252   0.881   0.953  13.705 -0.6321 -0.0321  0.0149
  282MPD2     C 4253   2.146   1.446  15.439  0.6152 -0.1036  0.4380
  282MPD2    C1 4254   2.031   1.512  15.474 -0.5160 -0.0717  0.3372
  282MPD2    C2 4255   1.943   1.556  15.380 -1.2901 -0.2895 -0.5846
  282MPD2    C3 4256   1.967   1.527  15.247 -0.0563  0.3161  0.0716
  282MPD2    C4 4257   2.085   1.463  15.205  0.7744 -0.4226 -0.1849
  282MPD2    C5 4258   2.171   1.420  15.306 -0.3362  0.3734  0.3525
  282MPD2     H 4259   1.851   1.606  15.407 -1.0928  0.6871 -1.6938
  282MPD2    H1 4260   2.108   1.444  15.101  3.4382  1.7942 -0.0053
  282MPD2    H2 4261   2.218   1.413  15.513 -0.0473 -0.1417  1.0651
  282MPD2    H3 4262   2.251   1.352  15.280  0.4766  0.7960  1.7409
  282MPD2     N 4263   1.889   1.594  15.151  0.1270 -0.1196 -0.1862
  282MPD2    H5 4264   1.813   1.653  15.186  0.4098  0.4338 -0.5011
  282MPD2    N1 4265   2.000   1.542  15.610  0.0225 -0.2663  0.2462
  282MPD2    H7 4266   1.920   1.603  15.625  0.8208  0.4929  1.4104
  283TMC3    C1 4267   1.967   1.515  15.843 -1.2801  0.4928  0.4106
  283TMC3    C2 4268   1.908   1.640  15.842  0.4288  0.2296 -0.5418
  283TMC3    C3 4269   1.777   1.640  15.878  0.1176 -0.1666  0.8502
  283TMC3    C4 4270   1.917   1.399  15.892 -0.1260  0.3744 -0.3830
  283TMC3    C5 4271   1.795   1.417  15.930 -0.2970 -0.0491  0.6845
  283TMC3    C6 4272   1.719   1.528  15.916 -0.4199 -0.0831  0.5593
  283TMC3     C 4273   2.055   1.491  15.731 -0.0195  0.4980  0.2910
  283TMC3     O 4274   2.138   1.403  15.742  1.0681  0.0277  0.3830
  283TMC3     H 4275   1.960   1.725  15.800 -2.1197  1.9200 -0.2329
  283TMC3    H1 4276   1.969   1.305  15.905  0.7596  1.0720  1.1770
  283TMC3    H2 4277   1.616   1.525  15.949 -0.6183 -1.7824 -0.2463
  283TMC3    C7 4278   1.706   1.304  15.941 -0.5496 -0.6044  0.6053
  283TMC3    C8 4279   1.687   1.757  15.870  0.5368  0.0390 -0.4649
  283TMC3    O1 4280   1.599   1.313  15.882 -0.6279  0.4389 -0.3314
  283TMC3    O2 4281   1.568   1.745  15.832 -0.0248  0.5872  0.3855
  284MPD2     C 4282   0.418   1.157  12.182  0.3958 -0.5099  0.0536
  284MPD2    C1 4283   0.409   1.109  12.049  0.1487 -0.0580  0.3867
  284MPD2    C2 4284   0.395   0.971  12.028 -0.2004 -0.5386 -0.1553
  284MPD2    C3 4285   0.399   0.881  12.132 -0.7053 -0.8893  0.2626
  284MPD2    C4 4286   0.429   0.929  12.262  0.7741  0.2354 -0.9603
  284MPD2    C5 4287   0.426   1.064  12.282  0.1029 -0.0067  0.1023
  284MPD2     H 4288   0.383   0.934  11.926 -0.3112 -0.7995 -0.0470
  284MPD2    H1 4289   0.443   0.869  12.350 -0.4924  0.7628 -0.3989
  284MPD2    H2 4290   0.421   1.262  12.208 -1.5233 -0.1027 -1.3850
  284MPD2    H3 4291   0.443   1.103  12.382 -1.1357 -1.3036  0.8180
  284MPD2     N 4292   0.370   0.744  12.123  0.9468  0.1513 -0.1166
  284MPD2    H5 4293   0.407   0.685  12.197  1.1703  0.5903  0.1185
  284MPD2    N1 4294   0.423   1.189  11.930  0.1586 -0.1384 -0.1733
  284MPD2    H7 4295   0.405   1.157  11.835  0.5699 -1.2828  0.1365
  285TMC3    C1 4296   0.530   1.364  11.802 -0.7311  0.1718 -0.0300
  285TMC3    C2 4297   0.550   1.279  11.702 -0.1786  0.1198 -0.0593
  285TMC3    C3 4298   0.641   1.316  11.612 -0.4271 -0.1606 -0.1054
  285TMC3    C4 4299   0.593   1.488  11.814 -0.8751 -0.3622  0.0212
  285TMC3    C5 4300   0.668   1.534  11.707  0.7384 -0.7616  0.4307
  285TMC3    C6 4301   0.697   1.442  11.605 -0.5395 -0.0645  0.2304
  285TMC3     C 4302   0.489   1.310  11.935  0.2781  0.5498 -0.8527
  285TMC3     O 4303   0.546   1.362  12.030  0.5528 -0.2263  0.3473
  285TMC3     H 4304   0.533   1.172  11.708  1.0783  0.0262  1.6576
  285TMC3    H1 4305   0.555   1.558  11.888  0.7012  0.5237 -0.0133
  285TMC3    H2 4306   0.749   1.476  11.516 -0.2232  1.7375  1.1183
  285TMC3    C7 4307   0.706   1.672  11.686 -0.4203 -0.0484 -0.1218
  285TMC3    C8 4308   0.693   1.222  11.510 -0.5061  0.8933 -0.9333
  285TMC3    O1 4309   0.758   1.706  11.579 -0.7593 -0.5567  0.3492
  285TMC3    O2 4310   0.625   1.123  11.485 -0.2395 -0.3683 -0.1647
  286MPD2     C 4311   0.651   4.660   1.990 -0.2864  0.0233  0.4068
  286MPD2    C1 4312   0.661   4.632   1.854 -0.3659  0.6494  0.4879
  286MPD2    C2 4313   0.792   4.600   1.803 -0.3713  0.5348  0.3516
  286MPD2    C3 4314   0.907   4.600   1.881 -0.2664 -0.5625  0.2593
  286MPD2    C4 4315   0.891   4.628   2.013 -0.1418  0.1485  0.1440
  286MPD2    C5 4316   0.764   4.661   2.064 -0.2930 -0.7366 -0.5900
  286MPD2     H 4317   0.800   4.576   1.698  1.1206  1.0244  0.3645
  286MPD2    H1 4318   0.969   4.627   2.087  0.1843  1.6019 -0.1804
  286MPD2    H2 4319   0.555   4.693   2.030  0.2800  0.3882  1.4571
  286MPD2    H3 4320   0.752   4.679   2.170 -0.8044 -0.4498 -0.6966
  286MPD2     N 4321   1.037   4.564   1.836 -0.3889 -0.4369  0.9709
  286MPD2    H5 4322   1.099   4.571   1.916  1.0397  0.5613 -0.2193
  286MPD2    N1 4323   0.557   4.629   1.765 -0.2525 -0.1841  0.4080
  286MPD2    H7 4324   0.578   4.630   1.666  0.7597  1.0235  0.6410
  287TMC3    C1 4325   1.226   4.497   1.707 -0.3697 -0.2906 -0.4789
  287TMC3    C2 4326   1.255   4.435   1.588  0.5584 -0.0445 -0.3194
  287TMC3    C3 4327   1.378   4.371   1.567  0.0701 -0.2299 -0.5423
  287TMC3    C4 4328   1.315   4.488   1.816  0.6900 -0.2287 -0.0737
  287TMC3    C5 4329   1.436   4.431   1.782 -0.6473 -0.2182  0.1053
  287TMC3    C6 4330   1.473   4.374   1.667  0.5198  0.8665  0.0274
  287TMC3     C 4331   1.078   4.518   1.706  0.3837 -0.6808  1.0019
  287TMC3     O 4332   1.009   4.504   1.612  0.2192 -0.7403  0.6592
  287TMC3     H 4333   1.189   4.455   1.505  0.2518 -0.9218 -0.2927
  287TMC3    H1 4334   1.308   4.536   1.913  0.5165 -1.9613  0.7696
  287TMC3    H2 4335   1.570   4.326   1.654  0.4253  1.0974 -1.5672
  287TMC3    C7 4336   1.534   4.445   1.886 -0.1000  0.6466  0.0109
  287TMC3    C8 4337   1.416   4.326   1.440 -0.4782  0.1824  0.2785
  287TMC3    O1 4338   1.553   4.549   1.946 -0.1024 -0.0430 -0.4487
  287TMC3    O2 4339   1.531   4.275   1.437  0.3765  0.1644  0.2277
  288TMC3    C1 4340   2.684   4.126  14.302 -0.2894 -0.3516  0.5794
  288TMC3    C2 4341   2.572   4.201  14.331  0.0026 -0.4126  0.1227
  288TMC3    C3 4342   2.552   4.320  14.268  0.9613 -0.2502 -0.9049
  288TMC3    C4 4343   2.763   4.164  14.199 -0.0197 -0.1404 -0.7386
  288TMC3    C5 4344   2.740   4.283  14.141  0.1000  0.1541 -0.3199
  288TMC3    C6 4345   2.631   4.366  14.171  0.3067  0.1455 -0.5098
  288TMC3     C 4346   2.721   4.035  14.412  0.5317  0.7230 -0.1149
  288TMC3     O 4347   2.633   3.966  14.475 -0.6967 -0.2913  0.8129
  288TMC3     H 4348   2.518   4.178  14.422  1.0776 -0.0013  0.8767
  288TMC3    H1 4349   2.846   4.104  14.166 -0.6461  0.5447 -3.5704
  288TMC3    H2 4350   2.630   4.465  14.127 -0.6211  0.3328 -0.0655
  288TMC3    C7 4351   2.842   4.305  14.038 -0.4577  0.0249 -0.1536
  288TMC3    C8 4352   2.457   4.418  14.324  0.6602  0.2169 -0.2598
  288TMC3    O1 4353   2.960   4.278  14.066  0.2301  0.2310  0.3607
  288TMC3    O2 4354   2.469   4.537  14.299 -0.1926 -0.1900  0.6807
  289MPD2     C 4355   2.845   3.606  14.436  0.5646  1.1347 -0.4098
  289MPD2    C1 4356   2.805   3.606  14.303  0.4590  0.2051  0.0540
  289MPD2    C2 4357   2.678   3.559  14.277  0.3003 -0.2174  0.5813
  289MPD2    C3 4358   2.591   3.518  14.377  0.5498  0.5723 -0.6307
  289MPD2    C4 4359   2.633   3.527  14.504 -0.6033  0.5087 -0.1631
  289MPD2    C5 4360   2.760   3.562  14.531  0.5887  0.1529  0.4004
  289MPD2     H 4361   2.641   3.558  14.175  1.2767  2.2865  0.2134
  289MPD2    H1 4362   2.566   3.498  14.584  0.8944 -0.2003  0.8401
  289MPD2    H2 4363   2.948   3.635  14.452  1.1324  0.3153 -2.5592
  289MPD2    H3 4364   2.789   3.559  14.635  1.9668 -0.0842  0.0088
  289MPD2     N 4365   2.458   3.471  14.353  0.7400 -0.3475 -0.0426
  289MPD2    H5 4366   2.418   3.419  14.431 -0.7409  2.7354  1.2222
  289MPD2    N1 4367   2.903   3.637  14.207 -0.2812 -0.1146 -0.6641
  289MPD2    H7 4368   3.000   3.653  14.232 -0.8836 -0.2066  1.7286
  290TMC3    C1 4369   2.246   3.463  14.249 -0.0282  0.1941 -0.3272
  290TMC3    C2 4370   2.158   3.530  14.166  0.4004 -0.0542 -0.5061
  290TMC3    C3 4371   2.023   3.491  14.169  0.2011  1.1134  0.1771
  290TMC3    C4 4372   2.207   3.351  14.316  0.1205 -0.4916  0.4634
  290TMC3    C5 4373   2.085   3.302  14.300 -0.0143  0.2313 -0.0973
  290TMC3    C6 4374   1.988   3.368  14.227 -0.2066  0.0624  0.1104
  290TMC3     C 4375   2.387   3.502  14.237 -0.6966  0.4247 -0.6043
  290TMC3     O 4376   2.416   3.579  14.144  0.4415 -0.0024  0.0715
  290TMC3     H 4377   2.180   3.616  14.104 -3.3751 -0.0496 -1.8596
  290TMC3    H1 4378   2.276   3.285  14.367  2.2212  1.9843  0.8558
  290TMC3    H2 4379   1.884   3.339  14.225 -0.3078  0.5628 -1.7350
  290TMC3    C7 4380   2.043   3.191  14.380 -0.6221  0.2248 -0.5536
  290TMC3    C8 4381   1.926   3.574  14.098 -0.3160  0.1922  0.0121
  290TMC3    O1 4382   1.942   3.128  14.342 -0.5641  0.1969 -0.0363
  290TMC3    O2 4383   1.820   3.521  14.082  0.0707 -0.1804 -0.2618
  291MPD2     C 4384   0.968   3.232  17.189  0.2082  0.2568  0.6141
  291MPD2    C1 4385   0.975   3.145  17.297 -0.3424  0.6664 -0.3680
  291MPD2    C2 4386   1.052   3.186  17.408  0.5946  0.0672  0.0481
  291MPD2    C3 4387   1.114   3.313  17.404 -0.1295 -1.1773 -0.7546
  291MPD2    C4 4388   1.082   3.403  17.302 -0.3296 -0.1552  0.7034
  291MPD2    C5 4389   1.007   3.359  17.191 -0.3401  0.3455  0.0973
  291MPD2     H 4390   1.061   3.124  17.496 -2.5827 -1.0238 -0.4169
  291MPD2    H1 4391   1.124   3.503  17.302  1.3426 -0.8557 -3.5857
  291MPD2    H2 4392   0.899   3.211  17.109  0.5169  2.6598 -0.2585
  291MPD2    H3 4393   0.987   3.428  17.109 -0.4357 -1.2245 -1.1959
  291MPD2     N 4394   1.203   3.357  17.502  0.2002 -0.4392  0.0718
  291MPD2    H5 4395   1.225   3.457  17.503 -0.3981 -0.2760 -2.3250
  291MPD2    N1 4396   0.908   3.027  17.296  0.0665 -0.4099  0.4887
  291MPD2    H7 4397   0.906   2.983  17.387  1.1984  0.2887  0.8587
  292TMC3    C1 4398   0.784   2.840  17.220 -1.0935  0.3816 -0.4961
  292TMC3    C2 4399   0.702   2.843  17.333 -0.1760  0.5318  0.4306
  292TMC3    C3 4400   0.663   2.731  17.401  0.1390  0.4070  0.1889
  292TMC3    C4 4401   0.836   2.721  17.184 -0.4607 -0.6290 -0.1968
  292TMC3    C5 4402   0.788   2.609  17.248  0.1648  0.7405 -0.7003
  292TMC3    C6 4403   0.707   2.607  17.359  0.7268 -0.1337  0.0112
  292TMC3     C 4404   0.851   2.963  17.184 -0.0057 -0.3022 -0.1198
  292TMC3     O 4405   0.872   2.978  17.066 -0.4580 -0.2562 -0.2716
  292TMC3     H 4406   0.664   2.935  17.374 -3.1997 -1.2749  1.6428
  292TMC3    H1 4407   0.924   2.705  17.124  0.8312  0.1427  1.4952
  292TMC3    H2 4408   0.686   2.521  17.421 -1.3037  0.7679  0.5770
  292TMC3    C7 4409   0.847   2.483  17.201  0.0781  0.0152  0.1108
  292TMC3    C8 4410   0.623   2.752  17.541 -0.4130 -0.2703 -0.0088
  292TMC3    O1 4411   0.841   2.393  17.285 -0.3978 -0.4140  0.2516
  292TMC3    O2 4412   0.660   2.859  17.591 -0.1519 -0.2231 -0.8400
  293MPD2     C 4413   4.200   4.344  13.210 -0.6168 -0.0111 -0.1048
  293MPD2    C1 4414   4.078   4.389  13.225 -0.2895 -0.7461 -0.0358
  293MPD2    C2 4415   4.042   4.443  13.349 -0.9194 -0.3151  0.4904
  293MPD2    C3 4416   4.127   4.452  13.451 -0.2791  0.3690 -0.2030
  293MPD2    C4 4417   4.254   4.416  13.428  0.2386 -0.1052  0.2907
  293MPD2    C5 4418   4.293   4.371  13.304  0.2801  0.4259  0.3255
  293MPD2     H 4419   3.939   4.476  13.361 -0.2535  1.9226  0.1956
  293MPD2    H1 4420   4.324   4.424  13.510  0.5309  3.0203 -0.2693
  293MPD2    H2 4421   4.229   4.328  13.107  1.6752 -0.7555  0.6566
  293MPD2    H3 4422   4.398   4.369  13.277  0.2561 -0.8691  0.3411
  293MPD2     N 4423   4.084   4.494  13.583 -0.9058  0.1822  0.7388
  293MPD2    H5 4424   3.987   4.526  13.585 -0.5875  1.1074  1.7257
  293MPD2    N1 4425   3.989   4.375  13.107 -0.4247 -0.6456 -0.3449
  293MPD2    H7 4426   4.026   4.337  13.020  2.5327  0.8096  0.2936
  294TMC3    C1 4427   3.802   4.370  12.957 -0.3872  0.3696  0.4891
  294TMC3    C2 4428   3.673   4.317  12.953 -0.4963  0.4553  0.0107
  294TMC3    C3 4429   3.623   4.295  12.827 -0.1039 -0.3964  0.0816
  294TMC3    C4 4430   3.874   4.413  12.841  0.1460 -1.0545 -0.5157
  294TMC3    C5 4431   3.801   4.412  12.729 -0.5984 -0.1745  0.0269
  294TMC3    C6 4432   3.683   4.354  12.714  0.6138 -0.6291  0.1726
  294TMC3     C 4433   3.856   4.394  13.095  0.7622 -0.6573  0.2659
  294TMC3     O 4434   3.774   4.420  13.181 -0.1077  0.4196  0.7133
  294TMC3     H 4435   3.627   4.282  13.044 -1.5227  0.5624 -0.4669
  294TMC3    H1 4436   3.970   4.461  12.851 -1.0314  0.5154  3.0807
  294TMC3    H2 4437   3.636   4.338  12.618  0.6244 -3.0888  0.5764
  294TMC3    C7 4438   3.855   4.464  12.617 -0.2231  0.8295  0.9704
  294TMC3    C8 4439   3.479   4.273  12.822  0.0749 -0.2937 -0.2375
  294TMC3    O1 4440   3.974   4.482  12.616  0.4771 -0.4168  0.0445
  294TMC3    O2 4441   3.420   4.320  12.917  0.6184  0.5672  0.2395
  295MPD2     C 4442   3.940   3.330   0.276  0.4184 -0.3594 -0.6244
  295MPD2    C1 4443   3.935   3.465   0.294 -0.3360 -0.6481 -0.1788
  295MPD2    C2 4444   3.833   3.524   0.371  0.1396  0.2681  0.2128
  295MPD2    C3 4445   3.732   3.444   0.420  0.1262 -0.4216 -0.5230
  295MPD2    C4 4446   3.734   3.308   0.392 -0.4885 -0.1424 -0.2920
  295MPD2    C5 4447   3.834   3.257   0.319 -0.3355  0.0882  0.1657
  295MPD2     H 4448   3.834   3.630   0.390 -0.8339 -0.0622  2.0746
  295MPD2    H1 4449   3.651   3.242   0.411 -1.5944  1.1828 -0.5432
  295MPD2    H2 4450   4.015   3.270   0.226  2.1877 -0.4744  2.2068
  295MPD2    H3 4451   3.817   3.152   0.296 -1.1565  0.6017 -1.6026
  295MPD2     N 4452   3.617   3.494   0.479  0.6386 -0.1985  0.4435
  295MPD2    H5 4453   3.544   3.425   0.495 -0.6851  0.8505 -1.1112
  295MPD2    N1 4454   4.039   3.541   0.251  0.2032  0.1910 -0.4576
  295MPD2    H7 4455   4.028   3.641   0.264 -1.1288 -0.3000  2.1644
  296TMC3    C1 4456   3.487   3.640   0.593  0.1625 -0.3640 -0.3861
  296TMC3    C2 4457   3.512   3.708   0.712  0.2115 -0.5369 -0.1114
  296TMC3    C3 4458   3.448   3.669   0.828 -0.9070 -0.4715 -0.1076
  296TMC3    C4 4459   3.401   3.535   0.592  0.1541 -0.1955  0.1825
  296TMC3    C5 4460   3.340   3.499   0.705  0.4165 -0.5569 -0.0566
  296TMC3    C6 4461   3.364   3.563   0.828 -0.1836 -0.4608 -0.0558
  296TMC3     C 4462   3.604   3.620   0.520 -1.0770 -0.0489  0.3585
  296TMC3     O 4463   3.681   3.714   0.529 -0.9344  0.5765 -0.8479
  296TMC3     H 4464   3.579   3.791   0.728 -1.6324  1.1159 -0.8754
  296TMC3    H1 4465   3.376   3.484   0.499  0.0935 -3.1352  1.8151
  296TMC3    H2 4466   3.311   3.537   0.919 -1.8445  0.8375 -0.6644
  296TMC3    C7 4467   3.264   3.376   0.699  0.1745  0.7526 -0.3094
  296TMC3    C8 4468   3.456   3.755   0.943 -0.1945 -0.2333  0.0064
  296TMC3    O1 4469   3.203   3.356   0.592 -0.0460  0.8123 -1.0501
  296TMC3    O2 4470   3.490   3.873   0.931 -0.2044 -0.0434 -0.1226
  297MPD2     C 4471   1.057   0.309  16.526 -0.3189 -0.0816  0.5828
  297MPD2    C1 4472   1.000   0.426  16.565 -0.0678  0.5989  0.4997
  297MPD2    C2 4473   1.087   0.534  16.588 -0.8102 -0.0391  0.3172
  297MPD2    C3 4474   1.222   0.530  16.572  0.5786  0.4692  0.5522
  297MPD2    C4 4475   1.280   0.408  16.532 -0.0488 -0.0388 -0.2150
  297MPD2    C5 4476   1.196   0.298  16.518 -0.3135  0.3986 -0.3434
  297MPD2     H 4477   1.038   0.627  16.618 -0.0447 -0.5109  3.0703
  297MPD2    H1 4478   1.385   0.387  16.512 -0.0922 -0.7502  0.2887
  297MPD2    H2 4479   0.995   0.220  16.517 -0.7617  0.1718  1.1167
  297MPD2    H3 4480   1.241   0.201  16.499 -0.1334  0.4960 -0.4161
  297MPD2     N 4481   1.291   0.652  16.584 -0.3209 -0.0123  0.2717
  297MPD2    H5 4482   1.246   0.743  16.583  1.7535  1.0142 -0.0367
  297MPD2    N1 4483   0.862   0.428  16.579 -0.6702 -0.1235 -0.3197
  297MPD2    H7 4484   0.814   0.343  16.551 -0.0337 -1.2072  1.8579
  298TMC3    C1 4485   0.656   0.523  16.548 -0.0347  0.0394 -0.7065
  298TMC3    C2 4486   0.645   0.466  16.426  0.3298 -0.8576 -0.2958
  298TMC3    C3 4487   0.517   0.454  16.373  0.4879 -0.9869 -0.4692
  298TMC3    C4 4488   0.548   0.574  16.622  0.2475 -0.4375  0.0269
  298TMC3    C5 4489   0.431   0.580  16.553 -0.2823  0.3590  0.6925
  298TMC3    C6 4490   0.408   0.521  16.431  0.3396 -0.1771  0.1480
  298TMC3     C 4491   0.784   0.531  16.611  0.3906  0.0380 -0.1866
  298TMC3     O 4492   0.817   0.627  16.683 -0.2969 -0.8746 -0.5412
  298TMC3     H 4493   0.732   0.441  16.365 -0.4487 -2.0403 -0.9263
  298TMC3    H1 4494   0.561   0.641  16.707  0.9720 -1.1969  0.5217
  298TMC3    H2 4495   0.307   0.503  16.396  0.5733 -1.6317  0.2523
  298TMC3    C7 4496   0.333   0.675  16.607  0.6904  0.0353  0.0527
  298TMC3    C8 4497   0.499   0.434  16.233  0.1968  0.1177 -0.0406
  298TMC3    O1 4498   0.336   0.709  16.723 -0.8060 -0.2086 -0.1321
  298TMC3    O2 4499   0.395   0.480  16.190 -0.2792  0.3509  0.5364
  299MPD2     C 4500   2.014   0.083  10.858  0.4250 -0.2314  0.7400
  299MPD2    C1 4501   1.992   0.201  10.797  0.9189 -0.6071 -0.4323
  299MPD2    C2 4502   1.909   0.203  10.684  0.0916 -0.3133  0.1975
  299MPD2    C3 4503   1.852   0.090  10.632 -0.2401 -0.6020  0.2037
  299MPD2    C4 4504   1.894   4.684  10.686 -0.4835  0.8609  0.3044
  299MPD2    C5 4505   1.970   4.683  10.800  0.0923 -0.3876  0.6413
  299MPD2     H 4506   1.894   0.296  10.631  1.1424 -1.4169 -2.0344
  299MPD2    H1 4507   1.875   4.588  10.641  1.4519  0.5404  0.1550
  299MPD2    H2 4508   2.072   0.087  10.949 -1.0434  1.0841  1.6115
  299MPD2    H3 4509   1.987   4.587  10.848  1.5567 -0.4519 -0.0255
  299MPD2     N 4510   1.763   0.086  10.522 -0.3798 -0.0937 -0.3433
  299MPD2    H5 4511   1.739   4.712  10.491  2.5233 -0.7964 -0.4738
  299MPD2    N1 4512   2.054   0.315  10.851  0.3423  0.0313 -0.0935
  299MPD2    H7 4513   2.113   0.302  10.933  0.5159  2.5342  0.1969
  300TMC3    C1 4514   1.616   0.181  10.351  0.1002  0.5642 -0.1736
  300TMC3    C2 4515   1.615   0.294  10.274  0.0279 -0.1715  1.0256
  300TMC3    C3 4516   1.495   0.354  10.242 -0.3063  0.2164 -0.1125
  300TMC3    C4 4517   1.495   0.120  10.388  0.1495  0.0651  0.5128
  300TMC3    C5 4518   1.380   0.184  10.356 -0.1931  1.1513  0.2922
  300TMC3    C6 4519   1.380   0.301  10.295 -0.6143 -0.3056  0.6520
  300TMC3     C 4520   1.711   0.197  10.457  0.1069 -0.0097 -0.4314
  300TMC3     O 4521   1.712   0.315  10.491  0.6347  1.1822  0.6412
  300TMC3     H 4522   1.712   0.342  10.264  0.9605 -2.0664  1.0675
  300TMC3    H1 4523   1.497   0.035  10.455 -2.1348 -0.7591 -0.4846
  300TMC3    H2 4524   1.283   0.341  10.266 -0.7422 -1.3084 -0.3041
  300TMC3    C7 4525   1.278   0.145  10.454  0.4018 -0.2143  0.2728
  300TMC3    C8 4526   1.501   0.494  10.240  0.7364  0.2803 -0.4347
  300TMC3    O1 4527   1.270   0.026  10.475  0.1171  0.2163 -0.1627
  300TMC3    O2 4528   1.606   0.541  10.271 -0.4105 -0.2001 -0.0826
  301MPD2     C 4529   4.119   1.220   2.430 -0.8420  0.1779  0.7121
  301MPD2    C1 4530   4.118   1.302   2.322 -0.1211  0.5375 -0.1950
  301MPD2    C2 4531   4.150   1.245   2.199  0.2588  0.9438 -0.1662
  301MPD2    C3 4532   4.180   1.109   2.194  0.3567 -0.6602  0.5654
  301MPD2    C4 4533   4.178   1.030   2.303 -0.1226 -0.1014  0.2063
  301MPD2    C5 4534   4.152   1.088   2.424 -0.1667  0.0373 -0.0538
  301MPD2     H 4535   4.144   1.319   2.120  0.4142  1.2367  0.0944
  301MPD2    H1 4536   4.198   0.924   2.298 -1.4477 -0.2851 -1.1441
  301MPD2    H2 4537   4.098   1.256   2.530  2.1378  0.3403  1.2940
  301MPD2    H3 4538   4.161   1.041   2.522 -2.8266  0.6943  0.5079
  301MPD2     N 4539   4.203   1.049   2.068 -0.1199  0.8377 -0.4162
  301MPD2    H5 4540   4.201   0.949   2.055  3.3738  0.6754  0.2826
  301MPD2    N1 4541   4.081   1.438   2.320  0.6776  0.6020  0.3604
  301MPD2    H7 4542   4.084   1.479   2.227 -2.2261  1.1266  0.5137
  302TMC3    C1 4543   4.247   1.046   1.832  0.1033  0.1079  0.6008
  302TMC3    C2 4544   4.314   0.928   1.818  0.6844 -0.0054 -0.7711
  302TMC3    C3 4545   4.321   0.874   1.690 -0.0385 -0.3260  0.0979
  302TMC3    C4 4546   4.175   1.098   1.721 -0.3986 -0.0755 -0.0853
  302TMC3    C5 4547   4.193   1.043   1.596  0.5028 -0.8568  0.1127
  302TMC3    C6 4548   4.273   0.932   1.577 -0.7853 -0.2366 -0.5770
  302TMC3     C 4549   4.245   1.125   1.956 -0.6905  0.1523  0.5371
  302TMC3     O 4550   4.270   1.243   1.943 -0.4400 -0.2613 -0.6802
  302TMC3     H 4551   4.351   0.879   1.907 -1.1544  1.0951  0.6233
  302TMC3    H1 4552   4.125   1.193   1.731  0.9430  0.5218  1.0042
  302TMC3    H2 4553   4.287   0.887   1.480 -3.1943 -4.6703  1.1087
  302TMC3    C7 4554   4.097   1.080   1.495  0.1650  0.4058  0.5061
  302TMC3    C8 4555   4.368   0.735   1.672  1.1362 -0.3367  0.1147
  302TMC3    O1 4556   4.133   1.034   1.385 -0.3775  0.3126  0.4487
  302TMC3    O2 4557   4.350   0.681   1.562  0.3753 -0.5166 -0.1934
  303MPD2     C 4558   4.254   4.609  10.570 -0.1514  0.0086 -0.4105
  303MPD2    C1 4559   4.168   4.716  10.578  0.0093 -0.3908 -1.0352
  303MPD2    C2 4560   4.176   0.099  10.485 -0.7135  0.5273 -0.1781
  303MPD2    C3 4561   4.271   0.085  10.382 -0.1958  0.1624 -0.3463
  303MPD2    C4 4562   4.368   4.703  10.394 -0.5198  0.0077  0.5675
  303MPD2    C5 4563   4.363   4.603  10.488 -0.3026 -0.5777 -0.2295
  303MPD2     H 4564   4.100   0.176  10.477 -1.6570 -0.5778 -1.9263
  303MPD2    H1 4565   4.451   4.693  10.325 -0.8190  0.2236  0.1769
  303MPD2    H2 4566   4.243   4.520  10.630 -0.9663  0.8416  0.6762
  303MPD2    H3 4567   4.428   4.516  10.491  0.4547  0.0630  1.4696
  303MPD2     N 4568   4.268   0.177  10.269 -0.0130 -0.3516 -0.0548
  303MPD2    H5 4569   4.355   0.176  10.217  0.4311  1.9011  0.6032
  303MPD2    N1 4570   4.052   4.700  10.663  0.1934  0.1872 -0.2035
  303MPD2    H7 4571   4.040   4.611  10.709 -0.7472  2.2364  3.4863
  304TMC3    C1 4572   3.844   0.033  10.755 -0.8944 -0.2093 -0.4943
  304TMC3    C2 4573   3.764   0.135  10.783 -0.0254 -0.0014 -0.5093
  304TMC3    C3 4574   3.632   0.102  10.807 -0.1448 -0.1990  0.0096
  304TMC3    C4 4575   3.807   4.621  10.729 -0.4058 -0.0355  0.2291
  304TMC3    C5 4576   3.675   4.598  10.746 -0.0715  0.1055  0.0655
  304TMC3    C6 4577   3.587   4.690  10.797 -0.9106  0.4157 -0.0829
  304TMC3     C 4578   3.964   0.081  10.692  0.2562 -0.0951  0.2643
  304TMC3     O 4579   3.970   0.196  10.659  0.7413  0.4814  0.1435
  304TMC3     H 4580   3.794   0.239  10.781  1.8339 -0.5664 -1.0807
  304TMC3    H1 4581   3.877   4.541  10.707  0.1334  0.2909  0.7746
  304TMC3    H2 4582   3.484   4.670  10.823 -1.7158  1.0015 -2.8356
  304TMC3    C7 4583   3.618   4.516  10.639  0.8088  0.3827  1.1506
  304TMC3    C8 4584   3.526   0.186  10.750 -0.7275  0.0207  0.1860
  304TMC3    O1 4585   3.675   4.419  10.597 -0.1664  0.0502  0.1302
  304TMC3    O2 4586   3.475   0.139  10.651  0.1548  0.1790 -0.2251
  305MPD2     C 4587   1.676   1.831  14.223 -0.7386  0.0111 -0.0113
  305MPD2    C1 4588   1.795   1.776  14.189 -0.0119 -0.0481  0.2565
  305MPD2    C2 4589   1.824   1.757  14.057 -0.6195 -0.2266  0.2185
  305MPD2    C3 4590   1.737   1.793  13.959  0.1673 -0.2292  1.2932
  305MPD2    C4 4591   1.618   1.854  13.988 -0.6311  0.1392  0.2680
  305MPD2    C5 4592   1.595   1.887  14.119 -0.5285  0.3447 -0.3508
  305MPD2     H 4593   1.912   1.702  14.026  0.3905  1.2780  0.4251
  305MPD2    H1 4594   1.544   1.880  13.913 -0.4625  0.9158  0.3703
  305MPD2    H2 4595   1.643   1.855  14.323 -0.3850  0.1970  0.0587
  305MPD2    H3 4596   1.498   1.931  14.140 -0.1312  0.7081  0.7101
  305MPD2     N 4597   1.770   1.784  13.817 -0.3698  0.6644  0.4114
  305MPD2    H5 4598   1.703   1.816  13.748  0.2003  0.3612 -0.2813
  305MPD2    N1 4599   1.881   1.751  14.297  0.3286  0.6173 -0.8300
  305MPD2    H7 4600   1.849   1.785  14.388 -0.7006 -0.8915 -0.6354
  306TMC3    C1 4601   2.059   1.678  14.429 -0.3179  0.0344 -0.4383
  306TMC3    C2 4602   2.193   1.640  14.442 -0.2186 -0.0163  0.0672
  306TMC3    C3 4603   2.265   1.655  14.551 -0.3752  0.1432  0.7255
  306TMC3    C4 4604   1.991   1.733  14.537 -0.4778  0.3039 -0.2709
  306TMC3    C5 4605   2.071   1.753  14.647  0.2875 -0.6031 -0.5880
  306TMC3    C6 4606   2.201   1.722  14.661  0.4847  0.3549  0.3012
  306TMC3     C 4607   2.001   1.675  14.300  0.2704  0.7617 -0.8178
  306TMC3     O 4608   2.068   1.631  14.213 -0.7739  0.5110  0.4959
  306TMC3     H 4609   2.237   1.584  14.360 -1.9051 -1.7415  0.3409
  306TMC3    H1 4610   1.886   1.760  14.538 -0.4509  0.3822  0.5258
  306TMC3    H2 4611   2.264   1.741  14.748  0.9142  0.9430 -0.1357
  306TMC3    C7 4612   2.002   1.821  14.756  0.0201  0.3232  0.0297
  306TMC3    C8 4613   2.392   1.582  14.570  0.4193 -0.2562 -0.4808
  306TMC3    O1 4614   1.893   1.875  14.743 -0.4436 -0.1702  0.5896
  306TMC3    O2 4615   2.421   1.517  14.473 -0.1323 -0.2181 -0.3883
  307MPD2     C 4616   0.021   3.728   0.604 -0.4171 -0.2518 -0.1603
  307MPD2    C1 4617   0.008   3.870   0.598 -0.0024  0.1506 -0.1284
  307MPD2    C2 4618   4.632   3.934   0.673 -0.4410 -0.5214  0.0273
  307MPD2    C3 4619   4.567   3.871   0.780  0.0386  0.2586 -0.8304
  307MPD2    C4 4620   4.589   3.735   0.796  0.3182 -0.7039  0.0393
  307MPD2    C5 4621   4.670   3.662   0.707  0.2339 -0.1566  0.2179
  307MPD2     H 4622   4.621   4.040   0.656 -0.1129 -0.3897  0.6404
  307MPD2    H1 4623   4.556   3.680   0.884 -0.1116  0.8171  0.8314
  307MPD2    H2 4624   0.078   3.676   0.528  1.9344  0.8104  0.8930
  307MPD2    H3 4625   4.672   3.554   0.716 -1.2810 -0.4372 -2.8392
  307MPD2     N 4626   4.473   3.942   0.852 -0.6092 -0.3694  0.1011
  307MPD2    H5 4627   4.462   4.036   0.815 -3.0067 -0.6070  0.2309
  307MPD2    N1 4628   0.069   3.939   0.492  0.1087  0.0699 -0.1904
  307MPD2    H7 4629   0.035   4.032   0.466 -3.0779 -0.7745  0.9127
  308TMC3    C1 4630   4.083   4.088   1.013 -0.6667 -0.3984  0.0615
  308TMC3    C2 4631   4.133   4.213   1.044 -0.7636 -0.4536 -0.3647
  308TMC3    C3 4632   4.263   4.228   1.025  0.0846 -0.0346  1.3468
  308TMC3    C4 4633   4.161   3.978   0.989  0.0801 -0.0671  0.5775
  308TMC3    C5 4634   4.297   4.003   0.994 -0.5086  0.6638  0.1183
  308TMC3    C6 4635   4.353   4.131   0.998 -0.1704  0.0599 -0.1087
  308TMC3     C 4636   3.941   4.079   0.970 -0.6520 -0.3213  0.8551
  308TMC3     O 4637   3.884   3.973   0.962  0.1526  0.0978  0.2234
  308TMC3     H 4638   4.066   4.298   1.049  0.8186  0.5990  2.7587
  308TMC3    H1 4639   4.125   3.883   0.952  0.9178  0.7498 -2.3018
  308TMC3    H2 4640   4.459   4.150   0.995 -0.1072 -0.4564 -1.1043
  308TMC3    C7 4641   4.386   3.897   0.947 -0.1429 -0.2539  0.2676
  308TMC3    C8 4642   4.320   4.362   1.017  1.0945  0.5306  0.4953
  308TMC3    O1 4643   4.358   3.783   0.981  0.4109 -0.3365  1.0300
  308TMC3    O2 4644   4.429   4.377   0.965  0.0796  0.1027 -0.0677
  309MPD2     C 4645   3.845   0.159  17.215 -0.1266  0.2228  0.3234
  309MPD2    C1 4646   3.778   0.243  17.130  0.0702  0.1170  0.8219
  309MPD2    C2 4647   3.650   0.289  17.157 -0.0060 -0.1321 -0.2233
  309MPD2    C3 4648   3.587   0.254  17.272  0.5447 -0.1708  0.1702
  309MPD2    C4 4649   3.645   0.154  17.351 -0.1314 -0.1805 -0.1575
  309MPD2    C5 4650   3.776   0.115  17.323  0.2451 -0.1950 -0.3341
  309MPD2     H 4651   3.602   0.351  17.082  1.1756 -0.1031 -0.9620
  309MPD2    H1 4652   3.600   0.110  17.439 -1.2652  0.7212 -0.2996
  309MPD2    H2 4653   3.944   0.127  17.185 -1.3642 -1.6101 -1.7973
  309MPD2    H3 4654   3.815   0.042  17.392 -0.1649  1.2063  1.3702
  309MPD2     N 4655   3.458   0.298  17.310  0.2586 -0.3790 -0.0929
  309MPD2    H5 4656   3.434   0.270  17.404 -1.2863  0.8691 -0.1322
  309MPD2    N1 4657   3.835   0.295  17.014 -0.3529  0.0919  0.1571
  309MPD2    H7 4658   3.784   0.354  16.948  0.1531 -0.3114 -0.5978
  310TMC3    C1 4659   3.994   0.319  16.840  0.1671 -0.4535 -0.4174
  310TMC3    C2 4660   3.909   0.395  16.765 -0.1037  1.0369  0.3889
  310TMC3    C3 4661   3.957   0.465  16.657 -0.0566  0.4039  0.2619
  310TMC3    C4 4662   4.126   0.303  16.802 -0.7698 -0.6427 -0.4845
  310TMC3    C5 4663   4.166   0.370  16.693  0.2721  0.1978 -0.0962
  310TMC3    C6 4664   4.086   0.452  16.615  0.2156  0.4286 -0.1629
  310TMC3     C 4665   3.966   0.268  16.978  0.4058 -0.1075 -0.0475
  310TMC3     O 4666   4.056   0.211  17.039 -0.4871 -0.8971  0.6801
  310TMC3     H 4667   3.806   0.414  16.794  0.5273  4.0370  0.7242
  310TMC3    H1 4668   4.196   0.242  16.858 -0.7975 -0.5072 -0.3009
  310TMC3    H2 4669   4.124   0.495  16.523 -1.9553 -0.4991 -1.4830
  310TMC3    C7 4670   4.270   0.301  16.622 -0.1857 -0.1814  0.6492
  310TMC3    C8 4671   3.863   0.544  16.578 -0.3717 -0.3246 -0.2010
  310TMC3    O1 4672   4.345   0.220  16.680  0.1180 -0.1938  0.4694
  310TMC3    O2 4673   3.745   0.529  16.600  0.3931  0.4348 -0.5298
  311MPD2     C 4674   1.171   1.426  12.941  0.2414 -0.2494 -0.5656
  311MPD2    C1 4675   1.155   1.564  12.946 -0.4464 -0.3957 -0.0010
  311MPD2    C2 4676   1.045   1.610  13.021 -0.0843  0.3927  0.3149
  311MPD2    C3 4677   0.963   1.522  13.093 -0.4478 -0.6249 -0.0707
  311MPD2    C4 4678   0.991   1.393  13.094  0.2621 -0.0101  0.2412
  311MPD2    C5 4679   1.087   1.340  13.014 -0.2993 -0.8103 -0.2279
  311MPD2     H 4680   1.019   1.714  13.006  1.2047  0.6629 -0.0654
  311MPD2    H1 4681   0.927   1.318  13.139 -2.6452  3.0014  1.0599
  311MPD2    H2 4682   1.251   1.385  12.880  0.6386 -0.8335  0.3580
  311MPD2    H3 4683   1.104   1.234  13.007  2.7826 -0.3010 -0.2805
  311MPD2     N 4684   0.853   1.577  13.162  0.2188 -0.0098  0.1470
  311MPD2    H5 4685   0.849   1.678  13.165  1.8699  0.1527 -2.4444
  311MPD2    N1 4686   1.246   1.658  12.883  0.1333 -0.3020 -0.1783
  311MPD2    H7 4687   1.229   1.757  12.895 -0.9441 -0.6146  0.8741
  312TMC3    C1 4688   0.621   1.596  13.248  0.1735 -0.8248  0.0041
  312TMC3    C2 4689   0.508   1.571  13.165 -0.0047 -0.0509  0.4396
  312TMC3    C3 4690   0.428   1.676  13.127  0.5726 -0.4164 -0.2499
  312TMC3    C4 4691   0.635   1.727  13.298  0.0869  0.2396  0.6724
  312TMC3    C5 4692   0.542   1.820  13.276 -0.4066 -0.1478 -0.2927
  312TMC3    C6 4693   0.436   1.798  13.191 -0.7139  0.2709 -0.2580
  312TMC3     C 4694   0.740   1.514  13.209  0.3860 -0.1133 -0.0816
  312TMC3     O 4695   0.721   1.395  13.188  0.1344  0.0764  0.0273
  312TMC3     H 4696   0.488   1.471  13.128 -1.5422  0.6924 -0.7597
  312TMC3    H1 4697   0.725   1.744  13.354  0.4705  0.1672  0.0790
  312TMC3    H2 4698   0.383   1.888  13.161 -2.8358  0.0252  2.6729
  312TMC3    C7 4699   0.516   1.925  13.369  0.3630 -0.1026  0.1531
  312TMC3    C8 4700   0.316   1.651  13.032 -0.9240 -0.0816  0.2720
  312TMC3    O1 4701   0.437   2.008  13.324 -0.3173 -0.3646 -0.8048
  312TMC3    O2 4702   0.271   1.539  13.029 -0.1700 -0.1824 -0.4224
  313MPD2     C 4703   1.297   1.390  10.699 -0.6904 -0.9941 -0.3420
  313MPD2    C1 4704   1.214   1.301  10.758 -0.3505 -0.1824  0.4863
  313MPD2    C2 4705   1.150   1.202  10.689 -0.1028 -0.0724 -0.0570
  313MPD2    C3 4706   1.163   1.192  10.551 -0.2095  1.0462 -0.1190
  313MPD2    C4 4707   1.248   1.295  10.493 -0.9526 -0.3229  0.3743
  313MPD2    C5 4708   1.307   1.390  10.567  0.0389  0.0241  0.1304
  313MPD2     H 4709   1.082   1.143  10.748 -0.0773  0.4807  0.5275
  313MPD2    H1 4710   1.268   1.279  10.388  3.1238 -0.5501  1.2022
  313MPD2    H2 4711   1.345   1.473  10.749  0.4430 -1.0434 -1.3208
  313MPD2    H3 4712   1.363   1.468  10.516  2.2139 -1.1662  0.6569
  313MPD2     N 4713   1.092   1.093  10.485  0.1323  0.1006 -0.4233
  313MPD2    H5 4714   1.063   1.016  10.544  1.0269 -0.5378 -0.8263
  313MPD2    N1 4715   1.182   1.305  10.901  0.9502  0.1084  0.2830
  313MPD2    H7 4716   1.119   1.240  10.946  0.0964  1.0044  0.3748
  314TMC3    C1 4717   1.189   1.390  11.135  0.3633  0.2628  0.3001
  314TMC3    C2 4718   1.249   1.471  11.226  0.4583  0.1152 -0.1979
  314TMC3    C3 4719   1.173   1.549  11.306 -0.4116 -0.0987 -0.0001
  314TMC3    C4 4720   1.053   1.385  11.147  0.2305  0.0016 -0.1055
  314TMC3    C5 4721   0.975   1.457  11.227  0.0287 -0.1503 -0.2944
  314TMC3    C6 4722   1.035   1.549  11.301  0.3705 -0.1569 -0.2095
  314TMC3     C 4723   1.247   1.385  10.996  0.6620  0.6609  0.9120
  314TMC3     O 4724   1.339   1.461  10.981 -0.5536  0.0340 -0.0104
  314TMC3     H 4725   1.356   1.484  11.214  0.3274  1.8916  0.6273
  314TMC3    H1 4726   1.003   1.318  11.078 -2.1283  2.1790 -0.4970
  314TMC3    H2 4727   0.983   1.616  11.368  0.1672 -0.6635  0.1375
  314TMC3    C7 4728   0.854   1.497  11.175  0.3315 -0.0727  0.5857
  314TMC3    C8 4729   1.237   1.677  11.328 -0.3139 -0.9783 -0.1179
  314TMC3    O1 4730   0.765   1.506  11.259  0.0711 -0.5655 -0.2974
  314TMC3    O2 4731   1.159   1.768  11.301  0.4551  0.0471 -0.1526
  315MPD2     C 4732   0.418   0.390   0.187  0.3608 -0.3215 -0.5271
  315MPD2    C1 4733   0.532   0.385   0.264  0.3769 -1.0275  0.2456
  315MPD2    C2 4734   0.626   0.485   0.238 -0.3287 -0.3345  0.2499
  315MPD2    C3 4735   0.610   0.585   0.138  0.9531 -0.4794  0.4967
  315MPD2    C4 4736   0.488   0.583   0.067  0.1184 -0.1412 -0.4307
  315MPD2    C5 4737   0.393   0.485   0.091 -0.5151 -0.1025 -0.1810
  315MPD2     H 4738   0.714   0.481   0.301 -0.1934 -2.3100 -0.0839
  315MPD2    H1 4739   0.453   0.649  17.670 -1.8182 -1.2010 -0.4761
  315MPD2    H2 4740   0.337   0.321   0.206  0.5680 -0.7395 -1.1540
  315MPD2    H3 4741   0.300   0.484   0.034 -1.5278 -1.1768  1.4883
  315MPD2     N 4742   0.714   0.674   0.112  0.1454 -0.2503 -0.4755
  315MPD2    H5 4743   0.794   0.678   0.173  1.1190  1.8339 -1.8685
  315MPD2    N1 4744   0.560   0.284   0.355 -0.2095 -0.1160  0.3226
  315MPD2    H7 4745   0.657   0.287   0.385 -0.4976 -2.0455  1.3894
  316TMC3    C1 4746   0.803   0.858  17.677  0.7600 -0.6747 -0.2779
  316TMC3    C2 4747   0.918   0.847   0.073 -0.1985 -0.6597 -0.3917
  316TMC3    C3 4748   0.997   0.958   0.088 -0.0793  0.3560  0.0299
  316TMC3    C4 4749   0.769   0.967  17.609 -0.2577  0.3924 -0.1806
  316TMC3    C5 4750   0.857   1.076  17.618 -0.2538 -0.1220  0.0869
  316TMC3    C6 4751   0.967   1.075   0.020  0.1813  0.5711 -0.4450
  316TMC3     C 4752   0.716   0.748  17.674  0.3573  0.2810 -0.3521
  316TMC3     O 4753   0.649   0.730  17.572  0.0315  0.6663  0.0531
  316TMC3     H 4754   0.950   0.754   0.118  1.3427  0.9783  1.9119
  316TMC3    H1 4755   0.673   0.969  17.558  0.5376  1.6709 -1.6407
  316TMC3    H2 4756   1.027   1.164   0.036 -0.4346  0.7839  0.6968
  316TMC3    C7 4757   0.805   1.208  17.572  0.0911 -0.1628  0.0148
  316TMC3    C8 4758   1.107   0.964   0.187  0.0949  0.7004  0.1815
  316TMC3    O1 4759   0.859   1.308  17.606  0.2546  0.0582 -0.1026
  316TMC3    O2 4760   1.189   1.054   0.172  0.1242  0.0903  0.1984
  317MPD2     C 4761   1.917   3.754  13.068 -0.8223  0.2837 -0.0407
  317MPD2    C1 4762   2.037   3.690  13.084  0.3337 -0.3140  0.7526
  317MPD2    C2 4763   2.054   3.611  13.195  0.1044  0.1640  0.0266
  317MPD2    C3 4764   1.940   3.581  13.272 -0.1942  0.2458 -0.4219
  317MPD2    C4 4765   1.818   3.642  13.252 -0.4208  0.4394  0.5061
  317MPD2    C5 4766   1.805   3.717  13.140 -0.2934  0.0616 -0.1910
  317MPD2     H 4767   2.148   3.565  13.222  1.6161  2.7089 -0.8633
  317MPD2    H1 4768   1.734   3.629  13.320 -1.9489  1.1212 -1.2424
  317MPD2    H2 4769   1.897   3.811  12.978  1.7941  0.1344 -0.7131
  317MPD2    H3 4770   1.713   3.767  13.109  1.6933  2.3521 -2.4016
  317MPD2     N 4771   1.971   3.501  13.379 -0.1749  0.9271 -0.5665
  317MPD2    H5 4772   2.069   3.475  13.384 -0.7578 -1.2416 -0.0772
  317MPD2    N1 4773   2.145   3.704  12.985 -0.4534 -0.2634  0.5579
  317MPD2    H7 4774   2.219   3.636  12.997  0.6081  0.3581 -2.4475
  318TMC3    C1 4775   1.966   3.357  13.558  0.2576 -0.6208 -0.9039
  318TMC3    C2 4776   1.895   3.249  13.598  0.0401  0.1665 -0.4474
  318TMC3    C3 4777   1.954   3.126  13.611  0.8044 -0.0745  0.1606
  318TMC3    C4 4778   2.101   3.345  13.540 -0.1669 -0.4240 -0.4740
  318TMC3    C5 4779   2.158   3.228  13.560 -0.3488  0.3952  0.2871
  318TMC3    C6 4780   2.094   3.113  13.601  0.5179  0.5309 -0.8202
  318TMC3     C 4781   1.891   3.453  13.479 -0.0520 -0.1070 -0.0517
  318TMC3     O 4782   1.772   3.456  13.495 -0.6469  0.3333 -0.2059
  318TMC3     H 4783   1.787   3.258  13.604  0.4485  3.6597  1.5068
  318TMC3    H1 4784   2.165   3.417  13.491  0.9351 -0.9046  0.2707
  318TMC3    H2 4785   2.141   3.015  13.594  0.3376  0.5084 -1.7816
  318TMC3    C7 4786   2.301   3.224  13.531  0.1778 -0.0148 -0.0716
  318TMC3    C8 4787   1.857   3.017  13.616 -0.3073  0.0791  0.0663
  318TMC3    O1 4788   2.348   3.301  13.451  0.4685 -0.1853 -0.2433
  318TMC3    O2 4789   1.878   2.925  13.693 -0.6842  0.3454  0.2311
  319MPD2     C 4790   3.802   4.647  15.763 -0.2298  0.0701 -0.9023
  319MPD2    C1 4791   3.740   4.602  15.874  1.0512  0.2007  0.3298
  319MPD2    C2 4792   3.608   4.551  15.856 -0.5244 -0.7075  0.1764
  319MPD2    C3 4793   3.537   4.545  15.742 -0.2620 -0.1053 -0.3163
  319MPD2    C4 4794   3.605   4.595  15.630 -0.3245 -0.1290 -0.7218
  319MPD2    C5 4795   3.732   4.647  15.643  0.1549  0.1495  0.1954
  319MPD2     H 4796   3.559   4.513  15.945 -2.0632 -1.3881 -0.9493
  319MPD2    H1 4797   3.552   4.583  15.536 -1.8413 -0.8439  0.2248
  319MPD2    H2 4798   3.906   4.677  15.762 -0.4284  0.7752  1.8697
  319MPD2    H3 4799   3.771   4.674  15.545 -1.5987  2.0518  0.0119
  319MPD2     N 4800   3.403   4.493  15.730 -0.4689 -0.3719 -0.7328
  319MPD2    H5 4801   3.359   4.482  15.639 -0.3103 -0.6981 -0.7732
  319MPD2    N1 4802   3.803   4.586  15.992 -0.1438  0.5097 -0.2011
  319MPD2    H7 4803   3.759   4.524  16.060  1.2917  0.5610  0.7924
  320TMC3    C1 4804   3.196   4.396  15.795 -0.6678  0.2029 -0.5292
  320TMC3    C2 4805   3.116   4.493  15.734  0.1604  0.1063 -0.4775
  320TMC3    C3 4806   2.977   4.472  15.737 -0.0714 -0.3173  0.1733
  320TMC3    C4 4807   3.140   4.293  15.862  0.2324 -0.0657  0.2401
  320TMC3    C5 4808   3.006   4.294  15.882 -0.3710 -0.9082 -0.6587
  320TMC3    C6 4809   2.924   4.371  15.814  0.3397  0.3346 -0.3711
  320TMC3     C 4810   3.329   4.431  15.831  0.7335  0.1379  0.1750
  320TMC3     O 4811   3.374   4.382  15.933  0.0052 -0.2319  0.1811
  320TMC3     H 4812   3.154   4.579  15.681  1.0615  1.8624  3.0490
  320TMC3    H1 4813   3.203   4.225  15.918 -0.6131 -0.2707  0.9277
  320TMC3    H2 4814   2.818   4.365  15.832  0.5907 -1.4462  0.5689
  320TMC3    C7 4815   2.937   4.186  15.956  0.1475  0.2517  0.8032
  320TMC3    C8 4816   2.892   4.587  15.730  0.0758 -0.7499  0.1390
  320TMC3    O1 4817   2.819   4.153  15.937 -0.1252  0.3105 -0.0763
  320TMC3    O2 4818   2.950   4.694  15.745 -0.2846 -0.0684 -0.2495
  321TMC3    C1 4819   3.976   4.633  16.152  0.1191 -0.4065  0.0638
  321TMC3    C2 4820   3.993   4.499  16.185 -0.0294  0.3900 -0.6299
  321TMC3    C3 4821   4.099   4.458  16.263 -0.4335  0.8474  0.2484
  321TMC3    C4 4822   4.046   0.014  16.214  0.2047 -0.2155  0.3354
  321TMC3    C5 4823   4.138   4.683  16.300 -1.0065 -0.5201 -0.0808
  321TMC3    C6 4824   4.188   4.553  16.301 -0.8342 -0.6566 -0.1548
  321TMC3     C 4825   3.906   4.676  16.032 -0.0202 -0.0351 -0.2522
  321TMC3     O 4826   3.943   0.061  15.979  0.1544 -0.2061 -0.2134
  321TMC3     H 4827   3.926   4.427  16.139 -0.9704  1.2925 -0.6849
  321TMC3    H1 4828   4.033   0.118  16.187 -0.1916 -0.1199  0.8860
  321TMC3    H2 4829   4.255   4.524  16.381  1.4133 -0.0401 -1.8004
  321TMC3    C7 4830   4.107   0.008  16.434  0.1594  0.7739  0.3518
  321TMC3    C8 4831   4.072   4.352  16.365  0.1979  0.1274 -1.0822
  321TMC3    O1 4832   4.147   4.657  16.526  0.0520  0.1445 -0.3112
  321TMC3    O2 4833   4.149   4.346  16.459 -0.0744  0.1883 -0.1431
  322MPD2     C 4834   2.142   1.238  13.304 -0.0673 -0.0125 -0.0113
  322MPD2    C1 4835   2.107   1.157  13.405  0.1361 -0.4431 -0.1451
  322MPD2    C2 4836   2.128   1.023  13.386  0.0685 -0.9565  0.5767
  322MPD2    C3 4837   2.168   0.968  13.263  0.6814  0.1636 -0.0337
  322MPD2    C4 4838   2.195   1.055  13.158 -0.2441  0.0244  0.0813
  322MPD2    C5 4839   2.189   1.187  13.185 -0.3424 -0.2046  0.4962
  322MPD2     H 4840   2.122   0.950  13.466  2.1156 -1.2595  0.4636
  322MPD2    H1 4841   2.206   1.029  13.053  1.7021  1.9413 -0.1803
  322MPD2    H2 4842   2.128   1.345  13.313 -2.0022 -0.4107  1.6408
  322MPD2    H3 4843   2.204   1.263  13.110  0.0876 -0.0818  0.7033
  322MPD2     N 4844   2.184   0.832  13.247  0.0442  0.5205 -0.3897
  322MPD2    H5 4845   2.174   0.775  13.330  0.8501  1.1728  0.1493
  322MPD2    N1 4846   2.085   1.213  13.532 -1.0344 -0.9320 -0.0243
  322MPD2    H7 4847   2.096   1.314  13.537 -0.4073 -1.1338  3.1406
  323TMC3    C1 4848   2.074   1.232  13.766  0.1402  0.0156 -0.1394
  323TMC3    C2 4849   2.123   1.360  13.760 -0.0242  0.1689 -0.7327
  323TMC3    C3 4850   2.147   1.426  13.878  0.4839 -0.2863 -0.2805
  323TMC3    C4 4851   2.039   1.180  13.887 -0.3294 -0.1765  0.0630
  323TMC3    C5 4852   2.066   1.250  13.997  0.4992  0.6334 -0.0832
  323TMC3    C6 4853   2.109   1.377  13.998 -0.0491  0.5635 -0.3469
  323TMC3     C 4854   2.063   1.148  13.649 -0.0398  0.3019  0.4879
  323TMC3     O 4855   2.039   1.032  13.666  0.4266 -1.2798 -0.0499
  323TMC3     H 4856   2.159   1.406  13.668 -1.3230  2.3010 -0.1722
  323TMC3    H1 4857   1.989   1.084  13.887 -1.3624  0.3603 -0.1777
  323TMC3    H2 4858   2.152   1.416  14.089  1.8594 -1.9376 -0.1762
  323TMC3    C7 4859   2.053   1.170  14.121  0.2479 -0.3707  0.3984
  323TMC3    C8 4860   2.246   1.534  13.870 -0.1790 -0.3697 -0.3367
  323TMC3    O1 4861   2.043   1.050  14.104 -0.0227 -0.1550 -0.5972
  323TMC3    O2 4862   2.327   1.508  13.786 -0.0257  0.0523 -0.2276
  324MPD2     C 4863   3.334   1.784  14.656  0.0429  0.6317  0.6715
  324MPD2    C1 4864   3.403   1.889  14.605 -0.4577 -0.0264 -0.1552
  324MPD2    C2 4865   3.358   1.979  14.508  0.0562 -0.2188  0.4684
  324MPD2    C3 4866   3.235   1.955  14.460 -0.0429 -0.4148 -0.7791
  324MPD2    C4 4867   3.167   1.847  14.503  0.2328 -0.3603 -0.3171
  324MPD2    C5 4868   3.218   1.757  14.594  0.7379 -0.8756 -0.3184
  324MPD2     H 4869   3.416   2.065  14.476 -0.2848  0.0995  0.7155
  324MPD2    H1 4870   3.068   1.847  14.459 -0.3308 -0.8800  0.9289
  324MPD2    H2 4871   3.379   1.706  14.716  0.7580  0.7909  0.3402
  324MPD2    H3 4872   3.152   1.678  14.626 -1.2544  0.2073 -1.7240
  324MPD2     N 4873   3.170   2.039  14.364  1.0672 -0.5702 -0.0167
  324MPD2    H5 4874   3.069   2.030  14.358  0.9068  0.1011  1.6693
  324MPD2    N1 4875   3.526   1.926  14.661 -0.1494 -0.5533 -0.2292
  324MPD2    H7 4876   3.570   2.002  14.612  0.4111 -0.1219  0.9447
  325TMC3    C1 4877   3.142   2.220  14.217 -0.4443 -0.3230  0.1164
  325TMC3    C2 4878   3.029   2.169  14.165  0.6311  0.1693  0.0632
  325TMC3    C3 4879   2.924   2.252  14.144 -0.2951  0.3084  0.4545
  325TMC3    C4 4880   3.149   2.354  14.262  0.0620  0.5653  0.3924
  325TMC3    C5 4881   3.038   2.434  14.238  0.2105 -0.6271  0.0228
  325TMC3    C6 4882   2.924   2.381  14.181  0.5184 -0.1021 -0.6454
  325TMC3     C 4883   3.228   2.130  14.285 -0.1042 -0.6398  0.2792
  325TMC3     O 4884   3.348   2.148  14.270  0.0060  0.6956  0.4017
  325TMC3     H 4885   3.005   2.065  14.147 -3.2277  1.0186  0.3019
  325TMC3    H1 4886   3.237   2.382  14.318  1.0393  1.6020 -1.6707
  325TMC3    H2 4887   2.833   2.439  14.168 -0.7442 -1.5600  1.6727
  325TMC3    C7 4888   3.032   2.570  14.276  0.4769  0.1257  0.0992
  325TMC3    C8 4889   2.801   2.205  14.075 -0.4907  0.0143 -0.6668
  325TMC3    O1 4890   2.921   2.617  14.264  0.0193  0.4711 -0.1777
  325TMC3    O2 4891   2.807   2.119  13.986  0.5630 -1.0293  0.4050
  326MPD2     C 4892   0.142   3.420  11.111 -0.1831 -0.4702  0.4058
  326MPD2    C1 4893   0.165   3.443  10.980 -0.3044  0.1400  0.0298
  326MPD2    C2 4894   0.264   3.539  10.952 -0.0233 -0.3557 -0.0060
  326MPD2    C3 4895   0.318   3.620  11.048  0.3487 -0.3249 -0.7840
  326MPD2    C4 4896   0.286   3.598  11.181  0.0998 -0.1762  0.8317
  326MPD2    C5 4897   0.203   3.494  11.211 -0.8563 -0.4390  0.6903
  326MPD2     H 4898   0.299   3.540  10.849  2.4702  0.8296  0.8712
  326MPD2    H1 4899   0.320   3.664  11.259  0.1208 -1.7400  2.1425
  326MPD2    H2 4900   0.069   3.351  11.151  0.8067 -2.0948 -0.6122
  326MPD2    H3 4901   0.164   3.475  11.310 -2.4031 -0.7822  0.0169
  326MPD2     N 4902   0.410   3.723  11.025  0.8383  0.8113  0.2367
  326MPD2    H5 4903   0.458   3.759  11.107  0.1499  1.6476  0.2797
  326MPD2    N1 4904   0.099   3.376  10.879  0.4231 -0.1877  0.7331
  326MPD2    H7 4905   0.128   3.396  10.784  2.2485  1.3510  1.6264
  327TMC3    C1 4906   4.677   3.242  10.771 -0.2336  0.0360  0.1355
  327TMC3    C2 4907   4.569   3.304  10.714  1.2376 -0.4787 -0.6269
  327TMC3    C3 4908   4.599   3.340  10.581 -0.6941 -0.1322  0.0245
  327TMC3    C4 4909   0.071   3.216  10.708  0.7905  0.1173 -0.4087
  327TMC3    C5 4910   0.081   3.238  10.570 -0.8721 -0.0991  0.7349
  327TMC3    C6 4911   4.702   3.290  10.502  0.5021  0.5128  0.0069
  327TMC3     C 4912   4.703   3.295  10.899 -0.3124  0.5866 -0.1644
  327TMC3     O 4913   4.615   3.288  10.987 -0.4022 -0.3079  0.1222
  327TMC3     H 4914   4.514   3.373  10.778  0.7345 -1.5459  0.0809
  327TMC3    H1 4915   0.136   3.152  10.766  1.4263  1.4394  0.3315
  327TMC3    H2 4916   4.710   3.319  10.398 -0.4562 -0.2115 -0.2587
  327TMC3    C7 4917   0.209   3.282  10.523  0.6342  0.2840  1.1319
  327TMC3    C8 4918   4.547   3.465  10.527 -0.2109  0.2427 -0.2622
  327TMC3    O1 4919   0.211   3.345  10.418  0.4178 -0.7336  0.1976
  327TMC3    O2 4920   4.618   3.519  10.444 -0.3540  0.7068 -0.4534
  328MPD2     C 4921   3.033   3.786  17.551 -0.3375  0.2834  0.0299
  328MPD2    C1 4922   2.902   3.778  17.524  0.3105 -0.7131 -0.2878
  328MPD2    C2 4923   2.848   3.823  17.403  0.3331 -0.4606  0.5204
  328MPD2    C3 4924   2.926   3.903  17.312 -0.6575 -0.0159 -1.0292
  328MPD2    C4 4925   3.055   3.934  17.360 -0.1586  0.2355  0.3386
  328MPD2    C5 4926   3.104   3.873  17.473 -0.8128 -0.1771 -0.3385
  328MPD2     H 4927   2.744   3.797  17.386  1.2198 -3.1327 -0.7185
  328MPD2    H1 4928   3.123   3.996  17.303  1.4573 -2.7293 -0.9794
  328MPD2    H2 4929   3.072   3.748  17.644  1.7729 -0.9155 -1.3534
  328MPD2    H3 4930   3.204   3.894  17.508  0.0586 -0.4034 -2.6656
  328MPD2     N 4931   2.885   3.957  17.183  0.6824  0.2950  0.4369
  328MPD2    H5 4932   2.950   4.001  17.119  0.3522  1.1309  0.6879
  328MPD2    N1 4933   2.833   3.697  17.619 -0.4940 -0.5205 -0.0407
  328MPD2    H7 4934   2.876   3.667   0.025 -0.6132 -0.4523  0.0428
  329TMC3    C1 4935   2.652   3.564   0.024 -0.0410 -1.0583 -0.5424
  329TMC3    C2 4936   2.559   3.469  17.678  0.4672 -0.8173 -0.7036
  329TMC3    C3 4937   2.495   3.411   0.104  0.7199  0.1167 -0.0799
  329TMC3    C4 4938   2.664   3.614   0.153 -0.4265  0.4063 -0.7921
  329TMC3    C5 4939   2.591   3.562   0.249  0.0701 -0.0081 -0.1748
  329TMC3    C6 4940   2.506   3.452   0.233  0.0307 -0.0047 -0.1942
  329TMC3     C 4941   2.705   3.646  17.603  0.7582  0.8808 -0.0112
  329TMC3     O 4942   2.630   3.660  17.509 -0.0617  0.1337 -0.0570
  329TMC3     H 4943   2.553   3.428  17.578 -0.6488 -1.0740 -0.5359
  329TMC3    H1 4944   2.731   3.699   0.166  1.5352 -1.1519 -0.7252
  329TMC3    H2 4945   2.461   3.410   0.322  2.1250 -1.3555  0.2176
  329TMC3    C7 4946   2.604   3.609   0.386 -0.4715 -1.4073 -0.2570
  329TMC3    C8 4947   2.420   3.292   0.071 -0.4784  0.1846  0.4977
  329TMC3    O1 4948   2.590   3.536   0.482 -0.7713  0.6313  0.2191
  329TMC3    O2 4949   2.452   3.234  17.647 -0.3686  0.7091  0.3491
  330TMC3    C1 4950   0.438   3.321   9.651  0.1123  0.0971  0.0202
  330TMC3    C2 4951   0.340   3.236   9.606 -0.0258 -0.6488 -0.6508
  330TMC3    C3 4952   0.367   3.104   9.615 -0.1628  0.0121  0.3028
  330TMC3    C4 4953   0.567   3.288   9.671 -0.1976  0.4059  0.2182
  330TMC3    C5 4954   0.595   3.155   9.666  0.1913  0.8116  0.1264
  330TMC3    C6 4955   0.495   3.058   9.644 -0.3627 -0.3693 -0.3978
  330TMC3     C 4956   0.401   3.461   9.681  0.0630  0.4901  0.9798
  330TMC3     O 4957   0.487   3.546   9.665 -0.4712 -0.2139 -0.2749
  330TMC3     H 4958   0.241   3.272   9.580  0.6716  1.7726  0.0981
  330TMC3    H1 4959   0.634   3.371   9.691  1.0702 -0.6524  0.3314
  330TMC3    H2 4960   0.512   2.951   9.646 -2.0852 -0.6638 -0.7022
  330TMC3    C7 4961   0.731   3.111   9.695 -0.7262 -0.4175 -0.6510
  330TMC3    C8 4962   0.251   3.019   9.581 -0.0334 -0.6813  0.0166
  330TMC3    O1 4963   0.800   3.204   9.734  0.0942  1.1138  0.1034
  330TMC3    O2 4964   0.151   3.075   9.537 -0.4497 -0.0706  0.6718
  331MPD2     C 4965   2.800   1.857  12.502 -0.1948  0.5889  0.1117
  331MPD2    C1 4966   2.873   1.902  12.391  0.2614  0.5300  0.3005
  331MPD2    C2 4967   2.961   1.822  12.328  0.3195 -0.4022  0.0716
  331MPD2    C3 4968   2.971   1.687  12.355  0.2097  0.2925 -0.1115
  331MPD2    C4 4969   2.899   1.639  12.461 -0.2158 -0.1499 -0.1017
  331MPD2    C5 4970   2.810   1.727  12.531 -0.0050  0.3554 -0.5220
  331MPD2     H 4971   3.026   1.869  12.255 -2.4982  0.8442 -1.6437
  331MPD2    H1 4972   2.896   1.535  12.489 -1.0549 -0.1026  0.0053
  331MPD2    H2 4973   2.731   1.925  12.549 -1.1872 -0.2215 -0.1659
  331MPD2    H3 4974   2.751   1.688  12.614 -0.7911  0.7700 -0.8821
  331MPD2     N 4975   3.071   1.623  12.287 -0.1309  0.4129  0.2273
  331MPD2    H5 4976   3.103   1.670  12.202  2.2147 -2.0466 -0.2661
  331MPD2    N1 4977   2.865   2.040  12.342  0.1729  0.3967  0.1486
  331MPD2    H7 4978   2.837   2.112  12.408 -1.7749  0.5758 -0.8572
  332TMC3    C1 4979   3.242   1.454  12.244  0.2949 -0.1166 -0.0454
  332TMC3    C2 4980   3.291   1.542  12.154 -0.3767  0.2434 -0.2231
  332TMC3    C3 4981   3.409   1.519  12.090 -0.3890  0.1771  0.2643
  332TMC3    C4 4982   3.318   1.347  12.276 -0.0885  0.4698  0.0498
  332TMC3    C5 4983   3.438   1.327  12.221 -0.3532  0.5546 -0.0353
  332TMC3    C6 4984   3.495   1.420  12.132 -0.1300  0.3719  0.6979
  332TMC3     C 4985   3.126   1.498  12.327  0.2160  0.2080 -0.4761
  332TMC3     O 4986   3.113   1.443  12.438  0.3855  0.0112  0.0716
  332TMC3     H 4987   3.232   1.620  12.108 -0.6968 -0.5420 -1.1368
  332TMC3    H1 4988   3.274   1.274  12.343  0.3495 -0.3985 -0.6155
  332TMC3    H2 4989   3.600   1.417  12.106 -0.5378  2.7025 -1.1266
  332TMC3    C7 4990   3.513   1.222  12.282 -0.5367 -0.2940  0.5647
  332TMC3    C8 4991   3.479   1.644  12.051  0.6020 -0.0692 -0.7197
  332TMC3    O1 4992   3.464   1.116  12.307 -0.2586 -0.0772  0.2091
  332TMC3    O2 4993   3.425   1.746  12.098 -0.0826  0.1741 -0.3712
  333MPD2     C 4994   3.461   2.178  11.551 -0.1308 -0.0237  0.0762
  333MPD2    C1 4995   3.560   2.096  11.507  0.0718 -1.2289  0.2463
  333MPD2    C2 4996   3.541   1.963  11.540  1.1049 -0.5909  0.5513
  333MPD2    C3 4997   3.428   1.912  11.601  0.0573  0.2544  0.1010
  333MPD2    C4 4998   3.328   1.998  11.642  0.6307  0.5790 -0.4644
  333MPD2    C5 4999   3.350   2.130  11.612 -0.6694 -0.1746  0.9188
  333MPD2     H 5000   3.617   1.895  11.503 -0.0662 -2.1506  1.0441
  333MPD2    H1 5001   3.229   1.972  11.679 -0.1725  0.1930 -2.8274
  333MPD2    H2 5002   3.461   2.285  11.536  1.1511  0.0282  0.5071
  333MPD2    H3 5003   3.261   2.185  11.642 -1.3592  0.2164 -1.8256
  333MPD2     N 5004   3.430   1.768  11.622 -0.4011  0.2523 -0.0458
  333MPD2    H5 5005   3.509   1.715  11.588 -0.4252  0.4229 -0.3664
  333MPD2    N1 5006   3.676   2.151  11.452  0.6923  0.3453  0.2700
  333MPD2    H7 5007   3.673   2.252  11.444 -0.1815  0.2824 -0.1923
  334TMC3    C1 5008   3.901   2.181  11.424  0.8777  0.5445  0.5788
  334TMC3    C2 5009   4.026   2.128  11.433 -0.9627  0.4365  0.5788
  334TMC3    C3 5010   4.133   2.199  11.383 -0.0688 -0.1272  0.3146
  334TMC3    C4 5011   3.882   2.295  11.348 -0.7985  0.2997 -0.6773
  334TMC3    C5 5012   3.989   2.363  11.294 -0.7364 -0.2642 -0.2027
  334TMC3    C6 5013   4.118   2.315  11.312 -0.5406 -0.3687  0.2320
  334TMC3     C 5014   3.794   2.087  11.443  0.0653  0.4084  0.2380
  334TMC3     O 5015   3.815   1.967  11.423  0.0341 -0.3381 -0.8251
  334TMC3     H 5016   4.049   2.031  11.474  1.2782 -0.1298 -2.0895
  334TMC3    H1 5017   3.779   2.327  11.336 -1.9197 -2.0488  2.7293
  334TMC3    H2 5018   4.205   2.369  11.277 -1.5966  0.2207 -1.4754
  334TMC3    C7 5019   3.973   2.470  11.201  0.6404  0.0364 -0.2630
  334TMC3    C8 5020   4.267   2.145  11.425 -0.0850  0.1968  0.4230
  334TMC3    O1 5021   4.079   2.522  11.158  0.0199 -0.2626 -0.4393
  334TMC3    O2 5022   4.280   2.086  11.532 -0.5032 -0.6079  0.2659
  335TMC3    C1 5023   2.817   3.232   0.022 -0.9512  0.4592 -0.0989
  335TMC3    C2 5024   2.755   3.212  17.591 -0.0163 -0.7402  0.1776
  335TMC3    C3 5025   2.813   3.254  17.478  0.0412 -0.2381 -0.2274
  335TMC3    C4 5026   2.936   3.299   0.033  0.4955 -0.1119 -0.1782
  335TMC3    C5 5027   2.996   3.348  17.601  0.2388  0.2263 -0.2277
  335TMC3    C6 5028   2.935   3.326  17.481 -0.3744  0.2232 -0.2172
  335TMC3     C 5029   2.764   3.151   0.132  0.1121 -0.6981  0.3281
  335TMC3     O 5030   2.686   3.060   0.104  0.5446 -0.3249 -0.1724
  335TMC3     H 5031   2.671   3.144  17.581  0.6458 -1.4145 -0.8798
  335TMC3    H1 5032   2.992   3.278   0.123  1.9699  0.5345 -0.9511
  335TMC3    H2 5033   2.989   3.353  17.391  0.7890 -1.2460  0.0373
  335TMC3    C7 5034   3.141   3.363  17.599  0.3539  0.4725  0.7405
  335TMC3    C8 5035   2.816   3.158  17.363 -0.2066 -0.5081  0.1041
  335TMC3    O1 5036   3.195   3.310  17.501 -0.1891  0.1298  0.2438
  335TMC3    O2 5037   2.855   3.214  17.262 -0.2954 -0.3432  0.3369
  336MPD2     C 5038   3.036   0.746  16.548  0.1710 -0.4429  0.0358
  336MPD2    C1 5039   3.009   0.728  16.418  0.1108 -0.2185  0.1556
  336MPD2    C2 5040   3.034   0.608  16.354  0.6380 -0.3555  0.1716
  336MPD2    C3 5041   3.089   0.505  16.421 -0.2652 -0.6020 -0.6603
  336MPD2    C4 5042   3.125   0.524  16.551  0.2469  0.3280  0.0070
  336MPD2    C5 5043   3.097   0.642  16.617  0.3219  0.0090  0.2300
  336MPD2     H 5044   3.012   0.598  16.248  0.2411  0.4537  0.1742
  336MPD2    H1 5045   3.175   0.445  16.606  2.0181  2.1810  1.1019
  336MPD2    H2 5046   3.013   0.834  16.607 -1.3435 -2.5840  2.6313
  336MPD2    H3 5047   3.123   0.646  16.722 -2.7209  0.2185  0.9714
  336MPD2     N 5048   3.127   0.383  16.367 -0.0223 -0.1648  0.2759
  336MPD2    H5 5049   3.170   0.311  16.424  0.0235  1.0695  1.8063
  336MPD2    N1 5050   2.955   0.820  16.336 -0.2933  1.0047 -0.3783
  336MPD2    H7 5051   2.940   0.799  16.237  0.1778 -1.5860  0.1066
  337TMC3    C1 5052   2.880   1.030  16.262 -0.1652  0.3589 -0.0212
  337TMC3    C2 5053   2.777   0.961  16.201 -0.5669 -0.3016  0.7371
  337TMC3    C3 5054   2.678   1.045  16.160 -0.2279  0.5764 -0.4484
  337TMC3    C4 5055   2.894   1.161  16.269  0.1332 -0.7426 -0.0277
  337TMC3    C5 5056   2.796   1.235  16.213  0.2330  0.4330 -0.5407
  337TMC3    C6 5057   2.684   1.179  16.170 -0.2783  0.3579 -0.2102
  337TMC3     C 5058   2.950   0.960  16.363  0.0779 -0.3038 -0.9189
  337TMC3     O 5059   2.971   1.016  16.470 -0.4032 -0.2207 -0.4936
  337TMC3     H 5060   2.754   0.855  16.214  0.0066 -0.4198  0.8152
  337TMC3    H1 5061   2.972   1.206  16.330 -0.4644  1.6637 -1.0326
  337TMC3    H2 5062   2.594   1.238  16.154  0.4045  1.3736 -0.3147
  337TMC3    C7 5063   2.816   1.379  16.210  0.8670  0.2104 -0.1382
  337TMC3    C8 5064   2.544   0.989  16.162  0.1142  0.2789  0.0624
  337TMC3    O1 5065   2.715   1.448  16.227  0.1489  0.2937  0.3174
  337TMC3    O2 5066   2.535   0.883  16.215  0.1902  0.0887  0.3634
  338MPD2     C 5067   4.052   0.434   0.821  0.0335  0.3891  0.4548
  338MPD2    C1 5068   3.917   0.452   0.854 -0.4099  0.0386  0.5017
  338MPD2    C2 5069   3.884   0.542   0.948  0.3992 -0.1258 -0.5994
  338MPD2    C3 5070   3.980   0.609   1.025 -0.3381 -0.7417 -0.2726
  338MPD2    C4 5071   4.110   0.573   1.006  0.2032 -0.5713 -0.3343
  338MPD2    C5 5072   4.144   0.494   0.899  0.4989  0.2033 -0.1974
  338MPD2     H 5073   3.779   0.547   0.974  0.3231  0.0045 -0.9402
  338MPD2    H1 5074   4.194   0.617   1.057  0.0812  0.8114 -1.3197
  338MPD2    H2 5075   4.093   0.383   0.734 -0.0742 -0.0696  0.6746
  338MPD2    H3 5076   4.250   0.477   0.880  0.6344  1.3019 -0.4002
  338MPD2     N 5077   3.934   0.698   1.131  0.3050  0.4773 -0.0076
  338MPD2    H5 5078   3.834   0.706   1.146  0.7201  0.4191  2.7218
  338MPD2    N1 5079   3.814   0.387   0.788 -0.5665  0.1064 -1.0771
  338MPD2    H7 5080   3.720   0.413   0.816  0.7466  0.4735  3.0294
  339TMC3    C1 5081   3.919   0.796   1.334  0.3912  0.2397  0.4012
  339TMC3    C2 5082   3.940   0.773   1.468 -0.2715  0.4184  0.2243
  339TMC3    C3 5083   3.842   0.827   1.561 -0.1433 -0.4596 -0.0908
  339TMC3    C4 5084   3.808   0.866   1.293 -0.1930 -0.0076 -0.2085
  339TMC3    C5 5085   3.717   0.913   1.388 -0.4275 -0.3045  0.4192
  339TMC3    C6 5086   3.735   0.894   1.523  0.6037  0.3404 -0.0890
  339TMC3     C 5087   4.010   0.740   1.230  0.1323 -0.8256  0.0877
  339TMC3     O 5088   4.123   0.701   1.256  0.2276  0.6828 -0.2531
  339TMC3     H 5089   4.029   0.720   1.500 -0.5159  0.9576  1.8116
  339TMC3    H1 5090   3.787   0.893   1.190  0.3157 -0.7990 -0.5216
  339TMC3    H2 5091   3.684   0.943   1.605  3.0170 -0.5208  1.9166
  339TMC3    C7 5092   3.624   1.013   1.348  0.0148 -0.0763 -0.3870
  339TMC3    C8 5093   3.868   0.820   1.700 -0.0150  0.4235  0.6904
  339TMC3    O1 5094   3.639   1.048   1.233  0.3150  0.3834 -0.1640
  339TMC3    O2 5095   3.989   0.814   1.733  0.1980  0.2431  0.4624
  340MPD2     C 5096   2.759   3.159  10.237 -0.2191  0.0780 -0.3392
  340MPD2    C1 5097   2.802   3.220  10.118  0.0598 -0.1499 -0.2565
  340MPD2    C2 5098   2.925   3.286  10.123 -0.0051 -0.1720 -0.4259
  340MPD2    C3 5099   3.001   3.296  10.242  0.0956 -0.0960  0.9209
  340MPD2    C4 5100   2.959   3.229  10.353 -0.4697  0.2473  0.6372
  340MPD2    C5 5101   2.835   3.157  10.351 -0.0641  0.0601 -0.0585
  340MPD2     H 5102   2.965   3.337  10.037  0.8214 -0.2790 -0.1029
  340MPD2    H1 5103   3.019   3.225  10.443 -0.4876 -1.4889  0.5715
  340MPD2    H2 5104   2.667   3.101  10.236  0.5553 -1.1440 -0.1509
  340MPD2    H3 5105   2.803   3.097  10.435  0.6845 -0.9931 -0.5267
  340MPD2     N 5106   3.116   3.374  10.249  0.4012 -0.0560  0.2806
  340MPD2    H5 5107   3.185   3.352  10.321  0.0962  0.7808  0.8231
  340MPD2    N1 5108   2.718   3.211   9.999 -0.1795 -0.4877  0.0015
  340MPD2    H7 5109   2.635   3.154  10.009 -0.3664  0.1228  1.9872
  341TMC3    C1 5110   2.660   3.227   9.770  0.2290 -0.5065  0.2459
  341TMC3    C2 5111   2.627   3.094   9.758 -0.3431  0.4844  0.6316
  341TMC3    C3 5112   2.610   3.044   9.634  0.0991  0.3694  0.4975
  341TMC3    C4 5113   2.675   3.302   9.655  0.4867  0.5585  0.5162
  341TMC3    C5 5114   2.661   3.242   9.526  0.3621  0.1671  0.0207
  341TMC3    C6 5115   2.618   3.116   9.520  0.4616 -0.7993  0.1206
  341TMC3     C 5116   2.748   3.267   9.880  0.3994  0.9105  0.5426
  341TMC3     O 5117   2.829   3.355   9.862  0.2823 -0.3161  0.0829
  341TMC3     H 5118   2.604   3.025   9.838  1.1577  0.8671  1.3912
  341TMC3    H1 5119   2.712   3.404   9.655  3.8582 -0.6824 -1.1185
  341TMC3    H2 5120   2.619   3.067   9.423  0.3064 -1.1705  0.3072
  341TMC3    C7 5121   2.756   3.280   9.417 -0.5911 -0.1546 -0.3961
  341TMC3    C8 5122   2.580   2.904   9.618  0.2389 -0.2876 -0.8183
  341TMC3    O1 5123   2.819   3.183   9.377  0.5271 -0.2521 -0.2941
  341TMC3    O2 5124   2.622   2.829   9.704  0.8864 -0.3254  0.3579
  342MPD2     C 5125   1.325   1.052  16.886  0.1454  0.1050  0.5821
  342MPD2    C1 5126   1.352   1.072  17.020  0.2179 -0.3785 -0.1285
  342MPD2    C2 5127   1.321   1.198  17.080  0.2957 -0.4702  0.0591
  342MPD2    C3 5128   1.255   1.292  17.005  0.1828 -0.2737 -0.3287
  342MPD2    C4 5129   1.243   1.275  16.868  0.2075  0.4751 -0.2339
  342MPD2    C5 5130   1.279   1.153  16.809 -0.7556 -1.2555 -0.5467
  342MPD2     H 5131   1.339   1.213  17.186 -1.7532 -2.3579  0.6834
  342MPD2    H1 5132   1.207   1.357  16.807 -1.2961  0.3258  0.4655
  342MPD2    H2 5133   1.354   0.962  16.833  0.6247 -0.0803  1.1584
  342MPD2    H3 5134   1.268   1.137  16.702  1.0013 -1.4545 -0.6954
  342MPD2     N 5135   1.229   1.422  17.058  0.1099  0.4344  0.1507
  342MPD2    H5 5136   1.207   1.493  16.990 -2.8867 -1.1260 -0.5016
  342MPD2    N1 5137   1.401   0.969  17.102 -0.2682 -0.4833  0.2025
  342MPD2    H7 5138   1.422   0.997  17.197 -0.5722 -0.2387  0.2000
  343TMC3    C1 5139   1.513   0.765  17.166 -0.7710  0.5720 -0.2849
  343TMC3    C2 5140   1.620   0.693  17.142 -0.0274 -0.7192  0.3301
  343TMC3    C3 5141   1.690   0.647  17.253 -0.3775  0.0525  0.1432
  343TMC3    C4 5142   1.459   0.786  17.293  0.2101 -0.5592  0.0339
  343TMC3    C5 5143   1.524   0.728  17.401  0.1600  0.4143 -0.6008
  343TMC3    C6 5144   1.644   0.665  17.387  0.5696  0.4426 -0.6383
  343TMC3     C 5145   1.450   0.844  17.055  0.1705  0.0158 -0.0567
  343TMC3     O 5146   1.456   0.801  16.940  0.3420 -1.0321 -0.1971
  343TMC3     H 5147   1.649   0.674  17.039 -0.8373 -1.5917  0.2659
  343TMC3    H1 5148   1.369   0.840  17.319  0.4662 -1.3677  2.6842
  343TMC3    H2 5149   1.699   0.636  17.476  0.3700  4.0679  0.6702
  343TMC3    C7 5150   1.431   0.659  17.481 -0.0524 -1.0100  0.4084
  343TMC3    C8 5151   1.831   0.619  17.240  0.1893  1.1311  0.6890
  343TMC3    O1 5152   1.349   0.595  17.419  0.3713  0.1976 -0.2900
  343TMC3    O2 5153   1.895   0.674  17.329  0.4531 -0.0298  0.4518
  344MPD2     C 5154   2.550   1.004  11.111 -0.1610  0.4362  0.4145
  344MPD2    C1 5155   2.468   0.986  11.005  0.7385 -0.0521  0.4097
  344MPD2    C2 5156   2.488   1.067  10.893  0.1278 -0.6126 -0.0038
  344MPD2    C3 5157   2.600   1.151  10.891  0.5170 -0.2174 -0.4346
  344MPD2    C4 5158   2.697   1.142  10.992 -0.5423  0.2097  0.5270
  344MPD2    C5 5159   2.672   1.071  11.106  0.2928 -0.5498  0.2100
  344MPD2     H 5160   2.420   1.066  10.808 -1.1324  0.3629  1.0083
  344MPD2    H1 5161   2.782   1.210  10.995 -0.1041 -0.1224 -3.8404
  344MPD2    H2 5162   2.527   0.949  11.201 -0.0549 -1.9071 -0.9904
  344MPD2    H3 5163   2.738   1.062  11.192 -2.8185  0.2715  2.6952
  344MPD2     N 5164   2.634   1.233  10.780  0.7771  0.1345 -0.2082
  344MPD2    H5 5165   2.718   1.287  10.795 -1.6244  3.3144  1.7680
  344MPD2    N1 5166   2.357   0.894  11.022 -0.3260  0.3980  0.1934
  344MPD2    H7 5167   2.349   0.859  11.117  0.8143  1.3334  0.6188
  345TMC3    C1 5168   2.608   1.355  10.585 -0.7674 -0.3385  0.5355
  345TMC3    C2 5169   2.739   1.384  10.598  0.1188 -0.7605  0.6319
  345TMC3    C3 5170   2.802   1.467  10.499 -0.4480 -0.2833  0.3305
  345TMC3    C4 5171   2.530   1.412  10.491 -0.9045  0.1756  0.4447
  345TMC3    C5 5172   2.586   1.509  10.411  0.2947 -0.6391 -0.4276
  345TMC3    C6 5173   2.726   1.531  10.407  0.7541 -0.0436 -0.8607
  345TMC3     C 5174   2.546   1.264  10.679 -0.6127  0.3183 -0.3285
  345TMC3     O 5175   2.434   1.229  10.655 -0.2662 -0.1712 -0.1612
  345TMC3     H 5176   2.797   1.349  10.682  0.0397 -1.4311  0.4056
  345TMC3    H1 5177   2.422   1.411  10.495 -1.0143 -0.1923 -2.6622
  345TMC3    H2 5178   2.772   1.609  10.348  2.6791 -0.2285  0.4272
  345TMC3    C7 5179   2.504   1.561  10.307 -0.0546  0.0217 -0.0226
  345TMC3    C8 5180   2.928   1.533  10.548 -0.5839 -0.1927  0.1139
  345TMC3    O1 5181   2.543   1.666  10.256 -0.3785  0.0986  0.1477
  345TMC3    O2 5182   2.964   1.526  10.669 -0.2227  0.3497  0.0469
  346MPD2     C 5183   2.047   2.587  14.597 -0.0514  0.0609 -0.4758
  346MPD2    C1 5184   2.087   2.701  14.520 -0.7225 -0.1581  0.4824
  346MPD2    C2 5185   2.196   2.774  14.561  0.1030 -0.0862  0.2948
  346MPD2    C3 5186   2.265   2.737  14.679  0.5815  0.4371 -0.3584
  346MPD2    C4 5187   2.209   2.642  14.763  0.2110  0.9140 -0.0467
  346MPD2    C5 5188   2.105   2.558  14.716  0.5659 -0.9899 -0.5368
  346MPD2     H 5189   2.230   2.850  14.491  0.8284 -1.4948 -0.8987
  346MPD2    H1 5190   2.255   2.607  14.855  0.4360  1.3230 -0.0082
  346MPD2    H2 5191   1.973   2.524  14.550 -1.7068  1.3687  0.3619
  346MPD2    H3 5192   2.069   2.462  14.752 -1.0792  0.2951  1.2469
  346MPD2     N 5193   2.381   2.805  14.701 -0.2237  0.2417 -0.1375
  346MPD2    H5 5194   2.409   2.871  14.629  0.5565  0.5202  0.4168
  346MPD2    N1 5195   2.032   2.732  14.393  0.4081 -0.2191  0.0606
  346MPD2    H7 5196   2.085   2.802  14.342 -1.0509 -0.2094 -1.4549
  347TMC3    C1 5197   2.580   2.854  14.820 -0.0202 -1.3347  0.1344
  347TMC3    C2 5198   2.644   2.888  14.702  0.1092  0.0385  0.5104
  347TMC3    C3 5199   2.764   2.948  14.702 -0.7621 -0.3509 -0.0617
  347TMC3    C4 5200   2.637   2.862  14.944  0.6937  0.0814  0.0818
  347TMC3    C5 5201   2.761   2.917  14.938  0.1744 -0.9794 -0.3135
  347TMC3    C6 5202   2.829   2.953  14.824  0.1044  0.4486 -0.5568
  347TMC3     C 5203   2.448   2.795  14.817  0.8728 -0.4862 -0.4272
  347TMC3     O 5204   2.420   2.735  14.920  0.0712  0.1685  0.0570
  347TMC3     H 5205   2.592   2.864  14.610  3.7248 -0.1585 -1.4964
  347TMC3    H1 5206   2.583   2.832  15.034 -0.4164 -0.7414 -0.8642
  347TMC3    H2 5207   2.927   2.998  14.836 -1.1079  2.8647  0.1899
  347TMC3    C7 5208   2.835   2.926  15.064 -0.2592 -0.1178 -0.2578
  347TMC3    C8 5209   2.838   2.927  14.582  0.2129 -0.5531  0.2004
  347TMC3    O1 5210   2.957   2.933  15.044 -0.5577  0.3739 -0.2684
  347TMC3    O2 5211   2.782   2.869  14.490  0.1035  0.2653 -0.2086
  348MPD2     C 5212   1.484   2.584  12.401 -0.6721  0.1867  0.1060
  348MPD2    C1 5213   1.463   2.540  12.271 -0.6522 -0.3915  0.3672
  348MPD2    C2 5214   1.414   2.627  12.176  0.2940 -0.0551  0.4839
  348MPD2    C3 5215   1.375   2.760  12.213 -0.3534  0.1001  0.3934
  348MPD2    C4 5216   1.393   2.795  12.349  0.0145 -0.3431  0.5474
  348MPD2    C5 5217   1.453   2.711  12.443 -0.2808 -0.4767 -0.1689
  348MPD2     H 5218   1.378   2.588  12.082  0.5317  0.0155  0.3628
  348MPD2    H1 5219   1.369   2.895  12.381  0.8558  0.1702 -0.4074
  348MPD2    H2 5220   1.544   2.528  12.472  1.0827  0.9526 -0.7709
  348MPD2    H3 5221   1.469   2.744  12.545  1.3153 -2.2415  0.1512
  348MPD2     N 5222   1.307   2.834  12.113  0.1640 -0.2270  0.2986
  348MPD2    H5 5223   1.290   2.787  12.025  1.0507 -2.2745  1.2111
  348MPD2    N1 5224   1.482   2.407  12.231 -0.1115 -0.1444 -0.4099
  348MPD2    H7 5225   1.421   2.376  12.156 -1.4034  1.3345  0.0050
  349TMC3    C1 5226   1.554   2.190  12.225 -0.3228  0.0508 -0.4526
  349TMC3    C2 5227   1.510   2.081  12.299  0.4587  0.0681  0.2163
  349TMC3    C3 5228   1.450   1.980  12.231 -0.4395  0.1780  0.1863
  349TMC3    C4 5229   1.540   2.203  12.085  0.6810  0.0810  0.5626
  349TMC3    C5 5230   1.479   2.098  12.025  0.2880 -0.3049 -0.2584
  349TMC3    C6 5231   1.437   1.984  12.095  0.5527  0.0213  0.2608
  349TMC3     C 5232   1.563   2.313  12.291 -0.5681  0.2112 -0.0437
  349TMC3     O 5233   1.632   2.324  12.389 -0.2248 -0.1055  0.2876
  349TMC3     H 5234   1.509   2.086  12.407 -1.1099 -1.3740  0.2656
  349TMC3    H1 5235   1.580   2.290  12.035 -0.3148  0.2493  0.0696
  349TMC3    H2 5236   1.392   1.898  12.046 -1.2752  1.4798 -0.6224
  349TMC3    C7 5237   1.459   2.107  11.879  0.1100 -0.1174 -0.4743
  349TMC3    C8 5238   1.446   1.859  12.299 -0.6391  0.2585  0.9281
  349TMC3    O1 5239   1.347   2.083  11.832 -0.0902 -0.0258  0.0302
  349TMC3    O2 5240   1.422   1.874  12.421  0.1573  0.2940 -0.1344
  350MPD2     C 5241   0.299   0.717  10.302 -0.0901  0.5371  0.0870
  350MPD2    C1 5242   0.370   0.611  10.252  0.0557  0.5145  0.3146
  350MPD2    C2 5243   0.495   0.626  10.199 -0.5042 -0.2441 -0.3597
  350MPD2    C3 5244   0.545   0.753  10.192  0.0021  0.0745  0.2601
  350MPD2    C4 5245   0.477   0.859  10.250 -0.4115  0.4870 -0.4099
  350MPD2    C5 5246   0.353   0.840  10.301  0.4134  0.1858 -0.7078
  350MPD2     H 5247   0.556   0.538  10.180  0.7399  1.2100 -3.1567
  350MPD2    H1 5248   0.519   0.959  10.259 -1.5706  1.1438 -2.4057
  350MPD2    H2 5249   0.194   0.709  10.330  0.1264 -1.8795  0.2401
  350MPD2    H3 5250   0.305   0.923  10.353 -1.2748 -0.9837 -0.3905
  350MPD2     N 5251   0.673   0.771  10.140 -0.3203  0.1422  0.0831
  350MPD2    H5 5252   0.723   0.685  10.119 -1.6930 -0.0578 -2.3973
  350MPD2    N1 5253   0.323   0.479  10.250 -0.2249 -0.2853  0.1448
  350MPD2    H7 5254   0.392   0.408  10.226  0.9165  1.0270 -0.4854
  351TMC3    C1 5255   0.171   0.298  10.241 -0.5637 -0.1952  1.0721
  351TMC3    C2 5256   0.282   0.220  10.234 -0.3857 -0.5401 -0.1033
  351TMC3    C3 5257   0.259   0.086  10.223  0.7371  0.6720 -0.4151
  351TMC3    C4 5258   0.045   0.248  10.243 -0.2644 -0.6241  0.0046
  351TMC3    C5 5259   0.032   0.113  10.211  0.0596  0.0934  0.3746
  351TMC3    C6 5260   0.139   0.025  10.200 -0.5083  0.1858 -0.5326
  351TMC3     C 5261   0.193   0.446  10.256 -0.8644  0.2326  0.3984
  351TMC3     O 5262   0.092   0.511  10.273  0.0926  0.2584  0.2386
  351TMC3     H 5263   0.386   0.251  10.234 -0.6662  0.3953 -0.3128
  351TMC3    H1 5264   4.679   0.314  10.248  0.1688 -0.1165  0.6840
  351TMC3    H2 5265   0.130   4.641  10.168  0.4357 -0.7063  2.1156
  351TMC3    C7 5266   4.627   0.075  10.153  0.4764 -0.2841  0.1850
  351TMC3    C8 5267   0.377   4.712  10.223  0.6804 -0.9306 -0.4289
  351TMC3    O1 5268   4.527   0.145  10.180  0.5746  0.2516 -0.2563
  351TMC3    O2 5269   0.478   0.031  10.164 -0.6688 -0.0551  0.1816
  352MPD2     C 5270   3.990   2.094   1.666 -0.0452  0.4584  0.2620
  352MPD2    C1 5271   3.877   2.022   1.693  0.3623  0.6130 -0.4914
  352MPD2    C2 5272   3.865   1.951   1.813 -0.5757 -0.0543  0.8083
  352MPD2    C3 5273   3.968   1.947   1.906 -0.1833 -0.3066 -0.4282
  352MPD2    C4 5274   4.081   2.018   1.879  0.9693 -0.5965  0.0904
  352MPD2    C5 5275   4.089   2.087   1.758 -0.2732 -0.4296  1.0422
  352MPD2     H 5276   3.768   1.905   1.828 -1.8815  2.0987 -0.9115
  352MPD2    H1 5277   4.173   2.034   1.934 -0.7135  1.5558  2.2893
  352MPD2    H2 5278   4.013   2.133   1.568  0.6039 -3.5800 -1.1912
  352MPD2    H3 5279   4.190   2.121   1.738  0.1290 -0.8334  2.4155
  352MPD2     N 5280   3.949   1.873   2.023 -0.2412  0.1285 -0.1903
  352MPD2    H5 5281   3.862   1.821   2.021  1.2205 -2.3129 -0.1822
  352MPD2    N1 5282   3.791   2.021   1.582  0.0789  0.2227 -0.2517
  352MPD2    H7 5283   3.809   2.092   1.511  0.2806  1.0414  0.6285
  353TMC3    C1 5284   3.966   1.812   2.252 -0.3567  0.0449  0.1638
  353TMC3    C2 5285   4.037   1.713   2.315 -0.1622 -0.4065 -0.4270
  353TMC3    C3 5286   3.963   1.629   2.394 -0.0777  0.3300 -0.9533
  353TMC3    C4 5287   3.832   1.831   2.267  0.0534  0.2837 -0.6015
  353TMC3    C5 5288   3.764   1.744   2.343 -0.0916  0.1864  0.2112
  353TMC3    C6 5289   3.830   1.644   2.408  0.1585 -0.2583 -0.5103
  353TMC3     C 5290   4.026   1.878   2.138  0.7574  0.4497  0.2140
  353TMC3     O 5291   4.140   1.912   2.145  0.2033 -0.1988  0.1898
  353TMC3     H 5292   4.143   1.695   2.300 -0.1657 -0.1364 -0.7766
  353TMC3    H1 5293   3.780   1.897   2.199 -0.5458 -0.4570 -0.8529
  353TMC3    H2 5294   3.772   1.601   2.489  2.4852 -0.8207  0.8539
  353TMC3    C7 5295   3.635   1.712   2.296 -0.6616 -0.2236 -0.0660
  353TMC3    C8 5296   4.021   1.501   2.427 -0.1231  0.1629  1.2990
  353TMC3    O1 5297   3.584   1.798   2.229 -0.0026 -0.9401  0.0235
  353TMC3    O2 5298   3.971   1.448   2.526 -0.1823 -0.4093  0.0741
  354TMC3    C1 5299   0.082   3.307  13.606 -0.5921  0.4955  0.2113
  354TMC3    C2 5300   0.166   3.416  13.623 -0.0902 -0.5908  0.5748
  354TMC3    C3 5301   0.272   3.413  13.536  0.7275  0.1559  0.2051
  354TMC3    C4 5302   0.107   3.201  13.532 -0.3048  0.2433 -0.1461
  354TMC3    C5 5303   0.213   3.203  13.445 -0.2614 -0.4320 -0.9084
  354TMC3    C6 5304   0.310   3.305  13.455 -0.6503 -0.2805  0.1087
  354TMC3     C 5305   4.716   3.271  13.719  0.4000  0.6425 -0.2306
  354TMC3     O 5306   4.624   3.192  13.700  0.0443 -0.4113 -0.1307
  354TMC3     H 5307   0.126   3.501  13.677 -0.8173 -0.1681 -0.6319
  354TMC3    H1 5308   0.026   3.130  13.521  1.7545 -2.1712  0.4345
  354TMC3    H2 5309   0.405   3.315  13.403 -0.8318 -1.0607 -0.3766
  354TMC3    C7 5310   0.183   3.158  13.312  0.2196  0.1025  0.1280
  354TMC3    C8 5311   0.345   3.537  13.513 -0.2041 -0.0509  0.3986
  354TMC3    O1 5312   0.076   3.102  13.297  1.0104 -0.0208 -0.1555
  354TMC3    O2 5313   0.361   3.626  13.598  0.0581 -0.1928 -0.2140
  355MPD2     C 5314   0.413   4.419  11.776  0.1418  0.2701 -0.2757
  355MPD2    C1 5315   0.458   4.505  11.678 -0.2267  0.7466 -0.9136
  355MPD2    C2 5316   0.592   4.522  11.665 -0.0358 -0.5634  0.4144
  355MPD2    C3 5317   0.680   4.453  11.745  1.3156  0.4370  0.5102
  355MPD2    C4 5318   0.635   4.371  11.845  0.1556  0.1518 -0.6889
  355MPD2    C5 5319   0.503   4.351  11.851  0.4189  0.1305 -0.3180
  355MPD2     H 5320   0.629   4.596  11.594  0.4094 -0.0625  1.1734
  355MPD2    H1 5321   0.699   4.313  11.911 -1.9991  1.1888  2.3475
  355MPD2    H2 5322   0.311   4.393  11.800  0.0475 -1.6329 -2.6032
  355MPD2    H3 5323   0.460   4.282  11.924  0.2662 -1.6677 -2.1101
  355MPD2     N 5324   0.820   4.472  11.739 -0.0927 -0.2937 -0.2774
  355MPD2    H5 5325   0.879   4.446  11.817  0.8251 -1.7647 -1.4542
  355MPD2    N1 5326   0.350   4.573  11.611 -0.1330  0.0931 -0.9819
  355MPD2    H7 5327   0.265   4.519  11.620 -1.4733  2.2989 -0.4478
  356TMC3    C1 5328   1.023   4.585  11.659  0.2316  0.5962 -0.4303
  356TMC3    C2 5329   1.098   4.614  11.548  0.0017 -0.6575 -0.1011
  356TMC3    C3 5330   1.218   4.674  11.562 -0.6578  0.5101 -0.2543
  356TMC3    C4 5331   1.073   4.611  11.782  0.3176  0.1314  0.6767
  356TMC3    C5 5332   1.196   4.670  11.795  0.0811  0.3244  0.3038
  356TMC3    C6 5333   1.276   4.703  11.686 -0.1893  0.4405 -0.2582
  356TMC3     C 5334   0.885   4.553  11.643  0.1572  0.5663 -0.2390
  356TMC3     O 5335   0.841   4.603  11.538 -0.0343 -0.2747  0.1434
  356TMC3     H 5336   1.055   4.589  11.451  0.7965  0.2430 -0.6904
  356TMC3    H1 5337   1.008   4.593  11.868  1.2251 -1.6030  0.9889
  356TMC3    H2 5338   1.378   0.018  11.701  0.8278 -2.7955  0.1671
  356TMC3    C7 5339   1.247   4.700  11.934 -0.1583  0.3569 -0.2573
  356TMC3    C8 5340   1.274   0.017  11.443  0.6093 -0.6984  0.0914
  356TMC3    O1 5341   1.199   4.632  12.025 -0.2187  0.0379 -0.1818
  356TMC3    O2 5342   1.239   4.702  11.328  0.2030 -0.4051  0.1476
  357MPD2     C 5343   1.137   4.125   1.692  0.6036 -0.2552  0.4169
  357MPD2    C1 5344   1.265   4.090   1.738 -0.9190 -0.2215 -0.3312
  357MPD2    C2 5345   1.296   4.100   1.869  0.6211 -0.1406  0.0423
  357MPD2    C3 5346   1.201   4.144   1.963 -0.2465  0.5180  0.0969
  357MPD2    C4 5347   1.076   4.191   1.920  0.5078 -0.0935 -0.6396
  357MPD2    C5 5348   1.048   4.179   1.786  0.3338  0.2288  0.2432
  357MPD2     H 5349   1.385   4.057   1.913  0.6109 -0.6354 -0.4222
  357MPD2    H1 5350   1.004   4.234   1.988  0.7818 -1.0964  0.2806
  357MPD2    H2 5351   1.111   4.121   1.587  4.0195 -0.6798 -0.4176
  357MPD2    H3 5352   0.947   4.206   1.756 -0.3487  0.8199  3.0987
  357MPD2     N 5353   1.251   4.157   2.097  0.0964 -0.1828 -0.2417
  357MPD2    H5 5354   1.347   4.126   2.109  0.2489  0.1318 -0.6570
  357MPD2    N1 5355   1.357   4.042   1.644  0.0411  0.0948  0.3722
  357MPD2    H7 5356   1.321   4.026   1.551  0.7314  0.7118  0.0072
  358TMC3    C1 5357   1.570   3.963   1.575 -0.0187  0.2666  0.7718
  358TMC3    C2 5358   1.507   3.894   1.476 -0.5140 -0.2140  0.2930
  358TMC3    C3 5359   1.590   3.809   1.404  0.2668  0.2716  0.3104
  358TMC3    C4 5360   1.708   3.976   1.568 -0.0284  0.0568  0.7956
  358TMC3    C5 5361   1.779   3.916   1.467 -0.1662 -0.1230  0.2075
  358TMC3    C6 5362   1.720   3.838   1.376  0.3320 -0.1112  0.3261
  358TMC3     C 5363   1.493   4.038   1.673  0.4271  0.7305 -0.2574
  358TMC3     O 5364   1.552   4.072   1.772 -0.1143 -0.4793  0.3022
  358TMC3     H 5365   1.401   3.870   1.476 -1.2216  2.8828  2.7177
  358TMC3    H1 5366   1.756   4.038   1.643  0.9865  0.1717  0.0665
  358TMC3    H2 5367   1.776   3.755   1.336 -0.9785 -0.2443 -1.2282
  358TMC3    C7 5368   1.926   3.895   1.494  0.2094  0.0358  0.3437
  358TMC3    C8 5369   1.520   3.747   1.293 -0.2243 -0.1337  1.7029
  358TMC3    O1 5370   1.972   3.952   1.596 -0.5040 -0.1817  0.6309
  358TMC3    O2 5371   1.425   3.806   1.239  0.0123  0.4260 -0.4470
  359MPD2     C 5372   0.817   3.016  12.604  0.3821  0.1619  0.0351
  359MPD2    C1 5373   0.733   3.044  12.504  0.8997  0.3724  0.3643
  359MPD2    C2 5374   0.620   2.961  12.488 -0.3183  0.3265  0.2868
  359MPD2    C3 5375   0.592   2.856  12.570 -0.5402  0.9917  0.1888
  359MPD2    C4 5376   0.671   2.842  12.686 -0.3566  0.2091 -0.8174
  359MPD2    C5 5377   0.780   2.921  12.692 -0.5709 -0.1645  0.0496
  359MPD2     H 5378   0.552   2.984  12.407 -0.8957  1.1118  0.9976
  359MPD2    H1 5379   0.650   2.763  12.757  0.0954  2.5209  1.8687
  359MPD2    H2 5380   0.912   3.068  12.615  0.5705 -0.3683  0.9849
  359MPD2    H3 5381   0.845   2.905  12.777 -0.2418 -0.6363 -0.2900
  359MPD2     N 5382   0.478   2.770  12.551 -0.7080  0.1579  0.3885
  359MPD2    H5 5383   0.453   2.706  12.626 -1.5915  1.3048  1.0662
  359MPD2    N1 5384   0.758   3.159  12.416  0.1940  0.0911  0.0012
  359MPD2    H7 5385   0.683   3.179  12.351  0.6668  0.9945 -0.2704
  360TMC3    C1 5386   0.852   3.372  12.341 -0.1481 -0.2757 -0.4485
  360TMC3    C2 5387   0.940   3.473  12.360 -0.2628 -0.1551  0.0310
  360TMC3    C3 5388   0.972   3.548  12.254  0.4207 -0.0960  0.2410
  360TMC3    C4 5389   0.793   3.345  12.219 -0.0156  0.4996 -0.0234
  360TMC3    C5 5390   0.827   3.430  12.113  0.2122 -0.0005  0.2544
  360TMC3    C6 5391   0.911   3.537  12.127  0.4761 -0.0984  0.4081
  360TMC3     C 5392   0.845   3.265  12.440  0.1997  0.0061  0.2412
  360TMC3     O 5393   0.931   3.269  12.528  0.4714  0.5383  0.1770
  360TMC3     H 5394   1.001   3.475  12.449  1.4923  1.0757 -1.1867
  360TMC3    H1 5395   0.730   3.260  12.196  0.3623 -0.0464  0.9770
  360TMC3    H2 5396   0.926   3.601  12.041  0.5297 -0.3085  0.2614
  360TMC3    C7 5397   0.799   3.389  11.984 -0.2678 -0.3356 -0.5028
  360TMC3    C8 5398   1.087   3.633  12.253  0.2657  0.4752  0.1731
  360TMC3    O1 5399   0.799   3.483  11.903 -0.1998  0.1479  0.3020
  360TMC3    O2 5400   1.111   3.704  12.354 -0.2652  1.2295 -0.6184
  361MPD2     C 5401   2.811   2.066  16.771 -0.3054  0.1636 -0.4233
  361MPD2    C1 5402   2.723   2.066  16.874  0.2544 -0.2541  0.1485
  361MPD2    C2 5403   2.708   1.941  16.946 -0.0286 -0.0722  0.3833
  361MPD2    C3 5404   2.770   1.823  16.915  0.0027  0.5426  0.0750
  361MPD2    C4 5405   2.848   1.823  16.803  0.1120  0.0181  0.3882
  361MPD2    C5 5406   2.869   1.944  16.741  0.7307 -0.7312 -0.5701
  361MPD2     H 5407   2.644   1.939  17.033 -0.4519 -0.6536  0.0653
  361MPD2    H1 5408   2.898   1.733  16.769  0.2668  1.0022 -2.0032
  361MPD2    H2 5409   2.828   2.157  16.715 -0.2027  1.6349  2.0449
  361MPD2    H3 5410   2.946   1.946  16.664  2.2879  0.4369  1.0185
  361MPD2     N 5411   2.762   1.704  16.993  0.0410 -0.2409 -0.0201
  361MPD2    H5 5412   2.772   1.613  16.951  0.1429  0.0065 -0.5327
  361MPD2    N1 5413   2.654   2.182  16.919 -0.2392  0.0555 -0.8197
  361MPD2    H7 5414   2.581   2.171  16.989  0.1880  0.6571 -0.2784
  362TMC3    C1 5415   2.572   2.395  16.946 -0.1799 -0.4457  0.9322
  362TMC3    C2 5416   2.549   2.377  17.078  0.1599  0.1714 -0.3717
  362TMC3    C3 5417   2.427   2.421  17.127  0.1341  0.2898 -0.2946
  362TMC3    C4 5418   2.488   2.473  16.872 -0.6799  0.1168  0.1320
  362TMC3    C5 5419   2.372   2.521  16.930  0.5355  1.0992 -0.8720
  362TMC3    C6 5420   2.336   2.498  17.060  0.2846 -0.7452 -0.6154
  362TMC3     C 5421   2.664   2.310  16.878 -0.0600  0.1842 -0.5905
  362TMC3     O 5422   2.701   2.352  16.770 -0.0574  0.2024 -0.2863
  362TMC3     H 5423   2.612   2.309  17.134  0.3293  1.3522  0.8536
  362TMC3    H1 5424   2.508   2.492  16.767  1.4239  1.3779  0.7754
  362TMC3    H2 5425   2.251   2.549  17.103 -0.0189 -1.0229 -0.8810
  362TMC3    C7 5426   2.290   2.612  16.844 -0.0682  1.0298 -0.9752
  362TMC3    C8 5427   2.392   2.395  17.260 -0.7424  0.1683 -0.1014
  362TMC3    O1 5428   2.340   2.669  16.748  0.3521 -0.3526  0.1368
  362TMC3    O2 5429   2.486   2.401  17.335 -0.1014  0.0591  0.0373
  363TMC3    C1 5430   1.672   0.791   9.675 -0.2636 -0.9046  0.8100
  363TMC3    C2 5431   1.669   0.676   9.747  0.4648  0.4209  0.1684
  363TMC3    C3 5432   1.558   0.653   9.828  0.6242 -0.0356 -0.4213
  363TMC3    C4 5433   1.579   0.894   9.677  0.1540 -0.1462 -0.5418
  363TMC3    C5 5434   1.477   0.864   9.762  0.2674 -0.8867 -0.1686
  363TMC3    C6 5435   1.458   0.749   9.831  0.2133  0.1844  0.5180
  363TMC3     C 5436   1.760   0.799   9.565 -0.8132 -0.1252  0.2075
  363TMC3     O 5437   1.778   0.908   9.505  0.7110  0.7839  0.0845
  363TMC3     H 5438   1.754   0.610   9.759  0.9713  1.1805  0.7818
  363TMC3    H1 5439   1.574   0.979   9.610  1.6475  0.8981  0.6581
  363TMC3    H2 5440   1.363   0.726   9.878 -0.8459 -1.0612 -2.2202
  363TMC3    C7 5441   1.367   0.957   9.772 -0.4686  0.2824 -0.3072
  363TMC3    C8 5442   1.513   0.521   9.862  0.1226 -0.0958 -0.1924
  363TMC3    O1 5443   1.260   0.907   9.804  0.2553 -0.2044  0.0184
  363TMC3    O2 5444   1.394   0.491   9.868  0.5165  0.1608  0.5306
  364MPD2     C 5445   4.308   3.908  10.545  0.4107  1.0812 -0.0414
  364MPD2    C1 5446   4.425   3.874  10.487  0.0194 -0.3232  0.0875
  364MPD2    C2 5447   4.465   3.745  10.500 -0.2163 -0.0421  0.0087
  364MPD2    C3 5448   4.392   3.650  10.569 -0.3489  0.2060  0.6114
  364MPD2    C4 5449   4.274   3.688  10.626  0.7610  0.7704  0.2133
  364MPD2    C5 5450   4.240   3.819  10.622 -0.4752  0.1547 -0.2978
  364MPD2     H 5451   4.566   3.721  10.470  0.1300 -0.2315  1.3111
  364MPD2    H1 5452   4.202   3.627  10.679  1.3967  1.6042  2.0153
  364MPD2    H2 5453   4.258   4.003  10.531  2.5053  2.0257 -1.2684
  364MPD2    H3 5454   4.151   3.849  10.676 -0.6420  0.6842 -0.8607
  364MPD2     N 5455   4.441   3.520  10.588  0.0373  0.2498  0.5540
  364MPD2    H5 5456   4.387   3.467  10.656 -0.3490  0.4325  0.3909
  364MPD2    N1 5457   4.505   3.974  10.429 -0.3828 -0.3553  0.2296
  364MPD2    H7 5458   4.461   4.066  10.438  0.3727 -0.1780  2.0971
  365TMC3    C1 5459   4.681   4.091  10.315  0.1723  0.2834  1.0739
  365TMC3    C2 5460   0.050   4.091  10.208 -0.1773 -0.4369 -0.4006
  365TMC3    C3 5461   0.121   4.203  10.177 -0.3911 -0.2223  0.7771
  365TMC3    C4 5462   4.664   4.201  10.399  0.5641  0.3842 -0.2502
  365TMC3    C5 5463   0.011   4.312  10.354  0.1348 -0.5394 -1.0908
  365TMC3    C6 5464   0.098   4.317  10.244  0.6201  0.2686 -0.2833
  365TMC3     C 5465   4.622   3.963  10.358  0.4485 -0.7358  0.4687
  365TMC3     O 5466   4.694   3.864  10.339  0.1083 -0.0849 -0.4278
  365TMC3     H 5467   0.068   4.000  10.151  1.3858 -1.6112  1.9512
  365TMC3    H1 5468   4.595   4.214  10.482  0.6128  0.2974 -0.1964
  365TMC3    H2 5469   0.166   4.399  10.226  0.0993  0.5941 -0.7620
  365TMC3    C7 5470   0.045   4.410  10.458 -0.1569  0.1387 -0.3991
  365TMC3    C8 5471   0.238   4.186  10.098 -0.1515 -0.2794 -0.9693
  365TMC3    O1 5472   0.101   4.509  10.417 -0.0996  0.2740 -0.2737
  365TMC3    O2 5473   0.284   4.278  10.035  0.0468  0.3180  0.0411
  366MPD2     C 5474   2.491   4.554  15.185 -0.5936 -0.3211 -0.3717
  366MPD2    C1 5475   2.543   4.670  15.133 -0.4550 -0.8853 -0.9368
  366MPD2    C2 5476   2.647   4.658  15.044  0.1249 -0.4136  0.0721
  366MPD2    C3 5477   2.704   4.535  15.014 -0.1040  0.3501 -0.6222
  366MPD2    C4 5478   2.653   4.420  15.073  0.4953  0.2472  0.1569
  366MPD2    C5 5479   2.543   4.428  15.154  0.1449  0.3519 -0.1964
  366MPD2     H 5480   2.700   0.025  15.006  0.7277 -0.0263  1.7825
  366MPD2    H1 5481   2.700   4.323  15.065 -1.4474 -0.4944 -2.4676
  366MPD2    H2 5482   2.409   4.549  15.256 -0.5175 -0.6540 -0.3097
  366MPD2    H3 5483   2.491   4.341  15.193  1.3040  0.2154  1.0632
  366MPD2     N 5484   2.821   4.535  14.937 -0.3130 -0.5729  0.1372
  366MPD2    H5 5485   2.838   4.627  14.897 -1.5531 -0.4569 -0.1164
  366MPD2    N1 5486   2.494   0.075  15.167  0.2199  0.2604 -0.3528
  366MPD2    H7 5487   2.533   0.152  15.114  0.7899 -1.1802 -2.0379
  367TMC3    C1 5488   2.425   0.248  15.320  0.0083  0.5253 -0.5439
  367TMC3    C2 5489   2.455   0.278  15.453  0.4201 -0.1489  0.1015
  367TMC3    C3 5490   2.460   0.403  15.501 -0.8872 -0.0836  0.0675
  367TMC3    C4 5491   2.390   0.340  15.225 -0.0435 -0.4695 -0.5882
  367TMC3    C5 5492   2.376   0.466  15.284  0.7609  0.1131  0.0846
  367TMC3    C6 5493   2.422   0.496  15.410  0.1962  0.5985 -0.0394
  367TMC3     C 5494   2.422   0.107  15.280 -0.3449  0.1102  0.7706
  367TMC3     O 5495   2.389   0.029  15.370  0.3284  0.3591  0.1092
  367TMC3     H 5496   2.502   0.195  15.505  2.8020  1.1673  0.0840
  367TMC3    H1 5497   2.367   0.317  15.122 -2.2417 -0.9869  0.0201
  367TMC3    H2 5498   2.425   0.602  15.430  0.1740  0.4671  0.6846
  367TMC3    C7 5499   2.357   0.576  15.196  0.8203  0.2615  0.5766
  367TMC3    C8 5500   2.573   0.441  15.578 -0.4744 -0.8224  0.1615
  367TMC3    O1 5501   2.436   0.662  15.211  0.2580 -0.0225  0.6105
  367TMC3    O2 5502   2.669   0.362  15.580 -0.0354  0.5360 -0.0462
  368MPD2     C 5503   3.465   2.605  13.421  0.5532 -0.0442  0.1181
  368MPD2    C1 5504   3.472   2.663  13.297  0.2578  0.4880  0.4005
  368MPD2    C2 5505   3.594   2.692  13.238 -0.1296 -0.4745 -0.3611
  368MPD2    C3 5506   3.709   2.665  13.304  0.1172  0.0845  0.2760
  368MPD2    C4 5507   3.697   2.601  13.428  0.2805  0.1059 -0.8710
  368MPD2    C5 5508   3.578   2.571  13.487 -0.1450  0.4592  0.3142
  368MPD2     H 5509   3.595   2.730  13.136 -1.6213  0.2384 -0.1187
  368MPD2    H1 5510   3.778   2.570  13.494  0.7852  3.5116  0.1239
  368MPD2    H2 5511   3.372   2.576  13.466  0.3786  0.9752  0.4209
  368MPD2    H3 5512   3.572   2.528  13.586 -0.5517 -1.6161 -0.6082
  368MPD2     N 5513   3.835   2.692  13.249  0.1805  0.0283 -0.1104
  368MPD2    H5 5514   3.917   2.653  13.295  2.0967  1.8293 -1.9436
  368MPD2    N1 5515   3.347   2.688  13.236  0.0352 -0.1080  0.0431
  368MPD2    H7 5516   3.262   2.670  13.288  0.7736 -3.3867  0.1206
  369TMC3    C1 5517   3.199   2.789  13.083  0.1867 -0.2235 -1.0999
  369TMC3    C2 5518   3.183   2.912  13.020 -0.1923  0.1634 -1.0955
  369TMC3    C3 5519   3.090   2.919  12.923  0.0114 -0.6153  0.0273
  369TMC3    C4 5520   3.110   2.683  13.070 -0.2004  0.2879  0.1551
  369TMC3    C5 5521   3.008   2.702  12.982  0.3064  0.1772  0.2164
  369TMC3    C6 5522   2.997   2.820  12.910 -0.1680  0.9906  0.1066
  369TMC3     C 5523   3.336   2.763  13.121 -0.9130 -0.6055  0.2286
  369TMC3     O 5524   3.419   2.804  13.047  0.6493  0.0586  0.4321
  369TMC3     H 5525   3.256   2.992  13.031  1.8285 -1.9292  1.0808
  369TMC3    H1 5526   3.114   2.593  13.130  0.1935  0.4159  0.3216
  369TMC3    H2 5527   2.926   2.835  12.829 -0.5129 -5.1034 -0.7330
  369TMC3    C7 5528   2.895   2.633  13.019  0.1275 -0.1717 -0.3091
  369TMC3    C8 5529   3.146   2.970  12.797  0.2256  0.0392  1.4667
  369TMC3    O1 5530   2.902   2.550  13.109 -0.2683  0.3999 -0.3604
  369TMC3    O2 5531   3.080   3.026  12.713 -0.2248 -0.6140 -0.3970
  370TMC3    C1 5532   3.310   2.530  16.554 -0.0444 -0.9598  0.3021
  370TMC3    C2 5533   3.241   2.539  16.668 -0.3438 -0.5421 -0.0316
  370TMC3    C3 5534   3.146   2.443  16.695  0.1933  0.9859 -0.1057
  370TMC3    C4 5535   3.300   2.432  16.461 -0.3361 -0.1303 -0.5322
  370TMC3    C5 5536   3.208   2.341  16.495 -0.1456  0.4181 -0.0334
  370TMC3    C6 5537   3.124   2.348  16.605 -0.0196 -1.1843 -0.6683
  370TMC3     C 5538   3.435   2.610  16.565 -0.2595  0.4555 -0.1465
  370TMC3     O 5539   3.489   2.599  16.677  0.0018  0.3570 -0.4116
  370TMC3     H 5540   3.262   2.618  16.739 -1.1285 -1.5316  1.3118
  370TMC3    H1 5541   3.360   2.424  16.371 -2.1078  0.7413 -1.7988
  370TMC3    H2 5542   3.057   2.271  16.641  0.8552 -2.0936 -0.9924
  370TMC3    C7 5543   3.181   2.247  16.392 -0.9964 -0.0063  0.8261
  370TMC3    C8 5544   3.136   2.390  16.838 -0.6346 -0.2140 -0.3597
  370TMC3    O1 5545   3.066   2.248  16.347 -0.2913 -0.0892  0.1495
  370TMC3    O2 5546   3.088   2.280  16.858 -0.0643 -0.3147  0.6712
  371TMC3    C1 5547   4.592   0.749  15.792  0.3380 -0.0751 -0.1493
  371TMC3    C2 5548   4.462   0.717  15.773 -0.3392 -0.2669  0.6139
  371TMC3    C3 5549   4.387   0.823  15.733 -0.0637  0.4216  0.6291
  371TMC3    C4 5550   4.652   0.866  15.758  0.3358 -1.0317  0.2619
  371TMC3    C5 5551   4.567   0.965  15.711  0.5723 -0.5829 -0.2181
  371TMC3    C6 5552   4.438   0.946  15.701  0.2217  0.3896  0.4363
  371TMC3     C 5553   4.685   0.633  15.790  0.4795  0.5454  0.2419
  371TMC3     O 5554   0.083   0.667  15.788 -0.5550 -0.4067  0.8083
  371TMC3     H 5555   4.413   0.628  15.810  0.6834 -0.2164  2.1009
  371TMC3    H1 5556   0.040   0.880  15.755  0.1353  0.5643  0.1092
  371TMC3    H2 5557   4.380   1.027  15.658 -1.7897  1.1723  4.6401
  371TMC3    C7 5558   4.616   1.098  15.684  0.0929 -0.6768  0.2937
  371TMC3    C8 5559   4.248   0.808  15.737 -0.7931  0.3504 -0.1981
  371TMC3    O1 5560   4.552   1.166  15.609  0.7151 -0.5555 -0.1575
  371TMC3    O2 5561   4.207   0.692  15.727 -0.1696 -0.5741  0.1545
  372MPD2     C 5562   0.374   2.472  14.220 -0.9756  0.3911  0.2909
  372MPD2    C1 5563   0.286   2.486  14.327  0.8123  0.1067 -0.0682
  372MPD2    C2 5564   0.149   2.445  14.309  0.1480  0.6451  0.0759
  372MPD2    C3 5565   0.108   2.392  14.186  0.4996 -0.6009 -0.1554
  372MPD2    C4 5566   0.200   2.368  14.085  0.0187  0.5451  0.0092
  372MPD2    C5 5567   0.333   2.405  14.104 -0.1493  0.4050  0.7666
  372MPD2     H 5568   0.076   2.479  14.381  0.6793 -0.1809  1.0074
  372MPD2    H1 5569   0.170   2.316  13.996  1.8064 -1.2150  0.4302
  372MPD2    H2 5570   0.477   2.507  14.216 -0.4000 -1.1765  1.3400
  372MPD2    H3 5571   0.393   2.400  14.013 -2.4160 -1.9216 -0.6061
  372MPD2     N 5572   4.690   2.368  14.173  0.0599 -0.2662 -0.1058
  372MPD2    H5 5573   4.635   2.375  14.258 -1.5588  2.3406 -1.3751
  372MPD2    N1 5574   0.330   2.548  14.446  0.6988 -0.0606  0.0591
  372MPD2    H7 5575   0.266   2.528  14.523  1.4135 -0.9936  0.3971
  373TMC3    C1 5576   4.474   2.335  14.061 -0.6137 -0.5751  0.2628
  373TMC3    C2 5577   4.401   2.291  14.169 -0.1183  0.1295 -0.3258
  373TMC3    C3 5578   4.286   2.229  14.134 -0.5124  0.0011 -0.1743
  373TMC3    C4 5579   4.426   2.322  13.939 -0.4042  0.0934  0.7323
  373TMC3    C5 5580   4.300   2.270  13.906 -0.2041  0.3408 -0.9532
  373TMC3    C6 5581   4.227   2.223  14.011 -0.4929  0.2270  0.3168
  373TMC3     C 5582   4.624   2.336  14.060  0.6670 -0.3362  0.1831
  373TMC3     O 5583   4.678   2.328  13.948  0.4763  0.0525 -0.3410
  373TMC3     H 5584   4.442   2.307  14.268 -0.6103  2.6236 -0.5289
  373TMC3    H1 5585   4.485   2.348  13.851 -0.0852  0.0049  0.9208
  373TMC3    H2 5586   4.132   2.176  13.992 -1.7352  1.8635  2.5533
  373TMC3    C7 5587   4.302   2.172  13.801  0.1910 -0.3803  0.2843
  373TMC3    C8 5588   4.209   2.179  14.245 -0.1453  0.1494 -0.8353
  373TMC3    O1 5589   4.415   2.131  13.773  0.5706  0.1239 -0.1251
  373TMC3    O2 5590   4.090   2.156  14.213 -0.3229  0.0631 -0.6172
  374TMC3    C1 5591   0.096   2.589  10.263  0.0026  0.5723 -0.3455
  374TMC3    C2 5592   0.228   2.610  10.221  0.2293 -0.1130  0.3276
  374TMC3    C3 5593   0.251   2.685  10.111 -0.0696 -0.3361 -0.8509
  374TMC3    C4 5594   4.710   2.627  10.185 -0.4843  0.0807 -0.1110
  374TMC3    C5 5595   0.019   2.710  10.083 -0.1724  0.1092 -0.2212
  374TMC3    C6 5596   0.145   2.751  10.050  0.2654 -0.2633 -0.0074
  374TMC3     C 5597   0.075   2.523  10.388 -0.8246  0.1226 -0.7269
  374TMC3     O 5598   0.144   2.421  10.406  0.2995 -0.1973  0.1830
  374TMC3     H 5599   0.314   2.573  10.276  0.1975 -0.5602  0.0728
  374TMC3    H1 5600   4.609   2.592  10.201 -0.7925  0.4601 -1.2562
  374TMC3    H2 5601   0.165   2.811   9.962  1.5783 -0.9965 -0.2172
  374TMC3    C7 5602   4.625   2.728   9.988 -0.0409  0.2858  0.1353
  374TMC3    C8 5603   0.382   2.743  10.079 -0.0554  0.4535 -0.0898
  374TMC3    O1 5604   4.537   2.647  10.009  0.1563 -0.5216  0.1107
  374TMC3    O2 5605   0.396   2.796   9.971  0.4752  0.0436 -0.1670
  375MPD2     C 5606   4.401   3.395  17.142 -0.0891 -0.1859  0.2199
  375MPD2    C1 5607   4.336   3.277  17.106 -0.4484 -0.0184  0.6134
  375MPD2    C2 5608   4.389   3.203  17.005 -0.1707 -0.3615  0.1420
  375MPD2    C3 5609   4.490   3.250  16.926 -0.3469  0.2493  0.1678
  375MPD2    C4 5610   4.550   3.366  16.961 -0.1546 -0.5105 -0.5581
  375MPD2    C5 5611   4.514   3.434  17.074 -0.1190  0.2609 -0.2322
  375MPD2     H 5612   4.334   3.110  16.992 -0.6415 -0.3725  2.1590
  375MPD2    H1 5613   4.634   3.405  16.904  0.1617 -1.7967 -0.9589
  375MPD2    H2 5614   4.372   3.459  17.225 -0.9231 -1.4426  0.9016
  375MPD2    H3 5615   4.561   3.529  17.097 -2.0736  0.6269  2.1981
  375MPD2     N 5616   4.553   3.171  16.822  0.4007 -0.0688 -0.5454
  375MPD2    H5 5617   4.644   3.207  16.797  0.0234  1.2393 -0.0244
  375MPD2    N1 5618   4.226   3.231  17.179  0.7627  0.2746  0.1307
  375MPD2    H7 5619   4.201   3.136  17.158 -0.7695  0.5397  0.7963
  376TMC3    C1 5620   4.588   3.003  16.646  0.3618 -0.0222 -0.0899
  376TMC3    C2 5621   0.007   3.015  16.659  0.2768  0.2550  0.5856
  376TMC3    C3 5622   0.088   2.990  16.551  0.0315  0.4404  0.2949
  376TMC3    C4 5623   4.533   2.976  16.522 -0.5581  0.4447  0.3824
  376TMC3    C5 5624   4.623   2.948  16.418 -0.7119  0.7261 -0.3414
  376TMC3    C6 5625   0.034   2.955  16.426  0.6347 -0.9149 -0.2413
  376TMC3     C 5626   4.504   3.062  16.751  0.1945 -0.4078  0.2846
  376TMC3     O 5627   4.390   3.017  16.758 -0.7383  0.2595 -0.2151
  376TMC3     H 5628   0.055   3.039  16.754 -2.2985 -1.2155  2.2651
  376TMC3    H1 5629   4.425   2.971  16.510 -0.3594 -1.2576 -0.6958
  376TMC3    H2 5630   0.101   2.935  16.343 -0.3472  0.2358 -1.3171
  376TMC3    C7 5631   4.574   2.924  16.283 -0.3330 -0.0322  0.0707
  376TMC3    C8 5632   0.228   3.022  16.554 -0.8845  0.5520 -0.0416
  376TMC3    O1 5633   4.488   2.995  16.239  0.5591 -0.6223 -0.3992
  376TMC3    O2 5634   0.285   3.026  16.443  0.4322  0.1222 -0.2699
  377MPD2     C 5635   2.698   3.056  12.561  0.2839 -0.6512  0.0234
  377MPD2    C1 5636   2.713   2.919  12.574 -0.6335 -0.2956  0.7123
  377MPD2    C2 5637   2.592   2.851  12.597  0.2221  0.6748  0.1982
  377MPD2    C3 5638   2.469   2.907  12.603  0.5304  0.7647  0.1443
  377MPD2    C4 5639   2.459   3.043  12.611 -0.1640  0.8485  1.0866
  377MPD2    C5 5640   2.575   3.114  12.588 -0.0582  0.5074  0.8060
  377MPD2     H 5641   2.593   2.743  12.604  1.6139  0.5372 -2.0917
  377MPD2    H1 5642   2.372   3.108  12.610 -0.3835  0.5323  0.0478
  377MPD2    H2 5643   2.774   3.129  12.534  1.1785 -1.4908  0.2904
  377MPD2    H3 5644   2.566   3.222  12.591 -0.0771  0.5823 -1.5541
  377MPD2     N 5645   2.345   2.833  12.628  0.5931  0.5010  0.8872
  377MPD2    H5 5646   2.262   2.881  12.661  0.6251  1.0884  0.1194
  377MPD2    N1 5647   2.836   2.861  12.543  0.6165  0.5296 -0.9511
  377MPD2    H7 5648   2.914   2.919  12.515  0.9235  0.1198 -0.9399
  378TMC3    C1 5649   3.203   2.795  12.417 -0.8310  0.1079 -0.2734
  378TMC3    C2 5650   3.072   2.801  12.440 -0.4929  0.2229  0.3638
  378TMC3    C3 5651   3.026   2.734  12.547  0.5851 -0.1598 -1.0404
  378TMC3    C4 5652   3.296   2.735  12.492 -0.5855 -0.6692 -0.2818
  378TMC3    C5 5653   3.251   2.672  12.604  0.4157 -0.5197  0.2545
  378TMC3    C6 5654   3.114   2.669  12.634 -0.0097 -0.4520  0.1454
  378TMC3     C 5655   3.238   2.812  12.275 -0.3599  0.5695  0.1465
  378TMC3     O 5656   3.153   2.840  12.196 -0.1507 -0.5067 -0.2387
  378TMC3     H 5657   3.011   2.857  12.370 -1.4128 -0.4347  0.6475
  378TMC3    H1 5658   3.396   2.774  12.478 -0.5925  0.0538  1.6631
  378TMC3    H2 5659   3.085   2.603  12.715 -0.3260  0.6566  0.9356
  378TMC3    C7 5660   3.347   2.631  12.708  0.6099  0.1306  0.1230
  378TMC3    C8 5661   2.882   2.737  12.575 -0.8314  0.3602 -0.2945
  378TMC3    O1 5662   3.301   2.629  12.820 -0.3064 -0.5871 -0.0268
  378TMC3    O2 5663   2.827   2.665  12.656 -0.2546 -0.3199 -0.7419
  379MPD2     C 5664   3.772   0.807  16.146  0.0691 -0.4135 -0.2065
  379MPD2    C1 5665   3.698   0.710  16.206 -0.3967 -0.5652  0.0328
  379MPD2    C2 5666   3.744   0.660  16.331 -0.5589  0.2425  0.2015
  379MPD2    C3 5667   3.862   0.705  16.389 -0.0160 -0.3034 -0.3261
  379MPD2    C4 5668   3.932   0.803  16.328 -0.2162  0.1481 -0.1769
  379MPD2    C5 5669   3.889   0.850  16.207  0.0577 -0.1262  0.8008
  379MPD2     H 5670   3.688   0.579  16.377  0.1096 -0.7316 -0.7098
  379MPD2    H1 5671   4.028   0.831  16.370  0.1624 -0.2185 -0.7854
  379MPD2    H2 5672   3.738   0.846  16.051  1.9732  1.4527 -0.1269
  379MPD2    H3 5673   3.945   0.924  16.150 -0.8844 -0.7055 -0.8937
  379MPD2     N 5674   3.921   0.640  16.497  0.1602  0.0750  0.4387
  379MPD2    H5 5675   4.020   0.656  16.511 -0.0597  1.7194  0.1206
  379MPD2    N1 5676   3.585   0.665  16.133 -1.2925  1.0075  0.4099
  379MPD2    H7 5677   3.578   0.681  16.033  0.7304  1.3629  0.3225
  380TMC3    C1 5678   3.381   0.580  16.075  0.1788 -0.5550  1.0372
  380TMC3    C2 5679   3.428   0.529  15.961  0.1977  0.2172  0.0795
  380TMC3    C3 5680   3.354   0.525  15.848  0.4594  0.0665 -0.3902
  380TMC3    C4 5681   3.251   0.627  16.087  0.6713 -0.6214  0.4038
  380TMC3    C5 5682   3.182   0.621  15.971 -0.0309  0.7505 -0.0760
  380TMC3    C6 5683   3.233   0.579  15.849 -0.4725 -0.5124  0.2905
  380TMC3     C 5684   3.478   0.604  16.185 -0.4120  0.2518 -0.0958
  380TMC3     O 5685   3.439   0.590  16.299  0.1219 -0.2704  0.2314
  380TMC3     H 5686   3.523   0.477  15.966  1.3221  2.0166 -2.7566
  380TMC3    H1 5687   3.209   0.661  16.181 -1.8688  1.8127 -1.6445
  380TMC3    H2 5688   3.192   0.604  15.752 -1.3374  0.5387  0.9275
  380TMC3    C7 5689   3.046   0.673  15.981 -0.6843  0.1398 -1.3511
  380TMC3    C8 5690   3.432   0.538  15.727  0.4159 -0.1544  0.0981
  380TMC3    O1 5691   3.024   0.757  16.067 -0.0876 -0.5684  0.0659
  380TMC3    O2 5692   3.553   0.552  15.744 -0.3129  0.1013  0.2982
  381TMC3    C1 5693   3.232   1.444  16.654  0.1176 -0.9827 -0.1766
  381TMC3    C2 5694   3.285   1.563  16.609  0.1796 -0.2280 -0.6262
  381TMC3    C3 5695   3.248   1.678  16.684 -0.2929  0.6462 -0.3001
  381TMC3    C4 5696   3.157   1.444  16.765  0.8629 -0.5672  0.4590
  381TMC3    C5 5697   3.146   1.556  16.843  0.1184  0.4004  0.1733
  381TMC3    C6 5698   3.186   1.677  16.810  0.6438 -0.5326  0.1764
  381TMC3     C 5699   3.241   1.318  16.573 -0.2908 -0.4755 -0.3045
  381TMC3     O 5700   3.165   1.230  16.612  0.0968 -0.4312 -0.2151
  381TMC3     H 5701   3.336   1.565  16.513  0.7562 -1.7282 -0.3565
  381TMC3    H1 5702   3.116   1.352  16.803 -2.0850  1.1867  1.5799
  381TMC3    H2 5703   3.195   1.760  16.879  1.2104  0.0506 -0.5972
  381TMC3    C7 5704   3.103   1.534  16.984  0.1966 -0.5634 -0.4368
  381TMC3    C8 5705   3.335   1.795  16.654 -0.0250 -0.0071  0.1418
  381TMC3    O1 5706   3.127   1.421  17.024 -0.1328 -0.1558  0.1719
  381TMC3    O2 5707   3.391   1.781  16.547  0.0117 -0.3452 -0.3832
  382MPD2     C 5708   2.509   4.172  17.220 -0.6894 -0.4285  0.0612
  382MPD2    C1 5709   2.512   4.116  17.346  0.2928 -0.6110  0.1889
  382MPD2    C2 5710   2.419   4.017  17.380 -0.2832 -0.4184  0.0677
  382MPD2    C3 5711   2.321   3.986  17.283  0.0402  0.2135 -0.3847
  382MPD2    C4 5712   2.320   4.045  17.155 -0.2001 -0.2834 -0.1621
  382MPD2    C5 5713   2.410   4.144  17.135 -0.4030 -0.3347  0.3365
  382MPD2     H 5714   2.419   3.955  17.469  2.3326 -2.6849 -1.4825
  382MPD2    H1 5715   2.241   4.014  17.089  0.4828 -1.3381 -0.4755
  382MPD2    H2 5716   2.584   4.241  17.182  1.9137 -2.4518  1.5415
  382MPD2    H3 5717   2.410   4.204  17.044  0.2724 -2.3260 -0.9829
  382MPD2     N 5718   2.220   3.890  17.331  0.2059  0.1492 -0.4633
  382MPD2    H5 5719   2.216   3.852  17.425  1.5185  1.0260 -0.0657
  382MPD2    N1 5720   2.618   4.152  17.427 -0.0527 -0.1944 -0.3850
  382MPD2    H7 5721   2.673   4.229  17.389  1.5674 -0.4410  1.4408
  383TMC3    C1 5722   2.045   3.729  17.311 -0.0819 -0.4947  0.5699
  383TMC3    C2 5723   1.992   3.621  17.249 -0.4430 -0.4346 -0.0301
  383TMC3    C3 5724   1.922   3.518  17.314  0.0158 -0.4822  0.9587
  383TMC3    C4 5725   2.036   3.726  17.449  0.5381  0.6555  0.3741
  383TMC3    C5 5726   1.973   3.618  17.517 -0.2317 -0.3933 -0.3171
  383TMC3    C6 5727   1.920   3.513  17.451 -0.1179  0.4486 -0.2132
  383TMC3     C 5728   2.129   3.831  17.244 -0.2934  0.3140  0.3948
  383TMC3     O 5729   2.108   3.850  17.124  0.0941 -0.5506  0.2270
  383TMC3     H 5730   2.002   3.632  17.142 -0.5953 -0.5587 -0.0589
  383TMC3    H1 5731   2.064   3.816  17.502 -0.3524  1.4437 -0.5152
  383TMC3    H2 5732   1.885   3.432  17.514  0.0617 -1.2076 -2.2549
  383TMC3    C7 5733   1.989   3.608  17.662 -0.2577 -0.6056 -0.4259
  383TMC3    C8 5734   1.882   3.402  17.234  0.1468 -0.7626  0.5520
  383TMC3    O1 5735   1.905   3.534   0.039 -0.1939  0.1453  0.8951
  383TMC3    O2 5736   1.861   3.424  17.118 -0.4739  0.4023 -0.4626
  384MPD2     C 5737   0.010   0.579  12.386 -0.0817 -0.3172 -0.1973
  384MPD2    C1 5738   0.091   0.536  12.489 -0.5035 -0.0889 -0.1699
  384MPD2    C2 5739   0.185   0.438  12.460 -0.7774 -0.0346 -0.4367
  384MPD2    C3 5740   0.187   0.382  12.330  0.3346  0.6207  0.3415
  384MPD2    C4 5741   0.108   0.432  12.230 -0.3204 -0.3437  0.3960
  384MPD2    C5 5742   0.024   0.534  12.256 -0.4185  0.3400 -0.2062
  384MPD2     H 5743   0.240   0.372  12.527 -2.8641 -1.3941 -0.0733
  384MPD2    H1 5744   0.111   0.389  12.131  2.6906  3.8971 -1.3530
  384MPD2    H2 5745   4.680   0.675  12.394  2.6197  1.0783 -0.3091
  384MPD2    H3 5746   4.682   0.580  12.180 -0.5409  1.7456  0.7403
  384MPD2     N 5747   0.256   0.260  12.325  0.0011  0.2500 -0.0166
  384MPD2    H5 5748   0.290   0.222  12.412  1.4415 -2.9954 -1.9994
  384MPD2    N1 5749   0.060   0.583  12.620  0.4544  0.0239 -0.8304
  384MPD2    H7 5750   4.705   0.651  12.630 -0.5975 -1.1563 -0.7308
  385TMC3    C1 5751   0.334   0.053  12.246  0.2097  0.2957  0.1400
  385TMC3    C2 5752   0.265   4.665  12.225 -0.1186 -0.7124 -0.2326
  385TMC3    C3 5753   0.254   4.564  12.319  0.6813  0.1456 -0.0841
  385TMC3    C4 5754   0.399   0.060  12.357  0.8295 -0.2751 -0.1085
  385TMC3    C5 5755   0.388   4.693  12.460  0.4485 -0.0534 -0.4634
  385TMC3    C6 5756   0.309   4.580  12.445 -0.3566  0.2689 -0.6627
  385TMC3     C 5757   0.273   0.180  12.208 -0.0072  0.0508 -0.1312
  385TMC3     O 5758   0.234   0.192  12.096 -0.3730  0.4047 -0.1216
  385TMC3     H 5759   0.215   4.662  12.130  0.5634  0.6855 -0.6450
  385TMC3    H1 5760   0.450   0.155  12.372  0.5881 -0.1297 -0.2076
  385TMC3    H2 5761   0.284   4.499  12.512 -0.4002  0.0417 -0.9562
  385TMC3    C7 5762   0.369   0.045  12.575 -0.2555  0.7142  0.0542
  385TMC3    C8 5763   0.231   4.433  12.266  0.1655  0.0442  0.3656
  385TMC3    O1 5764   0.323   0.159  12.557  0.2484  0.2280 -0.0911
  385TMC3    O2 5765   0.259   4.342  12.342 -0.7296 -0.3518 -0.1321
  386TMC3    C1 5766   4.474   2.845  11.701 -0.0719  0.5798 -0.1431
  386TMC3    C2 5767   4.490   2.833  11.571  0.6800  0.3005 -0.2627
  386TMC3    C3 5768   4.400   2.898  11.491  0.3671  0.6241  0.4665
  386TMC3    C4 5769   4.372   2.915  11.757 -0.1584  0.0948  0.0974
  386TMC3    C5 5770   4.280   2.975  11.670 -0.0551  0.0365 -0.0265
  386TMC3    C6 5771   4.296   2.965  11.539 -0.2705  0.0661  0.5876
  386TMC3     C 5772   4.563   2.778  11.800  0.1031 -0.4004 -0.0844
  386TMC3     O 5773   4.571   2.828  11.909 -0.3895  0.3220 -0.2939
  386TMC3     H 5774   4.570   2.777  11.523 -1.6187 -2.0769 -1.3594
  386TMC3    H1 5775   4.344   2.899  11.860  0.0979 -0.6776  0.0517
  386TMC3    H2 5776   4.227   3.011  11.469  0.5494  1.5623  0.7505
  386TMC3    C7 5777   4.165   3.046  11.735  0.3842 -0.3300 -0.5847
  386TMC3    C8 5778   4.403   2.885  11.350  0.4564 -1.0349 -0.2527
  386TMC3    O1 5779   4.131   3.009  11.848 -0.3113 -0.5622 -0.1972
  386TMC3    O2 5780   4.297   2.877  11.290  0.2403 -0.5585  0.6147
  387MPD2     C 5781   1.958   2.606   9.313  0.4658 -0.2859 -0.0477
  387MPD2    C1 5782   1.962   2.614   9.452 -0.4113 -0.4812  0.9224
  387MPD2    C2 5783   1.980   2.500   9.528 -0.2449 -0.2179 -0.0479
  387MPD2    C3 5784   1.970   2.377   9.470  0.6896  0.1521  0.1380
  387MPD2    C4 5785   1.975   2.366   9.331  0.1978  0.3853  0.4542
  387MPD2    C5 5786   1.966   2.482   9.254  0.3859  0.2263  0.2286
  387MPD2     H 5787   1.978   2.516   9.636  0.4445  0.9510 -0.2126
  387MPD2    H1 5788   1.982   2.270   9.281 -1.4648  0.4028  0.1678
  387MPD2    H2 5789   1.964   2.698   9.255  2.9618  0.3787  1.2487
  387MPD2    H3 5790   1.970   2.461   9.148 -0.0734  2.1513 -0.1518
  387MPD2     N 5791   1.993   2.271   9.560 -0.7666  0.2288 -0.2314
  387MPD2    H5 5792   2.001   2.297   9.658 -1.5365  0.5940 -0.2727
  387MPD2    N1 5793   1.975   2.738   9.520  0.2721 -0.1358  0.5292
  387MPD2    H7 5794   1.969   2.725   9.621 -0.8484  0.4172  0.5255
  388TMC3    C1 5795   2.040   2.965   9.547  1.0319  0.1325  0.6601
  388TMC3    C2 5796   1.997   3.092   9.542 -0.8224 -0.0360  0.5330
  388TMC3    C3 5797   2.062   3.174   9.635 -0.2590 -0.0221 -0.4339
  388TMC3    C4 5798   2.133   2.912   9.627  0.3518  0.1800  0.2286
  388TMC3    C5 5799   2.193   2.997   9.712  0.0135 -0.2635 -0.1895
  388TMC3    C6 5800   2.149   3.121   9.728 -0.2224  0.3143  0.5335
  388TMC3     C 5801   1.972   2.867   9.464  0.1579 -0.3973 -0.3461
  388TMC3     O 5802   1.950   2.903   9.350 -0.3495  0.5976 -0.1140
  388TMC3     H 5803   1.943   3.124   9.454 -0.5296 -4.5809 -1.3310
  388TMC3    H1 5804   2.188   2.821   9.604  0.0857 -0.2010  1.0968
  388TMC3    H2 5805   2.199   3.184   9.801 -0.9836  0.5234  0.8727
  388TMC3    C7 5806   2.276   2.934   9.818 -0.0706  0.8084  0.6198
  388TMC3    C8 5807   2.026   3.311   9.647 -0.6159  0.1868  0.3568
  388TMC3    O1 5808   2.359   2.998   9.876  0.3412 -0.0319 -0.9261
  388TMC3    O2 5809   2.098   3.383   9.710 -0.3726  0.1573  0.9494
  389MPD2     C 5810   1.730   1.288  11.204 -0.5617 -0.1422 -0.4312
  389MPD2    C1 5811   1.634   1.210  11.148  0.5682 -0.0367 -0.2935
  389MPD2    C2 5812   1.580   1.120  11.235 -0.1764 -0.0805 -0.8554
  389MPD2    C3 5813   1.602   1.128  11.373  0.6401 -0.1818 -0.2402
  389MPD2    C4 5814   1.693   1.215  11.426  0.4388 -0.5366 -0.4007
  389MPD2    C5 5815   1.761   1.293  11.338 -0.4423  0.3660 -0.3492
  389MPD2     H 5816   1.520   1.043  11.188  0.0381 -0.0909 -1.1105
  389MPD2    H1 5817   1.708   1.222  11.534  0.9543 -1.7665 -0.3885
  389MPD2    H2 5818   1.790   1.351  11.139  1.1582  0.6389  1.9127
  389MPD2    H3 5819   1.836   1.363  11.374 -0.0618 -0.6180  0.7814
  389MPD2     N 5820   1.537   1.050  11.469  0.4676  0.2840 -0.0330
  389MPD2    H5 5821   1.548   1.085  11.564  0.0516 -2.0888  0.8721
  389MPD2    N1 5822   1.609   1.219  11.010  0.0849  0.6959 -0.2117
  389MPD2    H7 5823   1.672   1.285  10.967  0.5106  0.6820  0.3805
  390TMC3    C1 5824   1.411   0.869  11.555  0.2064  0.3817 -0.4747
  390TMC3    C2 5825   1.373   0.738  11.554 -0.7253  0.3802 -0.0027
  390TMC3    C3 5826   1.332   0.682  11.672  0.9050  0.0840  0.3441
  390TMC3    C4 5827   1.372   0.944  11.664 -0.7527  0.6847 -0.5433
  390TMC3    C5 5828   1.316   0.889  11.779 -0.1514 -0.0296 -0.4190
  390TMC3    C6 5829   1.312   0.756  11.784 -0.2914  0.1688  0.0919
  390TMC3     C 5830   1.479   0.929  11.443 -0.5452 -1.0790  0.4536
  390TMC3     O 5831   1.473   0.860  11.343  0.0382 -0.0807 -0.3199
  390TMC3     H 5832   1.390   0.677  11.466 -1.7395  0.4806 -0.2684
  390TMC3    H1 5833   1.379   1.052  11.658 -1.7221  0.8282  0.8392
  390TMC3    H2 5834   1.285   0.723  11.883  0.9268  1.9574  1.0337
  390TMC3    C7 5835   1.192   0.948  11.802 -0.6526 -0.5295  0.3172
  390TMC3    C8 5836   1.250   0.564  11.651  0.4284 -0.0886 -0.0427
  390TMC3    O1 5837   1.177   1.064  11.766  0.1196 -0.1746 -0.6523
  390TMC3    O2 5838   1.209   0.528  11.541 -0.2687 -0.3888 -0.5860
  391MPD2     C 5839   0.804   2.735  11.547 -0.1726 -0.2650 -0.2442
  391MPD2    C1 5840   0.903   2.816  11.510  0.2264 -0.4682  0.5789
  391MPD2    C2 5841   0.934   2.837  11.376 -0.5577 -0.2472  0.8058
  391MPD2    C3 5842   0.864   2.768  11.286 -0.0212  0.3365  0.4355
  391MPD2    C4 5843   0.753   2.692  11.319  0.6100  0.1773  0.4053
  391MPD2    C5 5844   0.717   2.686  11.452  0.1834 -0.1507 -0.5279
  391MPD2     H 5845   1.013   2.908  11.355 -1.4169 -0.2776 -2.5294
  391MPD2    H1 5846   0.680   2.643  11.255  2.6150 -1.2109 -0.8070
  391MPD2    H2 5847   0.766   2.731  11.648  1.6614 -0.4436  0.4320
  391MPD2    H3 5848   0.623   2.637  11.476  0.6448 -1.4042 -1.2484
  391MPD2     N 5849   0.914   2.763  11.147 -0.0129  0.0441 -0.5554
  391MPD2    H5 5850   1.001   2.814  11.138 -0.5314  0.3935 -3.5845
  391MPD2    N1 5851   0.979   2.888  11.609  0.1385  0.6062  0.5505
  391MPD2    H7 5852   1.050   2.947  11.566 -1.0212  0.7855 -1.1460
  392TMC3    C1 5853   0.922   2.739  10.919 -0.0160 -0.3473  0.7376
  392TMC3    C2 5854   0.852   2.731  10.805 -0.0286  0.3006 -0.0471
  392TMC3    C3 5855   0.902   2.791  10.687  0.1412 -0.2595  0.3907
  392TMC3    C4 5856   1.038   2.816  10.924 -0.7924  0.6161  0.1613
  392TMC3    C5 5857   1.087   2.862  10.802 -0.5907  0.5042  0.5593
  392TMC3    C6 5858   1.022   2.850  10.684 -0.0502 -0.1649 -0.8413
  392TMC3     C 5859   0.853   2.698  11.041  0.2934  0.5783 -0.5025
  392TMC3     O 5860   0.772   2.610  11.031  0.6734  0.4736 -0.3149
  392TMC3     H 5861   0.753   2.686  10.809 -0.8752  2.0326 -1.3204
  392TMC3    H1 5862   1.111   2.823  11.003 -0.2995 -1.2672 -0.1285
  392TMC3    H2 5863   1.061   2.891  10.591 -1.2323  0.6988 -0.9578
  392TMC3    C7 5864   1.208   2.942  10.815  0.2126 -0.3763  0.3028
  392TMC3    C8 5865   0.819   2.782  10.572  0.1291  0.5126  0.3186
  392TMC3    O1 5866   1.232   2.992  10.922  0.2945 -0.3106 -0.5182
  392TMC3    O2 5867   0.702   2.756  10.590  0.2808 -0.0099 -0.9449
  393TMC3    C1 5868   0.167   0.739  10.797  0.5112 -0.7568  0.1407
  393TMC3    C2 5869   0.082   0.676  10.888 -0.5697  0.3722 -0.2735
  393TMC3    C3 5870   0.059   0.543  10.891  0.0208  0.4345  0.6257
  393TMC3    C4 5871   0.242   0.658  10.711  0.3017  0.0940  0.4381
  393TMC3    C5 5872   0.225   0.523  10.734 -0.4669 -0.2511  0.1603
  393TMC3    C6 5873   0.137   0.463  10.819  0.2706 -0.2677  0.5644
  393TMC3     C 5874   0.111   0.861  10.743 -0.0821  0.6089  0.3505
  393TMC3     O 5875   0.004   0.898  10.787  0.0206 -0.1317  0.0265
  393TMC3     H 5876   0.022   0.736  10.955  1.0458  0.3817  1.1613
  393TMC3    H1 5877   0.297   0.694  10.625  0.6978 -0.7282  0.3474
  393TMC3    H2 5878   0.129   0.355  10.811 -2.3423 -0.0051 -0.7190
  393TMC3    C7 5879   0.320   0.435  10.667  0.6090 -0.1772  0.8686
  393TMC3    C8 5880   4.652   0.487  10.942 -0.5188  0.3843 -0.3912
  393TMC3    O1 5881   0.302   0.314  10.670  0.0865  0.2284 -0.5361
  393TMC3    O2 5882   4.560   0.566  10.951 -0.2650  0.4252 -0.1455
  394TMC3    C1 5883   1.554   1.159  10.786  0.1412 -0.0513 -0.1891
  394TMC3    C2 5884   1.520   1.056  10.701  0.3651 -0.0544 -0.3476
  394TMC3    C3 5885   1.559   1.060  10.577 -1.0489 -0.1013 -0.3721
  394TMC3    C4 5886   1.636   1.262  10.737 -0.2771 -0.1718 -0.1763
  394TMC3    C5 5887   1.665   1.263  10.604  0.2423  0.2678 -0.1905
  394TMC3    C6 5888   1.633   1.162  10.519  0.6447 -0.1211 -0.2066
  394TMC3     C 5889   1.534   1.139  10.933  0.0119  0.7611 -0.2902
  394TMC3     O 5890   1.448   1.057  10.959 -0.3677  0.0184 -0.0096
  394TMC3     H 5891   1.437   0.991  10.724  0.4230  0.8347  2.3915
  394TMC3    H1 5892   1.674   1.344  10.797  0.8200 -0.7672 -0.0658
  394TMC3    H2 5893   1.677   1.149  10.421 -1.2795 -0.0033 -1.0899
  394TMC3    C7 5894   1.737   1.380  10.550  0.1239 -0.7337 -0.5966
  394TMC3    C8 5895   1.525   0.945  10.501  1.0823 -0.9280  0.0376
  394TMC3    O1 5896   1.800   1.449  10.627  0.7519  0.2367 -0.7601
  394TMC3    O2 5897   1.510   0.839  10.564  0.3513 -0.3329 -0.1322
  395TMC3    C1 5898   1.104   3.086  14.516 -0.3672  0.3873 -0.8080
  395TMC3    C2 5899   0.979   3.113  14.467  0.1020  0.9795  0.2141
  395TMC3    C3 5900   0.937   3.237  14.448 -0.3973 -0.0081  1.1338
  395TMC3    C4 5901   1.190   3.183  14.549 -0.0076 -0.0486  0.1033
  395TMC3    C5 5902   1.138   3.308  14.551  0.3079 -0.1583  0.0847
  395TMC3    C6 5903   1.011   3.338  14.505  0.5850 -0.3178  0.5377
  395TMC3     C 5904   1.112   2.974  14.615  0.0150 -1.0978  0.5345
  395TMC3     O 5905   1.162   3.014  14.719  0.8472 -0.4366  0.2530
  395TMC3     H 5906   0.921   3.027  14.437  2.3551 -0.4387 -0.0889
  395TMC3    H1 5907   1.284   3.163  14.599  0.0845 -1.2922 -0.5531
  395TMC3    H2 5908   0.977   3.441  14.495 -0.6984 -0.4930  3.2267
  395TMC3    C7 5909   1.236   3.409  14.569 -0.4646 -0.0020 -0.5505
  395TMC3    C8 5910   0.797   3.261  14.470  0.3686 -0.4459 -0.8328
  395TMC3    O1 5911   1.217   3.509  14.633 -0.4966  0.4471 -0.1683
  395TMC3    O2 5912   0.755   3.350  14.549 -0.2728 -0.3297 -0.5731
  396MPD2     C 5913   0.857   3.974   0.167 -1.1813  0.1729 -0.1200
  396MPD2    C1 5914   0.848   3.928   0.040 -0.2451  0.0090  1.0805
  396MPD2    C2 5915   0.819   4.008  17.617  0.1074  0.6448 -0.5077
  396MPD2    C3 5916   0.787   4.145  17.635  0.2971 -0.3484 -0.0375
  396MPD2    C4 5917   0.784   4.192   0.080  0.0186 -0.0970 -0.3068
  396MPD2    C5 5918   0.828   4.110   0.185 -1.2123 -0.4825  0.5325
  396MPD2     H 5919   0.832   3.983  17.512  1.2144 -0.8634 -0.0073
  396MPD2    H1 5920   0.768   4.299   0.093 -1.0655 -0.3462  0.4161
  396MPD2    H2 5921   0.884   3.919   0.256  0.5378 -0.4790 -1.0617
  396MPD2    H3 5922   0.811   4.153   0.283  1.0763  2.8699 -0.5508
  396MPD2     N 5923   0.756   4.245  17.541  0.3137  0.1777  1.0433
  396MPD2    H5 5924   0.736   4.340  17.569 -1.9376  0.5732 -1.9330
  396MPD2    N1 5925   0.899   3.798   0.022 -0.3132  0.1838 -0.3366
  396MPD2    H7 5926   0.899   3.745   0.108 -2.4328  0.3746 -0.2350
  397TMC3    C1 5927   0.957   3.595  17.615 -0.5848 -0.5568  0.5446
  397TMC3    C2 5928   0.866   3.511  17.559  0.9682  0.7686 -0.5802
  397TMC3    C3 5929   0.814   3.407  17.631 -0.5119 -0.6732  0.1968
  397TMC3    C4 5930   1.006   3.567   0.056  0.1727 -0.3128  0.0917
  397TMC3    C5 5931   0.964   3.449   0.117  0.1061 -0.0830 -0.5052
  397TMC3    C6 5932   0.862   3.376   0.073  0.3422 -0.3162  0.5033
  397TMC3     C 5933   0.915   3.731  17.585 -0.1139 -0.3647  0.3467
  397TMC3     O 5934   0.890   3.763  17.468 -0.2721  0.1240  0.3919
  397TMC3     H 5935   0.809   3.549  17.475 -3.5553 -4.9850 -0.1668
  397TMC3    H1 5936   1.080   3.634   0.099 -0.3656 -1.4283  2.7326
  397TMC3    H2 5937   0.834   3.289   0.131 -1.0025  0.7125  1.4189
  397TMC3    C7 5938   1.064   3.374   0.190 -0.4475  0.5993  0.0242
  397TMC3    C8 5939   0.716   3.313  17.571  0.0287 -0.3745  0.6179
  397TMC3    O1 5940   1.054   3.253   0.194  0.4314  0.4969  0.0645
  397TMC3    O2 5941   0.693   3.220  17.647 -0.4907 -0.3288  0.1954
  398MPD2     C 5942   3.856   0.270   0.390 -0.5875 -0.1926 -0.1054
  398MPD2    C1 5943   3.943   0.164   0.401 -0.8019  1.0675 -0.0534
  398MPD2    C2 5944   4.070   0.179   0.446 -0.1549  0.6480  0.2923
  398MPD2    C3 5945   4.122   0.308   0.479 -0.3290 -0.3077  0.2223
  398MPD2    C4 5946   4.036   0.419   0.465  0.1466 -0.5167 -0.0013
  398MPD2    C5 5947   3.907   0.394   0.427  1.2292  0.0060  0.2299
  398MPD2     H 5948   4.137   0.095   0.463  0.1003  1.2148  2.1004
  398MPD2    H1 5949   4.063   0.520   0.495  1.5817 -0.8816 -0.0824
  398MPD2    H2 5950   3.754   0.257   0.356  0.4109 -0.5063 -3.0178
  398MPD2    H3 5951   3.832   0.473   0.434  1.4308  0.4495 -2.6984
  398MPD2     N 5952   4.257   0.314   0.524  0.1907 -0.0869 -0.0289
  398MPD2    H5 5953   4.305   0.225   0.527  1.7902  0.7981  0.1253
  398MPD2    N1 5954   3.911   0.028   0.370 -0.4554  0.1444 -0.0096
  398MPD2    H7 5955   3.979   4.678   0.400  0.5601 -0.0604 -2.8319
  399TMC3    C1 5956   3.776   4.564   0.336  0.6156 -0.4280  0.6629
  399TMC3    C2 5957   3.872   4.487   0.405 -0.1846 -0.5876 -0.3422
  399TMC3    C3 5958   3.835   4.361   0.444 -0.6690 -1.0961  0.7152
  399TMC3    C4 5959   3.649   4.526   0.329 -0.0322  0.1712  0.1403
  399TMC3    C5 5960   3.615   4.399   0.371 -0.3493  0.1088 -0.2695
  399TMC3    C6 5961   3.705   4.320   0.440  0.3523  0.3674 -0.5761
  399TMC3     C 5962   3.790   4.711   0.314  0.2847 -0.2178  0.3614
  399TMC3     O 5963   3.691   0.056   0.283  0.5387 -0.7295 -0.2536
  399TMC3     H 5964   3.978   4.508   0.417  0.3303 -3.7377  0.6180
  399TMC3    H1 5965   3.563   4.580   0.291  1.7287  0.1553 -3.7750
  399TMC3    H2 5966   3.665   4.225   0.473  0.0257  0.6254 -0.2153
  399TMC3    C7 5967   3.485   4.336   0.343 -0.6507 -0.0980 -0.0664
  399TMC3    C8 5968   3.940   4.273   0.495  0.1174  0.4180 -0.0432
  399TMC3    O1 5969   3.443   4.249   0.418  0.2009 -0.4213 -0.0646
  399TMC3    O2 5970   4.053   4.312   0.486 -0.0269 -0.2885  0.3964
  400TMC3    C1 5971   2.746   3.994  16.999  0.4074 -0.2500  0.2470
  400TMC3    C2 5972   2.670   3.925  16.909 -0.5587 -0.0828  0.1046
  400TMC3    C3 5973   2.621   3.999  16.799  0.2360  0.1478  0.1749
  400TMC3    C4 5974   2.769   4.123  16.995 -0.0807  0.4555 -0.3001
  400TMC3    C5 5975   2.708   4.192  16.896 -0.0918  0.3924 -0.9946
  400TMC3    C6 5976   2.659   4.127  16.787  0.0167 -0.1274  0.2591
  400TMC3     C 5977   2.765   3.916  17.123 -0.1955  0.1075 -0.3323
  400TMC3     O 5978   2.694   3.824  17.157  0.5921  1.0581 -0.0280
  400TMC3     H 5979   2.642   3.821  16.925  1.0903 -0.4563  0.5101
  400TMC3    H1 5980   2.806   4.170  17.086  0.4211  1.0737 -0.8202
  400TMC3    H2 5981   2.633   4.187  16.701  1.4857  0.6022  0.3261
  400TMC3    C7 5982   2.670   4.326  16.919 -0.0078  0.4006 -0.5767
  400TMC3    C8 5983   2.477   4.007  16.791  0.7235  0.4989 -0.0742
  400TMC3    O1 5984   2.742   4.392  16.994  0.2065  0.3443 -0.2056
  400TMC3    O2 5985   2.431   4.118  16.760  0.2062  0.2236 -0.1207
  401MPD2     C 5986   0.174   1.597   0.373  0.4207  0.3082  0.7914
  401MPD2    C1 5987   0.227   1.712   0.429  0.3220 -0.4499  0.5726
  401MPD2    C2 5988   0.313   1.709   0.535  0.2109  0.3499  0.6494
  401MPD2    C3 5989   0.344   1.584   0.588  0.9005  0.4129 -0.3488
  401MPD2    C4 5990   0.290   1.472   0.536  0.4154  0.2404  0.0433
  401MPD2    C5 5991   0.200   1.479   0.429 -0.0762  0.3244  0.5770
  401MPD2     H 5992   0.355   1.802   0.573  0.2534  1.0084 -1.0101
  401MPD2    H1 5993   0.297   1.377   0.588  0.6526  0.3225  0.1593
  401MPD2    H2 5994   0.101   1.598   0.292  2.1592 -1.0105 -0.7738
  401MPD2    H3 5995   0.147   1.390   0.399 -0.1356 -0.0071  1.6513
  401MPD2     N 5996   0.436   1.570   0.699 -0.1455 -0.1362  0.4171
  401MPD2    H5 5997   0.484   1.656   0.720 -0.2012  0.1242 -0.5034
  401MPD2    N1 5998   0.206   1.842   0.373  0.0782  0.1277 -0.0295
  401MPD2    H7 5999   0.264   1.911   0.419 -0.6650 -0.5570  1.9299
  402TMC3    C1 6000   0.602   1.475   0.844 -0.4526  0.2455 -0.8185
  402TMC3    C2 6001   0.629   1.395   0.955  0.0401  0.0371  0.0397
  402TMC3    C3 6002   0.747   1.419   1.020  0.0478  0.0073  0.2714
  402TMC3    C4 6003   0.688   1.569   0.793 -0.0019 -0.1893  0.0625
  402TMC3    C5 6004   0.803   1.586   0.857  0.3309  0.4746  0.2208
  402TMC3    C6 6005   0.834   1.510   0.964 -0.5677 -0.2015  0.1866
  402TMC3     C 6006   0.482   1.449   0.761  0.0176  0.4007  0.3195
  402TMC3     O 6007   0.421   1.343   0.777  0.2955 -0.0951 -0.5909
  402TMC3     H 6008   0.559   1.321   0.991 -0.3338 -0.1001 -0.9551
  402TMC3    H1 6009   0.659   1.624   0.704  1.0187  0.2908  0.0359
  402TMC3    H2 6010   0.927   1.525   1.017 -1.8292  2.4559  1.6499
  402TMC3    C7 6011   0.912   1.623   0.768 -0.0124 -0.7142 -0.3821
  402TMC3    C8 6012   0.804   1.342   1.131 -0.4146 -0.3360  0.0018
  402TMC3    O1 6013   0.872   1.692   0.674 -0.3274  0.3360  0.2455
  402TMC3    O2 6014   0.922   1.361   1.162  0.1411  0.0049 -0.0309
  403MPD2     C 6015   3.697   0.358  13.968 -0.0449 -0.8286  0.3549
  403MPD2    C1 6016   3.817   0.293  13.993 -0.0373  0.2600 -0.4656
  403MPD2    C2 6017   3.930   0.360  14.018 -0.8535 -0.3110  0.1262
  403MPD2    C3 6018   3.930   0.496  14.028 -0.0341 -0.4992  0.1246
  403MPD2    C4 6019   3.810   0.569  14.002 -0.9904 -0.9601 -0.1620
  403MPD2    C5 6020   3.702   0.492  13.981  0.2067 -0.1084 -0.3075
  403MPD2     H 6021   4.025   0.321  14.051 -0.9289 -2.1617 -1.8749
  403MPD2    H1 6022   3.796   0.676  14.014  0.8716 -0.8826  1.2782
  403MPD2    H2 6023   3.603   0.309  13.946  0.7718 -1.6132 -1.4305
  403MPD2    H3 6024   3.610   0.549  13.974 -0.6383 -1.4538 -0.1875
  403MPD2     N 6025   4.054   0.558  14.059  0.0288 -0.4938  0.3206
  403MPD2    H5 6026   4.141   0.511  14.083 -0.0335  0.2590  2.0575
  403MPD2    N1 6027   3.819   0.153  13.966  0.1894  0.5993  0.2902
  403MPD2    H7 6028   3.731   0.113  13.935 -0.6215  1.8963  0.8990
  404TMC3    C1 6029   3.904   4.661  13.912 -0.1749  0.0362  0.1942
  404TMC3    C2 6030   3.890   4.571  14.010 -0.5157  0.1503 -0.5928
  404TMC3    C3 6031   3.938   4.441  13.999  0.2637 -0.0182 -0.0811
  404TMC3    C4 6032   3.997   4.628  13.818  0.4429  0.3413  1.3106
  404TMC3    C5 6033   4.055   4.505  13.811 -0.3546  0.1094  0.6217
  404TMC3    C6 6034   4.023   4.407  13.899 -0.1493 -0.2661 -0.3188
  404TMC3     C 6035   3.930   0.078  13.975  0.1327 -0.3649 -0.2262
  404TMC3     O 6036   4.045   0.101  14.015 -0.2384 -0.0374 -0.1780
  404TMC3     H 6037   3.837   4.607  14.098  0.6769 -0.8632  0.5430
  404TMC3    H1 6038   4.025   4.705  13.747  1.5194  2.8753  4.4922
  404TMC3    H2 6039   4.075   4.313  13.888  0.2581 -0.1915  0.9076
  404TMC3    C7 6040   4.150   4.467  13.705  0.1384  0.4817  0.4067
  404TMC3    C8 6041   3.955   4.364  14.128 -0.1990  0.1975 -0.4073
  404TMC3    O1 6042   4.238   4.384  13.735  0.0143  0.1934  0.2895
  404TMC3    O2 6043   4.059   4.299  14.136 -0.5670 -0.4196 -0.0572
  405MPD2     C 6044   3.262   1.507  13.873  0.1053 -0.1493  0.1965
  405MPD2    C1 6045   3.309   1.474  13.753  0.4755  1.1014 -0.7207
  405MPD2    C2 6046   3.222   1.419  13.661  0.4545 -0.5212  0.1460
  405MPD2    C3 6047   3.087   1.396  13.694  0.2378 -0.9330  0.4715
  405MPD2    C4 6048   3.038   1.427  13.818  0.1563 -0.5649  0.1274
  405MPD2    C5 6049   3.129   1.487  13.900  0.8465  0.3713 -0.2863
  405MPD2     H 6050   3.249   1.387  13.561 -0.3904  0.8238 -0.5147
  405MPD2    H1 6051   2.937   1.419  13.857  0.8711 -0.8436  1.9222
  405MPD2    H2 6052   3.324   1.551  13.950 -2.9911  2.6496  1.0492
  405MPD2    H3 6053   3.101   1.513  14.001  2.2922 -0.7498  0.3901
  405MPD2     N 6054   3.011   1.324  13.601 -0.4425 -0.1436  0.1916
  405MPD2    H5 6055   3.059   1.284  13.522 -1.2387  0.7884 -0.7552
  405MPD2    N1 6056   3.447   1.488  13.721  0.4510  0.3900  0.0154
  405MPD2    H7 6057   3.504   1.502  13.804 -0.0727 -0.4035  0.5117
  406TMC3    C1 6058   2.803   0.926  13.561  0.5746 -0.2711  0.5474
  406TMC3    C2 6059   2.874   0.884  13.450 -0.7051  0.2852 -0.0925
  406TMC3    C3 6060   2.950   0.987  13.398 -0.2367  0.1862  1.0462
  406TMC3    C4 6061   2.803   1.054  13.613  0.9596 -0.1886  0.0089
  406TMC3    C5 6062   2.861   1.153  13.541  0.1936 -0.0798 -0.4753
  406TMC3    C6 6063   2.946   1.118  13.439  0.3728  0.4549 -0.1131
  406TMC3     C 6064   2.741   0.823  13.646 -0.0636 -0.6429 -0.4565
  406TMC3     O 6065   2.704   0.715  13.599  0.2292 -0.2805  0.6476
  406TMC3     H 6066   2.893   0.779  13.430 -2.8061  0.1741 -1.5933
  406TMC3    H1 6067   2.745   1.073  13.703  0.4640 -0.5890 -0.2213
  406TMC3    H2 6068   3.008   1.191  13.389 -2.9494  2.1521 -1.7217
  406TMC3    C7 6069   2.888   1.272  13.623  0.6548 -0.3007 -0.0141
  406TMC3    C8 6070   3.075   0.937  13.341 -0.0202  0.8520 -0.1337
  406TMC3    O1 6071   2.802   1.294  13.712 -0.5279  0.0140 -0.4196
  406TMC3    O2 6072   3.068   0.820  13.300  0.0698  0.1586 -0.2438
  407MPD2     C 6073   1.678   3.044   9.717 -0.3860 -0.2749  0.1440
  407MPD2    C1 6074   1.673   3.183   9.725  0.1884 -0.0399 -0.2116
  407MPD2    C2 6075   1.745   3.243   9.827 -0.5311  0.2736 -0.3214
  407MPD2    C3 6076   1.833   3.168   9.901  0.2212 -0.3970  0.4797
  407MPD2    C4 6077   1.842   3.036   9.888 -0.2391 -0.6926 -0.2596
  407MPD2    C5 6078   1.761   2.977   9.799 -0.3260  0.0539 -0.6416
  407MPD2     H 6079   1.726   3.349   9.838  1.2482  0.5346  0.2353
  407MPD2    H1 6080   1.911   2.980   9.950  0.6446  1.6979  0.9453
  407MPD2    H2 6081   1.621   2.995   9.639 -0.0231 -2.1911  1.1001
  407MPD2    H3 6082   1.775   2.872   9.775  0.9644  0.4136 -1.4716
  407MPD2     N 6083   1.917   3.228  10.004 -0.1513  0.2922 -0.0594
  407MPD2    H5 6084   1.964   3.168  10.070  0.2972  1.3377  0.5728
  407MPD2    N1 6085   1.593   3.263   9.640  0.0553 -0.2074  0.2481
  407MPD2    H7 6086   1.601   3.363   9.653 -0.4547  0.2621 -3.0099
  408TMC3    C1 6087   1.461   3.339   9.456 -0.1998 -0.2772 -0.4103
  408TMC3    C2 6088   1.415   3.455   9.519 -0.2252  0.4904 -0.1207
  408TMC3    C3 6089   1.348   3.543   9.435 -0.5568  0.0316  0.0702
  408TMC3    C4 6090   1.442   3.314   9.324  0.2060 -0.1480 -0.6085
  408TMC3    C5 6091   1.373   3.401   9.244 -0.2043 -0.2922  0.3227
  408TMC3    C6 6092   1.319   3.515   9.303 -0.5548  0.4680  0.3286
  408TMC3     C 6093   1.509   3.225   9.531  0.0592 -0.4477  0.7539
  408TMC3     O 6094   1.489   3.114   9.482  0.5305 -0.0081  0.2587
  408TMC3     H 6095   1.419   3.477   9.625 -0.9839 -0.5326  0.1217
  408TMC3    H1 6096   1.472   3.215   9.292  0.9075  0.7248 -2.6305
  408TMC3    H2 6097   1.254   3.578   9.244 -1.6584 -0.5530  0.4584
  408TMC3    C7 6098   1.297   3.336   9.133 -0.3438 -0.0703 -0.0481
  408TMC3    C8 6099   1.320   3.672   9.482 -0.0051  0.0302  0.6025
  408TMC3    O1 6100   1.184   3.387   9.112  0.2736  0.3600 -0.4887
  408TMC3    O2 6101   1.217   3.722   9.437 -0.0381  0.0718  0.1316
  409MPD2     C 6102   1.405   2.151  16.790 -0.0859 -0.1177 -0.4019
  409MPD2    C1 6103   1.401   2.236  16.898 -0.2835 -0.4431 -0.1280
  409MPD2    C2 6104   1.391   2.371  16.879  0.2658  0.8032  0.6219
  409MPD2    C3 6105   1.395   2.424  16.752  0.2551 -0.6373  0.1736
  409MPD2    C4 6106   1.405   2.335  16.648 -0.4015 -0.1547 -0.0058
  409MPD2    C5 6107   1.406   2.201  16.665  0.0183  0.2421 -0.0981
  409MPD2     H 6108   1.388   2.435  16.966 -0.9095  1.6956 -0.0626
  409MPD2    H1 6109   1.399   2.379  16.549  1.1372 -0.7228 -0.3497
  409MPD2    H2 6110   1.400   2.043  16.803 -0.5030  0.0346  0.7078
  409MPD2    H3 6111   1.413   2.132  16.581 -0.2437 -0.0927  0.1551
  409MPD2     N 6112   1.402   2.561  16.730  0.3686  0.4276  0.3423
  409MPD2    H5 6113   1.427   2.574  16.633  0.9306 -2.2183  0.1343
  409MPD2    N1 6114   1.409   2.198  17.034 -0.4614  0.0379 -0.5431
  409MPD2    H7 6115   1.392   2.277  17.095  1.1310  0.3610 -0.5152
  410TMC3    C1 6116   1.404   2.797  16.767 -0.1202  0.1031 -0.3896
  410TMC3    C2 6117   1.446   2.894  16.858  0.4284 -0.5237 -0.0908
  410TMC3    C3 6118   1.512   2.999  16.812  0.1077 -0.3762  0.2027
  410TMC3    C4 6119   1.425   2.819  16.630  0.0367 -0.3659 -0.2660
  410TMC3    C5 6120   1.479   2.939  16.591 -0.1544  0.4790 -0.1542
  410TMC3    C6 6121   1.520   3.038  16.676 -0.0328 -0.4233  0.5004
  410TMC3     C 6122   1.379   2.660  16.818  0.4038  1.0041  1.3353
  410TMC3     O 6123   1.383   2.654  16.940 -0.4655 -0.1232 -0.2348
  410TMC3     H 6124   1.422   2.878  16.963 -1.2142  0.0311 -0.3866
  410TMC3    H1 6125   1.371   2.752  16.565  1.0930 -0.7260 -0.7582
  410TMC3    H2 6126   1.572   3.129  16.648 -1.1131  0.8615  2.5957
  410TMC3    C7 6127   1.498   2.967  16.446 -0.0870 -0.5155 -0.3172
  410TMC3    C8 6128   1.597   3.070  16.899 -0.6689 -0.1690  0.2216
  410TMC3    O1 6129   1.503   2.867  16.370  0.7652 -0.7002 -0.6476
  410TMC3    O2 6130   1.621   3.190  16.885  0.2387 -0.0139 -0.1653
  411MPD2     C 6131   1.784   4.561  14.504 -0.5096 -0.4282  0.1116
  411MPD2    C1 6132   1.702   4.493  14.596 -0.1618 -0.9496 -0.4582
  411MPD2    C2 6133   1.674   4.365  14.557 -0.3731 -0.4030 -0.5493
  411MPD2    C3 6134   1.719   4.306  14.440  0.0991  0.3977 -0.1995
  411MPD2    C4 6135   1.801   4.375  14.358 -0.3988  0.5203  0.2787
  411MPD2    C5 6136   1.846   4.494  14.401  0.1109  0.0187  0.6245
  411MPD2     H 6137   1.605   4.311  14.620 -0.3241 -1.4354 -1.3757
  411MPD2    H1 6138   1.855   4.327  14.277 -0.9024  0.2323  0.1155
  411MPD2    H2 6139   1.818   4.660  14.529  0.5305 -0.4961 -1.0017
  411MPD2    H3 6140   1.922   4.529  14.333 -0.9466  2.2953  0.6267
  411MPD2     N 6141   1.691   4.175  14.400 -0.2605  0.3332 -0.3175
  411MPD2    H5 6142   1.727   4.148  14.309  2.9775 -1.0931  1.3980
  411MPD2    N1 6143   1.644   4.557  14.706  0.3800  0.0689 -0.3798
  411MPD2    H7 6144   1.654   4.658  14.716  1.4810 -0.2010  1.1382
  412TMC3    C1 6145   1.569   3.980  14.366  0.3803  0.9513  0.2511
  412TMC3    C2 6146   1.479   3.888  14.412  0.0251  1.1587  0.1129
  412TMC3    C3 6147   1.433   3.797  14.324  0.5639 -0.0922  0.1802
  412TMC3    C4 6148   1.595   3.993  14.230 -0.6512  0.6027  0.3114
  412TMC3    C5 6149   1.530   3.914  14.141  0.1273 -0.3417 -0.1034
  412TMC3    C6 6150   1.471   3.800  14.191 -0.8683  0.5525 -0.1924
  412TMC3     C 6151   1.609   4.083  14.458  0.5272 -0.3078  0.0540
  412TMC3     O 6152   1.554   4.087  14.565 -0.0393  0.0548 -0.3297
  412TMC3     H 6153   1.464   3.892  14.519  1.0479 -3.4600  0.4703
  412TMC3    H1 6154   1.663   4.067  14.188  0.0538 -2.3013 -3.6358
  412TMC3    H2 6155   1.417   3.738  14.121  1.5587  0.1843 -1.7503
  412TMC3    C7 6156   1.423   3.982  14.070 -0.2154  0.0592 -0.7573
  412TMC3    C8 6157   1.293   3.750  14.346  0.6029 -0.9821  0.6266
  412TMC3    O1 6158   1.350   3.918  13.992 -0.0290  0.1993  0.8675
  412TMC3    O2 6159   1.236   3.695  14.252 -0.1504  0.4681  0.0306
  413MPD2     C 6160   2.857   1.435  15.832 -0.0873 -0.2142 -0.2640
  413MPD2    C1 6161   2.783   1.404  15.726  0.0027  0.0058 -0.1908
  413MPD2    C2 6162   2.800   1.277  15.671  0.6187  0.2383  0.2361
  413MPD2    C3 6163   2.896   1.185  15.721 -0.4218  0.0241 -0.5257
  413MPD2    C4 6164   2.974   1.225  15.822 -0.2528  0.1311  0.8139
  413MPD2    C5 6165   2.949   1.349  15.882  0.1421 -0.4909  0.5053
  413MPD2     H 6166   2.744   1.241  15.586 -0.1666  2.3744 -0.1644
  413MPD2    H1 6167   3.053   1.164  15.866  1.0135  1.9759  1.0941
  413MPD2    H2 6168   2.847   1.531  15.881 -0.5105 -0.3273 -0.1277
  413MPD2    H3 6169   3.009   1.373  15.968 -1.9920  0.6101  1.7013
  413MPD2     N 6170   2.918   1.064  15.661 -0.0367  0.4530 -0.5155
  413MPD2    H5 6171   2.871   1.048  15.572  0.9554  0.7382 -1.0925
  413MPD2    N1 6172   2.685   1.497  15.680  0.1793 -0.0061  0.5241
  413MPD2    H7 6173   2.685   1.589  15.723  1.4326  0.4689 -0.4720
  414TMC3    C1 6174   3.017   0.859  15.610  0.2919  0.1779  0.2994
  414TMC3    C2 6175   3.152   0.848  15.585  0.4358 -0.2005 -0.7070
  414TMC3    C3 6176   3.193   0.839  15.453  0.6349 -0.6024  0.1363
  414TMC3    C4 6177   2.930   0.869  15.504 -0.7686  0.2184 -0.1651
  414TMC3    C5 6178   2.976   0.892  15.376  0.5609 -0.0604 -0.5973
  414TMC3    C6 6179   3.107   0.862  15.352  0.1920  0.6408 -0.4149
  414TMC3     C 6180   2.984   0.956  15.715 -0.0407  0.4614 -0.0999
  414TMC3     O 6181   3.047   0.944  15.821  0.4340 -0.3672 -0.6080
  414TMC3     H 6182   3.217   0.836  15.671 -0.8146  0.7750  0.3823
  414TMC3    H1 6183   2.825   0.888  15.522 -0.4267  1.5071  0.4800
  414TMC3    H2 6184   3.144   0.859  15.251  0.2579  1.6489 -0.4139
  414TMC3    C7 6185   2.953   1.033  15.343  0.5017 -0.0773 -0.2151
  414TMC3    C8 6186   3.335   0.866  15.420  0.4662 -0.4450  0.7717
  414TMC3    O1 6187   2.858   1.093  15.391 -0.2022 -0.4058 -0.6080
  414TMC3    O2 6188   3.380   0.839  15.310  0.1814  0.2808 -0.3539
  415TMC3    C1 6189   4.168   0.336  10.110 -0.0252 -0.0394 -0.2865
  415TMC3    C2 6190   4.290   0.364  10.054 -0.4166 -0.3910  0.2380
  415TMC3    C3 6191   4.291   0.477   9.973  0.1236  0.5330  0.2531
  415TMC3    C4 6192   4.053   0.398  10.067 -0.5632 -0.4320 -0.0686
  415TMC3    C5 6193   4.064   0.501   9.972 -0.5401 -0.2220 -0.2671
  415TMC3    C6 6194   4.183   0.550   9.931 -0.4187 -0.4243 -0.0422
  415TMC3     C 6195   4.161   0.257  10.231 -0.1314 -0.6998 -0.1702
  415TMC3     O 6196   4.047   0.255  10.270  0.4527  0.4063  0.1104
  415TMC3     H 6197   4.380   0.316  10.094  1.2366  0.5734 -2.3648
  415TMC3    H1 6198   3.951   0.386  10.103  0.0281 -1.0367  1.4147
  415TMC3    H2 6199   4.196   0.624   9.853  0.2243 -1.4293 -0.8725
  415TMC3    C7 6200   3.953   0.588   9.933 -0.0275 -0.0364 -0.2804
  415TMC3    C8 6201   4.416   0.507   9.916  0.5951  0.3696 -0.6193
  415TMC3    O1 6202   3.986   0.690   9.877 -0.3837 -0.1339 -0.0777
  415TMC3    O2 6203   4.433   0.624   9.890 -0.8946  0.5846  0.1676
  416MPD2     C 6204   0.988   4.125  11.219  0.5651 -0.3033 -0.2211
  416MPD2    C1 6205   0.938   4.019  11.283  0.2670 -1.0112 -0.0302
  416MPD2    C2 6206   0.966   3.891  11.235 -0.4488 -0.1520  0.8592
  416MPD2    C3 6207   1.061   3.870  11.131  0.3395 -0.3559  0.0677
  416MPD2    C4 6208   1.104   3.988  11.068  0.5015  0.5824 -0.0295
  416MPD2    C5 6209   1.071   4.112  11.111  0.0294  0.0325 -0.0255
  416MPD2     H 6210   0.912   3.807  11.277 -0.2901  0.3960  2.1456
  416MPD2    H1 6211   1.186   3.974  10.998  0.2166 -1.0102 -0.0463
  416MPD2    H2 6212   0.964   4.227  11.248 -0.0666 -0.8773  1.2288
  416MPD2    H3 6213   1.106   4.203  11.065  0.4014 -0.8538 -1.5038
  416MPD2     N 6214   1.111   3.740  11.095  0.3911  0.1024  0.4687
  416MPD2    H5 6215   1.186   3.731  11.028  0.8818  0.5660  0.9545
  416MPD2    N1 6216   0.839   4.037  11.387  0.2842  0.4233  0.2636
  416MPD2    H7 6217   0.809   4.132  11.405 -1.8793 -0.0096 -1.0683
  417TMC3    C1 6218   0.657   3.994  11.536  0.2825 -0.2866 -1.0149
  417TMC3    C2 6219   0.622   3.926  11.647  0.2077 -0.5071  0.2742
  417TMC3    C3 6220   0.524   3.976  11.727 -0.8769  0.1416 -0.2735
  417TMC3    C4 6221   0.584   4.100  11.489  0.2148  0.2778  0.1465
  417TMC3    C5 6222   0.491   4.154  11.573  0.4694 -0.2105 -0.3125
  417TMC3    C6 6223   0.450   4.085  11.687 -0.6293  0.1301 -0.1465
  417TMC3     C 6224   0.760   3.940  11.443 -0.1025 -0.9583  0.0628
  417TMC3     O 6225   0.779   3.822  11.450  0.2889 -0.1194 -0.1012
  417TMC3     H 6226   0.688   3.844  11.671  1.3474  0.3388  0.0415
  417TMC3    H1 6227   0.605   4.139  11.390  0.9168  0.5655  0.4059
  417TMC3    H2 6228   0.372   4.126  11.750  1.2194  1.2224  1.4402
  417TMC3    C7 6229   0.380   4.194  11.494  0.0967 -0.3408  0.2421
  417TMC3    C8 6230   0.515   3.951  11.864  0.3001 -0.0055  0.1897
  417TMC3    O1 6231   0.350   4.306  11.467 -1.1482 -0.1972  0.0463
  417TMC3    O2 6232   0.525   4.050  11.935  0.2414  0.3482  0.4361
  418TMC3    C1 6233   4.615   0.257   0.494  0.0239 -0.5362  0.4876
  418TMC3    C2 6234   4.537   0.366   0.487 -0.1667  0.1296  0.0225
  418TMC3    C3 6235   4.449   0.392   0.591 -0.3953  0.5809  0.2852
  418TMC3    C4 6236   4.613   0.173   0.601  0.6132  0.3766 -0.1230
  418TMC3    C5 6237   4.516   0.195   0.695  0.6716 -0.3328 -0.3652
  418TMC3    C6 6238   4.438   0.307   0.704 -0.4276  0.8225 -0.1326
  418TMC3     C 6239   4.687   0.240   0.375  0.4726 -0.3339 -0.3391
  418TMC3     O 6240   0.019   0.342   0.329  0.1870 -0.1290 -0.4997
  418TMC3     H 6241   4.519   0.408   0.389 -0.2476  0.6779  0.2720
  418TMC3    H1 6242   4.676   0.085   0.607  1.4191  1.0872  1.6359
  418TMC3    H2 6243   4.353   0.323   0.769 -0.4377  0.6118 -0.0965
  418TMC3    C7 6244   4.491   0.089   0.796 -0.1186  0.9770 -1.0185
  418TMC3    C8 6245   4.321   0.433   0.549  0.1314  0.6862 -0.5160
  418TMC3    O1 6246   4.512   4.697   0.754  0.0313  0.5130 -0.3038
  418TMC3    O2 6247   4.294   0.549   0.546  0.4174  0.2661  0.1902
  419MPD2     C 6248   3.224   3.419  12.532 -0.5520 -0.3350 -0.7233
  419MPD2    C1 6249   3.126   3.514  12.527  0.0965  0.4510 -0.1350
  419MPD2    C2 6250   3.055   3.560  12.636 -0.0564 -0.5776 -0.4873
  419MPD2    C3 6251   3.078   3.498  12.758 -0.4285  0.1628 -0.3524
  419MPD2    C4 6252   3.174   3.394  12.761 -0.2403 -0.1286  0.1312
  419MPD2    C5 6253   3.244   3.360  12.650 -0.2394 -0.1942 -0.2083
  419MPD2     H 6254   2.987   3.644  12.639  0.4300 -0.2537  1.4602
  419MPD2    H1 6255   3.193   3.337  12.851  1.8922  1.2026  0.5176
  419MPD2    H2 6256   3.261   3.372  12.442  0.6576 -2.9438  1.1019
  419MPD2    H3 6257   3.304   3.270  12.647  1.0358  0.6635 -0.5453
  419MPD2     N 6258   2.994   3.534  12.868  0.4215 -0.0663 -0.0578
  419MPD2    H5 6259   2.935   3.617  12.858 -0.7018 -1.0412 -1.5666
  419MPD2    N1 6260   3.096   3.578  12.410  0.2541 -0.2274  0.3144
  419MPD2    H7 6261   3.019   3.645  12.419  0.7939  0.4198  0.0889
  420TMC3    C1 6262   2.920   3.542  13.094  0.8056  0.0469 -0.1487
  420TMC3    C2 6263   2.819   3.627  13.059 -0.2480 -0.0851 -0.2001
  420TMC3    C3 6264   2.749   3.685  13.162  0.0777  0.0814 -0.3758
  420TMC3    C4 6265   2.947   3.518  13.227 -0.9318 -0.4129 -0.9571
  420TMC3    C5 6266   2.870   3.584  13.327  0.0357  0.4158  0.4631
  420TMC3    C6 6267   2.757   3.658  13.296  0.5169  0.3006 -0.2625
  420TMC3     C 6268   3.000   3.471  12.995 -0.3915  0.4087  0.3050
  420TMC3     O 6269   3.074   3.380  13.038  0.1031  0.3397  0.2867
  420TMC3     H 6270   2.806   3.652  12.954 -1.3682 -1.6691 -0.4538
  420TMC3    H1 6271   3.023   3.444  13.250  0.6465  2.7117  3.9557
  420TMC3    H2 6272   2.696   3.716  13.365  0.1226 -0.3514 -0.0656
  420TMC3    C7 6273   2.897   3.555  13.469  0.3485 -0.8473 -0.1236
  420TMC3    C8 6274   2.630   3.759  13.122 -0.0297  0.6733  0.1658
  420TMC3    O1 6275   2.807   3.579  13.551  0.0242  0.3022 -0.4930
  420TMC3    O2 6276   2.624   3.800  13.008  0.0849  0.0646 -0.2578
  421TMC3    C1 6277   4.218   0.722  14.056  0.1143 -0.7229 -0.1199
  421TMC3    C2 6278   4.242   0.856  14.076  0.0730 -0.6424  0.0093
  421TMC3    C3 6279   4.366   0.887  14.122  0.8432 -0.1113 -0.6250
  421TMC3    C4 6280   4.312   0.624  14.064 -0.0919  0.3553 -0.0444
  421TMC3    C5 6281   4.433   0.661  14.111 -0.3364 -0.0468 -0.8800
  421TMC3    C6 6282   4.463   0.790  14.136 -0.2881  0.2639  0.0517
  421TMC3     C 6283   4.075   0.694  14.041 -0.2969 -0.9099  0.4010
  421TMC3     O 6284   4.003   0.783  13.997 -0.2191 -0.0240 -0.4610
  421TMC3     H 6285   4.166   0.930  14.058 -2.5910 -2.9311  1.8529
  421TMC3    H1 6286   4.291   0.524  14.028 -0.6289  0.0308  1.1456
  421TMC3    H2 6287   4.559   0.822  14.176 -1.4092  1.9113  1.4300
  421TMC3    C7 6288   4.534   0.556  14.132 -0.1330 -0.3801  0.2991
  421TMC3    C8 6289   4.400   1.017  14.182 -0.5264  0.1191  0.3060
  421TMC3    O1 6290   4.646   0.602  14.140  0.2021 -0.3952 -0.2155
  421TMC3    O2 6291   4.521   1.039  14.198 -0.5313 -0.3388  0.3868
  422TMC3    C1 6292   1.634   1.813  12.648  1.2563 -0.5718 -0.4248
  422TMC3    C2 6293   1.593   1.937  12.673  0.2223  0.3707 -0.5258
  422TMC3    C3 6294   1.494   1.961  12.769 -0.4725 -0.2592 -0.2293
  422TMC3    C4 6295   1.556   1.706  12.684 -0.5258 -0.5461  0.9374
  422TMC3    C5 6296   1.447   1.732  12.770 -0.4852 -0.3293  0.3278
  422TMC3    C6 6297   1.429   1.863  12.827 -0.1103 -0.5714  0.4613
  422TMC3     C 6298   1.718   1.804  12.528 -0.0785  0.4151 -0.1330
  422TMC3     O 6299   1.732   1.908  12.461  0.4022  0.7335  0.2399
  422TMC3     H 6300   1.638   2.022  12.623  0.7156  0.0534 -0.6199
  422TMC3    H1 6301   1.585   1.606  12.654 -2.3131 -1.3513  1.8861
  422TMC3    H2 6302   1.369   1.897  12.910 -1.8447 -1.0343 -0.6232
  422TMC3    C7 6303   1.358   1.621  12.812 -0.1056 -0.7039  0.5057
  422TMC3    C8 6304   1.452   2.103  12.781 -0.1038  1.0951 -0.0396
  422TMC3    O1 6305   1.398   1.516  12.765 -0.5465 -0.0869 -0.4791
  422TMC3    O2 6306   1.449   2.159  12.892 -0.3723 -0.0134  0.0699
  423MPD2     C 6307   3.662   2.352   0.921  0.5134  0.2040 -0.3215
  423MPD2    C1 6308   3.579   2.246   0.928  0.1206 -0.4001 -0.4989
  423MPD2    C2 6309   3.516   2.190   0.821  0.3611 -0.1462  0.1511
  423MPD2    C3 6310   3.547   2.244   0.695 -0.3475  0.8468  0.2484
  423MPD2    C4 6311   3.638   2.351   0.689  0.3463 -0.9163  0.0586
  423MPD2    C5 6312   3.693   2.399   0.802 -0.1814 -0.0111  0.2150
  423MPD2     H 6313   3.444   2.111   0.840 -0.5176 -0.0619 -2.8073
  423MPD2    H1 6314   3.667   2.393   0.593 -0.1984  1.6068  0.9959
  423MPD2    H2 6315   3.701   2.402   1.009  0.2387  0.7226 -0.4916
  423MPD2    H3 6316   3.754   2.488   0.798  0.7325 -0.5604  1.7510
  423MPD2     N 6317   3.490   2.189   0.577  0.3511  0.5421  0.3106
  423MPD2    H5 6318   3.522   2.235   0.493  1.3596  0.6731  0.7557
  423MPD2    N1 6319   3.541   2.180   1.052 -0.2896 -0.4978  0.2650
  423MPD2    H7 6320   3.483   2.099   1.036 -0.1238 -0.8288  1.3965
  424TMC3    C1 6321   3.550   2.125   1.286  0.6483  1.0005 -0.6119
  424TMC3    C2 6322   3.642   2.077   1.376 -0.8739 -0.1868  0.1530
  424TMC3    C3 6323   3.596   1.977   1.459 -0.4647 -0.9049  0.6288
  424TMC3    C4 6324   3.422   2.075   1.287 -0.4780  0.1491  0.0376
  424TMC3    C5 6325   3.387   1.977   1.368 -0.4850 -0.1608  0.3269
  424TMC3    C6 6326   3.471   1.928   1.464  0.3846 -0.3142  0.4778
  424TMC3     C 6327   3.597   2.208   1.172 -0.0714 -0.1462  0.6465
  424TMC3     O 6328   3.700   2.272   1.200  0.5130 -0.8354 -0.1021
  424TMC3     H 6329   3.746   2.108   1.371 -1.6441  2.5845  1.3098
  424TMC3    H1 6330   3.363   2.092   1.197 -0.9452  2.0190  0.7142
  424TMC3    H2 6331   3.443   1.849   1.532 -1.3807 -0.0776  0.0379
  424TMC3    C7 6332   3.248   1.953   1.381  0.0397  0.3899 -0.2558
  424TMC3    C8 6333   3.688   1.936   1.567 -0.0756  0.4383  0.5701
  424TMC3    O1 6334   3.209   1.839   1.393  0.2092 -0.2175 -0.1440
  424TMC3    O2 6335   3.659   1.828   1.622  0.7208  0.4310 -0.4602
  425MPD2     C 6336   1.844   1.849  17.677 -0.6776 -0.4889  0.0431
  425MPD2    C1 6337   1.836   1.747  17.584  0.6087 -0.0794 -0.1567
  425MPD2    C2 6338   1.714   1.722  17.525  0.5008 -0.1864 -1.3104
  425MPD2    C3 6339   1.603   1.807  17.548 -0.3044  0.2829  0.4220
  425MPD2    C4 6340   1.619   1.912  17.647  0.6031 -0.3079 -0.1325
  425MPD2    C5 6341   1.738   1.933   0.028  0.3043  0.1498  0.2202
  425MPD2     H 6342   1.692   1.636  17.462  0.2785 -1.1153  0.0247
  425MPD2    H1 6343   1.527   1.968  17.662  0.0500 -0.8836 -1.3738
  425MPD2    H2 6344   1.943   1.866   0.038  0.1098 -2.1407 -1.1629
  425MPD2    H3 6345   1.763   2.011   0.099  0.8057  0.6375 -0.5012
  425MPD2     N 6346   1.494   1.775  17.462  0.0678  0.2310 -0.5264
  425MPD2    H5 6347   1.509   1.705  17.390  0.6257  0.7658 -0.9334
  425MPD2    N1 6348   1.945   1.659  17.564 -0.3486  0.0162 -0.5701
  425MPD2    H7 6349   2.010   1.658  17.642 -0.7226  1.6292 -0.2274
  426TMC3    C1 6350   2.046   1.472  17.453 -0.5765 -0.2864  0.0630
  426TMC3    C2 6351   2.057   1.394  17.343 -0.1376 -0.3336 -0.5962
  426TMC3    C3 6352   2.089   1.263  17.373  0.1690  0.0429  0.5755
  426TMC3    C4 6353   2.082   1.429  17.578  0.0875  0.1105  0.5130
  426TMC3    C5 6354   2.119   1.299  17.599 -0.2763  0.2609  1.1192
  426TMC3    C6 6355   2.125   1.213  17.496  0.5597 -0.2162  0.6847
  426TMC3     C 6356   1.953   1.579  17.451 -0.0136  0.2067 -0.5103
  426TMC3     O 6357   1.896   1.592  17.345 -0.4097  0.1232  0.7698
  426TMC3     H 6358   2.035   1.424  17.241 -0.8845 -1.0206 -0.6375
  426TMC3    H1 6359   2.080   1.490  17.667  3.7314 -0.0823  0.7513
  426TMC3    H2 6360   2.150   1.108  17.507  1.9448 -0.1590 -1.8450
  426TMC3    C7 6361   2.145   1.247   0.049  0.6166  1.0273  0.5418
  426TMC3    C8 6362   2.075   1.157  17.271 -0.2129  0.3699 -0.2193
  426TMC3    O1 6363   2.209   1.140   0.055  0.8076  0.0778  0.3820
  426TMC3    O2 6364   2.166   1.078  17.271 -0.4935  0.0445  0.0800
  427MPD2     C 6365   0.596   4.398  14.963 -0.0212  0.2089  0.1598
  427MPD2    C1 6366   0.561   4.285  15.035 -0.5078 -0.6473  0.4471
  427MPD2    C2 6367   0.425   4.272  15.071  0.1932  0.2178 -0.1026
  427MPD2    C3 6368   0.334   4.373  15.036  0.0494  0.1170 -0.0092
  427MPD2    C4 6369   0.370   4.487  14.963 -0.6698  0.1026 -0.0680
  427MPD2    C5 6370   0.504   4.491  14.929 -0.0978  0.0551 -0.2745
  427MPD2     H 6371   0.391   4.179  15.116  2.0863  0.4996  1.9008
  427MPD2    H1 6372   0.304   4.567  14.931  3.0352  3.9922  1.9921
  427MPD2    H2 6373   0.693   4.422  14.922  0.1861 -1.2384 -0.1667
  427MPD2    H3 6374   0.552   4.568  14.870  0.4754  0.7309  1.0757
  427MPD2     N 6375   0.200   4.362  15.073 -0.1586 -0.3928 -0.3349
  427MPD2    H5 6376   0.142   4.443  15.057 -0.1332 -0.3596 -0.2591
  427MPD2    N1 6377   0.655   4.183  15.075  0.0618  0.1709  0.5040
  427MPD2    H7 6378   0.630   4.104  15.134  1.4899 -0.3469  0.4252
  428TMC3    C1 6379   0.861   4.072  15.119  0.0637 -0.4114  0.6953
  428TMC3    C2 6380   0.792   3.955  15.116  0.0864 -0.3727 -0.1171
  428TMC3    C3 6381   0.870   3.843  15.126 -0.5416  0.8598 -0.4971
  428TMC3    C4 6382   0.999   4.080  15.131  0.0644  0.3455  0.4383
  428TMC3    C5 6383   1.065   3.964  15.161  0.0352 -0.7928 -0.1558
  428TMC3    C6 6384   1.002   3.845  15.155 -0.3379  0.1659 -0.6392
  428TMC3     C 6385   0.793   4.190  15.062 -0.0904 -0.1426 -0.0764
  428TMC3     O 6386   0.865   4.273  15.010  0.5861  0.0114 -0.5623
  428TMC3     H 6387   0.684   3.954  15.099 -0.2211  1.1146  1.7745
  428TMC3    H1 6388   1.046   4.178  15.123  0.6838 -0.0743 -1.0251
  428TMC3    H2 6389   1.067   3.759  15.171 -1.0175  0.1746  2.1998
  428TMC3    C7 6390   1.195   3.969  15.216 -0.7363  0.7046 -0.1179
  428TMC3    C8 6391   0.796   3.717  15.142  0.3778  1.6713 -0.4306
  428TMC3    O1 6392   1.229   3.873  15.288  0.0438 -0.1230 -0.1848
  428TMC3    O2 6393   0.844   3.649  15.232 -0.3393 -0.0736 -0.4894
  429MPD2     C 6394   1.621   3.658  17.398  0.0642  0.5475  0.0007
  429MPD2    C1 6395   1.595   3.631  17.265  0.6098 -0.1357 -0.1303
  429MPD2    C2 6396   1.605   3.728  17.170 -0.1289 -0.2890 -0.2994
  429MPD2    C3 6397   1.658   3.854  17.204  0.9477  0.8014  0.5366
  429MPD2    C4 6398   1.689   3.876  17.340  0.5362  0.0787 -0.2922
  429MPD2    C5 6399   1.669   3.781  17.435 -0.0693 -0.1999 -0.2011
  429MPD2     H 6400   1.567   3.720  17.069 -0.5809  2.4722 -0.3522
  429MPD2    H1 6401   1.720   3.971  17.382  0.7374 -0.5221  0.9302
  429MPD2    H2 6402   1.610   3.584  17.476  1.2190 -0.8073 -1.1015
  429MPD2    H3 6403   1.693   3.802  17.538 -1.9936  1.1177 -0.0279
  429MPD2     N 6404   1.676   3.959  17.108  0.0521 -0.0871 -0.2252
  429MPD2    H5 6405   1.650   3.931  17.014 -3.1043 -1.5294  1.0887
  429MPD2    N1 6406   1.532   3.508  17.226 -1.4752 -0.1398  0.8724
  429MPD2    H7 6407   1.503   3.502  17.129 -1.0834  4.8883  0.4311
  430TMC3    C1 6408   1.764   4.144  17.007  0.1939  0.7554 -0.1336
  430TMC3    C2 6409   1.678   4.144  16.903 -0.1583  0.1784 -0.1314
  430TMC3    C3 6410   1.702   4.223  16.790  0.2811 -0.3454  0.0825
  430TMC3    C4 6411   1.878   4.219  16.996  0.4908  0.6569 -0.1213
  430TMC3    C5 6412   1.902   4.287  16.885  0.3760  0.3048 -0.5214
  430TMC3    C6 6413   1.817   4.297  16.778 -0.5747 -0.2295 -0.4708
  430TMC3     C 6414   1.735   4.081  17.132 -0.5982  0.5056  0.0040
  430TMC3     O 6415   1.779   4.119  17.240 -0.1370 -0.5951  0.2590
  430TMC3     H 6416   1.589   4.083  16.907  0.1203 -0.3708 -2.0471
  430TMC3    H1 6417   1.953   4.204  17.073 -0.3106  1.5072  0.8281
  430TMC3    H2 6418   1.839   4.363  16.696 -1.6444  1.5454  0.6731
  430TMC3    C7 6419   2.038   4.343  16.877  0.6786 -0.2014  0.0544
  430TMC3    C8 6420   1.625   4.200  16.671  0.0785 -0.2923  0.0531
  430TMC3    O1 6421   2.084   4.355  16.761 -0.1332  0.4598 -0.5031
  430TMC3    O2 6422   1.554   4.101  16.657  0.3874 -0.0559  0.2958
  431MPD2     C 6423   3.184   4.276  12.742  0.3198  0.1222 -0.7960
  431MPD2    C1 6424   3.285   4.228  12.664 -0.3629 -0.0814  0.6789
  431MPD2    C2 6425   3.261   4.174  12.544  0.2396 -0.4086  0.3908
  431MPD2    C3 6426   3.129   4.129  12.515 -0.3830 -0.2866 -0.2907
  431MPD2    C4 6427   3.021   4.165  12.601 -0.1005  0.0306 -0.0298
  431MPD2    C5 6428   3.053   4.239  12.712  0.0151 -0.0242  0.5126
  431MPD2     H 6429   3.348   4.144  12.487  1.7548 -0.6347  2.7783
  431MPD2    H1 6430   2.915   4.146  12.589 -0.1720 -0.5852  1.5246
  431MPD2    H2 6431   3.204   4.335  12.831 -0.6987 -1.9416  0.7729
  431MPD2    H3 6432   2.970   4.265  12.777 -0.3159  1.1258 -0.3663
  431MPD2     N 6433   3.097   4.048  12.403  0.3648  0.0599  0.5036
  431MPD2    H5 6434   3.000   4.021  12.396  0.3500 -0.5205  2.9576
  431MPD2    N1 6435   3.426   4.235  12.699 -0.0244 -0.5559 -0.4026
  431MPD2    H7 6436   3.489   4.199  12.628 -1.8597 -0.7402 -1.9531
  432TMC3    C1 6437   3.126   3.922  12.205  0.0210  0.9381 -0.4860
  432TMC3    C2 6438   3.179   3.923  12.087  0.1728  0.1275 -0.2182
  432TMC3    C3 6439   3.191   3.807  12.022 -0.2896  0.1471 -0.7637
  432TMC3    C4 6440   3.100   3.801  12.267 -0.4121 -0.3110 -0.5461
  432TMC3    C5 6441   3.127   3.680  12.206  0.5370 -0.0032 -0.8182
  432TMC3    C6 6442   3.175   3.682  12.081  0.4852  0.0543 -0.3999
  432TMC3     C 6443   3.170   4.033  12.287 -0.3102 -0.2900  0.2297
  432TMC3     O 6444   3.277   4.087  12.254  0.7830 -0.1337  0.2754
  432TMC3     H 6445   3.175   4.015  12.029 -0.4837  1.5111  2.0470
  432TMC3    H1 6446   3.090   3.805  12.375  0.4845 -2.5214 -0.3788
  432TMC3    H2 6447   3.213   3.591  12.036 -1.4424 -0.8150 -0.2652
  432TMC3    C7 6448   3.171   3.571  12.290  0.6304  0.3264  0.0762
  432TMC3    C8 6449   3.253   3.810  11.889  0.0089 -0.0353 -0.7417
  432TMC3    O1 6450   3.271   3.507  12.261  0.4095  0.1901  0.1319
  432TMC3    O2 6451   3.233   3.717  11.816  0.0435  0.0540 -0.4511
  433MPD2     C 6452   2.106   3.477  11.117 -0.2735  0.5527  0.4287
  433MPD2    C1 6453   1.993   3.429  11.053 -0.8408  0.1574  0.1962
  433MPD2    C2 6454   1.869   3.454  11.109 -0.1676 -0.1469  0.1585
  433MPD2    C3 6455   1.864   3.526  11.230  0.0455  0.8573  0.7665
  433MPD2    C4 6456   1.976   3.588  11.273  1.1495 -0.9791  0.4073
  433MPD2    C5 6457   2.098   3.568  11.214 -0.5102 -0.8921  0.3553
  433MPD2     H 6458   1.780   3.409  11.066  0.5767 -2.4040  1.0088
  433MPD2    H1 6459   1.981   3.646  11.364 -1.7529 -0.3666  0.1823
  433MPD2    H2 6460   2.207   3.459  11.081 -0.3538 -0.8650  0.9280
  433MPD2    H3 6461   2.191   3.608  11.254  2.1252 -5.0637 -1.5780
  433MPD2     N 6462   1.743   3.525  11.316  0.8725 -0.3818  0.4875
  433MPD2    H5 6463   1.666   3.462  11.295 -0.7667  1.2797  1.4890
  433MPD2    N1 6464   2.015   3.342  10.933  0.5120  0.0181 -0.1076
  433MPD2    H7 6465   2.112   3.319  10.914  0.4548 -0.1225 -0.2339
  434TMC3    C1 6466   1.949   3.190  10.772 -0.2118  0.0621 -1.2626
  434TMC3    C2 6467   2.010   3.094  10.834 -0.3759  0.1953 -0.3301
  434TMC3    C3 6468   2.068   2.996  10.763 -0.0758 -0.0942 -0.4022
  434TMC3    C4 6469   1.935   3.199  10.634 -0.2178  0.7512  0.0802
  434TMC3    C5 6470   1.990   3.095  10.564  0.4814 -0.7148  0.3798
  434TMC3    C6 6471   2.069   3.006  10.623 -1.1495 -0.4229 -0.0121
  434TMC3     C 6472   1.913   3.308  10.848 -0.0845  0.2405  0.6579
  434TMC3     O 6473   1.805   3.360  10.837  0.3312 -0.3291  0.6740
  434TMC3     H 6474   2.011   3.091  10.942 -0.5370 -1.8440 -0.3830
  434TMC3    H1 6475   1.872   3.271  10.584  0.6413  0.5684 -1.2795
  434TMC3    H2 6476   2.106   2.927  10.558  1.5375  1.5800 -0.8844
  434TMC3    C7 6477   1.918   3.063  10.447 -0.2114 -0.7333  0.0948
  434TMC3    C8 6478   2.082   2.869  10.824 -0.4243  0.4440  0.2953
  434TMC3    O1 6479   1.897   3.163  10.380 -0.1044 -0.2225 -0.3349
  434TMC3    O2 6480   2.000   2.831  10.907 -0.6381 -0.2383  0.7907
  435MPD2     C 6481   3.118   2.299  15.868 -0.1314 -0.1914 -0.2683
  435MPD2    C1 6482   3.159   2.351  15.984  1.1093 -0.0388 -0.6842
  435MPD2    C2 6483   3.288   2.336  16.026 -0.0069  0.0528  0.1629
  435MPD2    C3 6484   3.371   2.255  15.953 -0.0496  0.4885  0.3065
  435MPD2    C4 6485   3.326   2.215  15.829  0.7041  0.1577  0.1790
  435MPD2    C5 6486   3.204   2.242  15.780 -0.7361 -0.4290 -0.6406
  435MPD2     H 6487   3.328   2.379  16.117  0.6959 -0.5343  0.1311
  435MPD2    H1 6488   3.394   2.155  15.769  1.9111 -0.6198  2.2990
  435MPD2    H2 6489   3.015   2.296  15.835 -0.9296  0.2830  2.2086
  435MPD2    H3 6490   3.171   2.216  15.680  0.1388 -1.0283 -0.7767
  435MPD2     N 6491   3.497   2.230  16.013 -0.4021  0.3218 -0.2599
  435MPD2    H5 6492   3.507   2.271  16.105  3.0912 -0.7287 -0.1587
  435MPD2    N1 6493   3.067   2.416  16.066 -0.0419  0.2603 -0.6078
  435MPD2    H7 6494   3.111   2.453  16.149 -2.8372  1.7709  0.2237
  436TMC3    C1 6495   2.899   2.709  16.296  0.6758 -0.2618  0.2784
  436TMC3    C2 6496   2.967   2.614  16.220  0.2531  0.8821 -0.0329
  436TMC3    C3 6497   2.884   2.541  16.135  0.2009 -0.2102  0.7314
  436TMC3    C4 6498   2.771   2.756  16.282 -0.5053  0.1700  0.5209
  436TMC3    C5 6499   2.699   2.684  16.193  0.0838 -0.0085  0.6242
  436TMC3    C6 6500   2.744   2.577  16.122  0.6943 -0.5253 -0.2885
  436TMC3     C 6501   2.977   2.767  16.400  0.1490 -0.5256  0.0793
  436TMC3     O 6502   3.077   2.707  16.440 -0.2883  0.5478  0.1558
  436TMC3     H 6503   3.074   2.600  16.227  0.5163  1.7936 -1.9492
  436TMC3    H1 6504   2.729   2.841  16.335  1.0976 -0.2292  2.4103
  436TMC3    H2 6505   2.684   2.533  16.043 -2.3497  0.0878  1.6710
  436TMC3    C7 6506   2.572   2.745  16.152 -0.3186 -0.3270  0.1765
  436TMC3    C8 6507   2.937   2.459  16.036  0.0237 -0.1511 -0.2362
  436TMC3    O1 6508   2.571   2.871  16.140  0.0513 -0.3130  0.1819
  436TMC3    O2 6509   2.866   2.424  15.943  0.2902  0.5693  0.1619
  437TMC3    C1 6510   2.910   0.204  12.224  0.7436 -0.0122  0.6612
  437TMC3    C2 6511   2.789   0.251  12.183  0.5481 -0.3004 -0.6217
  437TMC3    C3 6512   2.781   0.385  12.146  0.7838  0.8285 -0.6274
  437TMC3    C4 6513   3.021   0.286  12.223  0.4978 -0.2349 -0.0764
  437TMC3    C5 6514   3.001   0.417  12.185  0.2218 -0.2988 -0.2767
  437TMC3    C6 6515   2.886   0.470  12.142  0.3287  0.0653 -0.2570
  437TMC3     C 6516   2.930   0.072  12.287 -0.7014  0.1486  0.8376
  437TMC3     O 6517   3.043   0.022  12.274 -0.1252  0.7235  0.3220
  437TMC3     H 6518   2.702   0.188  12.190 -0.4548  1.1531 -0.0470
  437TMC3    H1 6519   3.114   0.250  12.265  1.3128 -0.0282 -1.7304
  437TMC3    H2 6520   2.882   0.576  12.118 -1.5055 -0.1558 -0.8900
  437TMC3    C7 6521   3.101   0.519  12.202 -0.6847 -0.5148 -0.2541
  437TMC3    C8 6522   2.647   0.438  12.156  0.5958  0.0439  0.0520
  437TMC3    O1 6523   3.113   0.611  12.120  0.3188  0.7878  0.3714
  437TMC3    O2 6524   2.575   0.369  12.224 -0.3922 -0.1901 -0.0094
  438MPD2     C 6525   4.709   4.515  16.849  0.1260 -0.4034  0.3288
  438MPD2    C1 6526   4.706   4.624  16.933  0.3150 -0.7821 -0.3959
  438MPD2    C2 6527   4.703   4.602  17.070 -0.4970  0.4515  0.2870
  438MPD2    C3 6528   4.706   4.471  17.122 -0.8095  0.2637 -0.1112
  438MPD2    C4 6529   0.005   4.368  17.038  0.1150  0.4351 -0.1164
  438MPD2    C5 6530   0.007   4.397  16.911  0.1330 -0.1357  0.1935
  438MPD2     H 6531   4.689   4.690  17.131 -1.8248  0.0792  0.5225
  438MPD2    H1 6532   0.000   4.267  17.075  1.0547  0.3399 -0.2455
  438MPD2    H2 6533   4.707   4.514  16.740  0.8007 -1.5103  0.3306
  438MPD2    H3 6534   0.004   4.308  16.850  1.0021 -0.8369  1.1840
  438MPD2     N 6535   4.704   4.442  17.266 -0.0346 -0.0898 -0.7415
  438MPD2    H5 6536   0.016   4.351  17.299 -0.5914  0.7502  2.0640
  438MPD2    N1 6537   4.713   0.039  16.891  0.3840 -0.0749  0.2849
  438MPD2    H7 6538   0.021   0.107  16.962  0.3952  0.6588 -0.4134
  439TMC3    C1 6539   0.034   0.209  16.735 -0.6619  0.4926 -0.6835
  439TMC3    C2 6540   4.676   0.302  16.673 -0.4650 -0.1767  0.3814
  439TMC3    C3 6541   4.702   0.439  16.698 -0.3131  0.4073  0.0292
  439TMC3    C4 6542   0.140   0.257  16.811 -0.3194 -0.8258  0.2087
  439TMC3    C5 6543   0.165   0.393  16.836  0.3341  0.4604  0.1483
  439TMC3    C6 6544   0.084   0.486  16.778  0.4756 -0.2786 -0.1548
  439TMC3     C 6545   4.703   0.071  16.757  0.0552  0.2980  0.0163
  439TMC3     O 6546   4.674   0.008  16.655 -0.2279 -0.1314  0.5699
  439TMC3     H 6547   4.593   0.272  16.610  0.6435 -1.5709 -0.4089
  439TMC3    H1 6548   0.201   0.180  16.856  1.7365  0.3399 -0.6253
  439TMC3    H2 6549   0.099   0.594  16.781  0.7451 -0.3504  1.2641
  439TMC3    C7 6550   0.257   0.433  16.945 -0.0894 -0.5909  0.2920
  439TMC3    C8 6551   4.608   0.545  16.658  0.1550 -0.1920  0.5520
  439TMC3    O1 6552   0.335   0.347  16.982 -0.0446 -0.4225 -0.0660
  439TMC3    O2 6553   4.576   0.613  16.755 -0.0908 -0.1568 -0.0482
  440MPD2     C 6554   3.753   1.287  14.719  0.2940 -0.1101 -0.1171
  440MPD2    C1 6555   3.681   1.235  14.825 -0.3137  0.4236  0.0937
  440MPD2    C2 6556   3.741   1.135  14.898 -0.4033  0.6433  0.1952
  440MPD2    C3 6557   3.872   1.095  14.871  0.5365 -0.0394  0.1399
  440MPD2    C4 6558   3.939   1.146  14.762 -0.5149 -0.1178  0.1744
  440MPD2    C5 6559   3.880   1.245  14.687 -0.0347  0.4951 -0.4150
  440MPD2     H 6560   3.683   1.085  14.975 -0.2751 -0.6576 -0.5509
  440MPD2    H1 6561   4.043   1.122  14.745 -0.2158  0.8568  0.5983
  440MPD2    H2 6562   3.716   1.364  14.653 -1.1339  0.6697  1.6168
  440MPD2    H3 6563   3.929   1.295  14.604 -1.5510  0.6665 -1.2219
  440MPD2     N 6564   3.945   0.988  14.942  0.6447  0.0291 -0.0101
  440MPD2    H5 6565   4.041   0.965  14.917  1.1585  1.8854  0.2668
  440MPD2    N1 6566   3.548   1.272  14.864 -0.0368 -0.8751  0.2082
  440MPD2    H7 6567   3.501   1.227  14.942  1.4791  0.4461  1.9035
  441TMC3    C1 6568   3.972   0.813  15.101  0.6316 -0.3743  0.5790
  441TMC3    C2 6569   4.047   0.896  15.190  0.2346  0.2209 -0.3276
  441TMC3    C3 6570   4.050   0.860  15.323  0.2596  0.5358  0.2310
  441TMC3    C4 6571   3.915   0.695  15.144 -0.2808  0.4384 -0.0830
  441TMC3    C5 6572   3.929   0.664  15.277  0.3215  0.5728  0.0870
  441TMC3    C6 6573   4.007   0.737  15.366  0.4729 -0.3876 -0.6872
  441TMC3     C 6574   3.881   0.890  15.019  0.7100 -0.5929  0.2713
  441TMC3     O 6575   3.763   0.860  15.032 -0.2028 -0.4012  0.1271
  441TMC3     H 6576   4.063   1.001  15.169 -0.6013  0.3591 -0.2664
  441TMC3    H1 6577   3.846   0.638  15.083 -2.0479  1.0239  1.3826
  441TMC3    H2 6578   4.019   0.712  15.470 -2.5654  1.7012  0.1399
  441TMC3    C7 6579   3.822   0.604  15.352  0.1061 -0.9821  0.4933
  441TMC3    C8 6580   3.980   0.968  15.396 -0.9442  0.2754 -0.6311
  441TMC3    O1 6581   3.808   0.643  15.465  0.2645  0.2006 -0.1295
  441TMC3    O2 6582   4.015   1.087  15.388 -0.2117 -0.1340  0.2228
  442MPD2     C 6583   1.527   1.649  16.602  0.3083  0.6723  0.5247
  442MPD2    C1 6584   1.414   1.585  16.552  0.2835 -0.1724  0.3649
  442MPD2    C2 6585   1.418   1.448  16.543  0.5136 -0.0120  0.3949
  442MPD2    C3 6586   1.535   1.380  16.584 -0.1162  0.8480  0.1551
  442MPD2    C4 6587   1.632   1.446  16.654 -0.4264  0.5405 -0.2643
  442MPD2    C5 6588   1.629   1.583  16.661 -0.9346  0.7892  0.5235
  442MPD2     H 6589   1.344   1.401  16.480 -0.6977  1.2676  0.8718
  442MPD2    H1 6590   1.708   1.397  16.714  1.1099  2.9533 -0.2526
  442MPD2    H2 6591   1.535   1.755  16.579  1.1174  0.8162  1.4478
  442MPD2    H3 6592   1.704   1.647  16.705 -1.1669  1.4043  0.0220
  442MPD2     N 6593   1.563   1.246  16.554 -0.5674  0.0552  0.0645
  442MPD2    H5 6594   1.658   1.217  16.574  0.2280  1.8178 -1.1521
  442MPD2    N1 6595   1.306   1.654  16.501  0.3650 -0.0268 -0.0824
  442MPD2    H7 6596   1.233   1.596  16.460 -0.6969 -1.3136  3.6211
  443TMC3    C1 6597   1.165   1.834  16.449  0.0837  0.5898  0.3647
  443TMC3    C2 6598   1.120   1.768  16.341 -0.0668  0.4204  0.0352
  443TMC3    C3 6599   1.003   1.821  16.283  0.4167  0.4580  0.0102
  443TMC3    C4 6600   1.099   1.938  16.507 -0.0160 -0.5104 -1.1605
  443TMC3    C5 6601   0.984   1.980  16.444  0.1304 -0.5762  0.3715
  443TMC3    C6 6602   0.933   1.924  16.331  0.1407 -0.9477  0.2598
  443TMC3     C 6603   1.287   1.789  16.509 -0.0283  0.0724 -0.7334
  443TMC3     O 6604   1.336   1.866  16.593  0.2902 -0.3913 -0.2974
  443TMC3     H 6605   1.170   1.691  16.284 -0.7546  0.8863 -1.1928
  443TMC3    H1 6606   1.137   2.001  16.587 -0.2787 -0.4935 -1.0459
  443TMC3    H2 6607   0.851   1.965  16.274  0.3218  0.4059  0.9815
  443TMC3    C7 6608   0.884   2.037  16.530 -0.1224  0.1530 -0.5725
  443TMC3    C8 6609   0.918   1.704  16.247  0.3013 -0.4212  0.2125
  443TMC3    O1 6610   0.798   2.115  16.492  0.2675  0.3878 -0.4228
  443TMC3    O2 6611   0.936   1.606  16.321  0.0760  0.1386  0.3402
  444MPD2     C 6612   2.120   0.586  17.170  0.0206  0.1027  0.2122
  444MPD2    C1 6613   2.010   0.529  17.096 -0.6671  0.0062  0.1365
  444MPD2    C2 6614   2.040   0.427  17.009 -0.5930 -0.0670  0.6459
  444MPD2    C3 6615   2.168   0.375  16.999  0.0175 -0.0569 -0.1406
  444MPD2    C4 6616   2.275   0.433  17.065  0.5424  0.2194  0.6494
  444MPD2    C5 6617   2.244   0.536  17.150 -0.2369  0.0581 -0.4509
  444MPD2     H 6618   1.958   0.388  16.950 -1.4584  0.6434  1.3742
  444MPD2    H1 6619   2.376   0.398  17.048  0.2760  0.5540 -1.6809
  444MPD2    H2 6620   2.103   0.662  17.246  2.6911  2.9862 -2.0850
  444MPD2    H3 6621   2.324   0.591  17.199 -0.4365 -0.7125  0.7507
  444MPD2     N 6622   2.183   0.269  16.899 -0.1621  0.2181  0.1218
  444MPD2    H5 6623   2.105   0.229  16.848  0.7091  1.0567 -1.8582
  444MPD2    N1 6624   1.872   0.564  17.119 -0.3347 -0.2312  0.1539
  444MPD2    H7 6625   1.797   0.523  17.064  0.7161  0.3963 -1.7322
  445TMC3    C1 6626   2.282   0.094  16.774  0.7295 -0.4525  0.5260
  445TMC3    C2 6627   2.166   0.088  16.704  0.4446 -0.0472  0.6477
  445TMC3    C3 6628   2.159   4.709  16.609 -0.2025 -0.2275 -0.8509
  445TMC3    C4 6629   2.380   0.003  16.761  0.4755  0.4177 -1.5053
  445TMC3    C5 6630   2.369   4.625  16.669  0.4181  0.5293 -0.1563
  445TMC3    C6 6631   2.259   4.617  16.589 -0.2405 -0.2806 -0.2117
  445TMC3     C 6632   2.302   0.201  16.867  0.0410 -0.5010  0.7713
  445TMC3     O 6633   2.412   0.212  16.917 -0.4607  0.3858  0.2901
  445TMC3     H 6634   2.102   0.171  16.680  0.6919  0.5076  1.9437
  445TMC3    H1 6635   2.474   0.019  16.811 -2.1597  0.6515  3.3665
  445TMC3    H2 6636   2.251   4.538  16.515  0.8701 -2.2651  1.7637
  445TMC3    C7 6637   2.495   4.570  16.626 -0.1503  0.1410 -0.3191
  445TMC3    C8 6638   2.032   4.696  16.536  0.0330  0.3509  0.5335
  445TMC3    O1 6639   2.598   4.625  16.663  0.2619  0.2066  0.1776
  445TMC3    O2 6640   1.937   0.050  16.568  0.0633  0.2589  0.1475
  446MPD2     C 6641   1.580   2.966  11.003  0.5124  0.0528 -0.8129
  446MPD2    C1 6642   1.639   2.859  11.067 -0.1867  0.1321 -0.5207
  446MPD2    C2 6643   1.762   2.869  11.120 -0.2742 -0.7790 -0.3619
  446MPD2    C3 6644   1.816   3.001  11.132 -0.5912 -0.4261 -0.0751
  446MPD2    C4 6645   1.750   3.107  11.081  0.5180 -0.0635  0.3578
  446MPD2    C5 6646   1.637   3.092  11.010 -0.0626 -0.1989 -0.6933
  446MPD2     H 6647   1.812   2.784  11.166  0.4830  1.6276  3.1909
  446MPD2    H1 6648   1.778   3.212  11.084 -0.7329  0.2452  1.2725
  446MPD2    H2 6649   1.501   2.956  10.929  1.9261  2.6578 -2.6613
  446MPD2    H3 6650   1.596   3.183  10.968  0.4195  0.5134  0.3728
  446MPD2     N 6651   1.948   3.020  11.182 -0.1107 -0.1323 -0.4393
  446MPD2    H5 6652   1.982   3.116  11.185 -0.1608 -0.0672 -2.0454
  446MPD2    N1 6653   1.557   2.742  11.065  0.3931 -1.0229 -0.4836
  446MPD2    H7 6654   1.463   2.746  11.027 -0.0309 -0.5805  0.5923
  447TMC3    C1 6655   2.177   2.975  11.231 -0.0341  0.4245  0.2792
  447TMC3    C2 6656   2.219   3.079  11.160  0.4398 -0.2298  0.4174
  447TMC3    C3 6657   2.346   3.090  11.107  0.2721  0.0262  0.4119
  447TMC3    C4 6658   2.266   2.876  11.252  0.5910  0.1073  0.8448
  447TMC3    C5 6659   2.389   2.886  11.206  0.1041  0.0499  0.3517
  447TMC3    C6 6660   2.436   2.985  11.128 -0.1386  0.4448 -0.2200
  447TMC3     C 6661   2.039   2.923  11.229  0.4918  0.0980  0.4518
  447TMC3     O 6662   2.036   2.807  11.252 -0.1652 -0.1823  0.1168
  447TMC3     H 6663   2.154   3.164  11.141  1.0290 -0.0469 -0.7961
  447TMC3    H1 6664   2.254   2.790  11.318  0.6479 -0.0901  0.5997
  447TMC3    H2 6665   2.540   3.007  11.109  0.2384 -1.1483  0.0304
  447TMC3    C7 6666   2.493   2.801  11.256  0.5770  0.1757 -1.0852
  447TMC3    C8 6667   2.356   3.155  10.975  0.1700  0.0345 -0.5455
  447TMC3    O1 6668   2.587   2.792  11.179 -0.1625  0.3991  0.9571
  447TMC3    O2 6669   2.267   3.231  10.950  0.6952  0.0719 -0.1886
  448TMC3    C1 6670   0.318   2.365  17.100 -0.3620  0.5568  0.2657
  448TMC3    C2 6671   0.206   2.293  17.073 -0.9591 -0.0533 -0.7822
  448TMC3    C3 6672   0.164   2.216  17.173  0.0008  0.5143  0.3073
  448TMC3    C4 6673   0.378   2.366  17.222 -0.3596  0.4928  0.3756
  448TMC3    C5 6674   0.328   2.286  17.319 -0.0310  0.0900 -0.4144
  448TMC3    C6 6675   0.222   2.209  17.297  0.5067  0.3756 -0.1878
  448TMC3     C 6676   0.384   2.449  17.000  0.1244  0.3914 -0.3495
  448TMC3     O 6677   0.455   2.540  17.039  0.9945 -0.2362 -0.0069
  448TMC3     H 6678   0.168   2.281  16.972 -2.8288  1.5550 -0.2916
  448TMC3    H1 6679   0.467   2.424  17.245 -0.0399  0.6567 -1.2363
  448TMC3    H2 6680   0.169   2.149  17.370 -0.4603 -0.6811 -1.7517
  448TMC3    C7 6681   0.409   2.277  17.435 -0.0632 -0.1013 -0.3762
  448TMC3    C8 6682   0.058   2.112  17.140  0.5286 -0.0876  0.1663
  448TMC3    O1 6683   0.479   2.373  17.464  0.4655  0.2884 -0.2314
  448TMC3    O2 6684   0.041   2.035  17.229 -0.5868 -0.6471 -0.0749
  449MPD2     C 6685   1.754   1.400  13.954 -0.4324  0.0158 -0.0862
  449MPD2    C1 6686   1.712   1.284  13.898  0.4998  0.8182 -0.3595
  449MPD2    C2 6687   1.685   1.179  13.982 -0.0550  0.4936 -0.4087
  449MPD2    C3 6688   1.707   1.192  14.117  0.0387  0.0368 -0.1391
  449MPD2    C4 6689   1.767   1.305  14.167 -0.1872  0.2533  0.2148
  449MPD2    C5 6690   1.784   1.411  14.088 -0.1969 -0.3051  0.0631
  449MPD2     H 6691   1.655   1.088  13.931 -0.5852  0.6963 -0.4548
  449MPD2    H1 6692   1.791   1.310  14.273  0.4110  2.1713 -0.0193
  449MPD2    H2 6693   1.770   1.486  13.889  1.0055 -0.1278  0.0855
  449MPD2    H3 6694   1.815   1.503  14.136 -1.3226  0.2878 -0.3623
  449MPD2     N 6695   1.689   1.079  14.187  0.0886 -0.1433  0.3144
  449MPD2    H5 6696   1.644   0.997  14.146 -0.5718  2.3683 -3.9286
  449MPD2    N1 6697   1.670   1.268  13.769  0.0071 -0.1194 -0.1967
  449MPD2    H7 6698   1.643   1.177  13.734 -0.7255  0.4461 -1.1179
  450TMC3    C1 6699   1.653   1.305  13.544  0.2830 -0.5684  0.2025
  450TMC3    C2 6700   1.738   1.291  13.438 -1.2427 -0.2412 -0.5654
  450TMC3    C3 6701   1.741   1.171  13.371  0.4567  0.2679 -0.1168
  450TMC3    C4 6702   1.556   1.208  13.561  0.0162  0.1253 -0.6824
  450TMC3    C5 6703   1.557   1.092  13.490  0.0478  0.6250 -0.0811
  450TMC3    C6 6704   1.654   1.068  13.404 -0.3562 -0.5198  0.1032
  450TMC3     C 6705   1.713   1.353  13.665 -0.2730  0.0883 -0.8622
  450TMC3     O 6706   1.787   1.449  13.659 -0.1261 -0.2652 -0.4553
  450TMC3     H 6707   1.801   1.373  13.406  1.3517 -1.2866  1.8255
  450TMC3    H1 6708   1.469   1.232  13.620  1.1837  0.3187  0.9604
  450TMC3    H2 6709   1.658   0.968  13.361 -0.2852 -0.4392 -0.0760
  450TMC3    C7 6710   1.533   0.985  13.588  0.3510 -0.3186 -0.2028
  450TMC3    C8 6711   1.781   1.166  13.236  0.6918  0.1558  0.3062
  450TMC3    O1 6712   1.548   1.023  13.705 -0.5620  0.2097 -0.1045
  450TMC3    O2 6713   1.800   1.273  13.180  0.1668 -0.1915 -0.5864
  451MPD2     C 6714   2.656   4.359   1.866 -0.6567 -0.0493  0.8996
  451MPD2    C1 6715   2.738   4.416   1.770 -1.0521  0.1392 -0.1755
  451MPD2    C2 6716   2.816   4.335   1.697  0.1848  0.0432 -0.2402
  451MPD2    C3 6717   2.836   4.204   1.731 -0.0289 -0.4698 -0.2062
  451MPD2    C4 6718   2.763   4.147   1.835  0.0337  0.1147 -0.5077
  451MPD2    C5 6719   2.677   4.225   1.903  0.2753  0.3566 -0.7908
  451MPD2     H 6720   2.883   4.374   1.621  0.8562 -1.0949 -0.2337
  451MPD2    H1 6721   2.785   4.046   1.868  1.3714  0.5649 -0.0043
  451MPD2    H2 6722   2.594   4.431   1.918 -0.2365  0.4072  0.7705
  451MPD2    H3 6723   2.630   4.183   1.991 -0.6951 -2.4460 -2.6455
  451MPD2     N 6724   2.922   4.115   1.668 -0.2494  0.2690 -0.1600
  451MPD2    H5 6725   2.925   4.022   1.707  0.0130  0.1463 -0.4791
  451MPD2    N1 6726   2.732   4.558   1.762 -0.1594 -0.2317 -0.5186
  451MPD2    H7 6727   2.660   4.608   1.813 -1.4200 -0.8567 -1.6732
  452TMC3    C1 6728   3.094   4.023   1.522  0.1385 -0.1748  0.4873
  452TMC3    C2 6729   3.152   3.954   1.625 -0.2781  0.2624  0.6213
  452TMC3    C3 6730   3.190   3.829   1.603 -0.2942  0.1629  0.2567
  452TMC3    C4 6731   3.088   3.979   1.393 -0.0432 -0.3976  0.2905
  452TMC3    C5 6732   3.125   3.849   1.379 -0.3893  0.6312  0.0749
  452TMC3    C6 6733   3.173   3.768   1.480 -0.4438  0.3366  0.3119
  452TMC3     C 6734   3.002   4.137   1.553  0.1379 -0.2039 -0.0037
  452TMC3     O 6735   3.005   4.234   1.475 -0.5412  0.0027 -0.2991
  452TMC3     H 6736   3.164   4.008   1.718 -0.2957  1.5048 -0.0968
  452TMC3    H1 6737   3.045   4.043   1.318  0.8209  0.0577  0.1826
  452TMC3    H2 6738   3.213   3.670   1.457 -3.2814 -1.3657  2.7297
  452TMC3    C7 6739   3.125   3.801   1.245  0.4936 -0.3835  0.2541
  452TMC3    C8 6740   3.226   3.743   1.711  0.0675 -1.0550  0.3336
  452TMC3    O1 6741   3.116   3.879   1.154 -0.5203  0.0948  0.1674
  452TMC3    O2 6742   3.197   3.627   1.707 -0.2419 -0.2370 -0.2467
  453TMC3    C1 6743   4.123   1.434  11.867  0.2980 -0.0725 -0.4285
  453TMC3    C2 6744   4.009   1.380  11.917 -0.4828 -0.1191  0.6278
  453TMC3    C3 6745   3.893   1.407  11.847  0.1510  0.1913 -1.1759
  453TMC3    C4 6746   4.134   1.502  11.750  0.0390  0.2003 -0.6559
  453TMC3    C5 6747   4.017   1.512  11.673  0.0612 -1.4442  0.4573
  453TMC3    C6 6748   3.896   1.468  11.723  0.2142 -0.4178 -0.1859
  453TMC3     C 6749   4.230   1.454  11.960  0.2004  0.0782  0.3952
  453TMC3     O 6750   4.293   1.563  11.962 -0.1117  0.2285 -0.2755
  453TMC3     H 6751   4.006   1.350  12.021  1.0977 -1.5429  0.2694
  453TMC3    H1 6752   4.215   1.570  11.730 -0.4816  0.0946 -3.2119
  453TMC3    H2 6753   3.801   1.472  11.670 -0.4042 -1.4165  0.8363
  453TMC3    C7 6754   4.010   1.583  11.554 -0.2932 -0.6728  0.3263
  453TMC3    C8 6755   3.772   1.339  11.880  0.0574 -0.2916  0.8295
  453TMC3    O1 6756   3.906   1.638  11.528 -0.2155  0.1244  0.1288
  453TMC3    O2 6757   3.668   1.389  11.844 -0.0050  0.0477 -0.0222
  454MPD2     C 6758   2.832   0.325  16.553  0.1612 -0.6226 -0.3574
  454MPD2    C1 6759   2.766   0.448  16.547 -0.4222  0.4091 -0.2021
  454MPD2    C2 6760   2.713   0.491  16.667 -0.0756  0.6597 -0.4107
  454MPD2    C3 6761   2.730   0.418  16.787  0.6476 -0.5457  0.0214
  454MPD2    C4 6762   2.810   0.304  16.795 -0.3917  0.0535 -0.2931
  454MPD2    C5 6763   2.862   0.265  16.677 -0.0045 -0.3896 -0.4261
  454MPD2     H 6764   2.659   0.585  16.672 -0.8041  0.1337  1.3508
  454MPD2    H1 6765   2.839   0.244  16.880  0.0163 -0.6065 -0.9050
  454MPD2    H2 6766   2.858   0.276  16.460 -0.3155 -0.4705 -0.5695
  454MPD2    H3 6767   2.908   0.170  16.655 -0.8476 -0.7231 -0.7582
  454MPD2     N 6768   2.680   0.460  16.912  0.2816 -0.2572  0.0493
  454MPD2    H5 6769   2.725   0.414  16.991 -1.4487 -2.5121 -0.2747
  454MPD2    N1 6770   2.731   0.512  16.427 -0.5180 -0.3393 -0.6433
  454MPD2    H7 6771   2.687   0.601  16.447  0.0834 -0.5216  1.4741
  455TMC3    C1 6772   2.479   0.595  16.850  0.0855 -0.0835  0.2556
  455TMC3    C2 6773   2.412   0.713  16.873 -0.0993  0.5397  0.4630
  455TMC3    C3 6774   2.292   0.727  16.814  0.0008  0.1586  0.8458
  455TMC3    C4 6775   2.414   0.503  16.772 -0.0881 -0.0822  0.4698
  455TMC3    C5 6776   2.293   0.518  16.719 -0.0959  0.3448 -0.1630
  455TMC3    C6 6777   2.227   0.635  16.736 -0.3066  0.6115 -0.2325
  455TMC3     C 6778   2.587   0.556  16.948 -0.2482  0.3510  0.5789
  455TMC3     O 6779   2.575   0.595  17.063  0.3815  0.2940  0.3405
  455TMC3     H 6780   2.465   0.776  16.943  3.5517 -0.5182 -1.3428
  455TMC3    H1 6781   2.459   0.405  16.772 -0.7436 -0.3858  1.2391
  455TMC3    H2 6782   2.148   0.659  16.666 -0.0535 -0.2256 -0.7991
  455TMC3    C7 6783   2.263   0.424  16.607  0.5650  0.5633  0.0798
  455TMC3    C8 6784   2.208   0.827  16.876 -0.2820 -0.0743  0.0337
  455TMC3    O1 6785   2.150   0.419  16.563 -0.1747  0.1986 -0.6362
  455TMC3    O2 6786   2.272   0.904  16.945 -0.2543 -0.9007  0.1036
  456MPD2     C 6787   0.029   0.826  16.447 -0.2607  0.3464  0.4506
  456MPD2    C1 6788   0.134   0.806  16.539  0.0875 -0.3046  0.0246
  456MPD2    C2 6789   0.139   0.897  16.644 -0.6558  0.2312 -0.3096
  456MPD2    C3 6790   0.047   1.001  16.657  0.1154  0.4215  0.3339
  456MPD2    C4 6791   4.672   1.015  16.559 -0.9414  0.3653  0.1756
  456MPD2    C5 6792   4.658   0.924  16.454 -0.0779 -0.7427  0.6969
  456MPD2     H 6793   0.230   0.903  16.703 -0.1404  0.0756 -1.0955
  456MPD2    H1 6794   4.590   1.087  16.550 -0.8798  0.5833  1.3688
  456MPD2    H2 6795   0.017   0.760  16.362  2.5117 -1.2787  1.3013
  456MPD2    H3 6796   4.587   0.934  16.373  2.0785  0.8652 -1.0373
  456MPD2     N 6797   0.069   1.095  16.762  1.1146 -0.5290  0.1993
  456MPD2    H5 6798   0.146   1.082  16.827 -1.2976 -1.3898  2.8876
  456MPD2    N1 6799   0.230   0.706  16.516  0.1572  0.1083 -0.3561
  456MPD2    H7 6800   0.236   0.669  16.422 -0.2438 -0.1581 -0.2793
  457TMC3    C1 6801   0.019   1.265  16.916  0.8233 -0.4856 -0.6882
  457TMC3    C2 6802   4.682   1.389  16.932  0.3597  0.0182 -0.2325
  457TMC3    C3 6803   4.708   1.454  17.056  0.8115  0.6852  0.1597
  457TMC3    C4 6804   0.113   1.220  17.005  0.5742 -0.3025 -0.1321
  457TMC3    C5 6805   0.138   1.295  17.116  0.0161 -0.1891 -0.0401
  457TMC3    C6 6806   0.066   1.407  17.143 -0.6678 -0.5294  0.1168
  457TMC3     C 6807   4.698   1.198  16.788 -0.5929 -0.1599 -0.7482
  457TMC3     O 6808   4.612   1.252  16.716 -0.1251  0.0467 -0.0117
  457TMC3     H 6809   4.604   1.422  16.864 -0.6584 -2.5233 -0.3336
  457TMC3    H1 6810   0.150   1.119  16.999  1.2141 -0.0812  0.0951
  457TMC3    H2 6811   0.084   1.472  17.228 -0.9411  1.0047 -0.9987
  457TMC3    C7 6812   0.254   1.265  17.195 -0.1087 -0.0230 -0.4629
  457TMC3    C8 6813   4.678   1.597  17.060  0.7809  0.0393  0.0699
  457TMC3    O1 6814   0.325   1.174  17.166 -0.5311  0.3488  0.0446
  457TMC3    O2 6815   4.676   1.660  17.161  0.1671 -0.4698 -0.1026
  458MPD2     C 6816   3.524   0.684  12.431 -0.3659  0.3466 -0.1897
  458MPD2    C1 6817   3.478   0.577  12.497  0.1972  0.9986 -0.2039
  458MPD2    C2 6818   3.360   0.515  12.459 -0.0262 -0.2400 -1.2622
  458MPD2    C3 6819   3.293   0.562  12.342  0.0931 -0.6049 -0.5990
  458MPD2    C4 6820   3.344   0.668  12.276 -0.0113 -0.5752 -0.4862
  458MPD2    C5 6821   3.462   0.726  12.321  0.6846  0.2635 -0.6502
  458MPD2     H 6822   3.319   0.437  12.521  1.4143 -0.9464 -1.1886
  458MPD2    H1 6823   3.293   0.718  12.195  0.0033  2.7759  1.5410
  458MPD2    H2 6824   3.612   0.741  12.456 -0.4084  0.3797 -0.1155
  458MPD2    H3 6825   3.505   0.798  12.251  2.5450 -0.8322 -0.6055
  458MPD2     N 6826   3.177   0.493  12.311  0.1502 -0.9316 -0.2764
  458MPD2    H5 6827   3.151   0.412  12.366 -1.1006 -0.0983  0.3808
  458MPD2    N1 6828   3.540   0.544  12.620  0.5535 -0.0014  0.0391
  458MPD2    H7 6829   3.620   0.597  12.653 -0.5486  2.3384 -1.0932
  459TMC3    C1 6830   3.587   0.454  12.830  0.3806 -0.5151  0.6859
  459TMC3    C2 6831   3.713   0.504  12.822  0.4817  0.0457  0.3489
  459TMC3    C3 6832   3.797   0.501  12.925 -0.0616  0.5230 -0.8234
  459TMC3    C4 6833   3.546   0.396  12.947  0.6616 -0.1479  0.2766
  459TMC3    C5 6834   3.637   0.395  13.050  0.5907 -0.4383  0.3705
  459TMC3    C6 6835   3.763   0.443  13.045  0.6613 -0.2324 -0.7261
  459TMC3     C 6836   3.497   0.462  12.716 -0.1904  0.5884 -1.0415
  459TMC3     O 6837   3.388   0.407  12.724 -0.0863 -0.2838  0.4393
  459TMC3     H 6838   3.752   0.536  12.726 -0.1975  0.0551  0.0766
  459TMC3    H1 6839   3.445   0.359  12.961  0.7205  0.4332  2.3194
  459TMC3    H2 6840   3.841   0.428  13.118 -0.3182  1.8346  0.7352
  459TMC3    C7 6841   3.596   0.313  13.155  0.0394  0.1542 -0.4155
  459TMC3    C8 6842   3.932   0.535  12.911 -0.5514 -0.3705 -0.3201
  459TMC3    O1 6843   3.525   0.220  13.113  0.3539 -0.2795  0.0672
  459TMC3    O2 6844   4.012   0.485  12.989  0.5049 -0.1891 -0.9012
  460MPD2     C 6845   2.526   3.028  10.686  0.0458  0.4758  0.3678
  460MPD2    C1 6846   2.448   3.115  10.760 -0.6831  0.2520  0.3462
  460MPD2    C2 6847   2.362   3.196  10.690  1.1206  0.3533  0.5989
  460MPD2    C3 6848   2.369   3.201  10.554 -0.0755  0.4419 -0.6830
  460MPD2    C4 6849   2.467   3.127  10.488 -0.2666  0.3561  1.1212
  460MPD2    C5 6850   2.542   3.036  10.553 -0.2545  0.0197 -0.0970
  460MPD2     H 6851   2.285   3.262  10.730  1.6910  1.9456 -0.9666
  460MPD2    H1 6852   2.503   3.144  10.387 -1.1252  0.1138  0.7757
  460MPD2    H2 6853   2.593   2.959  10.736 -0.8827 -0.9134 -0.3450
  460MPD2    H3 6854   2.621   2.988  10.495  0.6577  0.3783  0.8382
  460MPD2     N 6855   2.280   3.288  10.489  0.2237 -0.3522  0.0216
  460MPD2    H5 6856   2.240   3.365  10.542  1.0637 -0.2140  0.4500
  460MPD2    N1 6857   2.453   3.105  10.898  0.0817  0.6279 -0.1564
  460MPD2    H7 6858   2.516   3.035  10.934  0.5519  1.2457  0.2231
  461TMC3    C1 6859   2.165   3.374  10.303 -0.7292 -0.3334 -0.5184
  461TMC3    C2 6860   2.090   3.322  10.204  0.8575  0.1688 -0.0620
  461TMC3    C3 6861   2.002   3.412  10.144  0.2696  0.1499  0.1806
  461TMC3    C4 6862   2.179   3.508  10.325  0.4002  0.5681  0.3659
  461TMC3    C5 6863   2.093   3.592  10.260 -0.0336 -0.3105  0.2849
  461TMC3    C6 6864   1.998   3.545  10.170  0.3292  0.7972 -0.3331
  461TMC3     C 6865   2.246   3.270  10.364  0.0171 -0.5147 -0.6928
  461TMC3     O 6866   2.274   3.174  10.296  0.5535  0.3086 -0.3217
  461TMC3     H 6867   2.098   3.219  10.171  3.8525  0.3423  0.1557
  461TMC3    H1 6868   2.253   3.538  10.399  2.6201 -1.4385 -1.0114
  461TMC3    H2 6869   1.927   3.614  10.126  0.6251  1.6518  0.5228
  461TMC3    C7 6870   2.119   3.736  10.271  0.9119  0.1035  0.1620
  461TMC3    C8 6871   1.921   3.368  10.032  0.3124  0.6032  0.2267
  461TMC3    O1 6872   2.029   3.815  10.232 -0.5582  0.2943  0.0525
  461TMC3    O2 6873   1.866   3.457   9.969  0.5056 -0.4409  0.2015
  462TMC3    C1 6874   1.494   3.512   0.056 -0.0692  0.8807 -0.7022
  462TMC3    C2 6875   1.600   3.427   0.089 -0.0911  0.4176 -0.1774
  462TMC3    C3 6876   1.583   3.292   0.082 -0.2159  0.1532 -0.4271
  462TMC3    C4 6877   1.375   3.459   0.013  0.1387 -0.0315 -0.4242
  462TMC3    C5 6878   1.367   3.326  17.677  0.5074  0.4248 -0.7412
  462TMC3    C6 6879   1.460   3.243   0.056  0.5575 -1.0339 -0.5484
  462TMC3     C 6880   1.501   3.657   0.064  0.1139 -0.3852 -0.3561
  462TMC3     O 6881   1.405   3.717   0.018 -0.5151  1.0950  0.1158
  462TMC3     H 6882   1.698   3.464   0.115 -0.3080  0.5961  0.3931
  462TMC3    H1 6883   1.309   3.536  17.654 -2.0730 -2.0968 -0.7627
  462TMC3    H2 6884   1.439   3.140   0.033 -0.6075 -0.6353 -1.2470
  462TMC3    C7 6885   1.262   3.269  17.591  0.6554  0.3901  0.7321
  462TMC3    C8 6886   1.694   3.192   0.085  0.0507  0.6005  0.4909
  462TMC3    O1 6887   1.250   3.146  17.593 -0.0473  0.1580 -0.0046
  462TMC3    O2 6888   1.668   3.074   0.069 -0.1018  0.1631 -0.3518
  463MPD2     C 6889   3.446   2.125   1.761  0.5404  0.2950  0.1768
  463MPD2    C1 6890   3.326   2.162   1.696 -0.1664 -0.3197 -0.8810
  463MPD2    C2 6891   3.335   2.264   1.598 -0.7501 -0.1562  0.0779
  463MPD2    C3 6892   3.463   2.314   1.568  0.5425  0.1852 -0.1842
  463MPD2    C4 6893   3.577   2.279   1.642  0.3603 -0.3381 -0.4054
  463MPD2    C5 6894   3.567   2.188   1.744 -0.2788  0.0802  0.2854
  463MPD2     H 6895   3.246   2.309   1.555 -0.7830  0.2218  0.5378
  463MPD2    H1 6896   3.674   2.313   1.607  1.3379 -1.4031  1.2703
  463MPD2    H2 6897   3.450   2.050   1.839 -1.2763 -0.0472 -0.0568
  463MPD2    H3 6898   3.659   2.153   1.789  1.5582  0.2711 -3.2462
  463MPD2     N 6899   3.483   2.412   1.465 -0.9843 -0.0667 -0.1505
  463MPD2    H5 6900   3.566   2.471   1.472 -1.0492  0.1288 -1.0253
  463MPD2    N1 6901   3.199   2.105   1.724  0.1284  0.6705  0.0871
  463MPD2    H7 6902   3.119   2.148   1.680  0.0481 -0.9742 -1.3869
  464TMC3    C1 6903   3.047   1.952   1.834 -0.1506  0.0258  0.8650
  464TMC3    C2 6904   2.947   2.046   1.821 -0.2987 -0.5831 -0.7987
  464TMC3    C3 6905   2.821   2.004   1.791  1.1426  0.1041  0.1096
  464TMC3    C4 6906   3.016   1.817   1.840  0.0990  0.0295 -0.0182
  464TMC3    C5 6907   2.893   1.778   1.798  0.8399  0.1003  0.3129
  464TMC3    C6 6908   2.797   1.872   1.769 -0.3107  0.4312 -0.7402
  464TMC3     C 6909   3.179   1.986   1.795  0.2043  0.7117  0.1238
  464TMC3     O 6910   3.267   1.907   1.829 -0.0131  0.4788  0.7030
  464TMC3     H 6911   2.964   2.153   1.825 -0.0782 -0.6633  0.2884
  464TMC3    H1 6912   3.101   1.753   1.858  0.9957  1.8650  2.3035
  464TMC3    H2 6913   2.696   1.846   1.738 -0.6293  0.5728  0.1806
  464TMC3    C7 6914   2.853   1.649   1.847 -0.3012 -0.1873 -0.1435
  464TMC3    C8 6915   2.712   2.096   1.804 -0.0338 -0.0058 -0.0059
  464TMC3    O1 6916   2.924   1.610   1.937 -0.1511 -0.0468 -0.3690
  464TMC3    O2 6917   2.613   2.069   1.735 -0.4714  0.6447  0.2446
  465MPD2     C 6918   4.228   0.554  17.045  0.1746 -0.6413 -0.1691
  465MPD2    C1 6919   4.110   0.571  17.112  0.5772  0.5660 -0.3598
  465MPD2    C2 6920   4.015   0.639  17.042  0.7988  0.1910  0.4357
  465MPD2    C3 6921   4.033   0.699  16.919  0.0626  0.1844  0.4745
  465MPD2    C4 6922   4.153   0.675  16.857  0.1497  0.4578 -0.7085
  465MPD2    C5 6923   4.253   0.609  16.921  0.8200  0.5003  0.7740
  465MPD2     H 6924   3.912   0.642  17.076  1.1899  1.3426  1.5364
  465MPD2    H1 6925   4.175   0.717  16.759  0.3151  0.0443 -0.8477
  465MPD2    H2 6926   4.317   0.506  17.086 -1.3907 -1.9791  1.6689
  465MPD2    H3 6927   4.350   0.588  16.877 -1.0122  2.2098 -3.9892
  465MPD2     N 6928   3.918   0.746  16.859  0.8286  0.0776 -0.0241
  465MPD2    H5 6929   3.836   0.745  16.918 -0.6631 -2.1478 -2.1627
  465MPD2    N1 6930   4.074   0.500  17.231 -0.1497  0.1314 -0.4653
  465MPD2    H7 6931   3.977   0.501  17.261 -0.5273  1.4569 -1.7482
  466TMC3    C1 6932   3.579   0.878  16.811 -0.4429 -0.3362 -0.3490
  466TMC3    C2 6933   3.557   1.003  16.758 -0.3664  0.4039  0.3249
  466TMC3    C3 6934   3.658   1.048  16.676 -0.6134 -0.1474 -0.9619
  466TMC3    C4 6935   3.689   0.798  16.783  0.9934  0.2435  0.3329
  466TMC3    C5 6936   3.784   0.853  16.707 -0.5474 -0.7258 -0.3250
  466TMC3    C6 6937   3.768   0.976  16.650 -0.1284 -0.0266  0.2260
  466TMC3     C 6938   3.516   0.845  16.939  0.1589  0.3233  0.1158
  466TMC3     O 6939   3.597   0.795  17.016 -0.0017  0.1507 -0.7889
  466TMC3     H 6940   3.484   1.071  16.801  0.2597  1.1446  0.2215
  466TMC3    H1 6941   3.696   0.693  16.809 -0.2540 -0.1887 -1.0668
  466TMC3    H2 6942   3.842   1.013  16.580 -1.3841 -1.1412 -1.7005
  466TMC3    C7 6943   3.920   0.831  16.750  0.0387 -0.2235  0.1786
  466TMC3    C8 6944   3.653   1.177  16.624 -0.7755 -0.1361  0.5345
  466TMC3    O1 6945   4.009   0.856  16.668  0.2788 -0.1605  0.7457
  466TMC3    O2 6946   3.708   1.204  16.517 -0.3804 -0.6739 -0.4677
  467TMC3    C1 6947   0.277   4.391  13.740 -0.7606  0.5809  0.4836
  467TMC3    C2 6948   0.290   4.419  13.608 -0.3946  0.2336 -0.1093
  467TMC3    C3 6949   0.228   4.525  13.557 -0.3598 -0.0285  0.1302
  467TMC3    C4 6950   0.199   4.471  13.820 -0.3654  0.2341 -0.1347
  467TMC3    C5 6951   0.119   4.565  13.764  0.7268  0.1246 -0.1880
  467TMC3    C6 6952   0.131   4.591  13.623 -0.1274 -0.5144  0.1178
  467TMC3     C 6953   0.384   4.318  13.803  0.0044  0.6028 -1.0368
  467TMC3     O 6954   0.431   4.364  13.905  0.4386 -0.1931  0.0805
  467TMC3     H 6955   0.362   4.364  13.549  0.1171  0.7479  0.0266
  467TMC3    H1 6956   0.196   4.451  13.927 -2.0301 -2.6329 -0.7067
  467TMC3    H2 6957   0.087   4.681  13.584 -0.4949 -0.9297 -0.4180
  467TMC3    C7 6958   0.003   4.614  13.827 -0.4382 -0.3499  0.8971
  467TMC3    C8 6959   0.309   4.602  13.462  0.4820  0.7890 -0.8267
  467TMC3    O1 6960   4.667   4.701  13.764 -0.2758 -0.2004  0.4047
  467TMC3    O2 6961   0.372   4.540  13.380  0.5526  0.2336  0.1547
  468MPD2     C 6962   3.709   2.781  10.900 -0.0095 -0.2002  0.4883
  468MPD2    C1 6963   3.845   2.776  10.928  0.0962  0.0251  0.2786
  468MPD2    C2 6964   3.890   2.680  11.016 -0.1123 -0.0800 -0.1228
  468MPD2    C3 6965   3.798   2.594  11.075 -0.3670 -0.7554  0.6200
  468MPD2    C4 6966   3.662   2.600  11.050  0.4209  0.0923  0.2710
  468MPD2    C5 6967   3.621   2.692  10.959 -0.0523 -0.0905 -0.0794
  468MPD2     H 6968   3.997   2.681  11.033 -0.1841 -2.0587  0.3856
  468MPD2    H1 6969   3.587   2.537  11.097  0.6713  0.0554  0.6245
  468MPD2    H2 6970   3.657   2.850  10.835  1.3106 -0.1522 -0.5134
  468MPD2    H3 6971   3.515   2.711  10.941 -0.6349  0.2830  3.6701
  468MPD2     N 6972   3.844   2.494  11.164  0.1868 -1.1523  0.0373
  468MPD2    H5 6973   3.766   2.440  11.200 -0.0106 -0.0502  1.2791
  468MPD2    N1 6974   3.953   2.855  10.872 -0.2545 -0.4839 -0.1825
  468MPD2    H7 6975   4.052   2.837  10.889 -0.0808 -0.8047 -1.5189
  469TMC3    C1 6976   4.040   3.015  10.713 -0.4565  0.4818  0.0623
  469TMC3    C2 6977   4.165   2.965  10.729  0.2345 -0.1068 -0.0420
  469TMC3    C3 6978   4.264   3.029  10.665  0.6811 -0.3794 -0.6158
  469TMC3    C4 6979   4.019   3.123  10.630 -0.2930 -0.0764 -0.2332
  469TMC3    C5 6980   4.123   3.190  10.569 -0.6442 -0.0081 -0.7799
  469TMC3    C6 6981   4.244   3.131  10.572  0.2193  0.5436  0.4295
  469TMC3     C 6982   3.920   2.964  10.785 -0.5573 -0.0650 -0.5887
  469TMC3     O 6983   3.809   3.012  10.761  0.0036  0.1872 -0.1498
  469TMC3     H 6984   4.190   2.890  10.803 -2.6219 -2.0643 -1.0747
  469TMC3    H1 6985   3.919   3.162  10.613 -0.0145  1.1711  1.0515
  469TMC3    H2 6986   4.336   3.174  10.533  0.7684 -1.1938 -0.1627
  469TMC3    C7 6987   4.090   3.323  10.501 -0.0031  0.4812 -0.2404
  469TMC3    C8 6988   4.396   3.006  10.712 -0.5318 -0.0721  0.4662
  469TMC3    O1 6989   4.175   3.366  10.418  0.6610  0.1013  0.0559
  469TMC3    O2 6990   4.482   3.011  10.628  0.1709  0.0312  0.0863
  470TMC3    C1 6991   2.715   4.225   1.230 -0.2303  0.3484  0.3177
  470TMC3    C2 6992   2.583   4.269   1.225 -0.0875 -0.2448 -0.2985
  470TMC3    C3 6993   2.490   4.178   1.197  0.1660 -0.1753  0.7174
  470TMC3    C4 6994   2.755   4.098   1.215  0.2799 -0.0305  0.5294
  470TMC3    C5 6995   2.654   4.009   1.186  0.5231 -0.7706  0.7508
  470TMC3    C6 6996   2.522   4.046   1.167  0.8107  0.2765 -0.0361
  470TMC3     C 6997   2.811   4.326   1.185 -0.2790  0.1368  0.0677
  470TMC3     O 6998   2.778   4.441   1.212 -0.0819  0.1272  0.6656
  470TMC3     H 6999   2.570   4.374   1.249 -0.0581 -0.0862 -0.9776
  470TMC3    H1 7000   2.856   4.060   1.223 -0.1923 -1.1978  0.9529
  470TMC3    H2 7001   2.445   3.978   1.134  0.4297  0.5985  0.1839
  470TMC3    C7 7002   2.674   3.869   1.219  0.0860  0.4406 -0.0574
  470TMC3    C8 7003   2.346   4.218   1.227  0.1192 -0.6413 -0.0583
  470TMC3    O1 7004   2.622   3.782   1.149  0.0129 -0.3537 -0.2209
  470TMC3    O2 7005   2.333   4.327   1.284 -0.1942 -0.5930  0.5827
  471MPD2     C 7006   1.481   4.311  16.196  0.4833  0.4976 -0.5891
  471MPD2    C1 7007   1.499   4.191  16.259  0.0291  0.0724  0.7250
  471MPD2    C2 7008   1.553   4.189  16.388  0.5396  0.8580  0.3474
  471MPD2    C3 7009   1.586   4.303  16.454 -0.4802  0.1619  0.2185
  471MPD2    C4 7010   1.570   4.428  16.394 -0.5488  0.5210 -0.1338
  471MPD2    C5 7011   1.514   4.425  16.266  0.0970 -0.4607  0.4137
  471MPD2     H 7012   1.576   4.089  16.423 -1.0680  0.3649 -0.0100
  471MPD2    H1 7013   1.584   4.523  16.444  1.0715  0.3822 -0.3170
  471MPD2    H2 7014   1.442   4.323  16.096 -0.0102  1.0433 -0.3311
  471MPD2    H3 7015   1.479   4.516  16.220  2.8496  1.1562  1.4767
  471MPD2     N 7016   1.642   4.301  16.584 -0.1328 -0.4486 -0.2862
  471MPD2    H5 7017   1.684   4.388  16.615 -0.7158 -0.1797 -0.2488
  471MPD2    N1 7018   1.443   4.071  16.217  0.1407  1.1474 -0.2051
  471MPD2    H7 7019   1.448   3.992  16.280  0.2011  1.3586  0.0529
  472TMC3    C1 7020   1.301   3.929  16.102 -0.4210  0.1869  0.8131
  472TMC3    C2 7021   1.180   3.913  16.031 -0.3885  1.0395  0.2929
  472TMC3    C3 7022   1.130   3.787  16.039  0.3181  0.4801 -0.2521
  472TMC3    C4 7023   1.370   3.825  16.163  0.3246  0.3714 -0.0262
  472TMC3    C5 7024   1.317   3.692  16.149  0.4059 -0.2077  0.3726
  472TMC3    C6 7025   1.193   3.677  16.093  0.3900  0.4673 -0.8543
  472TMC3     C 7026   1.368   4.058  16.103 -0.1206  0.4796  0.1928
  472TMC3     O 7027   1.339   4.138  16.018  0.5679  0.4988 -0.4791
  472TMC3     H 7028   1.131   3.989  15.971 -0.4194  0.4164 -0.4727
  472TMC3    H1 7029   1.473   3.838  16.195  0.1190  0.4872  0.5811
  472TMC3    H2 7030   1.144   3.582  16.110  0.9740 -0.0085 -1.8479
  472TMC3    C7 7031   1.383   3.578  16.210 -0.3777 -0.2800 -0.2411
  472TMC3    C8 7032   0.990   3.774  16.014 -0.6227  0.0388  0.7791
  472TMC3    O1 7033   1.430   3.583  16.323 -0.0840  0.0458  0.1115
  472TMC3    O2 7034   0.942   3.833  15.919 -0.8346 -0.2897  0.4017
  473MPD2     C 7035   1.304   2.041  14.382  0.8677 -0.6940  0.2442
  473MPD2    C1 7036   1.345   2.157  14.325 -0.1624  0.6874 -0.4028
  473MPD2    C2 7037   1.438   2.232  14.392  0.4084  0.5621 -0.0320
  473MPD2    C3 7038   1.501   2.187  14.504 -0.2266 -0.1631  0.4298
  473MPD2    C4 7039   1.462   2.068  14.559  0.7256  0.2679  0.3033
  473MPD2    C5 7040   1.369   1.993  14.498  0.4049  0.3421  0.8301
  473MPD2     H 7041   1.460   2.322  14.336  0.6126  0.2802 -0.4024
  473MPD2    H1 7042   1.508   2.025  14.647  2.2370 -0.4562 -0.8374
  473MPD2    H2 7043   1.239   1.970  14.332  0.0242  0.3763 -0.1740
  473MPD2    H3 7044   1.324   1.907  14.547  0.6639  1.4269  2.9764
  473MPD2     N 7045   1.599   2.264  14.570  0.4076  0.2326 -0.1948
  473MPD2    H5 7046   1.652   2.216  14.642 -1.2653  1.5878  1.9545
  473MPD2    N1 7047   1.280   2.210  14.206  0.3428  0.6587  0.2561
  473MPD2    H7 7048   1.307   2.302  14.173  0.9059 -0.3190 -2.0693
  474TMC3    C1 7049   1.697   2.464  14.655 -0.7481 -0.5416 -0.8950
  474TMC3    C2 7050   1.677   2.599  14.681  0.0608  0.1847  0.3715
  474TMC3    C3 7051   1.746   2.652  14.789  0.4977  0.1341  0.5450
  474TMC3    C4 7052   1.771   2.381  14.737 -0.5211  0.6198  0.0731
  474TMC3    C5 7053   1.822   2.438  14.848  0.2617  0.3235  0.1492
  474TMC3    C6 7054   1.811   2.567  14.881  0.3952 -1.0328  0.7278
  474TMC3     C 7055   1.607   2.403  14.563  0.2332  0.1640 -0.3376
  474TMC3     O 7056   1.534   2.479  14.500 -0.7199  0.4008  0.5016
  474TMC3     H 7057   1.627   2.669  14.616  1.1645  0.1711 -0.4928
  474TMC3    H1 7058   1.807   2.283  14.708  0.4062  1.5888 -2.0529
  474TMC3    H2 7059   1.867   2.615  14.960  0.5720  2.4041 -1.4835
  474TMC3    C7 7060   1.923   2.360  14.922 -0.7384 -0.3084  0.2909
  474TMC3    C8 7061   1.765   2.792  14.811  0.0764 -0.8241  0.2244
  474TMC3    O1 7062   1.975   2.266  14.865  0.0223 -0.3447  0.1851
  474TMC3    O2 7063   1.753   2.824  14.924  0.4082 -0.0720 -0.4065
  475MPD2     C 7064   0.731   0.330  10.368  0.1954  0.0376  0.5249
  475MPD2    C1 7065   0.746   0.461  10.423 -0.3640 -0.7537 -1.1006
  475MPD2    C2 7066   0.646   0.509  10.513  0.3127 -0.1461  0.8293
  475MPD2    C3 7067   0.537   0.429  10.536 -0.1184 -0.5801 -0.3035
  475MPD2    C4 7068   0.524   0.300  10.480  0.3100  0.4119  0.5711
  475MPD2    C5 7069   0.618   0.260  10.396 -0.1761 -0.3370  0.1455
  475MPD2     H 7070   0.648   0.614  10.540  2.7602  0.0665 -0.0995
  475MPD2    H1 7071   0.442   0.234  10.506  0.1187  0.7697  0.8798
  475MPD2    H2 7072   0.808   0.281  10.309 -1.6034 -0.4824 -1.3855
  475MPD2    H3 7073   0.633   0.158  10.364  1.9571  0.0287 -0.0509
  475MPD2     N 7074   0.435   0.494  10.616  0.4651  0.4427 -0.2316
  475MPD2    H5 7075   0.441   0.595  10.622 -2.8393  0.5895  0.6948
  475MPD2    N1 7076   0.846   0.545  10.368 -0.0197  0.0720 -0.0064
  475MPD2    H7 7077   0.888   0.508  10.283 -2.6898 -1.0783 -0.8421
  476TMC3    C1 7078   0.958   0.747  10.321 -0.2896 -0.6139  0.2875
  476TMC3    C2 7079   0.909   0.741  10.192  0.1203 -0.5169 -0.9563
  476TMC3    C3 7080   0.883   0.859  10.138  0.3863  0.1230  0.1044
  476TMC3    C4 7081   1.012   0.861  10.368 -0.1308 -0.4913 -0.8131
  476TMC3    C5 7082   0.999   0.974  10.300 -0.7249 -0.6872 -0.5062
  476TMC3    C6 7083   0.929   0.982  10.184  0.1347 -0.3345  0.2322
  476TMC3     C 7084   0.882   0.671  10.413  0.1571 -0.5781 -0.4267
  476TMC3     O 7085   0.851   0.724  10.520 -0.4197  0.9221 -0.0157
  476TMC3     H 7086   0.867   0.657  10.138  1.1178 -0.8549 -1.2069
  476TMC3    H1 7087   1.078   0.850  10.454  1.9351 -2.2519 -2.5933
  476TMC3    H2 7088   0.910   1.071  10.125 -0.8321 -0.9577 -0.3986
  476TMC3    C7 7089   1.052   1.098  10.355  0.4097 -0.1954  0.2632
  476TMC3    C8 7090   0.740   0.884  10.113 -0.0175  0.3782 -0.0490
  476TMC3    O1 7091   1.067   1.192  10.282 -0.3026  0.4019  0.4576
  476TMC3    O2 7092   0.705   0.996  10.085 -0.0464  0.1990  0.2013
  477MPD2     C 7093   2.532   2.398  12.025 -0.2493 -0.0360 -0.4419
  477MPD2    C1 7094   2.484   2.301  11.937  0.1907  0.5668 -0.1242
  477MPD2    C2 7095   2.493   2.164  11.962  0.0361  1.0948 -0.5593
  477MPD2    C3 7096   2.526   2.128  12.092 -0.2729 -0.4760 -0.2883
  477MPD2    C4 7097   2.572   2.223  12.175  0.0084  0.5989  0.2344
  477MPD2    C5 7098   2.586   2.352  12.147  0.0848 -0.4388 -0.3384
  477MPD2     H 7099   2.459   2.089  11.891 -0.2652  0.6382  0.0584
  477MPD2    H1 7100   2.608   2.194  12.273 -1.6688 -0.9072  0.4048
  477MPD2    H2 7101   2.525   2.506  12.018  1.1051  0.2963  3.2137
  477MPD2    H3 7102   2.622   2.418  12.224  1.3358  0.3871 -1.6377
  477MPD2     N 7103   2.510   1.993  12.134 -0.7668  0.2789  0.3784
  477MPD2    H5 7104   2.501   1.917  12.067 -2.4035  0.1949  0.6956
  477MPD2    N1 7105   2.421   2.345  11.819 -0.6606 -0.4095  0.0679
  477MPD2    H7 7106   2.413   2.446  11.808 -2.1928 -0.4083  1.2374
  478TMC3    C1 7107   2.333   2.369  11.609 -0.2305  0.0309 -0.0910
  478TMC3    C2 7108   2.249   2.468  11.657 -0.0685 -0.1282 -0.0490
  478TMC3    C3 7109   2.182   2.545  11.566  0.1244  0.0188 -0.8681
  478TMC3    C4 7110   2.365   2.354  11.479  0.2086  0.0253  1.1035
  478TMC3    C5 7111   2.296   2.435  11.390 -0.9384  0.3838 -0.6902
  478TMC3    C6 7112   2.207   2.533  11.430  0.4290 -0.1851 -0.5698
  478TMC3     C 7113   2.392   2.278  11.704 -0.6304  0.3434  0.0588
  478TMC3     O 7114   2.427   2.163  11.673  0.0260 -0.4156  1.1455
  478TMC3     H 7115   2.208   2.461  11.757 -0.8595 -3.6936 -0.6170
  478TMC3    H1 7116   2.424   2.269  11.447 -0.7322 -0.0119 -0.5351
  478TMC3    H2 7117   2.138   2.579  11.360 -1.5345 -1.0757  0.7676
  478TMC3    C7 7118   2.345   2.436  11.250  0.4892  0.7342 -0.1967
  478TMC3    C8 7119   2.045   2.551  11.597 -0.3850  0.1566  0.6056
  478TMC3    O1 7120   2.447   2.372  11.223 -0.1414  0.0919  0.0834
  478TMC3    O2 7121   1.989   2.454  11.653  0.1390  0.5269  0.3140
  479MPD2     C 7122   1.459   4.207  15.167 -0.2071  0.4703  0.2098
  479MPD2    C1 7123   1.387   4.115  15.241 -0.0348  0.2631 -0.0272
  479MPD2    C2 7124   1.451   4.049  15.341 -0.2681 -0.6241 -0.5051
  479MPD2    C3 7125   1.572   4.088  15.386  0.4512  0.0726  0.2948
  479MPD2    C4 7126   1.641   4.193  15.318 -0.2437  0.6916 -0.1455
  479MPD2    C5 7127   1.583   4.248  15.207 -0.8255  0.3195  0.0557
  479MPD2     H 7128   1.419   3.955  15.384 -1.2685 -0.2369 -0.3889
  479MPD2    H1 7129   1.741   4.232  15.335 -0.2596  0.9172 -0.5916
  479MPD2    H2 7130   1.423   4.243  15.071 -0.0097  0.7582  0.2449
  479MPD2    H3 7131   1.625   4.331  15.150  1.2020 -0.9403 -0.2735
  479MPD2     N 7132   1.627   4.042  15.508 -0.0677 -0.4126  0.1861
  479MPD2    H5 7133   1.720   4.077  15.531 -0.3719  0.7283 -0.3266
  479MPD2    N1 7134   1.269   4.073  15.180 -0.4593  0.2976  0.1999
  479MPD2    H7 7135   1.224   4.130  15.109  0.3415  1.5548  0.7019
  480TMC3    C1 7136   1.269   3.777  15.694  0.7924 -0.2435  0.4725
  480TMC3    C2 7137   1.168   3.869  15.695 -0.0829  0.0617 -0.4751
  480TMC3    C3 7138   1.213   3.993  15.660 -1.2457  0.2115 -0.1428
  480TMC3    C4 7139   1.404   3.798  15.664 -0.3395  0.3691 -0.1700
  480TMC3    C5 7140   1.440   3.921  15.618 -0.3476  0.5811 -0.5371
  480TMC3    C6 7141   1.341   4.022  15.615 -0.5692  1.0447 -0.5077
  480TMC3     C 7142   1.229   3.651  15.756 -0.4741  0.1545 -1.1477
  480TMC3     O 7143   1.300   3.596  15.839  0.2645  0.0144 -0.9844
  480TMC3     H 7144   1.064   3.854  15.723 -0.4387  1.7017 -0.9218
  480TMC3    H1 7145   1.485   3.728  15.681  0.8994  2.2100  1.4704
  480TMC3    H2 7146   1.378   4.123  15.608  0.4310  0.7273  0.0948
  480TMC3    C7 7147   1.581   3.953  15.613  0.3994 -0.0598 -0.4840
  480TMC3    C8 7148   1.105   4.086  15.623 -0.8163  0.9036 -0.5911
  480TMC3    O1 7149   1.649   3.904  15.704  0.0667 -0.0394 -0.2833
  480TMC3    O2 7150   0.991   4.055  15.655 -0.7872  0.1936  0.5766
  481MPD2     C 7151   3.140   3.439  14.672  0.4642 -0.1310 -0.1877
  481MPD2    C1 7152   3.032   3.354  14.664 -0.4037 -0.0108  1.0017
  481MPD2    C2 7153   2.959   3.332  14.782  0.1854 -0.3410 -0.2726
  481MPD2    C3 7154   2.987   3.391  14.903  0.1476  0.8042 -0.6157
  481MPD2    C4 7155   3.089   3.485  14.899  0.6978 -0.8209 -0.5658
  481MPD2    C5 7156   3.168   3.501  14.785  0.3151  0.0977 -0.0366
  481MPD2     H 7157   2.876   3.262  14.778 -0.9464  0.9143  1.4671
  481MPD2    H1 7158   3.122   3.532  14.991 -2.9699 -2.8351  1.7480
  481MPD2    H2 7159   3.195   3.474  14.585 -0.5853 -1.0805 -1.2194
  481MPD2    H3 7160   3.241   3.581  14.779  1.7446 -1.4285 -2.8960
  481MPD2     N 7161   2.911   3.384  15.026  0.5959  0.3426 -0.2353
  481MPD2    H5 7162   2.955   3.439  15.099 -0.8856 -1.3925  2.0015
  481MPD2    N1 7163   3.003   3.307  14.539 -0.4850  0.3858  0.0447
  481MPD2    H7 7164   3.076   3.305  14.468 -0.3488 -1.2410  0.2345
  482TMC3    C1 7165   2.867   3.222  14.373 -0.2024  0.1217 -0.1305
  482TMC3    C2 7166   2.754   3.152  14.344  0.5253  0.5064  0.2638
  482TMC3    C3 7167   2.719   3.154  14.212  1.2464  0.4788 -0.6002
  482TMC3    C4 7168   2.958   3.271  14.279 -0.8360  0.1963 -0.1681
  482TMC3    C5 7169   2.916   3.259  14.147 -0.4363  0.2150 -0.4894
  482TMC3    C6 7170   2.800   3.205  14.112  0.6640  0.5274  0.3105
  482TMC3     C 7171   2.878   3.263  14.509  0.0956  0.3236 -0.2736
  482TMC3     O 7172   2.788   3.236  14.587  0.1948 -0.3098 -0.8367
  482TMC3     H 7173   2.690   3.094  14.410  0.7057 -1.5308 -1.3363
  482TMC3    H1 7174   3.052   3.318  14.308 -0.6177  0.5679 -1.4943
  482TMC3    H2 7175   2.769   3.207  14.008  0.8274  2.5838  0.2999
  482TMC3    C7 7176   3.018   3.289  14.050  0.3459  0.1499 -0.8547
  482TMC3    C8 7177   2.577   3.152  14.185  0.1611  0.2079  0.3621
  482TMC3    O1 7178   3.129   3.303  14.099 -0.9489 -0.6214 -0.1442
  482TMC3    O2 7179   2.512   3.101  14.274  0.5021  0.4696  0.2144
  483TMC3    C1 7180   0.095   2.012   0.292  0.2843  0.2373  0.5085
  483TMC3    C2 7181   0.175   2.103   0.233  0.5259  0.6228  0.5649
  483TMC3    C3 7182   0.231   2.210   0.296 -0.1891 -0.0603  1.0794
  483TMC3    C4 7183   0.076   2.033   0.425  0.4249  0.4838  1.2746
  483TMC3    C5 7184   0.124   2.145   0.490  0.8033  0.2691  0.1492
  483TMC3    C6 7185   0.202   2.237   0.425 -0.0511 -0.1678 -0.0687
  483TMC3     C 7186   0.118   1.876   0.279  1.0279 -0.1534 -0.4731
  483TMC3     O 7187   0.037   1.813   0.212 -0.4070  0.0516 -0.2813
  483TMC3     H 7188   0.204   2.085   0.130  0.9831 -1.0638  0.9914
  483TMC3    H1 7189   0.022   1.959   0.483  0.4098  0.8914  1.7718
  483TMC3    H2 7190   0.255   2.306   0.490  0.8774 -1.7908  0.8917
  483TMC3    C7 7191   0.177   2.125   0.626 -0.6838 -0.4382 -0.1565
  483TMC3    C8 7192   0.288   2.311   0.210  0.3814  0.1119 -0.0798
  483TMC3    O1 7193   0.251   2.029   0.639 -0.1945 -0.3619  0.1388
  483TMC3    O2 7194   0.266   2.305   0.089 -0.3150  0.0557  0.3754
  484MPD2     C 7195   4.056   0.822  12.737 -0.3185 -0.1332  0.3977
  484MPD2    C1 7196   4.061   0.712  12.813  0.0643  0.0446 -0.4614
  484MPD2    C2 7197   4.187   0.680  12.868 -0.2639 -0.6466 -0.1971
  484MPD2    C3 7198   4.309   0.747  12.839 -0.8818 -0.3306  0.2447
  484MPD2    C4 7199   4.297   0.861  12.755  0.4830  0.1439  0.5370
  484MPD2    C5 7200   4.174   0.897  12.710  0.0206 -0.4772  0.1295
  484MPD2     H 7201   4.203   0.591  12.929  1.1324  1.2667  2.2444
  484MPD2    H1 7202   4.382   0.917  12.719 -0.2213  0.8086 -0.1071
  484MPD2    H2 7203   3.965   0.855  12.688  0.4770 -0.7362 -1.4889
  484MPD2    H3 7204   4.162   0.985  12.648  2.1859  1.9139  3.0666
  484MPD2     N 7205   4.433   0.711  12.895 -0.1835 -0.0902 -0.1329
  484MPD2    H5 7206   4.513   0.762  12.858  0.1811  0.2353  1.1116
  484MPD2    N1 7207   3.942   0.645  12.834  0.4141  0.3110 -0.4418
  484MPD2    H7 7208   3.865   0.690  12.785 -0.4773 -0.7108  0.0155
  485TMC3    C1 7209   4.596   0.569  12.962  0.0033  0.4274  0.2869
  485TMC3    C2 7210   4.661   0.499  13.058  0.1867 -1.0547 -0.0155
  485TMC3    C3 7211   0.072   0.481  13.056  0.3272 -0.0389  1.1483
  485TMC3    C4 7212   4.668   0.623  12.860  0.5655 -0.5586  0.4618
  485TMC3    C5 7213   0.080   0.604  12.853  0.2800 -0.3184  0.4030
  485TMC3    C6 7214   0.145   0.543  12.956 -0.0325  0.0362 -0.1469
  485TMC3     C 7215   4.459   0.609  12.981  0.1465 -0.3076  0.2047
  485TMC3     O 7216   4.385   0.524  13.034  0.1545  0.1033  0.1424
  485TMC3     H 7217   4.599   0.446  13.130 -2.1365  1.4209 -0.1562
  485TMC3    H1 7218   4.623   0.673  12.775  1.9899 -0.2642 -0.1341
  485TMC3    H2 7219   0.252   0.536  12.942 -0.3938 -1.1350 -2.2952
  485TMC3    C7 7220   0.126   0.542  12.735  0.5767  0.1510  0.3423
  485TMC3    C8 7221   0.123   0.358  13.099 -0.5858 -0.2701 -0.1244
  485TMC3    O1 7222   0.212   0.455  12.746  0.2047 -0.4368  0.3078
  485TMC3    O2 7223   0.083   0.318  13.209 -0.4506  0.8723 -0.4135
  486MPD2     C 7224   0.981   4.204  13.322  0.4848  0.2084  0.6164
  486MPD2    C1 7225   0.916   4.157  13.204 -0.0216 -0.0694 -0.0972
  486MPD2    C2 7226   0.866   4.244  13.113  0.4363  0.5479  0.7484
  486MPD2    C3 7227   0.872   4.381  13.141  0.7806  0.2946 -0.3117
  486MPD2    C4 7228   0.935   4.433  13.247  0.0508 -0.3107 -0.3281
  486MPD2    C5 7229   0.993   4.339  13.333 -0.8328 -0.4165  0.3119
  486MPD2     H 7230   0.804   4.216  13.029  1.5569  0.7894 -0.1512
  486MPD2    H1 7231   0.942   4.539  13.266 -1.7687 -0.2870  0.1428
  486MPD2    H2 7232   1.019   4.138  13.399 -0.7500 -1.0916  0.1307
  486MPD2    H3 7233   1.042   4.373  13.423  2.3268  1.1585 -2.0159
  486MPD2     N 7234   0.811   4.456  13.036 -0.1498 -0.0878  0.0187
  486MPD2    H5 7235   0.772   4.403  12.959  0.8238  2.1810 -2.0662
  486MPD2    N1 7236   0.908   4.022  13.182 -0.3047 -0.3509  0.2981
  486MPD2    H7 7237   0.930   3.964  13.263  1.3047 -2.3883 -1.5895
  487TMC3    C1 7238   0.841   3.814  13.089  0.7597  0.5576 -0.0285
  487TMC3    C2 7239   0.754   3.746  13.003  0.4557 -0.3942 -0.4136
  487TMC3    C3 7240   0.705   3.625  13.026  0.2862  0.1776 -0.3581
  487TMC3    C4 7241   0.897   3.748  13.198  0.0994  0.9691 -0.5474
  487TMC3    C5 7242   0.840   3.628  13.222  0.2330  0.3125 -0.1160
  487TMC3    C6 7243   0.745   3.569  13.144  0.5720 -0.4745  0.4046
  487TMC3     C 7244   0.862   3.959  13.066 -0.1002 -0.3066  0.3084
  487TMC3     O 7245   0.819   4.005  12.962 -0.6046  0.2052 -0.1003
  487TMC3     H 7246   0.710   3.792  12.915 -0.3638 -1.6135 -0.6386
  487TMC3    H1 7247   0.970   3.794  13.265 -2.5599  2.3418  1.4204
  487TMC3    H2 7248   0.687   3.489  13.188  1.4527 -1.6151 -0.5097
  487TMC3    C7 7249   0.856   3.594  13.359  0.3876  0.0094  0.1064
  487TMC3    C8 7250   0.606   3.556  12.941 -0.1459 -0.3391 -0.3229
  487TMC3    O1 7251   0.918   3.660  13.445 -0.0696  0.4187 -0.0288
  487TMC3    O2 7252   0.538   3.627  12.869  0.0120  0.0771 -0.4534
  488MPD2     C 7253   1.026   0.903  16.805  0.4826 -0.2153 -1.1288
  488MPD2    C1 7254   0.984   1.017  16.735  0.3111  0.7794 -0.3655
  488MPD2    C2 7255   0.946   1.138  16.811  0.0802  0.3268 -0.9505
  488MPD2    C3 7256   0.948   1.130  16.952  0.3431  0.1688  0.2562
  488MPD2    C4 7257   0.983   1.012  17.018  1.0019 -0.3874 -0.3186
  488MPD2    C5 7258   1.021   0.902  16.941 -0.0086  0.4669  0.5345
  488MPD2     H 7259   0.903   1.228  16.769 -1.6406  0.0000  0.1157
  488MPD2    H1 7260   0.990   1.000  17.125 -0.6082  1.4058  0.0092
  488MPD2    H2 7261   1.061   0.807  16.769 -0.4917 -2.0061  2.7527
  488MPD2    H3 7262   1.057   0.815  16.994 -0.0098  1.0524  1.5050
  488MPD2     N 7263   0.897   1.235  17.025  0.1851  0.1625  0.3656
  488MPD2    H5 7264   0.865   1.312  16.967 -3.0308  0.1201  2.1004
  488MPD2    N1 7265   0.979   1.029  16.590  0.3655  0.0435 -0.2523
  488MPD2    H7 7266   0.920   1.101  16.550 -0.6829 -0.7983 -0.2182
  489TMC3    C1 7267   0.842   1.381  17.197 -0.5936 -0.0765  0.3675
  489TMC3    C2 7268   0.773   1.459  17.113  0.4408  0.5087 -0.6364
  489TMC3    C3 7269   0.751   1.591  17.140 -0.2956  0.4800 -0.3376
  489TMC3    C4 7270   0.883   1.437  17.313  0.5988 -0.0480  0.4069
  489TMC3    C5 7271   0.856   1.567  17.346  0.7482 -0.8517  0.3903
  489TMC3    C6 7272   0.792   1.652  17.255 -0.3404  0.0338  0.0911
  489TMC3     C 7273   0.898   1.249  17.163 -0.0616  0.6962  0.6361
  489TMC3     O 7274   0.927   1.173  17.254 -0.4347 -0.1848 -0.0171
  489TMC3     H 7275   0.725   1.412  17.028  1.2406 -3.5787  1.1899
  489TMC3    H1 7276   0.931   1.378  17.389 -0.5108  0.5310  1.5618
  489TMC3    H2 7277   0.782   1.759  17.265  2.2734  0.5543 -2.8906
  489TMC3    C7 7278   0.946   1.633  17.444  0.7404 -0.0794 -0.0433
  489TMC3    C8 7279   0.724   1.670  17.026  0.0268  0.3952 -0.1780
  489TMC3    O1 7280   0.972   1.753  17.433  0.0783 -0.3407  0.0165
  489TMC3    O2 7281   0.744   1.613  16.921 -0.2855  0.1151  0.3724
  490MPD2     C 7282   1.957   0.243  17.310  0.6069 -0.2590 -0.9369
  490MPD2    C1 7283   1.947   0.324  17.419 -0.2177 -0.0425 -0.2082
  490MPD2    C2 7284   2.058   0.370  17.487 -0.7455 -0.2323  0.0206
  490MPD2    C3 7285   2.186   0.332  17.444  0.3688  0.2515 -0.6155
  490MPD2    C4 7286   2.195   0.258  17.329  0.0620  0.5124 -0.4716
  490MPD2    C5 7287   2.084   0.217  17.264  0.7468 -0.2291  0.5620
  490MPD2     H 7288   2.060   0.428  17.579 -2.2441 -1.9127  1.0995
  490MPD2    H1 7289   2.288   0.231  17.280 -0.8017 -0.4929 -1.5831
  490MPD2    H2 7290   1.877   0.212  17.244  0.1417  1.0702 -0.9952
  490MPD2    H3 7291   2.095   0.156  17.175  0.3320 -0.5048  0.6973
  490MPD2     N 7292   2.305   0.388  17.488  0.2574 -0.0576  0.2019
  490MPD2    H5 7293   2.390   0.347  17.450 -0.0705  0.7931 -1.4965
  490MPD2    N1 7294   1.821   0.339  17.476 -0.3972  0.1863 -0.0944
  490MPD2    H7 7295   1.821   0.397  17.559 -1.2327  0.7376 -0.4898
  491TMC3    C1 7296   1.603   0.332  17.537 -0.3804 -0.3276 -0.4787
  491TMC3    C2 7297   1.639   0.301  17.667  0.2917 -0.6663 -0.4085
  491TMC3    C3 7298   1.551   0.242   0.066  0.4132 -0.4915 -0.0099
  491TMC3    C4 7299   1.474   0.309  17.499  0.3928  0.1449  0.4416
  491TMC3    C5 7300   1.389   0.246  17.588 -0.0327  0.6695  0.0879
  491TMC3    C6 7301   1.423   0.222   0.032 -0.3925  0.9962  0.4317
  491TMC3     C 7302   1.697   0.303  17.433 -0.6839 -0.5091 -0.0129
  491TMC3     O 7303   1.659   0.249  17.331  0.3326  0.1982  0.3433
  491TMC3     H 7304   1.743   0.299   0.017  0.4773 -0.4878 -1.0096
  491TMC3    H1 7305   1.456   0.332  17.395  1.7085  0.8489  0.3646
  491TMC3    H2 7306   1.350   0.172   0.094  1.3359 -1.8132  0.2336
  491TMC3    C7 7307   1.255   0.216  17.547  1.1105  0.1359  0.4680
  491TMC3    C8 7308   1.588   0.229   0.208  0.1030  0.6220 -0.1558
  491TMC3    O1 7309   1.207   0.113  17.588  0.6129 -0.9058  0.0478
  491TMC3    O2 7310   1.509   0.168   0.278  0.0979  0.1030 -0.3518
  492MPD2     C 7311   2.231   0.744  11.548  0.8149 -0.2386 -0.2356
  492MPD2    C1 7312   2.150   0.647  11.500 -0.0285 -0.3724  1.0845
  492MPD2    C2 7313   2.057   0.581  11.580 -0.0092  0.4863  0.2231
  492MPD2    C3 7314   2.059   0.597  11.716 -0.1199 -0.0117  0.2816
  492MPD2    C4 7315   2.144   0.691  11.766  0.7175 -0.4217 -0.0510
  492MPD2    C5 7316   2.231   0.765  11.687 -0.0539 -0.3579 -0.3507
  492MPD2     H 7317   1.987   0.514  11.531 -0.0831 -1.6958  3.2733
  492MPD2    H1 7318   2.146   0.701  11.874 -0.4118 -0.4884 -0.0206
  492MPD2    H2 7319   2.315   0.785  11.493  0.0554  0.6043 -0.7717
  492MPD2    H3 7320   2.297   0.843  11.721  1.3951 -1.7236 -0.0670
  492MPD2     N 7321   1.992   0.514  11.813  0.1020 -0.2346 -0.7140
  492MPD2    H5 7322   1.989   0.541  11.910 -0.0748  1.1406 -1.0974
  492MPD2    N1 7323   2.161   0.635  11.362  0.1803  0.2555  0.2136
  492MPD2    H7 7324   2.250   0.677  11.338  1.6450 -1.3406  2.9006
  493TMC3    C1 7325   2.104   0.609  11.132 -0.3471  0.3887 -0.2935
  493TMC3    C2 7326   2.163   0.726  11.105  0.0232  0.6424  0.1119
  493TMC3    C3 7327   2.184   0.744  10.971  0.2728  0.8366  0.0055
  493TMC3    C4 7328   2.061   0.515  11.043  1.0062 -0.1046 -0.0819
  493TMC3    C5 7329   2.097   0.532  10.914 -0.6383  0.0109 -0.8948
  493TMC3    C6 7330   2.153   0.652  10.880 -0.3988  0.2570 -1.0899
  493TMC3     C 7331   2.077   0.571  11.276  0.0626 -0.6516 -0.4609
  493TMC3     O 7332   1.972   0.520  11.303  0.5805 -0.0946 -0.7287
  493TMC3     H 7333   2.195   0.803  11.174  3.2576 -0.9426  0.4110
  493TMC3    H1 7334   2.020   0.420  11.077  2.6219 -0.7066  0.2195
  493TMC3    H2 7335   2.174   0.666  10.774  0.2513  0.8077 -0.8908
  493TMC3    C7 7336   2.045   0.447  10.807  0.8700 -0.1596  0.3368
  493TMC3    C8 7337   2.265   0.855  10.928 -0.2482  0.3312 -0.2621
  493TMC3    O1 7338   2.033   0.491  10.692  0.1531  0.2110  0.2413
  493TMC3    O2 7339   2.254   0.895  10.813 -0.5706  0.3183  0.1743
  494TMC3    C1 7340   2.568   2.150   0.843  0.6229  0.4797  0.4395
  494TMC3    C2 7341   2.636   2.053   0.909  0.1530  0.1545  0.1982
  494TMC3    C3 7342   2.773   2.062   0.907  0.1871 -0.0800  0.4299
  494TMC3    C4 7343   2.629   2.249   0.774  0.3828  0.1517  0.3222
  494TMC3    C5 7344   2.765   2.254   0.767  0.4222 -0.8341 -0.2726
  494TMC3    C6 7345   2.837   2.161   0.838  0.2007  0.5921  0.3756
  494TMC3     C 7346   2.439   2.194   0.901  0.0851 -0.0205 -0.7049
  494TMC3     O 7347   2.432   2.165   1.018  0.5151 -0.3442 -0.3848
  494TMC3     H 7348   2.579   1.982   0.968  3.1581 -1.9931  0.5265
  494TMC3    H1 7349   2.574   2.323   0.716  0.5998 -0.7554 -1.0222
  494TMC3    H2 7350   2.945   2.157   0.837  0.1354 -1.4054  1.1402
  494TMC3    C7 7351   2.833   2.320   0.650  0.7045  0.3077  0.3366
  494TMC3    C8 7352   2.844   1.955   0.975  0.7245 -0.2093 -0.6796
  494TMC3    O1 7353   2.763   2.324   0.548  0.0352  0.0393  0.6689
  494TMC3    O2 7354   2.965   1.970   0.984  0.5338  0.2412 -0.3681
  495TMC3    C1 7355   1.487   4.594  14.858  0.0998  0.0288 -0.0331
  495TMC3    C2 7356   1.394   4.639  14.769  0.0037 -0.0742  0.0590
  495TMC3    C3 7357   1.269   4.654  14.811  0.2309  0.4474  0.2366
  495TMC3    C4 7358   1.451   4.554  14.984 -0.4159  0.0075 -0.5987
  495TMC3    C5 7359   1.326   4.587  15.026  0.6958 -0.0634  0.1720
  495TMC3    C6 7360   1.235   4.633  14.940 -1.0246 -0.9417  0.1316
  495TMC3     C 7361   1.571   4.495  14.806 -0.7178 -0.0957 -0.0350
  495TMC3     O 7362   1.530   4.380  14.821 -0.2546 -0.2017  0.3865
  495TMC3     H 7363   1.416   4.660  14.665 -0.8238  2.6835  0.4351
  495TMC3    H1 7364   1.520   4.498  15.046 -1.5140 -1.6112 -0.8364
  495TMC3    H2 7365   1.132   4.658  14.964  0.1770  2.6734  1.4949
  495TMC3    C7 7366   1.283   4.525  15.147 -0.4470  0.3107 -0.1981
  495TMC3    C8 7367   1.179   4.561  14.743  0.4695  0.0821  0.4158
  495TMC3    O1 7368   1.369   4.477  15.219  0.1973 -0.2738  0.3020
  495TMC3    O2 7369   1.062   4.588  14.774  0.2627  0.2748 -0.0453
  496MPD2     C 7370   3.559   3.608  14.789 -0.1695 -0.0925 -0.6728
  496MPD2    C1 7371   3.563   3.523  14.895  0.4469 -0.0263  0.2835
  496MPD2    C2 7372   3.517   3.560  15.024 -0.0835 -0.2252  0.1372
  496MPD2    C3 7373   3.474   3.689  15.046 -0.9992  1.1070 -0.1307
  496MPD2    C4 7374   3.480   3.778  14.939 -0.8155  0.2984  0.3265
  496MPD2    C5 7375   3.515   3.734  14.814  0.4400  0.7752  0.1973
  496MPD2     H 7376   3.513   3.487  15.104  2.7517 -0.5072  0.0125
  496MPD2    H1 7377   3.454   3.882  14.953 -0.8022  0.2337  0.8277
  496MPD2    H2 7378   3.588   3.579  14.689  0.5333 -0.8731 -0.2422
  496MPD2    H3 7379   3.531   3.809  14.738  1.1882 -0.4473 -0.8552
  496MPD2     N 7380   3.430   3.743  15.169  0.3777 -0.2894  0.3122
  496MPD2    H5 7381   3.387   3.834  15.160  1.2883  0.2883  1.6862
  496MPD2    N1 7382   3.615   3.396  14.859  0.3932  0.0505  0.6029
  496MPD2    H7 7383   3.644   3.382  14.763  0.4285 -0.7082  0.7260
  497TMC3    C1 7384   3.358   3.767  15.392 -0.2101 -0.0266 -0.3785
  497TMC3    C2 7385   3.315   3.899  15.367 -0.0332 -0.5604 -0.0466
  497TMC3    C3 7386   3.241   3.955  15.464 -0.1609  0.5439  0.0356
  497TMC3    C4 7387   3.321   3.698  15.504 -0.5072 -0.2089  0.5443
  497TMC3    C5 7388   3.228   3.752  15.594  0.0507 -0.3166 -0.2925
  497TMC3    C6 7389   3.197   3.884  15.570 -0.0369  0.2322  0.0030
  497TMC3     C 7390   3.421   3.683  15.288 -0.0883  0.1415  0.0051
  497TMC3     O 7391   3.464   3.571  15.316  0.2278 -0.3074  0.0687
  497TMC3     H 7392   3.323   3.956  15.275  0.1648  1.2519  1.1044
  497TMC3    H1 7393   3.344   3.593  15.516  0.5197  0.0848  1.2325
  497TMC3    H2 7394   3.158   3.946  15.651 -1.1190 -1.2705  0.6240
  497TMC3    C7 7395   3.238   3.720  15.738  0.0636 -0.6753  0.2372
  497TMC3    C8 7396   3.168   4.074  15.427 -0.2705  0.3645 -0.2727
  497TMC3    O1 7397   3.135   3.725  15.802 -0.1487  0.1678 -0.6861
  497TMC3    O2 7398   3.228   4.156  15.362 -0.3898  0.7598 -0.2509
  498MPD2     C 7399   0.204   0.427   9.892  0.3734  0.2144 -0.1440
  498MPD2    C1 7400   0.127   0.538   9.913 -0.3121  0.4029  0.1496
  498MPD2    C2 7401   4.705   0.533   9.922  0.0767 -0.1245 -0.0468
  498MPD2    C3 7402   4.648   0.411   9.914 -0.1427  0.2052  0.0474
  498MPD2    C4 7403   0.007   0.294   9.901 -0.7481 -0.4194 -0.3001
  498MPD2    C5 7404   0.149   0.305   9.894 -0.0893 -0.4916 -0.3722
  498MPD2     H 7405   4.649   0.626   9.929  1.9210  0.8474  1.8786
  498MPD2    H1 7406   4.670   0.203   9.885 -0.7093 -0.3129 -1.0566
  498MPD2    H2 7407   0.312   0.432   9.900  0.3054 -1.0881  1.6944
  498MPD2    H3 7408   0.223   0.228   9.876 -0.7162 -0.7831 -1.6958
  498MPD2     N 7409   4.509   0.401   9.913 -0.4898 -0.3771 -0.4562
  498MPD2    H5 7410   4.468   0.308   9.903 -2.2965  0.1508  1.9578
  498MPD2    N1 7411   0.174   0.672   9.916  0.3714 -0.0035  0.1490
  498MPD2    H7 7412   0.107   0.747   9.928 -0.7319 -0.4603 -3.1404
  499TMC3    C1 7413   0.328   0.848   9.901 -0.6973  0.1027 -0.5695
  499TMC3    C2 7414   0.445   0.887   9.847  0.8960  0.3675 -0.1975
  499TMC3    C3 7415   0.464   1.018   9.824 -0.3287  0.0439 -0.5392
  499TMC3    C4 7416   0.241   0.942   9.957 -0.0478 -0.0505  0.0877
  499TMC3    C5 7417   0.266   1.074   9.933 -0.1076 -0.8105  1.0299
  499TMC3    C6 7418   0.375   1.114   9.865 -0.1208  0.3323 -0.0256
  499TMC3     C 7419   0.306   0.707   9.903  0.0056 -0.2187 -0.8028
  499TMC3     O 7420   0.399   0.636   9.868  0.0833 -0.7037  0.0822
  499TMC3     H 7421   0.526   0.823   9.815  1.4917  1.4675 -0.8597
  499TMC3    H1 7422   0.136   0.929   9.979 -0.4833  0.3350 -1.7962
  499TMC3    H2 7423   0.401   1.220   9.864  0.9106  0.0846  0.1844
  499TMC3    C7 7424   0.186   1.173  10.000  0.1779 -0.2371 -0.5628
  499TMC3    C8 7425   0.579   1.061   9.750  0.3641 -0.1878 -0.3254
  499TMC3    O1 7426   0.228   1.289   9.994 -0.1834 -0.0646 -0.7303
  499TMC3    O2 7427   0.685   1.000   9.752  0.0359 -0.1642  0.7881
  500MPD2     C 7428   1.477   1.891   9.977  0.1768 -0.1241 -0.1858
  500MPD2    C1 7429   1.451   1.891  10.114 -0.0796 -0.3516 -0.6729
  500MPD2    C2 7430   1.336   1.831  10.172 -0.8919  0.6983 -0.0119
  500MPD2    C3 7431   1.238   1.795  10.086 -0.0559  0.1414 -0.2096
  500MPD2    C4 7432   1.261   1.794   9.946  0.2752  0.5489 -0.4629
  500MPD2    C5 7433   1.379   1.842   9.894 -0.3947  0.6134  0.1797
  500MPD2     H 7434   1.323   1.830  10.280  1.1592 -3.4200  0.1615
  500MPD2    H1 7435   1.190   1.764   9.870 -1.8082  3.6153  0.2798
  500MPD2    H2 7436   1.565   1.948   9.952 -0.1358 -0.4851 -2.1272
  500MPD2    H3 7437   1.395   1.833   9.787  0.7535 -0.5265  0.4332
  500MPD2     N 7438   1.112   1.748  10.130 -0.0589  0.0144 -0.2211
  500MPD2    H5 7439   1.063   1.694  10.059 -2.0034 -0.2811  1.3232
  500MPD2    N1 7440   1.535   1.961  10.207 -0.1927 -0.5473  0.1929
  500MPD2    H7 7441   1.513   1.950  10.305  2.0669 -0.5546  0.7169
  501TMC3    C1 7442   1.683   2.122  10.281 -0.6041 -0.2797 -0.1610
  501TMC3    C2 7443   1.673   2.260  10.281 -0.0520  0.1879  0.7115
  501TMC3    C3 7444   1.684   2.319  10.400 -0.1516 -0.1198  0.6822
  501TMC3    C4 7445   1.741   2.048  10.378 -0.3627 -0.0783  0.4457
  501TMC3    C5 7446   1.770   2.118  10.486  0.7630  0.2855  0.4301
  501TMC3    C6 7447   1.732   2.246  10.503 -0.3178 -0.0049 -0.1805
  501TMC3     C 7448   1.624   2.058  10.168  0.4088  0.1293 -0.6491
  501TMC3     O 7449   1.651   2.113  10.064  0.0693  0.0836 -0.2670
  501TMC3     H 7450   1.631   2.312  10.195 -1.1802 -1.9020 -0.0064
  501TMC3    H1 7451   1.751   1.941  10.394  0.0797  0.0081  0.7523
  501TMC3    H2 7452   1.734   2.297  10.599  0.1928  0.3784 -0.3944
  501TMC3    C7 7453   1.867   2.072  10.585 -0.1545  1.0210 -0.6670
  501TMC3    C8 7454   1.715   2.464  10.403  0.4056  0.3410  0.3739
  501TMC3    O1 7455   1.868   1.956  10.608  0.1646  0.1426  0.0507
  501TMC3    O2 7456   1.789   2.494  10.496 -0.5367 -0.2109  0.5076
  502TMC3    C1 7457   0.610   0.089  15.284 -0.0551  0.0774  0.5470
  502TMC3    C2 7458   0.662   0.182  15.199 -0.5351  0.0202 -0.5916
  502TMC3    C3 7459   0.567   0.254  15.128  0.5041  0.5569 -0.5773
  502TMC3    C4 7460   0.483   0.052  15.292  0.9459  0.1700  0.7712
  502TMC3    C5 7461   0.395   0.124  15.214  0.4263  0.1836 -0.0072
  502TMC3    C6 7462   0.432   0.234  15.145 -0.1499 -0.1291  0.3197
  502TMC3     C 7463   0.706   0.038  15.387 -0.2463 -0.1445  0.0243
  502TMC3     O 7464   0.821   0.015  15.355 -0.2262 -0.0827 -0.5211
  502TMC3     H 7465   0.767   0.210  15.207 -0.7833  1.1103 -1.0679
  502TMC3    H1 7466   0.450   4.703  15.370  0.5030 -1.4586 -0.8442
  502TMC3    H2 7467   0.363   0.295  15.087  1.1320  1.9958  1.0127
  502TMC3    C7 7468   0.253   0.115  15.243 -0.0322 -0.5068 -1.1637
  502TMC3    C8 7469   0.607   0.384  15.063  0.1917 -0.0065 -0.3140
  502TMC3    O1 7470   0.191   0.221  15.225 -0.1605  0.0607 -0.4031
  502TMC3    O2 7471   0.529   0.475  15.050  0.1457  0.0552 -0.7776
  503MPD2     C 7472   2.679   0.979  16.942 -0.9940  0.0191 -0.5804
  503MPD2    C1 7473   2.700   1.003  17.073 -0.1785 -0.7455 -0.4426
  503MPD2    C2 7474   2.780   0.921  17.151 -0.5934 -0.6502 -0.6752
  503MPD2    C3 7475   2.837   0.810  17.102 -0.3625  0.2015 -0.0051
  503MPD2    C4 7476   2.820   0.786  16.968 -0.3786 -1.1761 -0.6539
  503MPD2    C5 7477   2.752   0.875  16.886 -0.2425 -0.0690 -0.3604
  503MPD2     H 7478   2.792   0.949  17.256  1.5261 -0.7591 -0.8905
  503MPD2    H1 7479   2.863   0.696  16.925 -1.1359 -1.5291 -0.6741
  503MPD2    H2 7480   2.621   1.049  16.882 -0.3802  0.1307 -1.0358
  503MPD2    H3 7481   2.741   0.852  16.781  0.4209 -0.3989 -0.3570
  503MPD2     N 7482   2.908   0.725  17.197  0.0077  0.0176 -0.3993
  503MPD2    H5 7483   2.894   0.733  17.298  0.3105 -3.9071 -0.0605
  503MPD2    N1 7484   2.673   1.128  17.135 -0.2058 -0.4167  0.1635
  503MPD2    H7 7485   2.716   1.142  17.226 -0.0140  0.2343 -0.0324
  504TMC3    C1 7486   3.069   0.563  17.262  0.4737  0.7208  0.3688
  504TMC3    C2 7487   3.060   0.597  17.392 -0.2876  0.4224  0.5756
  504TMC3    C3 7488   3.150   0.533  17.477 -0.4219  0.4842 -0.3477
  504TMC3    C4 7489   3.157   0.468  17.223  0.0730 -0.0235 -0.6325
  504TMC3    C5 7490   3.242   0.412  17.309  0.0178  0.0430 -0.5215
  504TMC3    C6 7491   3.256   0.452  17.437 -0.1988  0.2124  0.0185
  504TMC3     C 7492   3.001   0.632  17.157 -0.5246 -0.0382 -0.0405
  504TMC3     O 7493   3.037   0.609  17.041 -0.3417 -0.3584 -0.0181
  504TMC3     H 7494   2.988   0.670  17.428 -1.2792 -1.4346  2.3815
  504TMC3    H1 7495   3.158   0.441  17.118  0.1713  1.3850 -1.0007
  504TMC3    H2 7496   3.333   0.410  17.501 -0.4560  0.4777  0.5014
  504TMC3    C7 7497   3.370   0.381  17.240 -0.4024 -0.8897 -0.8815
  504TMC3    C8 7498   3.147   0.588  17.614  0.3943 -0.3071 -0.4012
  504TMC3    O1 7499   3.381   0.406  17.120 -0.2390  0.5861  0.2143
  504TMC3    O2 7500   3.064   0.677  17.640  0.5575  0.0614 -0.0233
  505MPD2     C 7501   3.255   0.613  10.690 -0.3962  0.6293 -0.0543
  505MPD2    C1 7502   3.253   0.492  10.621  0.6671 -0.0782 -0.0629
  505MPD2    C2 7503   3.343   0.403  10.660 -0.6172  0.1699 -0.2488
  505MPD2    C3 7504   3.443   0.425  10.753  0.1137  0.3511 -0.1583
  505MPD2    C4 7505   3.450   0.552  10.819 -0.1383 -0.2924  0.4448
  505MPD2    C5 7506   3.349   0.642  10.786 -0.2352 -0.0923 -0.0758
  505MPD2     H 7507   3.351   0.305  10.613  2.7681  0.2292  0.1600
  505MPD2    H1 7508   3.520   0.572  10.900  0.3546  0.3356 -0.1370
  505MPD2    H2 7509   3.188   0.692  10.659 -1.4504 -0.1651  0.1591
  505MPD2    H3 7510   3.349   0.737  10.838  1.0012  1.5937 -3.0942
  505MPD2     N 7511   3.523   0.318  10.804  0.1434  0.4710 -0.1617
  505MPD2    H5 7512   3.591   0.343  10.875  0.1786 -0.5063  0.1453
  505MPD2    N1 7513   3.174   0.474  10.509 -0.2872 -0.6233 -1.0036
  505MPD2    H7 7514   3.123   0.555  10.474 -0.5910 -1.0379 -1.5167
  506TMC3    C1 7515   3.053   0.367  10.340 -0.3403  0.3047 -0.7064
  506TMC3    C2 7516   3.079   0.482  10.265  0.2506 -0.2487  0.1155
  506TMC3    C3 7517   3.148   0.453  10.154 -0.9631  0.2025 -0.1131
  506TMC3    C4 7518   3.042   0.242  10.293  0.1152  0.2864 -0.2822
  506TMC3    C5 7519   3.096   0.222  10.166  0.2288 -0.4263  0.8729
  506TMC3    C6 7520   3.149   0.326  10.096  0.1891 -0.3138 -0.4872
  506TMC3     C 7521   3.122   0.353  10.465 -0.2404  0.4433 -0.2038
  506TMC3     O 7522   3.156   0.241  10.502  0.1661 -0.0049  0.2288
  506TMC3     H 7523   3.106   0.580  10.303 -0.7704 -1.1810  3.1863
  506TMC3    H1 7524   3.002   0.160  10.350  1.0995 -0.9625 -1.4057
  506TMC3    H2 7525   3.212   0.293  10.014 -0.5717  1.9518 -1.9818
  506TMC3    C7 7526   3.175   0.095  10.155 -0.5771  0.3471 -0.0944
  506TMC3    C8 7527   3.234   0.556  10.097 -0.5981 -0.4546 -0.1064
  506TMC3    O1 7528   3.202   0.042  10.049 -0.0981  0.0419  0.1617
  506TMC3    O2 7529   3.179   0.665  10.103 -0.1834 -0.0040 -0.0355
  507TMC3    C1 7530   3.824   1.348  13.768  0.1169 -0.2384  0.1674
  507TMC3    C2 7531   3.860   1.266  13.663  0.2977  0.3923 -0.6928
  507TMC3    C3 7532   3.795   1.269  13.542 -0.2314 -0.2055  0.1271
  507TMC3    C4 7533   3.713   1.432  13.750 -0.1878  0.4667 -0.5487
  507TMC3    C5 7534   3.651   1.436  13.624 -0.1044 -0.1838  0.5494
  507TMC3    C6 7535   3.690   1.361  13.519 -0.0820  0.2727  0.0203
  507TMC3     C 7536   3.906   1.357  13.882 -0.0603 -0.0844 -0.1425
  507TMC3     O 7537   4.025   1.319  13.870  0.2053 -0.7343 -0.2363
  507TMC3     H 7538   3.928   1.183  13.681 -2.2316 -1.5400  0.0879
  507TMC3    H1 7539   3.682   1.504  13.825 -3.0258  0.7959 -2.0376
  507TMC3    H2 7540   3.650   1.379  13.420  1.7830 -1.8687 -1.1003
  507TMC3    C7 7541   3.517   1.482  13.605 -0.5667  0.4589 -0.3149
  507TMC3    C8 7542   3.761   1.139  13.496  0.8763 -0.7707 -0.2460
  507TMC3    O1 7543   3.461   1.471  13.497 -0.3018  0.0666 -0.2983
  507TMC3    O2 7544   3.834   1.041  13.502  0.0398 -0.5727 -0.0278
  508MPD2     C 7545   0.024   2.698  16.053 -0.9477  0.4792 -0.8738
  508MPD2    C1 7546   4.666   2.808  16.088  0.5784  0.5154  0.0376
  508MPD2    C2 7547   4.606   2.892  15.996  0.5009 -0.0061  0.0375
  508MPD2    C3 7548   4.643   2.874  15.863  0.4669  0.5131  0.8134
  508MPD2    C4 7549   4.710   2.757  15.831 -0.2509  0.4078  0.0790
  508MPD2    C5 7550   0.041   2.668  15.922 -0.0353 -0.0041  0.0023
  508MPD2     H 7551   4.550   2.980  16.027 -1.7864 -0.1103 -3.9064
  508MPD2    H1 7552   0.004   2.721  15.730 -0.0823 -0.6984  0.5009
  508MPD2    H2 7553   0.063   2.632  16.129  2.1278  1.1026 -1.9062
  508MPD2    H3 7554   0.093   2.576  15.895  2.3266  0.7709  1.8792
  508MPD2     N 7555   4.617   2.982  15.773  0.6748  0.0281  0.1279
  508MPD2    H5 7556   4.580   3.065  15.819 -2.1177  1.3137 -4.4806
  508MPD2    N1 7557   4.655   2.825  16.228 -0.0872  0.3673 -0.4151
  508MPD2    H7 7558   4.715   2.770  16.289  0.3500  0.2538 -0.9499
  509TMC3    C1 7559   4.558   3.347  15.584 -0.3176  0.0282 -0.1168
  509TMC3    C2 7560   4.658   3.394  15.510 -0.7978 -0.0224  0.4695
  509TMC3    C3 7561   0.029   3.300  15.471  0.2825  0.0936 -0.6695
  509TMC3    C4 7562   4.547   3.216  15.636  0.3996 -0.2597  0.3738
  509TMC3    C5 7563   4.637   3.121  15.589 -0.1769  0.5371 -0.1407
  509TMC3    C6 7564   0.025   3.171  15.517  0.3382  0.1552  0.0285
  509TMC3     C 7565   4.432   3.422  15.571 -0.7800  0.2995  0.4627
  509TMC3     O 7566   4.330   3.361  15.614 -0.6284  0.1578 -0.3114
  509TMC3     H 7567   4.656   3.485  15.450 -2.3115 -0.2204  0.2162
  509TMC3    H1 7568   4.460   3.192  15.697  0.7326  0.9321  1.3208
  509TMC3    H2 7569   0.104   3.104  15.485 -1.1205 -0.1511 -2.9293
  509TMC3    C7 7570   4.662   2.994  15.646 -0.8806  0.5549  0.0633
  509TMC3    C8 7571   0.163   3.346  15.446  0.2148  0.5688 -0.5541
  509TMC3    O1 7572   0.013   2.915  15.586  0.1861  0.1035  0.4405
  509TMC3    O2 7573   0.253   3.262  15.440  0.1202  0.9048 -0.4757
  510MPD2     C 7574   2.596   4.532  14.627  0.2587  0.2479  0.2299
  510MPD2    C1 7575   2.592   4.410  14.692 -0.3879 -0.1082 -0.7894
  510MPD2    C2 7576   2.711   4.334  14.696 -0.3585 -0.5022  0.8189
  510MPD2    C3 7577   2.827   4.378  14.638 -0.3817 -0.7929 -0.0933
  510MPD2    C4 7578   2.822   4.495  14.564  0.1037  0.5250 -0.2298
  510MPD2    C5 7579   2.706   4.564  14.557 -0.9523  0.0515 -0.4915
  510MPD2     H 7580   2.715   4.251  14.765  1.2709 -0.1783  1.1165
  510MPD2    H1 7581   2.910   4.534  14.514  1.2135 -1.7669 -0.0886
  510MPD2    H2 7582   2.507   4.590  14.609  1.0262  2.1171  2.5152
  510MPD2    H3 7583   2.712   4.652  14.493  1.8085 -0.1209 -0.4902
  510MPD2     N 7584   2.941   4.298  14.665  0.5724  0.8093  0.8803
  510MPD2    H5 7585   2.930   4.218  14.726 -2.0574  1.5035  1.3002
  510MPD2    N1 7586   2.467   4.359  14.739 -0.6739 -0.4805  0.1109
  510MPD2    H7 7587   2.399   4.434  14.750 -0.4735 -0.2837  0.0104
  511TMC3    C1 7588   2.308   4.209  14.827 -0.2871 -0.6076  0.1445
  511TMC3    C2 7589   2.263   4.283  14.934  0.1466 -1.5940  1.1047
  511TMC3    C3 7590   2.167   4.226  15.016  0.8067  0.7926 -0.2625
  511TMC3    C4 7591   2.277   4.080  14.809 -0.7094 -0.7747  0.8856
  511TMC3    C5 7592   2.183   4.029  14.893  1.5452 -0.1807 -0.1046
  511TMC3    C6 7593   2.123   4.098  14.994 -0.2128 -0.7493 -0.0854
  511TMC3     C 7594   2.439   4.231  14.778 -0.3035 -0.1783 -0.2636
  511TMC3     O 7595   2.507   4.129  14.754 -0.0411  0.2356  0.3167
  511TMC3     H 7596   2.304   4.384  14.936  0.3759 -1.6536 -0.6146
  511TMC3    H1 7597   2.309   4.024  14.722 -3.0008  1.5125 -1.4230
  511TMC3    H2 7598   2.038   4.063  15.051 -0.7347  0.5630 -0.0523
  511TMC3    C7 7599   2.132   3.896  14.856 -0.2602  0.7773 -0.3944
  511TMC3    C8 7600   2.125   4.292  15.137 -0.2328 -1.4762  0.1936
  511TMC3    O1 7601   2.132   3.869  14.740 -0.5017 -0.3024 -0.3883
  511TMC3    O2 7602   2.168   4.404  15.159 -0.7761  0.1350  0.5591
  512TMC3    C1 7603   1.286   4.146  13.122 -0.1189 -0.0810  0.1959
  512TMC3    C2 7604   1.374   4.110  13.215 -0.3120  0.1375  0.7829
  512TMC3    C3 7605   1.398   3.977  13.227  0.6576 -0.7312 -0.3453
  512TMC3    C4 7606   1.230   4.053  13.038  0.5106  0.2130 -0.1467
  512TMC3    C5 7607   1.249   3.922  13.060 -0.5609  0.7391  0.4096
  512TMC3    C6 7608   1.330   3.885  13.156  0.8888  0.5792 -1.2586
  512TMC3     C 7609   1.272   4.290  13.093 -0.4140  0.4061  0.6482
  512TMC3     O 7610   1.333   4.359  13.171  0.1377  0.0591  0.4572
  512TMC3     H 7611   1.390   4.177  13.299 -0.7905  0.7540  0.3853
  512TMC3    H1 7612   1.154   4.075  12.964  1.7611 -0.5427 -1.6538
  512TMC3    H2 7613   1.361   3.781  13.162 -0.6426  0.2619  0.9447
  512TMC3    C7 7614   1.177   3.832  12.968 -0.1404  0.1084 -0.7945
  512TMC3    C8 7615   1.508   3.933  13.315 -0.4096 -0.1031 -0.2746
  512TMC3    O1 7616   1.120   3.879  12.868 -0.1217  0.0052 -0.6514
  512TMC3    O2 7617   1.503   3.813  13.342  0.1089  0.5950  0.2185
  513MPD2     C 7618   3.748   4.008  13.135 -0.0808 -0.0941 -0.5695
  513MPD2    C1 7619   3.820   3.913  13.065  0.3004 -0.1862  0.3060
  513MPD2    C2 7620   3.951   3.894  13.103 -0.0265  0.2151  0.2352
  513MPD2    C3 7621   4.007   3.958  13.213  0.7101 -0.7472 -0.2342
  513MPD2    C4 7622   3.925   4.047  13.284 -0.9798  0.0684  0.5726
  513MPD2    C5 7623   3.797   4.067  13.241  0.4501 -0.7679  0.5381
  513MPD2     H 7624   4.024   3.840  13.044 -0.1711  1.8108 -1.4131
  513MPD2    H1 7625   3.966   4.117  13.355 -2.8214 -1.3107  2.9894
  513MPD2    H2 7626   3.647   4.033  13.105  0.2421  0.7167 -0.9569
  513MPD2    H3 7627   3.726   4.126  13.298  2.2707  0.8125  1.1704
  513MPD2     N 7628   4.146   3.973  13.229 -0.5605 -0.2805  0.2366
  513MPD2    H5 7629   4.206   3.928  13.160 -0.8576 -2.1395  1.1826
  513MPD2    N1 7630   3.762   3.856  12.950  0.5247 -0.1265  0.2716
  513MPD2    H7 7631   3.668   3.893  12.938  0.6546 -0.2318 -1.1089
  514TMC3    C1 7632   3.761   3.739  12.741  0.3504 -1.0433  0.1045
  514TMC3    C2 7633   3.712   3.859  12.689 -0.3866  0.6843 -0.7155
  514TMC3    C3 7634   3.749   3.896  12.563 -0.1394 -0.0604 -0.1194
  514TMC3    C4 7635   3.842   3.657  12.664 -0.2982  0.0401 -0.4416
  514TMC3    C5 7636   3.875   3.692  12.538  0.3960  0.2085  0.0190
  514TMC3    C6 7637   3.833   3.816  12.488 -0.3768  0.1726 -0.3958
  514TMC3     C 7638   3.826   3.764  12.871 -0.6461  0.2462  0.2280
  514TMC3     O 7639   3.930   3.699  12.885 -0.0456 -0.5188  0.0841
  514TMC3     H 7640   3.647   3.928  12.742 -1.0085  0.1944 -0.8436
  514TMC3    H1 7641   3.876   3.562  12.705  0.8749  0.5691 -0.1998
  514TMC3    H2 7642   3.872   3.845  12.392  0.9261 -0.0796  0.0565
  514TMC3    C7 7643   4.019   3.663  12.523  0.2956 -0.0767 -0.0788
  514TMC3    C8 7644   3.683   4.017  12.510 -0.0319 -0.2527 -0.0929
  514TMC3    O1 7645   4.063   3.636  12.410 -0.1412 -0.6233 -0.3777
  514TMC3    O2 7646   3.569   4.036  12.551  0.2244 -0.2005 -0.3378
  515MPD2     C 7647   1.229   1.382  15.271  0.2217  0.3858  0.1474
  515MPD2    C1 7648   1.292   1.280  15.200  0.2247 -0.7404  0.4761
  515MPD2    C2 7649   1.432   1.255  15.216 -0.1109 -0.5265 -0.3583
  515MPD2    C3 7650   1.501   1.334  15.305 -1.0597  0.9794 -0.5276
  515MPD2    C4 7651   1.440   1.440  15.367  0.5861  0.4014 -0.2804
  515MPD2    C5 7652   1.306   1.465  15.352  0.4198 -0.2237  0.6700
  515MPD2     H 7653   1.484   1.174  15.167 -0.7271 -0.3132 -1.3796
  515MPD2    H1 7654   1.501   1.486  15.444  0.5152 -1.2201  0.7574
  515MPD2    H2 7655   1.127   1.408  15.246  0.1358  0.3448  0.4607
  515MPD2    H3 7656   1.258   1.545  15.408  0.9745 -0.4920  1.5242
  515MPD2     N 7657   1.642   1.307  15.336 -0.2125  0.4731  0.2198
  515MPD2    H5 7658   1.686   1.361  15.409 -1.0403  0.0424  1.0394
  515MPD2    N1 7659   1.231   1.195  15.105  0.2444  0.2434  0.4088
  515MPD2    H7 7660   1.281   1.161  15.024 -2.0274 -0.6098 -0.6316
  516TMC3    C1 7661   1.059   1.061  15.032 -0.1339 -0.0212  0.0206
  516TMC3    C2 7662   1.112   1.070  14.905  0.2784 -0.2554  0.2879
  516TMC3    C3 7663   1.130   0.954  14.829 -0.7968 -0.1867  0.2031
  516TMC3    C4 7664   1.016   0.944  15.084 -0.0575  1.1172  0.4290
  516TMC3    C5 7665   1.017   0.837  15.001 -0.7410  0.0696 -0.1108
  516TMC3    C6 7666   1.075   0.838  14.872  1.1854  0.0447  0.2409
  516TMC3     C 7667   1.100   1.159  15.125  0.2479  0.5771  0.7953
  516TMC3     O 7668   1.033   1.158  15.230 -0.4054 -0.3264  0.2132
  516TMC3     H 7669   1.144   1.165  14.864 -0.3026  1.1708  3.1748
  516TMC3    H1 7670   0.976   0.929  15.183 -1.2533 -0.1310 -0.2279
  516TMC3    H2 7671   1.099   0.748  14.815  0.5592 -0.6613  1.0949
  516TMC3    C7 7672   1.015   0.705  15.071 -0.2544  0.2407 -0.1432
  516TMC3    C8 7673   1.157   0.984  14.691 -0.0819 -0.4028 -0.1310
  516TMC3    O1 7674   1.093   0.618  15.028  0.5045  0.0192  0.5940
  516TMC3    O2 7675   1.068   0.951  14.615  0.5493  0.1204 -0.2124
  517MPD2     C 7676   1.087   2.154  16.893  0.2763  0.1919  0.9894
  517MPD2    C1 7677   1.051   2.141  17.027 -0.0009  0.5574 -0.3275
  517MPD2    C2 7678   0.984   2.249  17.089  0.3477 -0.7313  0.0233
  517MPD2    C3 7679   0.955   2.364  17.015  0.9802 -1.0709 -0.5442
  517MPD2    C4 7680   0.961   2.354  16.880  0.0952 -0.1433  0.1336
  517MPD2    C5 7681   1.034   2.258  16.820  0.4117 -0.2827  0.5646
  517MPD2     H 7682   0.965   2.242  17.196 -1.2179  1.3412 -0.1130
  517MPD2    H1 7683   0.909   2.430  16.823  0.7256  0.1371 -0.0655
  517MPD2    H2 7684   1.148   2.080  16.843 -2.9704 -1.4084 -0.5951
  517MPD2    H3 7685   1.048   2.262  16.712  0.1254 -2.0971  0.4686
  517MPD2     N 7686   0.885   2.476  17.072 -0.1947  0.0435 -0.3499
  517MPD2    H5 7687   0.862   2.551  17.008  0.2694 -0.2936 -0.9082
  517MPD2    N1 7688   1.089   2.029  17.112  0.3976  1.0173 -0.4250
  517MPD2    H7 7689   1.057   2.032  17.208 -0.2596 -1.4481 -0.5657
  518TMC3    C1 7690   1.161   1.813  17.161 -0.7059 -0.0304 -0.3615
  518TMC3    C2 7691   1.182   1.685  17.121 -0.0723 -0.2543 -0.2174
  518TMC3    C3 7692   1.257   1.600  17.201 -0.0545 -0.4572  0.1261
  518TMC3    C4 7693   1.217   1.865  17.275 -0.2311  0.1347 -0.3744
  518TMC3    C5 7694   1.279   1.777  17.362 -0.2329 -0.3450  0.7062
  518TMC3    C6 7695   1.296   1.642  17.325  0.2693  0.0894  0.4773
  518TMC3     C 7696   1.123   1.902  17.057  0.2982 -0.7012 -0.2598
  518TMC3     O 7697   1.139   1.871  16.938  0.1361  0.0286 -0.6444
  518TMC3     H 7698   1.137   1.660  17.026  0.1982  2.8706 -1.1688
  518TMC3    H1 7699   1.200   1.966  17.312  0.2595  1.1264 -2.8124
  518TMC3    H2 7700   1.351   1.578  17.393  1.2321  0.9115  0.4806
  518TMC3    C7 7701   1.373   1.840  17.453  0.3475 -0.4578 -0.0296
  518TMC3    C8 7702   1.249   1.458  17.184 -0.4935  0.0468  0.0698
  518TMC3    O1 7703   1.340   1.951  17.498 -0.5777  0.5401 -0.5322
  518TMC3    O2 7704   1.256   1.400  17.291  0.0180  0.2656 -0.9771
  519MPD2     C 7705   2.699   0.291  14.420 -0.0613  0.1228  0.4537
  519MPD2    C1 7706   2.636   0.277  14.304 -0.0456 -0.7767  0.3957
  519MPD2    C2 7707   2.692   0.193  14.211 -0.2505 -0.0227 -0.1159
  519MPD2    C3 7708   2.801   0.115  14.226  0.2013 -0.0844 -0.3687
  519MPD2    C4 7709   2.866   0.128  14.348 -0.4854  0.0163 -0.3140
  519MPD2    C5 7710   2.810   0.216  14.438 -0.1261  0.2170  0.2467
  519MPD2     H 7711   2.633   0.183  14.120 -2.8960  2.1898  1.3755
  519MPD2    H1 7712   2.962   0.082  14.370 -1.2975 -0.8979  1.3426
  519MPD2    H2 7713   2.660   0.350  14.502  1.8397 -0.6017  1.8670
  519MPD2    H3 7714   2.853   0.237  14.536 -1.7788 -1.5998  1.3458
  519MPD2     N 7715   2.856   0.042  14.125 -0.1721 -0.2067 -0.4101
  519MPD2    H5 7716   2.936   4.705  14.153  0.8263  1.0196 -0.8082
  519MPD2    N1 7717   2.522   0.350  14.263  0.1026 -0.5777 -0.4107
  519MPD2    H7 7718   2.493   0.326  14.169  0.0668  0.5446 -0.6814
  520TMC3    C1 7719   2.915   4.707  13.902 -0.1587 -0.0121  0.1246
  520TMC3    C2 7720   2.915   0.024  13.769  0.4225  0.1334 -0.4012
  520TMC3    C3 7721   3.030   0.020  13.693  0.4985 -0.2418  0.0151
  520TMC3    C4 7722   3.030   4.654  13.949 -0.0979  0.6513  0.8536
  520TMC3    C5 7723   3.148   4.651  13.868 -0.1015  0.3409  0.0962
  520TMC3    C6 7724   3.147   4.714  13.751 -0.0303 -0.4746  0.6260
  520TMC3     C 7725   2.816   0.037  13.994 -0.4724 -0.1036  0.6268
  520TMC3     O 7726   2.723   0.090  13.938 -0.5399  0.2352 -0.2470
  520TMC3     H 7727   2.817   0.045  13.728  0.4129  0.4399 -0.2262
  520TMC3    H1 7728   3.035   4.603  14.045 -0.0936 -0.9518  0.0004
  520TMC3    H2 7729   3.244   0.013  13.706  0.1145 -0.6370  0.8727
  520TMC3    C7 7730   3.255   4.699  13.950 -0.3032  0.2004  0.1903
  520TMC3    C8 7731   3.032   0.055  13.553  0.2036 -0.4307 -0.3358
  520TMC3    O1 7732   3.312   4.616  14.021  0.2595 -0.0506 -0.4537
  520TMC3    O2 7733   3.142   0.068  13.508 -0.8418  0.1763 -0.5191
  521MPD2     C 7734   3.385   3.542   0.133 -0.1813 -0.4052  0.1406
  521MPD2    C1 7735   3.341   3.464   0.030  0.1478  0.6333  0.0784
  521MPD2    C2 7736   3.444   3.394  17.641 -0.1174  0.7213  0.0635
  521MPD2    C3 7737   3.577   3.407  17.667 -0.0071 -0.1979  0.3762
  521MPD2    C4 7738   3.610   3.486   0.091 -0.2795  0.5742 -0.1524
  521MPD2    C5 7739   3.520   3.557   0.156  0.2846  1.0831  0.2187
  521MPD2     H 7740   3.427   3.333  17.553  0.6651 -1.7965  1.6472
  521MPD2    H1 7741   3.714   3.507   0.113 -0.5697  1.7830  0.0657
  521MPD2    H2 7742   3.316   3.592   0.199 -1.4031 -1.4170 -0.3569
  521MPD2    H3 7743   3.551   3.624   0.235  0.9210  1.1278 -0.0628
  521MPD2     N 7744   3.666   3.324  17.602 -0.2916 -0.5113 -0.2575
  521MPD2    H5 7745   3.632   3.257  17.533 -1.0282 -0.0603 -0.3363
  521MPD2    N1 7746   3.198   3.441   0.015 -0.3148 -0.6046 -0.4884
  521MPD2    H7 7747   3.127   3.490   0.069  0.2663  1.5950 -1.7340
  522TMC3    C1 7748   3.877   3.256  17.506 -0.5102 -0.0994  0.5987
  522TMC3    C2 7749   3.987   3.311  17.442 -0.1906 -0.3103  0.8682
  522TMC3    C3 7750   4.046   3.248  17.336 -0.1948  0.0212  0.1591
  522TMC3    C4 7751   3.829   3.140  17.465  0.3651 -0.4345 -0.8308
  522TMC3    C5 7752   3.882   3.086  17.350 -0.6942 -0.6161 -0.1630
  522TMC3    C6 7753   3.995   3.134  17.287  0.1500 -0.6504 -0.0773
  522TMC3     C 7754   3.806   3.337  17.604 -1.1097  0.3743 -0.1030
  522TMC3     O 7755   3.869   3.432  17.642 -0.3154 -0.0591  0.8897
  522TMC3     H 7756   4.026   3.409  17.468  0.8719 -0.6992  0.7343
  522TMC3    H1 7757   3.733   3.106  17.503  0.8216  0.8166  1.4304
  522TMC3    H2 7758   4.037   3.080  17.203  1.4631  0.2220  0.0189
  522TMC3    C7 7759   3.824   2.972  17.291  0.8607 -0.5467 -0.3374
  522TMC3    C8 7760   4.155   3.306  17.266 -0.0254 -0.2793  0.1793
  522TMC3    O1 7761   3.826   2.856  17.337 -0.0170  0.3578 -0.5213
  522TMC3    O2 7762   4.175   3.421  17.295 -0.2091  0.3285 -0.2650
  523MPD2     C 7763   2.401   3.910  10.443  0.4821 -0.7883  0.0783
  523MPD2    C1 7764   2.289   3.904  10.364  0.1470  0.0238  0.5911
  523MPD2    C2 7765   2.242   4.019  10.294 -0.3743  0.4098  0.6048
  523MPD2    C3 7766   2.297   4.142  10.319  0.1866  0.4141 -0.3119
  523MPD2    C4 7767   2.397   4.152  10.408 -0.8386  0.1063  0.7213
  523MPD2    C5 7768   2.455   4.035  10.462 -0.3609 -0.6676 -0.2118
  523MPD2     H 7769   2.171   4.005  10.214 -0.8761  2.9234  0.6146
  523MPD2    H1 7770   2.439   4.251  10.424  1.3415 -0.4638 -1.3374
  523MPD2    H2 7771   2.446   3.820  10.483  0.5422 -0.6778  0.2617
  523MPD2    H3 7772   2.548   4.048  10.517 -0.0233 -2.0915 -0.4421
  523MPD2     N 7773   2.247   4.260  10.257  0.1342 -0.0561 -0.0369
  523MPD2    H5 7774   2.302   4.344  10.275 -2.5217  1.6275  0.2048
  523MPD2    N1 7775   2.229   3.770  10.350 -0.5540 -1.0666 -0.1579
  523MPD2    H7 7776   2.272   3.690  10.395  2.8385 -0.4595 -2.2984
  524TMC3    C1 7777   2.136   4.406  10.112 -0.0941 -0.0770 -0.4049
  524TMC3    C2 7778   2.243   4.494  10.113 -0.1780  0.1165  0.1854
  524TMC3    C3 7779   2.220   4.617  10.055 -0.1371 -0.4857  0.5094
  524TMC3    C4 7780   2.004   4.446  10.087 -0.9680 -0.4002 -0.7676
  524TMC3    C5 7781   1.988   4.572  10.036  0.0167 -0.5209  0.3947
  524TMC3    C6 7782   2.093   4.661  10.029 -0.7391 -0.4870  0.1758
  524TMC3     C 7783   2.143   4.272  10.169 -0.1670  0.2163 -0.5332
  524TMC3     O 7784   2.057   4.189  10.145 -0.0172  0.4829  0.2058
  524TMC3     H 7785   2.343   4.454  10.118 -0.4149 -0.7125 -1.5608
  524TMC3    H1 7786   1.918   4.381  10.092 -2.7106  1.8305 -1.7272
  524TMC3    H2 7787   2.082   0.044   9.996  0.4889 -0.1551  0.8059
  524TMC3    C7 7788   1.842   4.620  10.031  0.5065  0.0450 -0.1042
  524TMC3    C8 7789   2.335   4.681   9.988 -0.1242  0.3469 -1.3249
  524TMC3    O1 7790   1.751   4.539  10.053 -0.3634  1.0083  0.0101
  524TMC3    O2 7791   2.299   0.057   9.918 -0.3659  0.3750 -0.2211
  525MPD2     C 7792   4.017   0.349  14.517 -0.4604  0.2901  0.4412
  525MPD2    C1 7793   4.143   0.374  14.570 -0.3107  0.3558  0.2638
  525MPD2    C2 7794   4.224   0.476  14.524  0.2924 -0.1576 -0.3906
  525MPD2    C3 7795   4.161   0.585  14.464 -0.1548  0.3354  0.2796
  525MPD2    C4 7796   4.029   0.564  14.427 -0.0821  0.1606  0.1356
  525MPD2    C5 7797   3.969   0.446  14.438 -0.3904 -0.5323  0.2583
  525MPD2     H 7798   4.331   0.477  14.544  0.5261 -0.1758 -1.6200
  525MPD2    H1 7799   3.959   0.640  14.393 -2.8123 -2.5064 -0.2146
  525MPD2    H2 7800   3.962   0.257  14.532  1.2646 -0.4723  2.1117
  525MPD2    H3 7801   3.869   0.436  14.397 -1.1782  3.4604  1.2159
  525MPD2     N 7802   4.218   0.712  14.440  0.1034 -0.4070 -0.6660
  525MPD2    H5 7803   4.151   0.784  14.416 -0.9651 -1.2027 -0.0989
  525MPD2    N1 7804   4.205   0.284  14.660  0.3374  0.3929 -0.0963
  525MPD2    H7 7805   4.305   0.291  14.670  0.2238  0.9610  0.6723
  526TMC3    C1 7806   4.223   0.087  14.803  0.5177  1.0591 -0.1773
  526TMC3    C2 7807   4.167   0.020  14.908  0.2802  0.0719  0.1263
  526TMC3    C3 7808   4.249   4.652  14.974  0.5126 -0.2916  0.1686
  526TMC3    C4 7809   4.349   0.065  14.760 -0.0236 -0.0051  0.9458
  526TMC3    C5 7810   4.430   4.709  14.840  0.0794 -0.5101  0.1858
  526TMC3    C6 7811   4.384   4.640  14.944 -0.2806 -0.2957  0.3704
  526TMC3     C 7812   4.135   0.191  14.738  0.0998 -0.3332 -0.5530
  526TMC3     O 7813   4.017   0.193  14.777  0.1709 -0.2076  0.0698
  526TMC3     H 7814   4.062   0.033  14.931  0.0396 -1.6299 -0.0150
  526TMC3    H1 7815   4.380   0.117  14.670 -3.0999 -0.9819 -0.6523
  526TMC3    H2 7816   4.452   4.596  15.016  1.3611  1.3638 -0.1791
  526TMC3    C7 7817   4.567   4.685  14.805 -0.0721  0.3490  0.8771
  526TMC3    C8 7818   4.202   4.630  15.112  0.4747  0.1600 -0.1493
  526TMC3    O1 7819   4.633   4.606  14.871  0.8850 -0.4069 -0.1683
  526TMC3    O2 7820   4.289   4.606  15.194  0.3379  0.5063  0.3509
  527MPD2     C 7821   2.774   2.132   1.454  0.1754 -0.1087 -0.3762
  527MPD2    C1 7822   2.850   2.245   1.466 -0.5393  0.8072  0.4610
  527MPD2    C2 7823   2.991   2.227   1.445 -0.2824 -0.0062 -0.0461
  527MPD2    C3 7824   3.046   2.101   1.416 -0.8548  0.7483  0.1580
  527MPD2    C4 7825   2.959   1.992   1.402  0.1920 -0.5578 -0.7166
  527MPD2    C5 7826   2.831   2.013   1.424 -0.3879  0.0134  0.3485
  527MPD2     H 7827   3.061   2.308   1.463 -1.3741  0.2356  3.0189
  527MPD2    H1 7828   2.991   1.898   1.360 -0.5922 -1.3214  0.3953
  527MPD2    H2 7829   2.668   2.120   1.475 -0.0152  1.3473 -0.5002
  527MPD2    H3 7830   2.761   1.932   1.406  0.2230 -0.9033  2.1056
  527MPD2     N 7831   3.180   2.076   1.396  0.0667  0.1658  0.6293
  527MPD2    H5 7832   3.232   2.163   1.384  0.3128 -0.1653 -0.7335
  527MPD2    N1 7833   2.797   2.374   1.494 -0.1638  0.0019 -0.0196
  527MPD2    H7 7834   2.867   2.447   1.498  1.6671 -1.7538 -0.0892
  528TMC3    C1 7835   2.640   2.537   1.559  0.1008  0.1080  0.0664
  528TMC3    C2 7836   2.723   2.604   1.646  0.1862 -0.4793 -0.3217
  528TMC3    C3 7837   2.679   2.720   1.696  0.0086 -1.0544  0.5036
  528TMC3    C4 7838   2.526   2.595   1.508  0.0679  0.0930  0.1078
  528TMC3    C5 7839   2.491   2.720   1.558  0.1457 -0.3620  0.1407
  528TMC3    C6 7840   2.567   2.788   1.652 -0.2589  0.4886 -0.3799
  528TMC3     C 7841   2.663   2.400   1.523 -0.6157  0.1558  1.1309
  528TMC3     O 7842   2.563   2.337   1.493  0.2521  0.0365  0.8894
  528TMC3     H 7843   2.822   2.566   1.670  0.5323  0.3788 -0.3732
  528TMC3    H1 7844   2.455   2.538   1.449  2.0145 -2.3840  0.1188
  528TMC3    H2 7845   2.537   2.879   1.702  1.3927  0.0997  1.3053
  528TMC3    C7 7846   2.385   2.798   1.500 -0.2159 -0.5013  0.3038
  528TMC3    C8 7847   2.747   2.793   1.808 -0.8934 -0.1370 -0.0784
  528TMC3    O1 7848   2.315   2.872   1.567  0.1446 -0.5760  0.4585
  528TMC3    O2 7849   2.721   2.911   1.833 -0.6060 -0.5268 -0.1124
  529MPD2     C 7850   0.873   1.142   0.844 -0.3280  0.4476  0.0770
  529MPD2    C1 7851   0.738   1.105   0.802 -0.0960 -0.5819 -0.0892
  529MPD2    C2 7852   0.684   1.163   0.685  0.3875 -0.8559  0.3806
  529MPD2    C3 7853   0.760   1.250   0.610  0.9010  0.1856  0.1955
  529MPD2    C4 7854   0.894   1.272   0.648 -0.0279  0.4242  0.2348
  529MPD2    C5 7855   0.947   1.219   0.760 -0.3306 -0.0453  0.2202
  529MPD2     H 7856   0.583   1.139   0.657  0.0346 -0.2899  1.1474
  529MPD2    H1 7857   0.955   1.343   0.594 -0.6859 -0.1626 -1.2794
  529MPD2    H2 7858   0.924   1.098   0.929  0.2955  1.0806  0.0361
  529MPD2    H3 7859   1.047   1.247   0.789 -0.5186  1.6216 -0.7597
  529MPD2     N 7860   0.714   1.320   0.503 -0.3120 -0.0462 -0.5007
  529MPD2    H5 7861   0.780   1.386   0.463 -0.6757  0.9481  0.5489
  529MPD2    N1 7862   0.657   1.009   0.873  0.2100 -0.7056 -0.0686
  529MPD2    H7 7863   0.565   0.985   0.837  0.2634 -2.8245  1.2028
  530TMC3    C1 7864   0.598   0.856   1.051  0.5212  0.0510  0.3930
  530TMC3    C2 7865   0.619   0.832   1.185 -0.9264  0.2067  0.1398
  530TMC3    C3 7866   0.516   0.773   1.248  0.3439  0.2261 -0.7679
  530TMC3    C4 7867   0.480   0.817   0.990 -0.0034  0.3146 -0.2412
  530TMC3    C5 7868   0.390   0.747   1.059  0.6690 -0.0779  0.5735
  530TMC3    C6 7869   0.399   0.723   1.194  0.1619 -0.2069  0.0343
  530TMC3     C 7870   0.692   0.943   0.990 -0.3247 -0.2169 -0.4349
  530TMC3     O 7871   0.796   0.962   1.049  0.2612  0.3916 -0.4897
  530TMC3     H 7872   0.703   0.883   1.230  0.0865  0.0790 -1.5993
  530TMC3    H1 7873   0.476   0.824   0.882 -1.2530 -1.2934 -0.3063
  530TMC3    H2 7874   0.323   0.675   1.255 -0.2496 -0.1138 -0.4017
  530TMC3    C7 7875   0.309   0.655   0.989 -0.2836  0.2021 -0.1851
  530TMC3    C8 7876   0.524   0.744   1.394  0.1390  0.0185 -0.0172
  530TMC3    O1 7877   0.317   0.667   0.867 -0.1654 -0.0907  0.0745
  530TMC3    O2 7878   0.418   0.746   1.459  0.4553  0.0996 -0.2918
  531MPD2     C 7879   4.463   3.610  12.755 -0.1056 -0.4019 -0.3866
  531MPD2    C1 7880   4.390   3.694  12.840  0.3941  0.2710 -0.0239
  531MPD2    C2 7881   4.264   3.733  12.801  0.0640 -0.2669 -0.1812
  531MPD2    C3 7882   4.217   3.684  12.675 -0.1127 -0.1364 -0.2528
  531MPD2    C4 7883   4.294   3.607  12.594 -0.2084  0.4394 -0.3203
  531MPD2    C5 7884   4.418   3.567  12.630 -0.6882 -0.4568  0.5476
  531MPD2     H 7885   4.200   3.804  12.851  0.6633  0.9680 -1.1591
  531MPD2    H1 7886   4.259   3.575  12.496 -3.6195  2.1953  0.3261
  531MPD2    H2 7887   4.557   3.571  12.792 -0.0270  0.1884  0.0242
  531MPD2    H3 7888   4.476   3.493  12.576 -2.9800 -3.0852  1.7148
  531MPD2     N 7889   4.079   3.708  12.641  0.5055  0.0906  0.0309
  531MPD2    H5 7890   4.019   3.744  12.714  1.7469  1.2156  0.4811
  531MPD2    N1 7891   4.440   3.725  12.963  0.0280 -0.8585  0.4406
  531MPD2    H7 7892   4.527   3.684  12.998  0.6709 -0.6648 -0.9107
  532TMC3    C1 7893   4.467   3.871  13.161 -0.0763 -0.2029  0.0397
  532TMC3    C2 7894   4.416   3.988  13.209 -0.1599  0.5280 -0.0345
  532TMC3    C3 7895   4.349   3.995  13.333 -0.2857  0.2979 -0.1723
  532TMC3    C4 7896   4.469   3.767  13.253 -0.4929 -0.5352  0.1991
  532TMC3    C5 7897   4.418   3.777  13.379 -1.1083  0.1381  0.9454
  532TMC3    C6 7898   4.363   3.896  13.427 -0.5080  0.4704 -0.3791
  532TMC3     C 7899   4.385   3.827  13.041 -0.1339  1.0885  0.1322
  532TMC3     O 7900   4.289   3.905  13.023 -0.5076 -0.1734 -0.1664
  532TMC3     H 7901   4.415   4.077  13.148  2.5406 -0.6636 -1.7916
  532TMC3    H1 7902   4.511   3.673  13.218  0.6600 -0.1600  0.5741
  532TMC3    H2 7903   4.325   3.915  13.527 -0.7396 -0.1878 -0.3427
  532TMC3    C7 7904   4.405   3.655  13.456  0.0470 -0.0299 -0.4046
  532TMC3    C8 7905   4.212   4.037  13.329  0.1000  0.0155  0.2072
  532TMC3    O1 7906   4.409   3.553  13.396 -0.7638 -0.6540  0.1062
  532TMC3    O2 7907   4.164   4.065  13.440 -0.3837 -0.5261  0.3061
  533TMC3    C1 7908   4.348   0.890  14.516  1.2790  0.7694  0.3999
  533TMC3    C2 7909   4.469   0.947  14.486  0.1208  0.4995  0.0662
  533TMC3    C3 7910   4.515   1.038  14.573  1.0410  0.6800  0.1491
  533TMC3    C4 7911   4.278   0.916  14.628 -0.0057 -0.2960 -0.1397
  533TMC3    C5 7912   4.335   1.006  14.715  0.1104 -0.7834 -0.2713
  533TMC3    C6 7913   4.446   1.077  14.684  0.4992  0.2174  0.7795
  533TMC3     C 7914   4.346   0.753  14.472  0.2941 -1.1605 -0.2697
  533TMC3     O 7915   4.452   0.691  14.457  0.2099  0.1958 -0.5110
  533TMC3     H 7916   4.538   0.902  14.415 -1.2052 -0.6681 -0.4869
  533TMC3    H1 7917   4.198   0.856  14.670  0.8117  0.9996  3.3011
  533TMC3    H2 7918   4.501   1.140  14.753 -0.9271 -0.1877  2.3088
  533TMC3    C7 7919   4.320   0.971  14.855  0.2882 -0.5881 -0.1445
  533TMC3    C8 7920   4.651   1.077  14.559  0.0445  0.1357 -0.0328
  533TMC3    O1 7921   4.220   0.915  14.899 -0.0544  0.4281 -0.0304
  533TMC3    O2 7922   4.702   1.107  14.667 -0.2396 -0.8577  0.4395
  534MPD2     C 7923   2.720   1.382   1.864 -0.5330 -0.5484  0.2817
  534MPD2    C1 7924   2.681   1.479   1.786 -0.7054  0.7668  0.9744
  534MPD2    C2 7925   2.590   1.451   1.687  0.2760  0.3920  0.2520
  534MPD2    C3 7926   2.545   1.329   1.658  0.4336 -0.5030 -0.1532
  534MPD2    C4 7927   2.580   1.227   1.742  0.1106  0.7815  0.4866
  534MPD2    C5 7928   2.673   1.256   1.837  0.0755  0.5100 -0.2522
  534MPD2     H 7929   2.560   1.532   1.622 -0.0153 -0.7889 -1.0776
  534MPD2    H1 7930   2.537   1.128   1.729 -0.4014  1.1593 -0.7837
  534MPD2    H2 7931   2.795   1.397   1.941  1.5447  1.0946 -2.0463
  534MPD2    H3 7932   2.706   1.173   1.899 -0.6395  0.3651 -0.0708
  534MPD2     N 7933   2.456   1.309   1.554  0.0668 -0.6034 -0.1416
  534MPD2    H5 7934   2.414   1.216   1.561 -0.3728 -0.3283  0.7876
  534MPD2    N1 7935   2.742   1.599   1.779 -0.4908  0.1611  0.0090
  534MPD2    H7 7936   2.711   1.663   1.706 -2.7293 -0.4566  0.4254
  535TMC3    C1 7937   2.316   1.342   1.368  0.3082  0.1600  0.2097
  535TMC3    C2 7938   2.191   1.345   1.432 -0.0325  0.0921 -0.1046
  535TMC3    C3 7939   2.081   1.339   1.353  0.3807 -0.0778 -0.2219
  535TMC3    C4 7940   2.318   1.364   1.231  0.4321  0.2797  0.1553
  535TMC3    C5 7941   2.203   1.366   1.159  0.2761 -0.4511  0.0276
  535TMC3    C6 7942   2.083   1.351   1.217  0.2073 -0.4593  0.1229
  535TMC3     C 7943   2.418   1.396   1.458  0.1567  0.5667  0.0062
  535TMC3     O 7944   2.468   1.500   1.424 -0.3286  0.2633  0.5625
  535TMC3     H 7945   2.194   1.323   1.538 -1.6632 -0.9853 -0.2779
  535TMC3    H1 7946   2.413   1.379   1.181  2.0888 -3.1202  2.3024
  535TMC3    H2 7947   1.994   1.346   1.155  0.3066  0.0297 -0.0611
  535TMC3    C7 7948   2.226   1.394   1.022 -0.7697  0.4408 -0.1371
  535TMC3    C8 7949   1.962   1.290   1.414  0.4327  0.1017 -0.3247
  535TMC3    O1 7950   2.340   1.386   0.981 -0.4668  0.4595 -0.5168
  535TMC3    O2 7951   1.880   1.238   1.339 -0.1755  0.3668  0.4832
  536MPD2     C 7952   0.636   4.160  16.738 -0.1820  0.0753 -0.2901
  536MPD2    C1 7953   0.638   4.290  16.782 -0.0830 -0.5283  0.2164
  536MPD2    C2 7954   0.591   4.393  16.691  0.0446  0.3715  0.3035
  536MPD2    C3 7955   0.567   4.368  16.560 -0.0988 -0.0258  0.3708
  536MPD2    C4 7956   0.573   4.241  16.516 -0.3525  0.2691  0.5476
  536MPD2    C5 7957   0.605   4.136  16.602  0.5175 -0.5310 -0.3190
  536MPD2     H 7958   0.582   4.496  16.724 -1.9229  0.5572 -0.8091
  536MPD2    H1 7959   0.554   4.221  16.411  0.8978 -0.1657  0.4070
  536MPD2    H2 7960   0.687   4.081  16.791  1.2228  1.4754  0.4468
  536MPD2    H3 7961   0.608   4.033  16.567 -2.3030 -0.4453 -0.8356
  536MPD2     N 7962   0.543   4.470  16.459 -0.8545 -0.0842  0.1095
  536MPD2    H5 7963   0.533   4.440  16.363  0.7879 -2.1581  0.5956
  536MPD2    N1 7964   0.671   4.318  16.915  0.4747  0.0498 -0.4780
  536MPD2    H7 7965   0.673   4.238  16.976  1.2705 -0.4505 -1.1620
  537TMC3    C1 7966   0.714   4.452  17.118 -0.5303 -0.4928 -0.4397
  537TMC3    C2 7967   0.727   4.574  17.174  0.3815 -0.8717 -0.0265
  537TMC3    C3 7968   0.752   4.586  17.309 -0.1621  0.2076 -0.4867
  537TMC3    C4 7969   0.714   4.339  17.196 -0.3570 -0.7383 -0.0942
  537TMC3    C5 7970   0.714   4.348  17.333 -0.0279  0.5550  0.2614
  537TMC3    C6 7971   0.735   4.475  17.386  0.1052  0.0947  0.0328
  537TMC3     C 7972   0.684   4.442  16.974 -0.4526  0.2870 -0.3838
  537TMC3     O 7973   0.698   4.546  16.914  0.4070 -0.5757 -0.4876
  537TMC3     H 7974   0.718   4.660  17.110  0.1010  0.4768  1.8168
  537TMC3    H1 7975   0.703   4.241  17.151 -0.5570 -0.5195 -0.5186
  537TMC3    H2 7976   0.760   4.490  17.491  0.5277 -0.8039  0.0595
  537TMC3    C7 7977   0.738   4.225  17.408 -0.0186  0.4258  0.7270
  537TMC3    C8 7978   0.844   4.683  17.354 -0.5709  1.1569 -0.5307
  537TMC3    O1 7979   0.750   4.123  17.340  0.1991 -0.3646 -0.0664
  537TMC3    O2 7980   0.906   4.664  17.457 -0.4695  0.9205 -0.1823
  538TMC3    C1 7981   2.553   3.477  11.090 -0.3740  0.3005 -0.4989
  538TMC3    C2 7982   2.605   3.412  10.978  0.2529 -0.2049  0.2288
  538TMC3    C3 7983   2.577   3.469  10.852 -0.5174 -0.0920 -0.5911
  538TMC3    C4 7984   2.465   3.580  11.070  1.1155  0.2039  0.1296
  538TMC3    C5 7985   2.431   3.616  10.940 -0.0047 -0.1286  0.4760
  538TMC3    C6 7986   2.485   3.569  10.821 -0.7091  0.3024 -0.2586
  538TMC3     C 7987   2.531   3.401  11.212 -0.2723  0.0093 -1.1371
  538TMC3     O 7988   2.441   3.438  11.288  0.2090  0.0280 -0.1343
  538TMC3     H 7989   2.672   3.327  10.980  1.3658  0.7513  2.4296
  538TMC3    H1 7990   2.423   3.628  11.157 -0.5729  0.6442 -0.9096
  538TMC3    H2 7991   2.437   3.595  10.727 -1.0623  0.2403 -0.0931
  538TMC3    C7 7992   2.308   3.695  10.924  0.1558 -0.4192 -0.1001
  538TMC3    C8 7993   2.684   3.458  10.750 -0.0879  0.9222  0.1634
  538TMC3    O1 7994   2.246   3.689  10.822 -0.3849 -0.3237  0.1437
  538TMC3    O2 7995   2.760   3.360  10.742 -0.1843 -0.4954 -0.3959
  539MPD2     C 7996   1.814   2.657  11.730 -0.2044 -0.6708  0.6575
  539MPD2    C1 7997   1.891   2.732  11.646  0.0988 -0.4347 -0.2685
  539MPD2    C2 7998   1.868   2.869  11.640 -0.1382  0.0180  0.4459
  539MPD2    C3 7999   1.750   2.923  11.695  0.1169  0.3325 -0.1594
  539MPD2    C4 8000   1.667   2.837  11.758  0.2194 -0.4268 -0.1436
  539MPD2    C5 8001   1.700   2.707  11.771  0.4362  0.3797 -0.1979
  539MPD2     H 8002   1.932   2.940  11.588  0.4122 -2.0248 -1.6414
  539MPD2    H1 8003   1.582   2.866  11.819 -0.8854  1.5422 -2.5788
  539MPD2    H2 8004   1.830   2.553  11.756 -1.1300 -1.1316 -0.6104
  539MPD2    H3 8005   1.625   2.644  11.819  1.4533 -1.4456 -1.0084
  539MPD2     N 8006   1.709   3.057  11.686 -0.4666  0.3921  0.1704
  539MPD2    H5 8007   1.620   3.086  11.726 -2.0336  0.1581 -3.1620
  539MPD2    N1 8008   2.001   2.679  11.580 -0.7589 -0.0260  0.2559
  539MPD2    H7 8009   2.065   2.742  11.532 -0.5231  1.2640  2.2967
  540TMC3    C1 8010   1.691   3.273  11.613 -0.2286  0.5817  0.0676
  540TMC3    C2 8011   1.688   3.356  11.508  0.2871  0.0606  0.2939
  540TMC3    C3 8012   1.669   3.486  11.530 -0.0617 -0.6994 -0.2927
  540TMC3    C4 8013   1.663   3.322  11.735  0.2975  0.3639 -0.1921
  540TMC3    C5 8014   1.641   3.457  11.756  0.0191  0.1311  0.8298
  540TMC3    C6 8015   1.645   3.544  11.652 -0.0866  0.0860 -1.1046
  540TMC3     C 8016   1.765   3.153  11.606 -0.5426  1.6554 -1.1606
  540TMC3     O 8017   1.839   3.137  11.510 -0.0830 -0.6568 -0.4273
  540TMC3     H 8018   1.719   3.316  11.412  0.7934  3.0159 -0.7558
  540TMC3    H1 8019   1.689   3.277  11.830 -0.8128  1.3168  0.5582
  540TMC3    H2 8020   1.644   3.651  11.669  0.9726 -0.0653 -0.0985
  540TMC3    C7 8021   1.564   3.477  11.870 -0.0014  0.5568 -0.0703
  540TMC3    C8 8022   1.739   3.578  11.443  0.2278 -0.8198  0.0489
  540TMC3    O1 8023   1.522   3.378  11.923 -0.3186 -0.1064 -0.4808
  540TMC3    O2 8024   1.793   3.677  11.487  0.1567 -0.3273 -0.5886
  541MPD2     C 8025   0.525   3.749  13.381 -0.5939  0.6642 -0.3358
  541MPD2    C1 8026   0.434   3.668  13.318  0.8818  0.4546 -0.2288
  541MPD2    C2 8027   0.399   3.707  13.190 -0.4191 -0.1398 -0.8414
  541MPD2    C3 8028   0.444   3.825  13.133  0.6817 -0.2503 -0.0775
  541MPD2    C4 8029   0.543   3.897  13.197 -0.4040 -0.0141 -0.2316
  541MPD2    C5 8030   0.584   3.856  13.323  0.0936 -0.1930  0.5150
  541MPD2     H 8031   0.321   3.650  13.141 -0.0654  0.0752 -1.6634
  541MPD2    H1 8032   0.595   3.981  13.151  1.8057 -0.5824  1.2066
  541MPD2    H2 8033   0.559   3.715  13.479 -0.4197 -0.5783 -0.8234
  541MPD2    H3 8034   0.661   3.913  13.374  0.4314  0.5839 -0.8614
  541MPD2     N 8035   0.396   3.873  13.004  0.6289 -0.3302  0.6729
  541MPD2    H5 8036   0.343   3.802  12.954  0.4722  0.0116  0.3609
  541MPD2    N1 8037   0.362   3.563  13.379  0.3217 -0.6277  0.0423
  541MPD2    H7 8038   0.313   3.502  13.315 -1.7611  1.9548 -0.8183
  542TMC3    C1 8039   0.392   3.995  12.817  0.3389  0.5765  0.3171
  542TMC3    C2 8040   0.439   3.903  12.725 -0.9013 -0.4536 -0.4107
  542TMC3    C3 8041   0.400   3.922  12.599  0.6919  0.7266 -0.0179
  542TMC3    C4 8042   0.312   4.098  12.788 -0.4288  0.2397  0.3128
  542TMC3    C5 8043   0.288   4.119  12.653  0.5735  0.1839 -0.1071
  542TMC3    C6 8044   0.326   4.030  12.556  0.0990  0.3405  0.1573
  542TMC3     C 8045   0.448   3.983  12.947  0.3624 -0.6041 -0.6557
  542TMC3     O 8046   0.471   4.095  12.991 -0.1803 -0.7273  0.0881
  542TMC3     H 8047   0.504   3.819  12.750  0.0854  0.9730  1.8040
  542TMC3    H1 8048   0.264   4.159  12.864 -0.7422 -0.9070  1.0343
  542TMC3    H2 8049   0.304   4.050  12.452 -2.0294  3.1671  1.1346
  542TMC3    C7 8050   0.158   4.180  12.629  0.0578 -0.3631  0.4881
  542TMC3    C8 8051   0.414   3.817  12.495  0.5474 -0.5578  0.0722
  542TMC3    O1 8052   0.093   4.141  12.532 -0.0947  0.1796 -0.8920
  542TMC3    O2 8053   0.423   3.706  12.542  0.4766  0.2998  0.2152
  543TMC3    C1 8054   4.631   4.485  17.489  0.3644  0.3902 -0.1554
  543TMC3    C2 8055   4.606   4.347  17.514  0.7711  0.6039 -0.3743
  543TMC3    C3 8056   4.532   4.319  17.630  0.0350  0.0895  0.1406
  543TMC3    C4 8057   4.590   4.577  17.575 -0.2371  0.4574 -0.1324
  543TMC3    C5 8058   4.516   4.544   0.006  0.7508  0.0524  0.0268
  543TMC3    C6 8059   4.485   4.413   0.034  0.2333 -0.6410 -0.3762
  543TMC3     C 8060   4.633   4.530  17.352  0.9387  0.1495  0.3413
  543TMC3     O 8061   4.559   4.627  17.328  0.2758  0.3193  0.2339
  543TMC3     H 8062   4.626   4.270  17.440 -0.6692 -0.5455  0.4521
  543TMC3    H1 8063   4.618   4.676  17.541  1.9953 -0.5531 -1.2048
  543TMC3    H2 8064   4.410   4.389   0.108  1.0809 -1.0925  0.3311
  543TMC3    C7 8065   4.454   4.650   0.080  0.3805 -0.0858  0.2476
  543TMC3    C8 8066   4.554   4.190   0.001  0.0906  0.2177 -1.3661
  543TMC3    O1 8067   4.375   4.618   0.168  0.6646  0.1282 -0.1585
  543TMC3    O2 8068   4.624   4.123  17.610 -0.3902  0.5113  0.8050
  544MPD2     C 8069   4.512   3.778   0.309 -0.3668  0.2245  0.1102
  544MPD2    C1 8070   4.596   3.809   0.208 -0.8163  0.3460  0.6241
  544MPD2    C2 8071   4.599   3.932   0.137 -0.1028 -0.2971  0.2854
  544MPD2    C3 8072   4.499   4.021   0.174 -0.1366  0.0309 -0.1326
  544MPD2    C4 8073   4.408   3.988   0.270  0.4615  0.8891 -1.3074
  544MPD2    C5 8074   4.418   3.877   0.342  0.1647  0.1356  0.6822
  544MPD2     H 8075   4.664   3.946   0.051  0.8962  1.0052  1.2584
  544MPD2    H1 8076   4.333   4.063   0.292  0.6509  1.0021 -1.0514
  544MPD2    H2 8077   4.530   3.686   0.365 -1.7286 -0.4341 -0.5387
  544MPD2    H3 8078   4.344   3.855   0.417 -0.6500  2.3919  0.5484
  544MPD2     N 8079   4.468   4.145   0.104 -0.4055  0.5823 -0.3719
  544MPD2    H5 8080   4.392   4.204   0.133  0.4251  1.0033  0.9646
  544MPD2    N1 8081   4.688   3.702   0.186  0.4747 -0.1914 -0.1996
  544MPD2    H7 8082   4.691   3.637   0.263  1.6095  1.4609  1.1511
  545TMC3    C1 8083   0.093   3.554   0.075  0.0405 -0.1280 -0.2720
  545TMC3    C2 8084   0.070   3.472  17.650  0.9532  0.2574 -0.2861
  545TMC3    C3 8085   0.091   3.339  17.674  0.0356  0.2441 -0.3969
  545TMC3    C4 8086   0.136   3.511   0.200  0.0385 -0.2389 -0.0897
  545TMC3    C5 8087   0.160   3.376   0.214 -0.2114  0.5823 -0.2085
  545TMC3    C6 8088   0.127   3.288   0.115  0.5221 -0.1321  0.0503
  545TMC3     C 8089   0.027   3.678   0.068 -0.4965  0.0870 -0.2965
  545TMC3     O 8090   0.021   3.745  17.647  0.3895  0.0692 -0.5364
  545TMC3     H 8091   0.027   3.506  17.557  1.4956  1.9080  0.0587
  545TMC3    H1 8092   0.155   3.584   0.278 -0.9099 -0.6061  0.4934
  545TMC3    H2 8093   0.154   3.183   0.123 -0.9083 -0.4674  0.3677
  545TMC3    C7 8094   0.216   3.323   0.333  0.2804  0.3749 -0.1172
  545TMC3    C8 8095   0.100   3.240  17.564  0.1448  0.1754 -0.8233
  545TMC3    O1 8096   0.175   3.211   0.362 -0.5940 -0.1014  0.1809
  545TMC3    O2 8097   0.122   3.124  17.594 -0.5765 -0.4566 -0.5938
  546MPD2     C 8098   1.259   0.444   0.217 -1.1618 -0.3107  0.8708
  546MPD2    C1 8099   1.188   0.485   0.107 -0.7239 -0.5365 -0.3990
  546MPD2    C2 8100   1.260   0.555   0.003 -0.2494 -0.6120 -0.3239
  546MPD2    C3 8101   1.394   0.593   0.028  0.1273 -0.2431  1.6499
  546MPD2    C4 8102   1.458   0.557   0.145  0.3910  0.5962  0.3355
  546MPD2    C5 8103   1.387   0.490   0.244  0.2152 -0.3770  0.1767
  546MPD2     H 8104   1.211   0.571  17.588 -2.0280  1.2647  0.9090
  546MPD2    H1 8105   1.560   0.588   0.166  0.6264 -0.1724  0.3422
  546MPD2    H2 8106   1.210   0.374   0.284 -1.1033  0.5033  1.7501
  546MPD2    H3 8107   1.426   0.453   0.338  0.9672 -1.9674 -0.7530
  546MPD2     N 8108   1.470   0.660  17.610  0.1189 -0.2722  0.3218
  546MPD2    H5 8109   1.557   0.696  17.648 -1.1261  2.8582  0.1801
  546MPD2    N1 8110   1.052   0.445   0.086  0.7469 -0.1843 -0.1498
  546MPD2    H7 8111   1.021   0.363   0.137  1.4899 -1.5158 -1.8785
  547TMC3    C1 8112   0.856   0.411  17.639 -0.0199  0.4503  0.9009
  547TMC3    C2 8113   0.769   0.460  17.539  0.0905  0.2783 -0.0857
  547TMC3    C3 8114   0.645   0.393  17.519 -0.0338  0.0900  0.1668
  547TMC3    C4 8115   0.839   0.285   0.006 -0.3200  0.9573  0.3439
  547TMC3    C5 8116   0.726   0.218  17.650  0.5506 -0.5570 -0.0492
  547TMC3    C6 8117   0.625   0.263  17.571  0.6775 -0.0106 -0.2247
  547TMC3     C 8118   0.971   0.493  17.670 -0.6860  0.2932 -0.6886
  547TMC3     O 8119   0.980   0.603  17.614 -0.2399 -0.3067 -0.5097
  547TMC3     H 8120   0.794   0.549  17.482 -1.1898 -0.3450 -1.6005
  547TMC3    H1 8121   0.910   0.225   0.063  0.2269  1.5366  0.2792
  547TMC3    H2 8122   0.535   0.207  17.546 -0.5392  1.8114  0.0437
  547TMC3    C7 8123   0.704   0.103   0.053 -0.1083 -0.5393 -0.2615
  547TMC3    C8 8124   0.564   0.423  17.399 -0.4338  0.1976  0.5603
  547TMC3    O1 8125   0.758   0.099   0.164  0.0100 -0.0238 -0.0408
  547TMC3    O2 8126   0.504   0.327  17.351  0.1273 -0.4312 -0.0757
  548MPD2     C 8127   0.990   1.303  12.406 -0.7907 -0.0612  0.1708
  548MPD2    C1 8128   1.024   1.208  12.498  0.0148 -0.9101 -0.3635
  548MPD2    C2 8129   1.134   1.127  12.471  0.6119  0.3331  0.1522
  548MPD2    C3 8130   1.194   1.127  12.352 -0.9235 -0.4526 -0.8762
  548MPD2    C4 8131   1.160   1.222  12.256  0.1324  0.5238 -0.1091
  548MPD2    C5 8132   1.065   1.311  12.289 -0.7989 -0.6689 -0.1939
  548MPD2     H 8133   1.170   1.055  12.544 -0.4401  0.1470  0.4935
  548MPD2    H1 8134   1.218   1.234  12.166 -0.8054  1.2503 -0.6106
  548MPD2    H2 8135   0.919   1.381  12.430 -0.2436  0.4896 -0.0191
  548MPD2    H3 8136   1.061   1.401  12.229  0.9743 -2.0688 -2.4086
  548MPD2     N 8137   1.304   1.030  12.330 -0.0494  0.5442 -0.1018
  548MPD2    H5 8138   1.327   0.968  12.407 -0.5339 -3.2699 -3.0835
  548MPD2    N1 8139   0.947   1.208  12.611 -0.0094  0.3467  0.0320
  548MPD2    H7 8140   0.877   1.281  12.617  0.9203  1.2241  0.1599
  549TMC3    C1 8141   0.839   1.134  12.800 -0.1185 -0.2775 -0.7181
  549TMC3    C2 8142   0.806   1.263  12.823  0.5192 -0.2289 -0.1398
  549TMC3    C3 8143   0.692   1.277  12.898  0.1141  0.2518 -0.0954
  549TMC3    C4 8144   0.770   1.018  12.836 -0.0399 -0.1813 -0.3000
  549TMC3    C5 8145   0.657   1.041  12.913  0.5946 -0.2450 -0.7463
  549TMC3    C6 8146   0.615   1.171  12.938 -0.4730 -0.6298 -0.7838
  549TMC3     C 8147   0.946   1.112  12.703 -0.1940  0.3576 -0.5272
  549TMC3     O 8148   1.017   1.012  12.719  0.1664  0.0926  0.0151
  549TMC3     H 8149   0.853   1.350  12.780  1.4185  0.6254  2.5837
  549TMC3    H1 8150   0.811   0.917  12.827 -0.6170 -0.4369 -0.0515
  549TMC3    H2 8151   0.535   1.189  13.009  1.8596  1.6007  1.2790
  549TMC3    C7 8152   0.616   0.939  13.011 -0.0379  0.5455 -0.3806
  549TMC3    C8 8153   0.606   1.381  12.856 -0.8041  0.1786  0.5367
  549TMC3    O1 8154   0.549   0.982  13.101 -0.1938 -0.3413 -0.4897
  549TMC3    O2 8155   0.506   1.350  12.798  0.4625  0.5218  0.6204
  550TMC3    C1 8156   4.666   3.846  12.646  0.2443  0.5713  1.0223
  550TMC3    C2 8157   4.655   3.935  12.751  0.2763 -0.3743  0.2079
  550TMC3    C3 8158   4.541   4.020  12.751 -0.0236 -0.5062 -0.6227
  550TMC3    C4 8159   4.576   3.841  12.540 -0.5348  0.1577  0.5329
  550TMC3    C5 8160   4.478   3.940  12.539 -0.0109 -0.0128 -0.4418
  550TMC3    C6 8161   4.460   4.028  12.643 -0.1318  0.2082 -0.4402
  550TMC3     C 8162   0.050   3.741  12.648  0.5217  0.0568 -0.1360
  550TMC3     O 8163   0.089   3.699  12.756  0.2704  0.2060 -0.7122
  550TMC3     H 8164   0.006   3.925  12.833  1.3952 -1.3193 -0.8811
  550TMC3    H1 8165   4.579   3.769  12.460  1.3719  1.1639 -0.3158
  550TMC3    H2 8166   4.373   4.090  12.629  1.4936  2.5760  0.0390
  550TMC3    C7 8167   4.402   3.963  12.420  0.0871  0.5724  0.2154
  550TMC3    C8 8168   4.516   4.126  12.847  0.1452 -0.5223 -0.8793
  550TMC3    O1 8169   4.342   4.068  12.408 -0.0466 -0.5150 -0.0398
  550TMC3    O2 8170   4.408   4.189  12.835  0.0134  0.3604 -0.1401
  551TMC3    C1 8171   1.723   1.807  13.440 -0.0617  0.4904  0.5461
  551TMC3    C2 8172   1.819   1.888  13.373 -0.3396  0.3964 -0.5127
  551TMC3    C3 8173   1.929   1.918  13.439  0.5021 -0.3653  0.2839
  551TMC3    C4 8174   1.736   1.758  13.565  0.0638 -0.7315 -0.9337
  551TMC3    C5 8175   1.862   1.783  13.618 -0.8375 -0.3068  0.2259
  551TMC3    C6 8176   1.957   1.861  13.558 -0.1927  0.5439 -0.1889
  551TMC3     C 8177   1.628   1.736  13.357 -0.6494  0.3766 -0.4652
  551TMC3     O 8178   1.658   1.728  13.238 -0.5199 -0.3161  0.5375
  551TMC3     H 8179   1.792   1.925  13.275  0.1507  2.8922  0.2801
  551TMC3    H1 8180   1.689   1.669  13.605  1.3221 -1.0217 -0.0894
  551TMC3    H2 8181   2.055   1.862  13.605  0.9170 -0.9928 -2.4672
  551TMC3    C7 8182   1.886   1.754  13.761  0.4230 -0.6237  0.0269
  551TMC3    C8 8183   2.038   1.921  13.344  0.2532  0.2698  0.0662
  551TMC3    O1 8184   1.996   1.722  13.805  0.1999 -0.3302 -0.1219
  551TMC3    O2 8185   2.111   1.819  13.339  0.1754  0.5925  0.0946
  552MPD2     C 8186   4.412   3.926  14.007  0.2938  0.7613  0.3083
  552MPD2    C1 8187   4.306   3.839  14.027 -0.4550  1.2096  0.8849
  552MPD2    C2 8188   4.307   3.752  14.140  0.0271 -0.0400  0.3297
  552MPD2    C3 8189   4.417   3.754  14.223  0.2194  0.2928  0.1523
  552MPD2    C4 8190   4.510   3.861  14.210  0.2622 -0.0440  0.0458
  552MPD2    C5 8191   4.515   3.937  14.099 -0.3263  0.2915 -0.0104
  552MPD2     H 8192   4.231   3.675  14.145 -0.7724  0.8655  1.9973
  552MPD2    H1 8193   4.599   3.878  14.270 -0.3607 -1.7423  1.4509
  552MPD2    H2 8194   4.424   3.984  13.916 -0.9664  0.1001 -0.2847
  552MPD2    H3 8195   4.594   4.011  14.097  0.7397 -0.8831 -1.5037
  552MPD2     N 8196   4.443   3.668  14.334 -0.3726  0.0220 -0.2689
  552MPD2    H5 8197   4.537   3.684  14.367 -0.6233  0.4402  0.2428
  552MPD2    N1 8198   4.183   3.830  13.952 -0.0178 -0.1662  0.5739
  552MPD2    H7 8199   4.112   3.766  13.986 -0.6438  0.0775 -0.2727
  553TMC3    C1 8200   4.033   3.834  13.779 -0.2689 -0.0320  0.2328
  553TMC3    C2 8201   4.027   3.827  13.647 -0.4922 -0.0837 -0.5469
  553TMC3    C3 8202   3.924   3.755  13.585 -0.3654 -0.3137  0.4212
  553TMC3    C4 8203   3.939   3.776  13.866  0.0545  0.0783 -1.2539
  553TMC3    C5 8204   3.844   3.703  13.798 -0.0115  0.3957  0.4466
  553TMC3    C6 8205   3.831   3.694  13.664  0.4229 -0.6744  0.0889
  553TMC3     C 8206   4.155   3.895  13.839 -0.6816  1.3118 -0.2278
  553TMC3     O 8207   4.229   3.963  13.771 -0.4169  0.1429  0.0154
  553TMC3     H 8208   4.101   3.869  13.580  0.9199  2.5772  2.6997
  553TMC3    H1 8209   3.946   3.780  13.974 -0.4750  2.0231 -1.2885
  553TMC3    H2 8210   3.749   3.639  13.621  0.0026  2.3498 -2.9374
  553TMC3    C7 8211   3.828   3.578  13.867 -0.0078  0.3874 -0.4841
  553TMC3    C8 8212   3.960   3.700  13.462  0.2214 -0.5704  0.0049
  553TMC3    O1 8213   3.901   3.576  13.966  0.5219 -0.4915 -0.0570
  553TMC3    O2 8214   4.076   3.663  13.455 -0.3975 -0.9649 -0.7430
  554TMC3    C1 8215   1.174   2.999  12.016 -0.2804  0.4518 -0.9430
  554TMC3    C2 8216   1.115   2.914  11.939 -0.4095 -0.4621  0.0649
  554TMC3    C3 8217   1.068   2.953  11.818 -0.9050 -0.5876 -0.3744
  554TMC3    C4 8218   1.179   3.134  11.986 -0.1661 -0.2833  0.1019
  554TMC3    C5 8219   1.133   3.172  11.865  0.2286 -0.0035 -0.3465
  554TMC3    C6 8220   1.077   3.083  11.779 -0.2780  0.2723  0.2649
  554TMC3     C 8221   1.247   2.959  12.134 -0.0240 -0.0490  0.2035
  554TMC3     O 8222   1.290   3.048  12.209 -0.6915  0.4552  0.2302
  554TMC3     H 8223   1.105   2.811  11.972  2.1594 -0.8377 -0.3633
  554TMC3    H1 8224   1.236   3.205  12.044 -1.9731  1.3150 -0.0784
  554TMC3    H2 8225   1.020   3.116  11.693  0.5533  2.2744  0.4944
  554TMC3    C7 8226   1.146   3.312  11.832  0.2414  0.3971  0.6117
  554TMC3    C8 8227   0.984   2.858  11.745 -0.0471  1.4407 -0.9885
  554TMC3    O1 8228   1.142   3.378  11.934  0.2379 -0.0585 -0.3943
  554TMC3    O2 8229   0.938   2.764  11.807  0.0844  0.0546  0.2464
  555TMC3    C1 8230   4.621   1.959  15.402  0.0238 -0.1358 -0.8350
  555TMC3    C2 8231   4.654   2.044  15.498  0.1071 -0.1349  0.1539
  555TMC3    C3 8232   4.656   2.010  15.631 -0.0871  0.7218 -0.1959
  555TMC3    C4 8233   4.597   1.828  15.433 -0.2948  0.6039  0.1081
  555TMC3    C5 8234   4.615   1.795  15.565  0.5476 -0.2609 -0.0742
  555TMC3    C6 8235   4.634   1.881  15.669  0.5727 -0.1088 -0.4422
  555TMC3     C 8236   4.611   2.008  15.269  0.1413  0.4984 -0.0576
  555TMC3     O 8237   4.699   2.088  15.238 -0.0639  0.3408 -0.0618
  555TMC3     H 8238   4.683   2.144  15.468  1.6305  0.0849  2.3244
  555TMC3    H1 8239   4.569   1.759  15.355  1.2051 -0.4429  0.5202
  555TMC3    H2 8240   4.629   1.849  15.772 -1.5634  0.7156 -0.2999
  555TMC3    C7 8241   4.624   1.654  15.603 -0.3493  0.2107 -0.0574
  555TMC3    C8 8242   4.694   2.115  15.727 -0.0412  0.0424 -0.1109
  555TMC3    O1 8243   4.569   1.570  15.538  0.1840  0.5385  0.4921
  555TMC3    O2 8244   4.686   2.233  15.692  0.4721 -0.3273  0.2194
  556MPD2     C 8245   3.237   0.024  10.925  0.6472 -0.5946 -0.2846
  556MPD2    C1 8246   3.237   4.609  10.947 -0.1708 -0.2815 -0.3366
  556MPD2    C2 8247   3.179   4.521  10.859  0.3623  0.6490 -0.3352
  556MPD2    C3 8248   3.126   4.574  10.741 -0.3695  0.1691  0.6036
  556MPD2    C4 8249   3.122   4.712  10.721 -0.0710  0.0572 -0.3185
  556MPD2    C5 8250   3.180   0.079  10.812 -0.3779 -0.1089 -0.1539
  556MPD2     H 8251   3.186   4.415  10.879 -2.7527  0.0058 -2.6455
  556MPD2    H1 8252   3.075   0.031  10.631 -2.3100 -2.3038 -0.1428
  556MPD2    H2 8253   3.287   0.103  10.979 -0.4952 -0.9985  1.3665
  556MPD2    H3 8254   3.180   0.186  10.795  0.6861 -0.3126 -1.4281
  556MPD2     N 8255   3.077   4.482  10.645  0.8318 -0.4002 -0.7538
  556MPD2    H5 8256   3.090   4.382  10.653  0.2737 -0.1877  2.5735
  556MPD2    N1 8257   3.311   4.561  11.064 -0.2856 -0.0633  0.0255
  556MPD2    H7 8258   3.308   4.462  11.085  1.2613  0.5067  2.9782
  557TMC3    C1 8259   2.999   4.403  10.451 -0.6299 -0.2504  0.2010
  557TMC3    C2 8260   3.008   4.419  10.315  0.2950  0.1686  1.1861
  557TMC3    C3 8261   2.951   4.314  10.237 -0.6399  0.2394 -0.2370
  557TMC3    C4 8262   2.944   4.291  10.513  0.0002 -0.2243 -0.4766
  557TMC3    C5 8263   2.906   4.189  10.429  0.1410 -0.9679 -1.2487
  557TMC3    C6 8264   2.900   4.202  10.292 -0.0736 -0.5567  0.4005
  557TMC3     C 8265   3.029   4.518  10.524 -1.1168  0.0235  0.7360
  557TMC3     O 8266   3.010   4.625  10.471  0.5842 -0.0042 -0.5365
  557TMC3     H 8267   3.044   4.512  10.274  0.5331 -1.6543 -2.7509
  557TMC3    H1 8268   2.929   4.288  10.620 -0.1419  1.1164 -0.4523
  557TMC3    H2 8269   2.859   4.120  10.235 -0.1413 -1.1428  1.2844
  557TMC3    C7 8270   2.856   4.071  10.493 -0.3982 -0.2223  0.5107
  557TMC3    C8 8271   2.908   4.353  10.105 -0.0026  0.3509 -0.4309
  557TMC3    O1 8272   2.780   4.085  10.585  0.7036 -0.1861  0.6503
  557TMC3    O2 8273   2.969   4.450  10.053 -0.0458  0.3615 -0.6070
  558TMC3    C1 8274   0.915   1.726  10.256 -0.0561  0.8111  0.5342
  558TMC3    C2 8275   0.854   1.739  10.381 -0.2016  0.4756  0.0184
  558TMC3    C3 8276   0.719   1.753  10.376  0.0749 -0.1048  0.4582
  558TMC3    C4 8277   0.843   1.723  10.135  0.7797 -0.0952  0.2411
  558TMC3    C5 8278   0.711   1.748  10.143  0.8084  0.2616 -0.4014
  558TMC3    C6 8279   0.642   1.767  10.263  0.5102 -0.0278 -0.3478
  558TMC3     C 8280   1.056   1.764  10.256 -0.4344  1.4650  0.2595
  558TMC3     O 8281   1.099   1.834  10.350  0.1603 -0.0754  0.1839
  558TMC3     H 8282   0.913   1.738  10.472  1.5800 -1.4625 -1.1502
  558TMC3    H1 8283   0.888   1.708  10.037 -1.5245  0.1399 -0.8574
  558TMC3    H2 8284   0.540   1.801  10.275  0.8231  0.7476  0.0866
  558TMC3    C7 8285   0.641   1.790  10.016  0.0811  0.7307  0.0977
  558TMC3    C8 8286   0.638   1.720  10.494  0.0274 -0.6614 -0.5746
  558TMC3    O1 8287   0.715   1.822   9.922 -0.1132 -0.1550  0.5744
  558TMC3    O2 8288   0.515   1.713  10.496 -0.4560  0.1057  0.3284
  559MPD2     C 8289   0.794   2.418  10.578  0.4752 -0.1492  0.5316
  559MPD2    C1 8290   0.757   2.394  10.713  0.1062  0.5052  0.4943
  559MPD2    C2 8291   0.860   2.385  10.805  0.4183  0.6622 -0.5298
  559MPD2    C3 8292   0.997   2.416  10.765  0.1611  0.2666 -1.0635
  559MPD2    C4 8293   1.025   2.442  10.630  0.6480 -0.3577  0.1230
  559MPD2    C5 8294   0.927   2.431  10.536 -0.3886  0.1636  0.5195
  559MPD2     H 8295   0.832   2.359  10.906 -0.7931  1.6169 -0.6233
  559MPD2    H1 8296   1.129   2.459  10.605  1.3639  0.1395  3.5502
  559MPD2    H2 8297   0.717   2.413  10.502  0.6471 -0.4349  0.3752
  559MPD2    H3 8298   0.944   2.462  10.433 -1.2044 -2.2313 -0.3372
  559MPD2     N 8299   1.093   2.418  10.866 -0.8315  0.2044  0.2537
  559MPD2    H5 8300   1.069   2.369  10.952  1.6666 -0.8713  0.3472
  559MPD2    N1 8301   0.617   2.376  10.740 -0.6101  0.4162  0.3640
  559MPD2    H7 8302   0.546   2.404  10.674 -0.1898 -1.0822 -0.7390
  560TMC3    C1 8303   1.301   2.457  10.962 -1.0337  0.6810 -0.0783
  560TMC3    C2 8304   1.296   2.336  11.031  0.7785 -1.1163  0.0610
  560TMC3    C3 8305   1.402   2.301  11.113 -1.2111 -0.0968 -0.1352
  560TMC3    C4 8306   1.396   2.548  10.991 -1.1885  0.0194 -0.0627
  560TMC3    C5 8307   1.494   2.517  11.080  0.0555 -0.4597 -1.0537
  560TMC3    C6 8308   1.508   2.391  11.142 -0.3474 -0.3729 -0.0498
  560TMC3     C 8309   1.209   2.488  10.858  0.0889  0.0639  0.0299
  560TMC3     O 8310   1.233   2.576  10.780 -0.2409  0.3483  0.6904
  560TMC3     H 8311   1.223   2.259  11.008  0.0196 -0.3042 -0.2539
  560TMC3    H1 8312   1.378   2.639  10.934  0.1141  1.2869  1.5609
  560TMC3    H2 8313   1.563   2.389  11.236 -1.2281 -1.2609  0.4503
  560TMC3    C7 8314   1.583   2.621  11.130  0.1976  0.4053 -0.1834
  560TMC3    C8 8315   1.388   2.183  11.192  0.3301 -0.5439 -0.5739
  560TMC3    O1 8316   1.670   2.587  11.207  0.2172 -0.1696 -0.6220
  560TMC3    O2 8317   1.276   2.136  11.210  0.7964 -0.7532  0.4786
  561TMC3    C1 8318   3.428   1.351  11.638 -0.1240  0.3187 -0.0769
  561TMC3    C2 8319   3.313   1.288  11.667 -0.3946  0.0353  0.2683
  561TMC3    C3 8320   3.209   1.357  11.718  0.1983 -0.1716  0.0100
  561TMC3    C4 8321   3.442   1.491  11.647  0.8080 -0.1708  0.9179
  561TMC3    C5 8322   3.330   1.562  11.697 -0.0574 -0.7600 -0.5421
  561TMC3    C6 8323   3.214   1.494  11.732 -0.1181 -0.3828 -0.1567
  561TMC3     C 8324   3.540   1.272  11.578  0.5287 -0.2704 -0.1316
  561TMC3     O 8325   3.529   1.149  11.584 -0.1950 -0.0250  0.3402
  561TMC3     H 8326   3.308   1.180  11.683  1.7419  0.0990  1.3263
  561TMC3    H1 8327   3.539   1.539  11.654 -0.3913  2.7262 -2.1256
  561TMC3    H2 8328   3.119   1.544  11.748  0.5857 -0.0097  2.7138
  561TMC3    C7 8329   3.331   1.709  11.702 -0.1204 -0.3929 -1.2286
  561TMC3    C8 8330   3.125   1.287  11.819 -1.0265  0.2652  0.0621
  561TMC3    O1 8331   3.244   1.759  11.778  0.3570 -0.2011  0.2034
  561TMC3    O2 8332   3.180   1.190  11.866 -0.2044  0.1011 -0.1209
  562TMC3    C1 8333   4.397   2.211  16.209 -0.2049  0.1958  0.6347
  562TMC3    C2 8334   4.292   2.285  16.161 -0.0045  0.6588  0.0260
  562TMC3    C3 8335   4.245   2.247  16.039 -0.8849 -0.6736  0.1498
  562TMC3    C4 8336   4.437   2.095  16.149 -0.3353 -0.2755 -0.0281
  562TMC3    C5 8337   4.388   2.059  16.028 -0.2296 -0.1649  0.5280
  562TMC3    C6 8338   4.294   2.140  15.969  0.1546 -0.2315  0.1899
  562TMC3     C 8339   4.429   2.234  16.348  0.1191 -0.1773  0.5288
  562TMC3     O 8340   4.432   2.137  16.418 -0.3303 -0.2139  0.1120
  562TMC3     H 8341   4.238   2.360  16.217 -0.4422  1.2243 -1.1462
  562TMC3    H1 8342   4.524   2.046  16.192 -0.3154 -0.3486 -0.1524
  562TMC3    H2 8343   4.253   2.106  15.874 -0.1468  0.3416  0.1188
  562TMC3    C7 8344   4.399   1.922  15.982 -0.1029  0.8687  0.3319
  562TMC3    C8 8345   4.121   2.307  15.988 -0.3752 -0.7189  0.6225
  562TMC3    O1 8346   4.349   1.895  15.877  0.8083  0.1274  1.2867
  562TMC3    O2 8347   4.042   2.345  16.074  0.0476 -0.4976  0.7696
  563MPD2     C 8348   1.984   3.811  15.809 -0.1081 -0.1824  0.0553
  563MPD2    C1 8349   2.075   3.906  15.867  0.3759  0.0144 -0.0964
  563MPD2    C2 8350   2.212   3.874  15.888  0.5259  0.3969  0.0376
  563MPD2    C3 8351   2.245   3.744  15.856  0.0515 -0.3477  0.1981
  563MPD2    C4 8352   2.154   3.655  15.791 -0.7363 -0.1926  0.3547
  563MPD2    C5 8353   2.020   3.683  15.778 -0.0912 -0.4729  0.0942
  563MPD2     H 8354   2.281   3.933  15.947 -1.0663  1.3628  0.9398
  563MPD2    H1 8355   2.185   3.551  15.785  0.9566  0.1991  2.4194
  563MPD2    H2 8356   1.884   3.843  15.781  0.1524  1.6017  1.1464
  563MPD2    H3 8357   1.950   3.612  15.736 -0.5717 -0.2600  0.5410
  563MPD2     N 8358   2.374   3.704  15.904  0.5535 -0.2040 -0.1580
  563MPD2    H5 8359   2.436   3.766  15.956 -0.3148  0.2228  0.3661
  563MPD2    N1 8360   2.026   4.029  15.914 -0.0272 -0.8495  0.4356
  563MPD2    H7 8361   1.926   4.043  15.902  0.3673  1.5023 -0.0523
  564TMC3    C1 8362   2.065   4.198  16.065 -0.2942  0.2287  0.4159
  564TMC3    C2 8363   1.936   4.165  16.109 -0.8557  0.4123 -0.4540
  564TMC3    C3 8364   1.903   4.155  16.239  0.2843  0.0947  0.6411
  564TMC3    C4 8365   2.163   4.226  16.156 -0.4996 -0.1147 -0.4245
  564TMC3    C5 8366   2.135   4.193  16.283 -0.1493 -0.4636 -0.4146
  564TMC3    C6 8367   2.010   4.168  16.328  0.2389  0.5365  0.3212
  564TMC3     C 8368   2.110   4.134  15.949  0.0828 -0.1395 -0.4173
  564TMC3     O 8369   2.226   4.154  15.917 -0.1505 -0.2620  0.6366
  564TMC3     H 8370   1.861   4.179  16.032 -2.0504 -3.6527 -0.0432
  564TMC3    H1 8371   2.266   4.229  16.123 -0.5878  2.4385 -0.4995
  564TMC3    H2 8372   1.992   4.126  16.426  1.2342 -0.9465 -0.1288
  564TMC3    C7 8373   2.216   4.081  16.323 -0.5224 -0.3827 -0.3000
  564TMC3    C8 8374   1.817   4.037  16.259  0.6935 -0.1826 -0.3870
  564TMC3    O1 8375   2.331   4.103  16.346  0.1307  0.3297  0.6345
  564TMC3    O2 8376   1.837   3.986  16.368  0.7648 -0.0949  0.4951
  565TMC3    C1 8377   2.773   0.829   9.806 -0.1384 -0.4127 -0.5213
  565TMC3    C2 8378   2.782   0.811   9.943  0.6175 -0.4011  0.2163
  565TMC3    C3 8379   2.819   0.687   9.983  0.2052 -0.2862  0.2129
  565TMC3    C4 8380   2.786   0.728   9.714 -0.3973 -0.4601  0.8892
  565TMC3    C5 8381   2.812   0.604   9.769 -0.5790 -0.5295  0.2718
  565TMC3    C6 8382   2.826   0.580   9.901 -0.5298 -0.5436  0.4219
  565TMC3     C 8383   2.751   0.968   9.764  0.2140 -0.4078  0.4267
  565TMC3     O 8384   2.794   1.058   9.837  0.3930  0.5590 -0.4136
  565TMC3     H 8385   2.772   0.898  10.007 -0.3938 -1.4555  1.5139
  565TMC3    H1 8386   2.782   0.747   9.607  2.6644  0.3375  0.9208
  565TMC3    H2 8387   2.895   0.500   9.928  0.2101  0.3432  1.1493
  565TMC3    C7 8388   2.841   0.486   9.684  0.2888  0.2548 -0.4230
  565TMC3    C8 8389   2.799   0.657  10.123  0.1011 -0.1926  0.2066
  565TMC3    O1 8390   2.925   0.407   9.724 -0.3765  0.5210 -0.5550
  565TMC3    O2 8391   2.821   0.738  10.214 -0.0656 -0.6538 -0.3097
  566MPD2     C 8392   4.158   1.840  14.617  0.3781 -0.0861  0.5127
  566MPD2    C1 8393   4.288   1.855  14.588  0.3600 -0.1937  0.4133
  566MPD2    C2 8394   4.325   1.948  14.495 -0.1550 -0.2459 -0.7206
  566MPD2    C3 8395   4.235   2.021  14.425  0.1565 -0.7541 -0.2399
  566MPD2    C4 8396   4.103   2.005  14.459  0.2350  0.0249  0.4032
  566MPD2    C5 8397   4.062   1.914  14.552  0.5604  0.7975 -0.0621
  566MPD2     H 8398   4.431   1.966  14.479 -0.0743  0.4443  0.5883
  566MPD2    H1 8399   4.028   2.068  14.412  1.3904  0.9034 -0.2492
  566MPD2    H2 8400   4.125   1.764  14.687  1.7689  0.0177  1.2822
  566MPD2    H3 8401   3.958   1.897  14.576  0.2823  0.2780 -1.6278
  566MPD2     N 8402   4.287   2.116  14.331  0.4669 -0.1318  0.0224
  566MPD2    H5 8403   4.388   2.113  14.317  0.0034 -1.0907 -3.0416
  566MPD2    N1 8404   4.393   1.789  14.662  0.7865 -0.2595 -0.2699
  566MPD2    H7 8405   4.372   1.769  14.759 -0.2906 -4.7170 -1.4071
  567TMC3    C1 8406   4.613   1.746  14.742 -0.0561  0.6008  0.1655
  567TMC3    C2 8407   0.007   1.818  14.743  0.1521 -0.1795 -0.0564
  567TMC3    C3 8408   0.072   1.838  14.864 -0.3321  0.1409  1.0916
  567TMC3    C4 8409   4.557   1.691  14.858 -0.3064  0.2145 -0.6429
  567TMC3    C5 8410   4.628   1.708  14.976  0.3216  0.2894  0.2464
  567TMC3    C6 8411   0.017   1.789  14.979 -0.6843  0.4974 -0.0436
  567TMC3     C 8412   4.528   1.788  14.632 -0.9792  0.2856 -0.7290
  567TMC3     O 8413   4.586   1.814  14.530 -0.1190  0.5759  0.3328
  567TMC3     H 8414   0.059   1.846  14.652 -1.8624 -1.4802 -1.5718
  567TMC3    H1 8415   4.475   1.620  14.857  0.4678 -0.6401 -2.5413
  567TMC3    H2 8416   0.071   1.797  15.073  0.0895  1.2737 -0.5512
  567TMC3    C7 8417   4.593   1.627  15.093 -0.2164  0.1831  0.0887
  567TMC3    C8 8418   0.141   1.960  14.862 -0.4219  0.0508  0.0495
  567TMC3    O1 8419   4.675   1.618  15.181 -0.0053  0.3885  0.0001
  567TMC3    O2 8420   0.126   2.043  14.772  0.5068  0.3925  0.3915
  568MPD2     C 8421   1.935   2.647  16.878  0.3928 -0.2598  0.1390
  568MPD2    C1 8422   2.056   2.680  16.839  0.2542 -0.0110  0.2977
  568MPD2    C2 8423   2.075   2.792  16.762 -0.6499 -0.2753 -0.1319
  568MPD2    C3 8424   1.967   2.859  16.719  0.7235 -0.1455  0.0253
  568MPD2    C4 8425   1.837   2.814  16.752 -0.2755  0.1138  0.8500
  568MPD2    C5 8426   1.823   2.707  16.829  0.1341  0.6941  0.1358
  568MPD2     H 8427   2.173   2.834  16.741 -1.4242  1.1655 -0.9402
  568MPD2    H1 8428   1.752   2.871  16.716  0.3448  1.8987  2.2044
  568MPD2    H2 8429   1.924   2.564  16.947 -1.6229 -0.9195 -0.9545
  568MPD2    H3 8430   1.726   2.670  16.860  0.2721  0.0851 -0.1389
  568MPD2     N 8431   1.999   2.981  16.655 -1.4885  0.1774 -0.4283
  568MPD2    H5 8432   2.096   3.011  16.653 -2.4685  3.4231  1.1974
  568MPD2    N1 8433   2.163   2.606  16.891  0.2508 -0.4248  0.1305
  568MPD2    H7 8434   2.139   2.540  16.965 -1.7251 -0.1823 -0.3159
  569TMC3    C1 8435   1.943   3.178  16.523 -0.2108  0.2242  0.4359
  569TMC3    C2 8436   2.044   3.247  16.579 -0.4003  0.1008  0.6418
  569TMC3    C3 8437   2.076   3.365  16.524  0.4131  0.3709  0.7509
  569TMC3    C4 8438   1.875   3.219  16.417 -0.1881 -0.1699  1.6364
  569TMC3    C5 8439   1.906   3.339  16.365 -0.3769 -0.3331  0.2392
  569TMC3    C6 8440   1.997   3.420  16.422 -0.4657 -0.0280 -0.3574
  569TMC3     C 8441   1.909   3.043  16.572 -0.1203  0.5039  0.6442
  569TMC3     O 8442   1.812   2.981  16.529  0.5071 -0.2799 -0.4029
  569TMC3     H 8443   2.100   3.205  16.661 -0.8750 -0.8348  0.4892
  569TMC3    H1 8444   1.797   3.156  16.375 -2.6333  2.6666  1.8890
  569TMC3    H2 8445   2.022   3.514  16.376  0.0878  0.1423  0.2917
  569TMC3    C7 8446   1.821   3.387  16.267  0.6754  0.0742  0.3720
  569TMC3    C8 8447   2.129   3.463  16.612 -0.2339  0.2786 -0.4278
  569TMC3    O1 8448   1.784   3.309  16.177  0.2717  0.0672  0.0686
  569TMC3    O2 8449   2.221   3.419  16.684 -0.4642 -0.0744 -0.2987
  570TMC3    C1 8450   1.030   0.982  16.367 -0.4882  0.1295  0.0068
  570TMC3    C2 8451   1.141   0.945  16.291 -0.1394 -0.2279 -0.4583
  570TMC3    C3 8452   1.143   0.989  16.162 -0.3953  0.7737  0.6091
  570TMC3    C4 8453   0.917   1.035  16.314  0.5219  0.1518 -0.3192
  570TMC3    C5 8454   0.914   1.073  16.181  0.3281 -0.2135 -0.7432
  570TMC3    C6 8455   1.037   1.056  16.115  0.3396  0.1339  0.6906
  570TMC3     C 8456   1.041   0.944  16.505 -0.3487  1.4098 -0.2994
  570TMC3     O 8457   1.117   0.848  16.522  0.4878  0.1352 -0.1377
  570TMC3     H 8458   1.228   0.908  16.343 -2.1233 -2.1867  1.4601
  570TMC3    H1 8459   0.824   1.045  16.369  0.1416  0.2828 -0.9872
  570TMC3    H2 8460   1.047   1.099  16.015 -1.8297  1.7039  1.1216
  570TMC3    C7 8461   0.854   1.198  16.163 -0.0976  0.5349 -0.2756
  570TMC3    C8 8462   1.271   1.046  16.118  0.2266 -0.0234  0.4570
  570TMC3    O1 8463   0.819   1.258  16.263  0.0596 -0.3371  0.3258
  570TMC3    O2 8464   1.290   1.155  16.063  0.1243  0.2750  0.1470
  571MPD2     C 8465   4.361   3.010  17.429  0.3843 -1.0278 -0.5114
  571MPD2    C1 8466   4.276   3.028  17.538 -0.5972  0.0061 -0.0845
  571MPD2    C2 8467   4.280   3.150  17.608 -0.6605 -0.3838 -0.1682
  571MPD2    C3 8468   4.368   3.248  17.567  0.2691  0.9550 -0.4759
  571MPD2    C4 8469   4.457   3.222  17.464 -0.2690  0.2337  0.4909
  571MPD2    C5 8470   4.452   3.113  17.387  0.1530 -0.1609 -0.1751
  571MPD2     H 8471   4.204   3.174   0.001  0.2943  0.2101  0.6223
  571MPD2    H1 8472   4.538   3.289  17.438 -0.5029  0.0567 -0.7154
  571MPD2    H2 8473   4.356   2.914  17.379  2.5497 -1.1492 -0.4987
  571MPD2    H3 8474   4.518   3.092  17.304  1.2121  1.0009  0.3830
  571MPD2     N 8475   4.363   3.376  17.625 -0.3769  0.2697  0.2583
  571MPD2    H5 8476   4.299   3.387   0.022  0.8289  1.4094  1.0935
  571MPD2    N1 8477   4.192   2.918  17.572  1.0614  0.7170 -0.9013
  571MPD2    H7 8478   4.201   2.835  17.513 -2.9525 -1.2357  1.2936
  572TMC3    C1 8479   4.400   3.598  17.668  0.0926  0.5495  0.8747
  572TMC3    C2 8480   4.361   3.557   0.105  0.3699 -0.4723 -0.3164
  572TMC3    C3 8481   4.251   3.602   0.164  0.5270 -0.0040 -0.1849
  572TMC3    C4 8482   4.339   3.712  17.620 -0.0721  0.1809 -0.3289
  572TMC3    C5 8483   4.245   3.778   0.017 -0.3081  0.7394  0.5348
  572TMC3    C6 8484   4.204   3.724   0.135  0.2049 -0.1547  0.9420
  572TMC3     C 8485   4.421   3.492  17.577 -0.0445 -0.2427 -0.2080
  572TMC3     O 8486   4.476   3.518  17.469  0.3266 -0.0601 -0.2728
  572TMC3     H 8487   4.405   3.469   0.151  1.7243 -0.6165 -1.9077
  572TMC3    H1 8488   4.366   3.746  17.521 -2.0594  1.6782 -0.3548
  572TMC3    H2 8489   4.141   3.781   0.202 -0.7449  0.5645 -0.5571
  572TMC3    C7 8490   4.181   3.887  17.632  0.0191  0.0936  0.5502
  572TMC3    C8 8491   4.153   3.500   0.192 -0.1756 -0.2640  0.1274
  572TMC3    O1 8492   4.230   3.933  17.528  0.0011 -0.4791  0.3240
  572TMC3    O2 8493   4.198   3.388   0.169 -0.9349 -0.6234 -0.0833
  573MPD2     C 8494   1.599   3.417   1.135  0.5606 -0.3449 -0.0095
  573MPD2    C1 8495   1.541   3.544   1.149  0.4761  0.3936  0.7283
  573MPD2    C2 8496   1.432   3.571   1.066  0.3933  0.0371  0.3232
  573MPD2    C3 8497   1.389   3.483   0.966 -0.2666  0.4675  0.6136
  573MPD2    C4 8498   1.460   3.362   0.947 -0.4123  0.5682 -0.4473
  573MPD2    C5 8499   1.567   3.336   1.026  0.0440 -0.4211  0.5469
  573MPD2     H 8500   1.378   3.665   1.076  0.3287 -0.3237  3.2511
  573MPD2    H1 8501   1.432   3.295   0.868  1.7973 -3.3203  2.0730
  573MPD2    H2 8502   1.674   3.382   1.205  0.1342  3.6469  2.4366
  573MPD2    H3 8503   1.627   3.248   1.008  2.0607  0.8356  1.0644
  573MPD2     N 8504   1.272   3.505   0.883  0.1890  0.4686 -0.2318
  573MPD2    H5 8505   1.242   3.435   0.815  0.0113  0.8589 -0.5544
  573MPD2    N1 8506   1.587   3.634   1.248 -0.3331  0.1067 -0.3369
  573MPD2    H7 8507   1.667   3.608   1.304 -0.6754 -1.7368 -0.7217
  574TMC3    C1 8508   1.112   3.620   0.761 -0.4490  0.9383  0.5204
  574TMC3    C2 8509   1.042   3.505   0.743 -1.0121 -0.9937  0.3223
  574TMC3    C3 8510   0.964   3.491   0.632 -0.1615 -0.0565  0.5843
  574TMC3    C4 8511   1.112   3.721   0.668  0.2481  0.3442  0.2175
  574TMC3    C5 8512   1.046   3.698   0.547 -0.0426  0.1382 -0.2594
  574TMC3    C6 8513   0.962   3.588   0.541 -0.2005 -0.4699 -1.0226
  574TMC3     C 8514   1.214   3.629   0.868 -0.4212 -0.1949  0.5451
  574TMC3     O 8515   1.252   3.738   0.905 -0.1340 -0.5814  0.0115
  574TMC3     H 8516   1.036   3.430   0.821 -0.0140  0.9367  2.2420
  574TMC3    H1 8517   1.191   3.795   0.674 -1.7430  2.5186 -0.5716
  574TMC3    H2 8518   0.914   3.564   0.446 -2.1165 -2.7353  0.5326
  574TMC3    C7 8519   1.080   3.766   0.424 -0.1658  0.5629 -0.2963
  574TMC3    C8 8520   0.861   3.388   0.645  0.1086 -0.7433  0.3249
  574TMC3    O1 8521   1.059   3.698   0.322 -0.7286  0.4278  0.1386
  574TMC3    O2 8522   0.871   3.311   0.741  0.5927  0.6066 -0.4793
  575TMC3    C1 8523   3.011   0.571  10.964 -0.3115 -0.3489 -0.2565
  575TMC3    C2 8524   3.008   0.695  11.027 -0.3182 -0.8167  0.5657
  575TMC3    C3 8525   2.976   0.793  10.945 -0.1326 -0.0467 -0.5066
  575TMC3    C4 8526   2.969   0.550  10.839  0.5148 -0.5193 -0.1601
  575TMC3    C5 8527   2.932   0.656  10.766 -0.6617  0.1354 -0.1970
  575TMC3    C6 8528   2.926   0.784  10.817  0.4859  0.5825 -0.1729
  575TMC3     C 8529   3.053   0.457  11.048 -0.0465 -0.5011 -0.6030
  575TMC3     O 8530   3.087   0.354  10.989 -0.2502  0.1091  0.4473
  575TMC3     H 8531   3.055   0.726  11.120  1.7988 -2.0270 -0.1028
  575TMC3    H1 8532   2.992   0.454  10.794 -0.8619 -1.0541  0.2865
  575TMC3    H2 8533   2.911   0.874  10.758 -2.2301 -0.0526 -0.4245
  575TMC3    C7 8534   2.859   0.634  10.643 -0.1184 -0.2497 -0.0213
  575TMC3    C8 8535   2.997   0.922  11.004 -0.3756 -0.0214  0.3083
  575TMC3    O1 8536   2.855   0.728  10.567 -0.3700  0.3115 -0.1045
  575TMC3    O2 8537   2.975   0.933  11.126 -0.1518  0.0732 -0.1304
  576MPD2     C 8538   2.074   1.749  12.795 -0.1655  0.2677  0.4597
  576MPD2    C1 8539   2.076   1.815  12.669  0.1278 -0.5474  0.0922
  576MPD2    C2 8540   2.006   1.940  12.663 -0.2200  0.0010 -0.5878
  576MPD2    C3 8541   1.938   1.996  12.765 -1.1955 -0.4643 -0.7841
  576MPD2    C4 8542   1.945   1.931  12.891  0.5950 -0.1191  0.0643
  576MPD2    C5 8543   2.016   1.811  12.902  0.9852  0.3776  0.1092
  576MPD2     H 8544   2.000   1.986  12.565 -0.4397 -0.4579 -0.7883
  576MPD2    H1 8545   1.903   1.977  12.979 -0.3856 -0.8043 -0.0455
  576MPD2    H2 8546   2.127   1.655  12.801 -0.5478 -0.0358 -0.8247
  576MPD2    H3 8547   2.027   1.770  13.002 -3.9939 -1.2274 -0.0065
  576MPD2     N 8548   1.886   2.124  12.747  0.4167 -0.3755  0.3700
  576MPD2    H5 8549   1.892   2.168  12.656 -1.2958 -0.3513  0.2600
  576MPD2    N1 8550   2.147   1.780  12.554  0.2892  0.3477 -0.1558
  576MPD2    H7 8551   2.143   1.854  12.486  0.2564  3.6217  3.3914
  577TMC3    C1 8552   2.328   1.686  12.437 -0.2124 -0.2432  0.1857
  577TMC3    C2 8553   2.409   1.578  12.401  0.0575  0.2208  0.8471
  577TMC3    C3 8554   2.502   1.602  12.303 -0.0565 -0.5117 -0.3800
  577TMC3    C4 8555   2.335   1.809  12.375  0.0438 -0.2897 -0.6151
  577TMC3    C5 8556   2.441   1.826  12.287  0.0220 -0.0389 -0.3999
  577TMC3    C6 8557   2.531   1.726  12.249  0.3218 -0.1672  0.5445
  577TMC3     C 8558   2.222   1.668  12.536  0.2872 -0.2298 -0.1458
  577TMC3     O 8559   2.239   1.574  12.612 -0.2308  0.0449 -0.6617
  577TMC3     H 8560   2.375   1.477  12.424 -1.2722  0.5890  0.5199
  577TMC3    H1 8561   2.270   1.893  12.396  0.8054 -0.0798  0.9298
  577TMC3    H2 8562   2.636   1.749  12.234 -0.3862  3.8137  1.8540
  577TMC3    C7 8563   2.487   1.961  12.271  0.0328  0.2510  0.1877
  577TMC3    C8 8564   2.604   1.503  12.306  0.3405  0.0043  0.0044
  577TMC3    O1 8565   2.448   2.036  12.360 -0.5459  1.0375  0.2630
  577TMC3    O2 8566   2.624   1.435  12.405  0.0141  0.0715 -0.3659
  578MPD2     C 8567   0.612   1.151   1.375 -0.0742  0.5540  0.3894
  578MPD2    C1 8568   0.720   1.174   1.291  0.6544 -0.3448  0.1721
  578MPD2    C2 8569   0.839   1.117   1.330 -0.4840 -0.4151 -0.3849
  578MPD2    C3 8570   0.854   1.042   1.444  0.0248  1.1836 -0.2654
  578MPD2    C4 8571   0.747   1.022   1.524  0.1171 -0.5253 -0.3064
  578MPD2    C5 8572   0.628   1.077   1.490 -0.2908 -0.8348 -0.2482
  578MPD2     H 8573   0.929   1.135   1.273 -0.3947 -1.4790 -0.5821
  578MPD2    H1 8574   0.763   0.947   1.601 -2.0774 -0.0430  0.6216
  578MPD2    H2 8575   0.519   1.202   1.349 -0.2222  0.8237  1.4584
  578MPD2    H3 8576   0.542   1.062   1.553 -0.4385  0.0394 -0.2383
  578MPD2     N 8577   0.984   0.989   1.476  0.0910 -0.3770  0.1733
  578MPD2    H5 8578   1.063   0.990   1.411  1.2910  1.1793  1.6770
  578MPD2    N1 8579   0.704   1.281   1.198 -0.0155  0.0403 -0.0703
  578MPD2    H7 8580   0.609   1.305   1.172 -0.8511 -2.5792  0.6044
  579TMC3    C1 8581   1.140   0.872   1.581  0.5740 -0.1334 -0.0126
  579TMC3    C2 8582   1.236   0.912   1.677  0.0272 -0.4874 -0.1606
  579TMC3    C3 8583   1.364   0.913   1.637 -0.6644 -0.6847 -0.2146
  579TMC3    C4 8584   1.168   0.820   1.458 -0.5429  0.9677  0.3487
  579TMC3    C5 8585   1.302   0.819   1.427 -0.7421  0.2835 -0.1712
  579TMC3    C6 8586   1.401   0.869   1.514 -0.2135 -0.1782 -0.6005
  579TMC3     C 8587   1.020   0.945   1.596 -0.6795 -0.0804  0.4407
  579TMC3     O 8588   0.968   0.963   1.706 -0.0595  0.1781 -0.8359
  579TMC3     H 8589   1.200   0.967   1.763  0.8271  0.3904 -0.3742
  579TMC3    H1 8590   1.095   0.781   1.388 -0.2125 -0.9126  1.0351
  579TMC3    H2 8591   1.503   0.889   1.483  0.1843 -0.4948  0.5117
  579TMC3    C7 8592   1.349   0.802   1.292 -0.5950 -0.2275 -0.1172
  579TMC3    C8 8593   1.452   1.006   1.716 -0.3733 -0.2059 -0.6085
  579TMC3    O1 8594   1.441   0.865   1.252 -0.4207  0.3399 -0.0156
  579TMC3    O2 8595   1.408   1.050   1.814 -0.5163 -0.0632  0.3312
  580TMC3    C1 8596   0.336   0.551  11.993 -0.5712 -0.4303  0.0156
  580TMC3    C2 8597   0.368   0.528  11.865 -0.3094  0.2139 -0.3715
  580TMC3    C3 8598   0.494   0.493  11.829  0.3464 -0.3351 -1.1703
  580TMC3    C4 8599   0.408   0.490  12.095 -0.1403  0.4514 -0.0593
  580TMC3    C5 8600   0.521   0.428  12.054 -0.2509  0.3776 -0.1006
  580TMC3    C6 8601   0.567   0.435  11.925 -0.1959  0.3226  0.2028
  580TMC3     C 8602   0.307   0.689  12.012 -0.0744  0.2776 -0.2165
  580TMC3     O 8603   0.224   0.748  11.939  0.0383 -0.3234 -0.2329
  580TMC3     H 8604   0.307   0.573  11.787 -0.6137 -1.3317 -1.0317
  580TMC3    H1 8605   0.372   0.504  12.197 -0.1704 -1.3746  0.1676
  580TMC3    H2 8606   0.664   0.388  11.908  0.3408  1.6478 -0.4568
  580TMC3    C7 8607   0.582   0.344  12.149 -0.4140 -0.8559 -0.1832
  580TMC3    C8 8608   0.558   0.605  11.778  0.2228 -0.4805  0.1264
  580TMC3    O1 8609   0.561   0.362  12.268  0.0580  0.2897  0.0080
  580TMC3    O2 8610   0.499   0.662  11.684 -0.6312 -0.2022  0.4130
  581MPD2     C 8611   3.029   0.498  14.872 -0.2683  0.0139  0.2462
  581MPD2    C1 8612   2.951   0.386  14.880 -0.3722  0.6531  1.0570
  581MPD2    C2 8613   2.814   0.401  14.863 -0.0750 -0.5812  0.1731
  581MPD2    C3 8614   2.769   0.528  14.822 -0.2953 -0.3608  0.3627
  581MPD2    C4 8615   2.854   0.642  14.803 -0.1772  0.2877  0.1480
  581MPD2    C5 8616   2.983   0.631  14.837  0.4085 -0.0057  0.3063
  581MPD2     H 8617   2.756   0.309  14.862  0.7253 -1.0894  1.7564
  581MPD2    H1 8618   2.814   0.737  14.769  1.0287  0.9928  0.7072
  581MPD2    H2 8619   3.136   0.484  14.885 -0.5207 -2.0209  0.2255
  581MPD2    H3 8620   3.047   0.718  14.833  0.8068 -0.3244 -0.3186
  581MPD2     N 8621   2.639   0.542  14.769 -0.5675 -0.5129 -0.0993
  581MPD2    H5 8622   2.614   0.625  14.716 -1.6910  0.1065  1.4221
  581MPD2    N1 8623   3.020   0.266  14.907  0.4189  0.2932  0.0339
  581MPD2    H7 8624   3.120   0.281  14.910  0.4402 -0.0266  0.9553
  582TMC3    C1 8625   3.080   0.041  14.901 -0.1291  0.6442  0.0728
  582TMC3    C2 8626   3.146   0.047  15.019 -0.6313 -0.2119 -0.2502
  582TMC3    C3 8627   3.158   4.657  15.098 -0.1437 -0.2477  0.5128
  582TMC3    C4 8628   3.036   4.635  14.855 -0.0368 -0.6340 -0.2823
  582TMC3    C5 8629   3.044   4.524  14.934 -0.0793 -0.0641  0.0027
  582TMC3    C6 8630   3.108   4.536  15.061  0.2803 -0.1367 -0.8246
  582TMC3     C 8631   2.975   0.138  14.888  0.8244 -0.0484  0.0090
  582TMC3     O 8632   2.868   0.095  14.846  0.8001 -0.1073 -0.5845
  582TMC3     H 8633   3.156   0.145  15.064  0.9398  0.0460 -1.1491
  582TMC3    H1 8634   2.991   4.636  14.756 -0.8283  1.2446  0.0872
  582TMC3    H2 8635   3.109   4.452  15.128  3.0294 -0.6417 -1.4994
  582TMC3    C7 8636   2.922   4.447  14.941 -1.1230  0.4189 -0.3663
  582TMC3    C8 8637   3.187   4.675  15.241 -0.4029 -0.0015 -0.3479
  582TMC3    O1 8638   2.930   4.329  14.974 -0.5692  0.5092 -0.2674
  582TMC3    O2 8639   3.138   4.592  15.319  0.0449 -0.2650  0.0964
  583MPD2     C 8640   3.134   1.580  17.287  0.6664  0.1415  0.2614
  583MPD2    C1 8641   3.093   1.674  17.196  0.2996  0.3451  0.5194
  583MPD2    C2 8642   3.053   1.803  17.238  0.6207  0.5281  0.3479
  583MPD2    C3 8643   3.086   1.838  17.369 -0.3860 -0.0471  0.5183
  583MPD2    C4 8644   3.139   1.747  17.458 -0.0316  0.1470  0.3967
  583MPD2    C5 8645   3.165   1.621  17.418  0.4631 -0.2334 -0.0127
  583MPD2     H 8646   3.009   1.871  17.166 -0.5776 -1.4248 -0.7882
  583MPD2    H1 8647   3.158   1.770  17.563  0.6308  2.1956 -0.1773
  583MPD2    H2 8648   3.166   1.480  17.261 -0.7222 -0.4315  0.7609
  583MPD2    H3 8649   3.214   1.550  17.482  2.0880 -0.4077 -1.4694
  583MPD2     N 8650   3.067   1.973  17.404 -0.2682 -0.2973 -0.6087
  583MPD2    H5 8651   3.029   2.035  17.333 -0.2617  0.4697  0.0587
  583MPD2    N1 8652   3.074   1.651  17.054 -0.4069 -0.0290 -0.3931
  583MPD2    H7 8653   3.061   1.730  16.993 -1.2131  0.4247  0.3558
  584TMC3    C1 8654   3.051   2.169  17.539  0.8570 -0.2674 -0.7290
  584TMC3    C2 8655   2.972   2.222  17.439  0.0518 -0.2765 -0.5870
  584TMC3    C3 8656   2.901   2.333  17.471  0.6975 -0.4030 -0.0871
  584TMC3    C4 8657   3.041   2.217  17.666  0.2150  0.4046 -0.3867
  584TMC3    C5 8658   2.970   2.324   0.013 -0.9143  0.4955 -0.3213
  584TMC3    C6 8659   2.887   2.383  17.601  0.5245 -0.3298 -0.1521
  584TMC3     C 8660   3.097   2.026  17.529  0.4534 -0.8023  0.6732
  584TMC3     O 8661   3.138   1.972  17.631  0.1026 -0.2405  0.5792
  584TMC3     H 8662   2.978   2.206  17.332 -2.2032 -1.1126 -0.5960
  584TMC3    H1 8663   3.104   2.178   0.065 -1.9421 -0.2916  0.9793
  584TMC3    H2 8664   2.822   2.466  17.627 -1.4248 -1.4781 -1.3003
  584TMC3    C7 8665   2.964   2.360   0.155 -0.4511 -0.1246 -0.4239
  584TMC3    C8 8666   2.887   2.430  17.368  0.1081 -0.1252  0.6078
  584TMC3    O1 8667   2.852   2.387   0.200 -0.8208 -0.3311 -0.2570
  584TMC3    O2 8668   2.908   2.399  17.252 -0.4493 -0.9209  0.1354
  585MPD2     C 8669   2.948   1.133   0.306 -0.6605  0.0315 -0.6117
  585MPD2    C1 8670   2.817   1.146   0.262 -0.9080  0.3057  0.5806
  585MPD2    C2 8671   2.761   1.030   0.220  0.3500 -0.9752  0.8056
  585MPD2    C3 8672   2.823   0.911   0.221 -0.4662  0.0520 -0.1203
  585MPD2    C4 8673   2.953   0.898   0.269  0.2623  0.2419 -0.2220
  585MPD2    C5 8674   3.017   1.015   0.307  0.5750 -0.2222  0.2755
  585MPD2     H 8675   2.658   1.031   0.187  0.4155 -0.9051  0.6031
  585MPD2    H1 8676   3.007   0.805   0.259 -2.5686 -1.4031 -0.3336
  585MPD2    H2 8677   3.004   1.224   0.326 -1.0736  0.1275  0.1211
  585MPD2    H3 8678   3.123   1.022   0.332  0.7396 -0.8913 -0.2134
  585MPD2     N 8679   2.761   0.791   0.167  0.0792 -0.7702 -0.6612
  585MPD2    H5 8680   2.806   0.702   0.189 -0.0711 -0.9275 -0.9802
  585MPD2    N1 8681   2.760   1.273   0.270  0.0395  0.6747  0.4996
  585MPD2    H7 8682   2.827   1.345   0.292  0.3231  1.1555 -1.9674
  586TMC3    C1 8683   2.622   0.655   0.024 -0.2249 -0.3315  0.3031
  586TMC3    C2 8684   2.728   0.572  17.671  0.9178  0.3768  0.2440
  586TMC3    C3 8685   2.692   0.465  17.597 -0.2530  0.5476 -0.1847
  586TMC3    C4 8686   2.487   0.641  17.658 -0.4091  0.4598  0.4116
  586TMC3    C5 8687   2.468   0.541  17.569  0.0312 -0.1712 -0.8766
  586TMC3    C6 8688   2.566   0.450  17.540  0.1235 -0.1260 -0.2173
  586TMC3     C 8689   2.651   0.789   0.075  0.1208  0.8393 -0.2486
  586TMC3     O 8690   2.572   0.879   0.042 -0.6533  0.7627 -0.6426
  586TMC3     H 8691   2.832   0.592   0.012  1.6086 -1.7732 -1.0123
  586TMC3    H1 8692   2.407   0.705   0.011 -1.0412  1.2383 -2.6344
  586TMC3    H2 8693   2.536   0.376  17.466  2.8329 -0.7175 -0.7250
  586TMC3    C7 8694   2.324   0.512  17.551  0.4669 -0.5693 -0.1693
  586TMC3    C8 8695   2.799   0.368  17.567  0.3699 -0.3904 -0.1497
  586TMC3    O1 8696   2.238   0.589  17.600 -0.5004 -0.2630 -0.0821
  586TMC3    O2 8697   2.897   0.355  17.637  0.2725  0.0526 -0.3613
  587TMC3    C1 8698   0.120   4.422  16.445  0.2382 -0.1054 -0.0068
  587TMC3    C2 8699   0.043   4.523  16.411  0.3708  0.7883 -0.3159
  587TMC3    C3 8700   0.057   4.582  16.289 -0.6380 -0.2321 -0.1088
  587TMC3    C4 8701   0.213   4.378  16.364 -0.1225  0.5392  0.1981
  587TMC3    C5 8702   0.221   4.425  16.237  0.0829 -0.3167 -0.3633
  587TMC3    C6 8703   0.143   4.531  16.197 -0.5363 -0.9452 -0.6105
  587TMC3     C 8704   0.067   4.323  16.532  0.6380  0.4420 -0.4364
  587TMC3     O 8705   0.148   4.239  16.576 -0.8988 -0.2129 -0.2790
  587TMC3     H 8706   4.692   4.562  16.483  2.0163  2.1763  0.5588
  587TMC3    H1 8707   0.269   4.289  16.391 -0.4590  0.4003  0.4303
  587TMC3    H2 8708   0.168   4.572  16.100  3.0526 -1.8854 -0.0990
  587TMC3    C7 8709   0.329   4.378  16.147  0.2614 -0.1800 -0.0769
  587TMC3    C8 8710   4.696   4.689  16.239 -0.4596 -0.4718 -0.1461
  587TMC3    O1 8711   0.435   4.351  16.205  0.1421 -0.5376 -0.4678
  587TMC3    O2 8712   0.005   0.015  16.130  0.0545  0.2385 -0.1039
  588TMC3    C1 8713   2.100   2.094   9.655 -0.2539  0.0543 -0.6014
  588TMC3    C2 8714   2.075   1.965   9.690 -0.2346 -0.6137  0.2550
  588TMC3    C3 8715   2.122   1.924   9.811  0.4202  0.3430  0.7485
  588TMC3    C4 8716   2.167   2.182   9.737  0.1670  0.0505  0.0486
  588TMC3    C5 8717   2.207   2.133   9.853 -0.1899 -0.2097  0.3386
  588TMC3    C6 8718   2.182   2.007   9.899  0.6675 -0.4087  0.2202
  588TMC3     C 8719   2.039   2.141   9.535 -0.6133 -0.4296  0.3893
  588TMC3     O 8720   2.037   2.079   9.428  0.0522 -0.1992  0.8327
  588TMC3     H 8721   2.027   1.896   9.622 -2.3170  0.6071  0.5038
  588TMC3    H1 8722   2.182   2.282   9.699 -0.3521 -0.0570 -0.4327
  588TMC3    H2 8723   2.207   1.971   9.998  1.4212  1.2910  0.6457
  588TMC3    C7 8724   2.283   2.220   9.941  0.8526 -0.1190 -0.1808
  588TMC3    C8 8725   2.106   1.780   9.836  0.5180  0.2765  0.3281
  588TMC3    O1 8726   2.363   2.167  10.017  0.0203 -0.0491 -0.1717
  588TMC3    O2 8727   2.017   1.713   9.784 -0.1804 -0.0240  0.2705
  589TMC3    C1 8728   1.637   4.635   1.540 -0.0147  0.9915 -0.2430
  589TMC3    C2 8729   1.671   4.692   1.668  0.2329 -0.2908 -0.6915
  589TMC3    C3 8730   1.783   4.642   1.730  0.0366 -0.1905  0.2007
  589TMC3    C4 8731   1.712   4.532   1.480 -0.8693 -0.1647  0.3371
  589TMC3    C5 8732   1.822   4.487   1.548 -0.2558 -0.3038  0.1674
  589TMC3    C6 8733   1.863   4.547   1.667 -0.4873  0.5278  0.6370
  589TMC3     C 8734   1.511   4.679   1.476 -0.5570 -0.8683 -0.7061
  589TMC3     O 8735   1.490   4.633   1.362  1.1219  0.4682 -0.5065
  589TMC3     H 8736   1.636   0.069   1.704 -1.3720 -0.8212 -0.8208
  589TMC3    H1 8737   1.670   4.474   1.399  1.2440  3.5079 -3.3255
  589TMC3    H2 8738   1.951   4.513   1.721 -1.2383 -0.6862  1.0985
  589TMC3    C7 8739   1.914   4.395   1.484 -0.2672  0.2965  0.3345
  589TMC3    C8 8740   1.844   0.029   1.808 -0.4837  0.3764 -0.8355
  589TMC3    O1 8741   2.028   4.403   1.526 -0.1353 -0.1406  0.3113
  589TMC3    O2 8742   1.771   0.095   1.876  0.2006  0.0055 -0.4517
  590MPD2     C 8743   0.448   2.968  16.832  0.0163  1.0012  0.2319
  590MPD2    C1 8744   0.418   3.004  16.705 -0.1017 -0.2384 -0.8436
  590MPD2    C2 8745   0.519   3.045  16.619  0.4326 -0.2854  0.8045
  590MPD2    C3 8746   0.651   3.053  16.658  0.2892 -0.5742 -0.7301
  590MPD2    C4 8747   0.676   3.012  16.784  0.6772  0.6550  0.1885
  590MPD2    C5 8748   0.582   2.966  16.872  0.4091 -0.4003  0.0741
  590MPD2     H 8749   0.497   3.081  16.519 -0.7641  1.3028  1.6336
  590MPD2    H1 8750   0.772   3.028  16.832  0.0750  0.2818  1.5261
  590MPD2    H2 8751   0.369   2.953  16.905  0.0533 -0.6590 -0.0806
  590MPD2    H3 8752   0.601   2.945  16.976 -1.5005 -0.1998  0.4524
  590MPD2     N 8753   0.748   3.089  16.564  0.7691 -0.3350  0.4532
  590MPD2    H5 8754   0.725   3.108  16.467  0.2576 -2.7891  0.0863
  590MPD2    N1 8755   0.284   2.995  16.673 -0.7376  0.0285  0.1617
  590MPD2    H7 8756   0.227   2.950  16.744 -0.4689 -0.4527  0.0796
  591TMC3    C1 8757   0.959   3.125  16.462 -0.5169 -0.7317  0.0226
  591TMC3    C2 8758   1.083   3.056  16.461  0.5981  0.6266 -0.8370
  591TMC3    C3 8759   1.141   3.040  16.343 -0.4279 -0.5137 -0.4935
  591TMC3    C4 8760   0.894   3.167  16.349 -0.6824 -0.0491  0.2533
  591TMC3    C5 8761   0.971   3.178  16.243 -0.3203  0.4597  0.3796
  591TMC3    C6 8762   1.085   3.102  16.232  0.1029 -0.2223  0.7679
  591TMC3     C 8763   0.881   3.090  16.584  0.3539  0.4782  0.0044
  591TMC3     O 8764   0.934   3.075  16.697 -0.1659  0.5983 -0.2212
  591TMC3     H 8765   1.125   3.015  16.553 -0.1534 -1.4306 -1.4071
  591TMC3    H1 8766   0.809   3.234  16.350 -0.6834  0.0139 -2.4722
  591TMC3    H2 8767   1.119   3.082  16.132 -0.2798 -0.9005  0.7746
  591TMC3    C7 8768   0.901   3.215  16.121  0.0961  0.1284  0.4964
  591TMC3    C8 8769   1.181   2.901  16.332  1.1232  0.7647  0.1976
  591TMC3    O1 8770   0.778   3.218  16.124  0.4465  0.5550 -0.0538
  591TMC3    O2 8771   1.237   2.859  16.230  0.2262 -0.1325 -0.0333
  592MPD2     C 8772   1.570   0.362  11.195 -0.0857 -0.2589 -0.3971
  592MPD2    C1 8773   1.573   0.396  11.330 -0.0425 -0.1306  0.7056
  592MPD2    C2 8774   1.501   0.313  11.420 -0.5503  0.5740  0.8650
  592MPD2    C3 8775   1.433   0.203  11.373  0.1837 -0.6651 -0.5842
  592MPD2    C4 8776   1.430   0.179  11.236 -0.5994 -0.5618  0.1480
  592MPD2    C5 8777   1.496   0.257  11.147 -0.0963 -0.4397  0.7660
  592MPD2     H 8778   1.491   0.329  11.527  0.2865 -1.0162  1.1762
  592MPD2    H1 8779   1.390   0.094  11.181  0.5930 -1.6833  1.0265
  592MPD2    H2 8780   1.615   0.431  11.125 -1.3245 -1.4629 -2.3636
  592MPD2    H3 8781   1.495   0.233  11.041  0.2237 -2.0547  1.1286
  592MPD2     N 8782   1.357   0.126  11.469 -0.4521  0.2288  0.5519
  592MPD2    H5 8783   1.373   0.155  11.565  0.3952 -3.1870  1.4131
  592MPD2    N1 8784   1.643   0.516  11.370  0.4587  0.5616  0.7503
  592MPD2    H7 8785   1.684   0.562  11.290 -2.4110 -0.3252 -1.2174
  593TMC3    C1 8786   1.725   0.686  11.510 -0.7464 -0.0861 -0.1951
  593TMC3    C2 8787   1.726   0.738  11.632  0.4725  0.3393  0.4590
  593TMC3    C3 8788   1.788   0.860  11.653  0.1270 -0.3372  0.1191
  593TMC3    C4 8789   1.789   0.742  11.403  0.3786  0.2802 -0.6170
  593TMC3    C5 8790   1.851   0.859  11.423 -1.0340  1.0059  0.1545
  593TMC3    C6 8791   1.855   0.917  11.544  1.2746  0.6067  0.6142
  593TMC3     C 8792   1.657   0.561  11.498 -0.1368  0.4744 -0.3155
  593TMC3     O 8793   1.595   0.529  11.598 -0.6789 -0.1750 -0.6598
  593TMC3     H 8794   1.688   0.679  11.715  0.7524  0.1285  0.4356
  593TMC3    H1 8795   1.801   0.695  11.306  1.7267 -0.4698 -0.0890
  593TMC3    H2 8796   1.908   1.012  11.550 -0.2745  1.4981  0.1613
  593TMC3    C7 8797   1.918   0.930  11.319 -0.7458 -0.0698 -0.5233
  593TMC3    C8 8798   1.826   0.895  11.794  0.2897  0.3397 -0.2081
  593TMC3    O1 8799   2.000   1.012  11.347 -0.2250  0.4132 -0.9720
  593TMC3    O2 8800   1.759   0.846  11.885 -0.2545  0.0475  0.0567
  594MPD2     C 8801   0.200   3.591  14.989 -0.4497 -0.5025 -0.2580
  594MPD2    C1 8802   0.135   3.646  14.881 -0.6921 -0.8520  0.1997
  594MPD2    C2 8803   0.198   3.758  14.829 -0.0524  0.4978 -0.1789
  594MPD2    C3 8804   0.318   3.810  14.872 -0.2350 -0.6279  0.3390
  594MPD2    C4 8805   0.369   3.760  14.994  0.1584 -0.1656  0.0206
  594MPD2    C5 8806   0.302   3.655  15.054 -0.5286 -0.1307 -0.8715
  594MPD2     H 8807   0.153   3.790  14.735 -1.3246  2.5105  1.1201
  594MPD2    H1 8808   0.449   3.800  15.054 -0.2506  2.4695 -1.2125
  594MPD2    H2 8809   0.160   3.501  15.036  3.5015 -2.0875  0.0978
  594MPD2    H3 8810   0.326   3.612  15.151  0.8674  2.1951 -0.1767
  594MPD2     N 8811   0.368   3.932  14.813 -0.2007  0.4553  0.1426
  594MPD2    H5 8812   0.310   3.988  14.752  0.7179  0.3508 -0.8176
  594MPD2    N1 8813   0.023   3.578  14.828 -0.5198 -0.4490  0.4155
  594MPD2    H7 8814   4.711   3.486  14.860  0.8231 -0.2814  2.2487
  595TMC3    C1 8815   0.634   4.251  14.620 -0.8647  0.0719  0.2004
  595TMC3    C2 8816   0.633   4.135  14.701 -0.0772 -0.4045  0.5894
  595TMC3    C3 8817   0.511   4.102  14.755 -0.0964 -0.0132  0.1055
  595TMC3    C4 8818   0.533   4.339  14.611  0.6623  0.6404  0.0022
  595TMC3    C5 8819   0.415   4.302  14.674 -0.0975 -0.1319  0.0522
  595TMC3    C6 8820   0.401   4.187  14.749  0.9060 -0.2206 -0.0539
  595TMC3     C 8821   0.752   4.304  14.577 -0.2050  0.1578  0.3622
  595TMC3     O 8822   0.752   4.418  14.529  0.0054  0.0682  0.1739
  595TMC3     H 8823   0.721   4.074  14.717  0.8450  0.4647 -1.1668
  595TMC3    H1 8824   0.532   4.423  14.543 -3.1171  1.1519  0.6335
  595TMC3    H2 8825   0.314   4.168  14.811  0.6894  1.0761  0.0460
  595TMC3    C7 8826   0.292   4.391  14.665  0.9727 -0.1287  0.0327
  595TMC3    C8 8827   0.499   3.967  14.821  0.0462  0.5505  0.5254
  595TMC3    O1 8828   0.192   4.349  14.717  0.3701 -0.3708  0.4068
  595TMC3    O2 8829   0.601   3.903  14.847  0.2502  0.1567 -0.1060
  596MPD2     C 8830   4.011   1.385  16.828 -0.7631 -0.0529 -0.4226
  596MPD2    C1 8831   3.994   1.510  16.774  0.1393  0.0321 -0.5267
  596MPD2    C2 8832   4.003   1.525  16.638 -0.1377  0.1371 -0.7574
  596MPD2    C3 8833   3.994   1.422  16.548  0.5692  0.2528  0.2788
  596MPD2    C4 8834   4.001   1.297  16.602 -0.3496  0.4710 -0.1324
  596MPD2    C5 8835   4.015   1.277  16.740  0.2872  0.1149  0.0106
  596MPD2     H 8836   4.001   1.627  16.601 -1.1406  1.1243  2.0535
  596MPD2    H1 8837   3.997   1.208  16.539 -0.9742  1.3304 -1.2901
  596MPD2    H2 8838   4.026   1.382  16.935  1.6494 -0.3991 -0.7907
  596MPD2    H3 8839   4.018   1.177  16.781 -1.1785  0.1966  0.2943
  596MPD2     N 8840   3.947   1.438  16.407  0.1213 -0.3062 -0.2138
  596MPD2    H5 8841   3.927   1.356  16.351 -1.3812 -0.1773  0.1289
  596MPD2    N1 8842   3.970   1.627  16.848  0.2018  0.6136  0.5161
  596MPD2    H7 8843   3.936   1.698  16.785  0.4209 -0.0664 -0.3580
  597TMC3    C1 8844   3.953   1.784  17.021  0.1129 -0.6277  0.0288
  597TMC3    C2 8845   4.001   1.882  16.937 -0.2218 -0.4412 -0.5985
  597TMC3    C3 8846   3.996   2.014  16.975  0.2794  0.1577 -0.7432
  597TMC3    C4 8847   3.891   1.806  17.144 -0.3559 -0.3135  0.0581
  597TMC3    C5 8848   3.894   1.940  17.178  0.3515 -0.5638 -0.1122
  597TMC3    C6 8849   3.944   2.038  17.097 -0.0413 -0.3936 -0.2269
  597TMC3     C 8850   3.969   1.640  16.981 -0.0271 -1.0462 -0.2134
  597TMC3     O 8851   3.962   1.556  17.075 -0.4079  0.4464  0.4148
  597TMC3     H 8852   4.053   1.853  16.846  1.4244  0.4138  0.0815
  597TMC3    H1 8853   3.836   1.729  17.197 -0.0875 -0.2770  0.3922
  597TMC3    H2 8854   3.958   2.141  17.128  1.0262 -1.2034  1.9311
  597TMC3    C7 8855   3.843   1.983  17.312  0.4298  0.3228 -0.5269
  597TMC3    C8 8856   3.966   2.115  16.882  0.1462 -0.3399  0.0398
  597TMC3    O1 8857   3.842   1.898  17.404  0.7966  0.2014 -0.3307
  597TMC3    O2 8858   3.854   2.160  16.898 -0.4158  0.0363  0.0492
  598TMC3    C1 8859   1.904   3.290  15.593  0.5346 -0.6408 -0.4446
  598TMC3    C2 8860   1.812   3.192  15.624  0.3757  0.0009 -0.0121
  598TMC3    C3 8861   1.708   3.179  15.543  0.0746  0.0510  0.1534
  598TMC3    C4 8862   1.904   3.364  15.474 -0.4775 -0.4243  0.0631
  598TMC3    C5 8863   1.793   3.344  15.394  0.4565  0.2861 -0.4951
  598TMC3    C6 8864   1.695   3.251  15.432 -0.4396  0.1993  0.4282
  598TMC3     C 8865   2.017   3.311  15.676  0.2235  0.2548 -0.0651
  598TMC3     O 8866   2.120   3.350  15.622  0.2649 -0.1491 -0.0995
  598TMC3     H 8867   1.813   3.122  15.707 -0.8296 -1.3941 -1.1634
  598TMC3    H1 8868   1.974   3.437  15.436 -1.3771  0.5610  0.3100
  598TMC3    H2 8869   1.606   3.244  15.371  0.6968  1.6725 -1.4055
  598TMC3    C7 8870   1.792   3.374  15.248 -0.5108  0.1106 -0.5701
  598TMC3    C8 8871   1.587   3.123  15.593  0.0112  0.2184  0.4348
  598TMC3    O1 8872   1.721   3.301  15.188 -0.5658 -0.5016 -0.1097
  598TMC3    O2 8873   1.598   3.049  15.690 -0.2432 -0.2067 -0.4223
  599MPD2     C 8874   2.328   0.921  16.516  0.2679  0.0519 -0.5287
  599MPD2    C1 8875   2.263   0.831  16.437  0.2335  0.0520 -0.7483
  599MPD2    C2 8876   2.122   0.839  16.446 -0.5285  0.4696  0.6656
  599MPD2    C3 8877   2.066   0.930  16.531 -0.1920 -0.2382 -0.5429
  599MPD2    C4 8878   2.139   1.029  16.594 -0.1915  0.1900 -0.1694
  599MPD2    C5 8879   2.275   1.028  16.588  0.0431 -0.7145 -0.1831
  599MPD2     H 8880   2.065   0.775  16.379  0.3203  1.2565 -0.8100
  599MPD2    H1 8881   2.101   1.105  16.662  1.4097 -0.4284  1.4090
  599MPD2    H2 8882   2.432   0.929  16.487  1.3636  1.0371  3.6627
  599MPD2    H3 8883   2.335   1.096  16.647 -1.7574  0.0581  0.7422
  599MPD2     N 8884   1.929   0.942  16.542 -0.3399 -0.3097  0.7014
  599MPD2    H5 8885   1.884   1.019  16.592  1.1679  0.0959  1.4199
  599MPD2    N1 8886   2.341   0.734  16.362  0.2893 -0.2886 -0.7738
  599MPD2    H7 8887   2.440   0.757  16.355  0.5407 -0.5294  1.9698
  600TMC3    C1 8888   1.707   0.873  16.543 -0.6009 -0.5276  0.2507
  600TMC3    C2 8889   1.631   0.770  16.573 -0.2611  0.1299  0.3244
  600TMC3    C3 8890   1.496   0.789  16.583  0.4054  1.1923 -0.1933
  600TMC3    C4 8891   1.665   0.999  16.517  0.0242  0.1499 -0.0435
  600TMC3    C5 8892   1.527   1.016  16.528 -0.1380  0.0258  0.5183
  600TMC3    C6 8893   1.441   0.915  16.557  0.6065 -0.1783 -0.1738
  600TMC3     C 8894   1.839   0.850  16.498 -0.3562 -0.5753 -0.1096
  600TMC3     O 8895   1.852   0.747  16.435 -0.0554 -0.0712 -0.0780
  600TMC3     H 8896   1.668   0.669  16.585  0.8145  0.3857 -0.7905
  600TMC3    H1 8897   1.729   1.076  16.475 -0.6946 -0.0139 -1.4269
  600TMC3    H2 8898   1.335   0.937  16.561  0.8983  1.4832 -1.7326
  600TMC3    C7 8899   1.476   1.150  16.507  0.5257 -0.3387 -0.2222
  600TMC3    C8 8900   1.424   0.667  16.550 -0.3997 -0.1873  0.6672
  600TMC3    O1 8901   1.365   1.158  16.459 -0.4887 -0.3965 -0.1030
  600TMC3    O2 8902   1.496   0.592  16.479  0.1761 -0.4441 -0.3960
  601MPD2     C 8903   3.847   4.280  17.641 -0.3715  0.3874  0.3061
  601MPD2    C1 8904   3.900   4.212  17.537  0.7113  0.9759 -0.0954
  601MPD2    C2 8905   3.978   4.096  17.554 -0.3815 -0.4203  0.0557
  601MPD2    C3 8906   4.013   4.064   0.004 -0.3710 -0.4382 -0.2609
  601MPD2    C4 8907   3.948   4.128   0.107 -0.3530 -0.0927  0.7600
  601MPD2    C5 8908   3.869   4.238   0.089 -0.7400 -0.0282  0.2376
  601MPD2     H 8909   4.020   4.045  17.468 -0.2865  1.4134 -0.9758
  601MPD2    H1 8910   3.968   4.090   0.206  1.5349 -0.3677  0.2785
  601MPD2    H2 8911   3.775   4.360  17.630 -0.1223  0.4235 -1.0499
  601MPD2    H3 8912   3.836   4.293   0.176  3.0079  2.5089  0.0296
  601MPD2     N 8913   4.094   3.949   0.031 -0.9855 -0.3843 -0.4256
  601MPD2    H5 8914   4.069   3.904   0.119  1.5520  0.3558  0.6832
  601MPD2    N1 8915   3.868   4.254  17.403  0.4473  0.2255  0.9191
  601MPD2    H7 8916   3.915   4.200  17.331 -1.6686  0.7640 -0.8848
  602TMC3    C1 8917   3.762   4.371  17.221  0.2791 -0.5825 -0.0124
  602TMC3    C2 8918   3.742   4.496  17.164  0.0407  0.2572  0.0448
  602TMC3    C3 8919   3.756   4.515  17.030  0.5994  0.3905  0.4662
  602TMC3    C4 8920   3.781   4.260  17.150  0.4362 -0.4224 -0.1089
  602TMC3    C5 8921   3.792   4.282  17.009 -0.4335  0.5080  0.0923
  602TMC3    C6 8922   3.784   4.408  16.951  0.1653 -0.8755 -0.2949
  602TMC3     C 8923   3.804   4.370  17.365  0.0506  0.2846 -0.8311
  602TMC3     O 8924   3.782   4.473  17.425  0.4438  0.0292 -0.9999
  602TMC3     H 8925   3.735   4.580  17.232 -0.5419  1.1897 -1.1727
  602TMC3    H1 8926   3.790   4.162  17.196  2.3379 -0.2688 -0.1387
  602TMC3    H2 8927   3.787   4.425  16.844 -0.5350  2.8799  0.2649
  602TMC3    C7 8928   3.777   4.181  16.908  0.6471  0.2065  0.0710
  602TMC3    C8 8929   3.737   4.644  16.966  0.3174  0.4030 -0.0830
  602TMC3    O1 8930   3.686   4.105  16.919  0.4393  0.3362  0.7822
  602TMC3    O2 8931   3.620   4.681  16.975 -0.5819 -0.2889  0.4747
  603TMC3    C1 8932   2.817   0.072  11.215 -0.3147 -0.0382 -0.8132
  603TMC3    C2 8933   2.844   0.086  11.350  0.3265 -0.5626  0.2825
  603TMC3    C3 8934   2.810   0.199  11.420 -0.7072 -0.1837 -0.1243
  603TMC3    C4 8935   2.748   0.179  11.154  0.4474  0.0239  0.4414
  603TMC3    C5 8936   2.725   0.297  11.224 -0.1108  0.9617  0.0561
  603TMC3    C6 8937   2.761   0.309  11.358  0.4542  0.5168  0.0928
  603TMC3     C 8938   2.860   4.682  11.133  0.8000  0.0540 -0.2170
  603TMC3     O 8939   2.822   4.682  11.016  0.0531 -0.1651 -0.5502
  603TMC3     H 8940   2.885   0.006  11.410  2.0592  1.7439  2.1614
  603TMC3    H1 8941   2.736   0.175  11.046  2.5287 -1.7158  0.2747
  603TMC3    H2 8942   2.732   0.395  11.417 -0.0214  1.3791 -1.3964
  603TMC3    C7 8943   2.684   0.414  11.150 -0.6236  0.6775 -0.2904
  603TMC3    C8 8944   2.791   0.173  11.563 -0.2723 -0.0997 -0.3332
  603TMC3    O1 8945   2.685   0.523  11.207 -0.0120  0.0922 -0.1587
  603TMC3    O2 8946   2.864   0.085  11.610 -0.0984 -0.3378  0.9218
  604MPD2     C 8947   3.091   3.152  16.727  0.3209 -0.0457  0.0594
  604MPD2    C1 8948   2.968   3.170  16.675 -0.3086  0.1390 -0.0835
  604MPD2    C2 8949   2.927   3.081  16.574 -0.0638  0.5881  0.6845
  604MPD2    C3 8950   2.997   2.968  16.536 -0.4869  0.1629 -0.1631
  604MPD2    C4 8951   3.121   2.952  16.600 -0.0792  0.1955 -0.5492
  604MPD2    C5 8952   3.165   3.046  16.690  0.7139  0.2690  0.0460
  604MPD2     H 8953   2.831   3.094  16.525  0.1265  0.7526  0.3563
  604MPD2    H1 8954   3.186   2.868  16.576  1.4084  1.4648 -0.9901
  604MPD2    H2 8955   3.116   3.227  16.801 -0.2008 -0.8532  1.0619
  604MPD2    H3 8956   3.260   3.032  16.741  1.1763 -0.5414 -1.0443
  604MPD2     N 8957   2.936   2.895  16.437  0.7022  0.2285  0.3243
  604MPD2    H5 8958   2.860   2.943  16.391 -0.6913 -0.7858  1.5570
  604MPD2    N1 8959   2.881   3.274  16.719 -0.3198 -0.7060  0.1124
  604MPD2    H7 8960   2.903   3.311  16.811 -0.3465  0.7913 -0.4803
  605TMC3    C1 8961   2.753   3.471  16.689  0.5675  1.1365  0.5068
  605TMC3    C2 8962   2.856   3.546  16.737 -0.5745  0.6924  0.6050
  605TMC3    C3 8963   2.854   3.681  16.715 -0.4885 -0.5994  0.2712
  605TMC3    C4 8964   2.647   3.528  16.619  0.4200 -0.1341  0.6168
  605TMC3    C5 8965   2.652   3.666  16.593 -0.1766 -0.8618 -0.5072
  605TMC3    C6 8966   2.752   3.738  16.646  0.3896 -0.3432 -0.7395
  605TMC3     C 8967   2.772   3.330  16.652 -0.0579 -0.0495  0.6829
  605TMC3     O 8968   2.699   3.288  16.560 -0.1170  0.0750 -0.0565
  605TMC3     H 8969   2.931   3.510  16.806 -1.1018 -0.9616  0.3130
  605TMC3    H1 8970   2.567   3.460  16.596  0.7652 -1.0231  2.0388
  605TMC3    H2 8971   2.761   3.839  16.607  0.9421 -0.5031 -1.0344
  605TMC3    C7 8972   2.558   3.727  16.506 -0.0244 -0.6872  0.4609
  605TMC3    C8 8973   2.981   3.753  16.705  0.5286 -0.1727  0.3660
  605TMC3    O1 8974   2.572   3.847  16.494  0.0997 -0.0991 -0.6315
  605TMC3    O2 8975   2.986   3.872  16.737  0.5119 -0.2250 -0.7528
  606TMC3    C1 8976   4.334   1.527  17.237 -0.4358 -0.5426 -0.7575
  606TMC3    C2 8977   4.416   1.505  17.349 -0.2672  0.0861 -0.0937
  606TMC3    C3 8978   4.438   1.376  17.385 -0.2966 -0.1447 -0.8173
  606TMC3    C4 8979   4.276   1.424  17.169 -0.4920  0.0069 -0.8386
  606TMC3    C5 8980   4.293   1.295  17.222  0.2221  0.4986  0.0342
  606TMC3    C6 8981   4.370   1.267  17.327  0.7623 -0.6783  0.1174
  606TMC3     C 8982   4.316   1.664  17.189  0.5496  0.3667  0.5182
  606TMC3     O 8983   4.309   1.678  17.070  0.4764  0.2053 -0.0373
  606TMC3     H 8984   4.474   1.587  17.388 -0.4179 -0.5406  1.4468
  606TMC3    H1 8985   4.226   1.444  17.076 -0.6308 -0.5636 -0.8881
  606TMC3    H2 8986   4.399   1.167  17.357 -1.3241 -1.9424 -2.1082
  606TMC3    C7 8987   4.201   1.198  17.165  0.9741 -1.0142  0.3423
  606TMC3    C8 8988   4.560   1.342  17.451 -0.0756 -0.8896 -1.0567
  606TMC3    O1 8989   4.210   1.192  17.046 -0.1189  0.4812  0.0792
  606TMC3    O2 8990   4.609   1.435  17.523  0.3003  0.1569 -0.7875
  607MPD2     C 8991   1.554   4.451  11.985  0.5701 -0.9569 -0.7264
  607MPD2    C1 8992   1.644   4.518  12.059 -0.5353  0.3404  0.3382
  607MPD2    C2 8993   1.691   4.458  12.172 -0.0187  0.2539 -0.0563
  607MPD2    C3 8994   1.650   4.327  12.209  0.0791  0.5080  0.4694
  607MPD2    C4 8995   1.554   4.263  12.134 -0.2042  0.1770 -0.1175
  607MPD2    C5 8996   1.514   4.327  12.017  0.4534 -0.2151  0.5738
  607MPD2     H 8997   1.762   4.514  12.232 -1.5493  3.0043 -0.8114
  607MPD2    H1 8998   1.508   4.165  12.146 -0.2118  0.6378  3.6824
  607MPD2    H2 8999   1.508   4.501  11.900 -2.6914 -0.3773  1.3703
  607MPD2    H3 9000   1.440   4.284  11.951  2.6613 -0.2100 -1.9299
  607MPD2     N 9001   1.694   4.279  12.337  0.2812 -0.2879  0.0408
  607MPD2    H5 9002   1.763   4.331  12.390  0.6135 -2.0763  1.3549
  607MPD2    N1 9003   1.697   4.645  12.030  0.2908 -0.9342 -0.4568
  607MPD2    H7 9004   1.761   4.669  12.105 -0.3422 -3.3892  0.8779
  608TMC3    C1 9005   1.739   0.136  11.945  0.9558 -0.4149  0.1992
  608TMC3    C2 9006   1.735   0.180  12.073  0.4947  0.1422 -0.1811
  608TMC3    C3 9007   1.811   0.283  12.107  0.4777  0.6772  0.7929
  608TMC3    C4 9008   1.797   0.205  11.841  0.2962  0.3814  0.1454
  608TMC3    C5 9009   1.868   0.315  11.879 -0.0661 -0.7098  0.0485
  608TMC3    C6 9010   1.875   0.360  12.014  0.0687  0.0443 -0.5146
  608TMC3     C 9011   1.679   0.006  11.923  0.6824 -0.2670  0.1839
  608TMC3     O 9012   1.608   4.711  11.824  0.2513  0.5380  0.1515
  608TMC3     H 9013   1.667   0.135  12.145 -0.7306  0.8500 -0.8894
  608TMC3    H1 9014   1.807   0.170  11.738 -0.7514  3.3687 -0.9521
  608TMC3    H2 9015   1.943   0.434  12.052 -3.0829  2.0371  1.2048
  608TMC3    C7 9016   1.940   0.389  11.774  0.1594 -0.0355 -0.2084
  608TMC3    C8 9017   1.826   0.306  12.250  0.7796 -0.5331  0.7590
  608TMC3    O1 9018   1.957   0.328  11.666  0.8107 -0.3278 -0.0680
  608TMC3    O2 9019   1.818   0.420  12.295 -0.3073 -0.1640 -0.7489
  609TMC3    C1 9020   0.025   3.756   9.303 -0.0901 -0.3227 -0.6368
  609TMC3    C2 9021   4.645   3.710   9.214 -0.3488  0.3103  0.3880
  609TMC3    C3 9022   4.665   3.598   9.140  0.3118 -0.1622  0.5072
  609TMC3    C4 9023   0.134   3.674   9.330 -0.1922  0.3952  0.6380
  609TMC3    C5 9024   0.135   3.550   9.269 -0.8353  0.0683 -0.1508
  609TMC3    C6 9025   0.055   3.515   9.162 -0.5200  0.2567 -0.3824
  609TMC3     C 9026   4.708   3.874   9.381 -0.1024 -0.1017 -0.1255
  609TMC3     O 9027   4.592   3.920   9.384  0.1390  0.5427  0.2567
  609TMC3     H 9028   4.562   3.777   9.192 -1.0882 -0.7579 -0.0511
  609TMC3    H1 9029   0.202   3.697   9.412 -0.2544 -0.0794  0.8213
  609TMC3    H2 9030   0.062   3.427   9.100 -2.1410  0.4482 -0.8305
  609TMC3    C7 9031   0.244   3.455   9.292  0.4782 -0.8025  0.3647
  609TMC3    C8 9032   4.599   3.587   9.012  0.0850 -0.3354 -0.2573
  609TMC3    O1 9033   0.328   3.499   9.372 -0.0577  0.2052 -0.0407
  609TMC3    O2 9034   4.559   3.691   8.956  0.0215  0.3156 -0.4038
  610TMC3    C1 9035   2.112   4.521  13.065 -0.6161  0.3034  0.0073
  610TMC3    C2 9036   2.138   4.577  12.942 -0.0307 -0.2109  0.5702
  610TMC3    C3 9037   2.211   4.505  12.854 -0.7825  0.5359 -0.4479
  610TMC3    C4 9038   2.159   4.398  13.102 -0.1824 -0.1977  0.1061
  610TMC3    C5 9039   2.228   4.321  13.010  0.0962  0.0497 -0.1915
  610TMC3    C6 9040   2.257   4.379  12.887 -0.6600 -0.3289  0.1109
  610TMC3     C 9041   2.006   4.582  13.148 -0.6019 -0.6170  0.1435
  610TMC3     O 9042   1.958   4.508  13.236  0.2641 -0.1156 -0.4112
  610TMC3     H 9043   2.099   4.677  12.923 -1.8457 -0.8927  0.7030
  610TMC3    H1 9044   2.132   4.362  13.201  1.1425 -2.7508 -0.4611
  610TMC3    H2 9045   2.321   4.327  12.817 -2.3980  2.2783 -3.3914
  610TMC3    C7 9046   2.300   4.198  13.038 -0.4211  0.6019  0.4671
  610TMC3    C8 9047   2.268   4.569  12.735  0.4239 -0.1750 -0.3727
  610TMC3    O1 9048   2.385   4.162  12.957  0.3881 -0.5489  0.1082
  610TMC3    O2 9049   2.358   4.510  12.681  0.5683 -1.0220 -0.3992
  611MPD2     C 9050   2.062   4.361  10.499  0.0457  0.0618 -0.1208
  611MPD2    C1 9051   1.975   4.441  10.441  0.5065  0.8002 -0.2175
  611MPD2    C2 9052   2.011   4.569  10.420  0.6539  0.3679 -0.5744
  611MPD2    C3 9053   2.123   4.629  10.475 -0.5287  0.3110  0.1374
  611MPD2    C4 9054   2.211   4.548  10.549 -0.6714 -0.3546 -0.4221
  611MPD2    C5 9055   2.178   4.418  10.557 -0.2096 -0.1996 -0.3790
  611MPD2     H 9056   1.946   4.629  10.358 -1.0977 -0.8702  0.0428
  611MPD2    H1 9057   2.304   4.583  10.591 -1.6940  1.0430  0.6834
  611MPD2    H2 9058   2.045   4.255  10.506  0.6304 -0.1007 -1.1024
  611MPD2    H3 9059   2.253   4.360  10.610  0.0111 -1.0763 -1.6549
  611MPD2     N 9060   2.157   0.051  10.461  0.0470 -0.0580  0.7006
  611MPD2    H5 9061   2.214   0.095  10.531 -1.5073  0.4357  1.6603
  611MPD2    N1 9062   1.854   4.392  10.387 -1.1203 -0.0736  0.4983
  611MPD2    H7 9063   1.844   4.295  10.360  0.6038 -0.5878  1.7724
  612TMC3    C1 9064   2.148   0.262  10.351 -0.5247  0.8638  0.1397
  612TMC3    C2 9065   2.211   0.325  10.450  0.2330 -0.3191 -0.5484
  612TMC3    C3 9066   2.268   0.453  10.425 -0.0990  0.9307 -0.3356
  612TMC3    C4 9067   2.128   0.319  10.229  0.2242 -0.1311 -0.1563
  612TMC3    C5 9068   2.191   0.443  10.210  0.2530 -0.0460  0.0500
  612TMC3    C6 9069   2.257   0.513  10.304  0.3131  1.1527  0.4091
  612TMC3     C 9070   2.102   0.130  10.363  0.2472 -1.2741  0.3672
  612TMC3     O 9071   2.032   0.098  10.268  0.5798 -0.4272 -0.2967
  612TMC3     H 9072   2.214   0.281  10.549  2.1667  0.3105 -0.3194
  612TMC3    H1 9073   2.085   0.266  10.145 -0.6181  0.2050  0.0685
  612TMC3    H2 9074   2.310   0.605  10.282  1.3104  0.6461  0.7197
  612TMC3    C7 9075   2.152   0.516  10.088 -0.1998 -0.1205  0.4616
  612TMC3    C8 9076   2.320   0.533  10.535  0.2007 -0.3738 -0.0957
  612TMC3    O1 9077   2.101   0.444  10.000 -0.3010 -0.5232 -0.5187
  612TMC3    O2 9078   2.327   0.651  10.511  0.2180 -0.0307 -0.3310
  613MPD2     C 9079   0.402   1.676  17.017  0.3275 -0.0825 -0.1581
  613MPD2    C1 9080   0.348   1.739  16.912  0.6277  0.4374 -0.1781
  613MPD2    C2 9081   0.289   1.670  16.808  0.3404  0.2549 -0.3580
  613MPD2    C3 9082   0.301   1.530  16.822  0.2517 -0.3740  0.0199
  613MPD2    C4 9083   0.362   1.469  16.931  0.1812 -0.0515 -0.5152
  613MPD2    C5 9084   0.413   1.544  17.028  0.2870  0.4701 -0.2502
  613MPD2     H 9085   0.240   1.728  16.731  1.5944  0.9918 -0.5967
  613MPD2    H1 9086   0.361   1.362  16.949 -0.2705  0.0139 -0.1296
  613MPD2    H2 9087   0.436   1.739  17.099  1.5491 -1.7264  0.5936
  613MPD2    H3 9088   0.457   1.493  17.112  0.1295  0.9567  0.1302
  613MPD2     N 9089   0.264   1.437  16.722  0.0093 -0.9580 -0.6201
  613MPD2    H5 9090   0.282   1.341  16.749  0.7990 -0.5848  0.1888
  613MPD2    N1 9091   0.336   1.878  16.938  0.3917  0.2323  0.3154
  613MPD2    H7 9092   0.341   1.895  17.038 -0.6695  0.8546  0.2546
  614TMC3    C1 9093   0.320   1.962  16.706 -0.4052 -0.1130  0.4550
  614TMC3    C2 9094   0.435   1.910  16.658  0.3792  0.5830 -0.1931
  614TMC3    C3 9095   0.465   1.921  16.527 -0.3844  0.2008  0.4300
  614TMC3    C4 9096   0.240   2.045  16.634 -0.1200  1.0136 -0.1566
  614TMC3    C5 9097   0.275   2.054  16.504  0.4465  0.4551  0.3657
  614TMC3    C6 9098   0.379   1.983  16.448 -0.1785 -0.4466 -0.0302
  614TMC3     C 9099   0.314   1.983  16.852  0.5075  0.4388 -0.2615
  614TMC3     O 9100   0.306   2.100  16.886  0.3249  0.0646 -0.4825
  614TMC3     H 9101   0.501   1.851  16.721  0.3616 -0.6459 -1.3183
  614TMC3    H1 9102   0.149   2.082  16.680 -0.0949 -0.0355  0.7452
  614TMC3    H2 9103   0.397   1.990  16.341  1.5250 -2.4525  0.1454
  614TMC3    C7 9104   0.192   2.139  16.418  0.4372  0.3599  0.4976
  614TMC3    C8 9105   0.549   1.805  16.488 -0.0352 -0.3194  0.3371
  614TMC3    O1 9106   0.140   2.237  16.474 -0.5776  0.0708  0.3819
  614TMC3    O2 9107   0.592   1.722  16.563  0.5722 -0.0477 -0.0013
  615MPD2     C 9108   4.173   2.769  16.588 -0.3273  0.5553  0.7972
  615MPD2    C1 9109   4.173   2.889  16.517 -0.3832  0.3760  0.3151
  615MPD2    C2 9110   4.198   2.885  16.382  0.5466 -0.7410 -0.4584
  615MPD2    C3 9111   4.207   2.764  16.322  0.5328 -0.0202 -0.5949
  615MPD2    C4 9112   4.196   2.643  16.393  0.1269 -0.3618  0.3115
  615MPD2    C5 9113   4.181   2.653  16.525  0.1787 -0.0684 -0.4391
  615MPD2     H 9114   4.227   2.979  16.336 -0.2273 -0.7286 -0.9210
  615MPD2    H1 9115   4.219   2.550  16.341 -1.3270 -0.6244  0.1183
  615MPD2    H2 9116   4.174   2.777  16.696 -2.5297 -3.6031  1.1030
  615MPD2    H3 9117   4.193   2.568  16.591 -2.9850 -1.9738 -2.3046
  615MPD2     N 9118   4.243   2.756  16.188  0.3940  0.4975 -0.4570
  615MPD2    H5 9119   4.211   2.829  16.126 -3.4343 -0.1450  0.7624
  615MPD2    N1 9120   4.136   3.006  16.573 -0.3555 -0.1264  0.4123
  615MPD2    H7 9121   4.150   3.088  16.515 -0.4158 -0.8034 -0.5649
  616TMC3    C1 9122   4.058   3.168  16.729 -0.4396 -0.4624  0.1121
  616TMC3    C2 9123   4.142   3.257  16.676  0.6853  1.0248  0.3632
  616TMC3    C3 9124   4.132   3.384  16.719 -0.2766 -0.0663 -0.2920
  616TMC3    C4 9125   3.963   3.196  16.824 -0.0466 -0.2255 -0.5963
  616TMC3    C5 9126   3.962   3.324  16.871 -0.5743 -0.7270 -0.0190
  616TMC3    C6 9127   4.048   3.417  16.821 -0.6123 -0.5900  0.4900
  616TMC3     C 9128   4.075   3.027  16.695  0.2338 -0.7804 -0.0980
  616TMC3     O 9129   4.039   2.949  16.780  0.3501 -0.0674 -0.1514
  616TMC3     H 9130   4.218   3.227  16.604  0.4556 -2.1754  1.4936
  616TMC3    H1 9131   3.895   3.114  16.845 -1.2141  0.3064 -2.2880
  616TMC3    H2 9132   4.053   3.521  16.852 -1.8577 -0.2287 -0.5275
  616TMC3    C7 9133   3.888   3.343  16.999 -0.2516 -0.0082  0.0507
  616TMC3    C8 9134   4.230   3.479  16.683 -0.2339  0.6243  0.2315
  616TMC3    O1 9135   3.815   3.255  17.046 -0.1397 -0.2408  0.3597
  616TMC3    O2 9136   4.198   3.597  16.696 -0.1401 -0.4644 -0.0045
  617MPD2     C 9137   2.535   1.889  14.080 -0.5948 -0.2471 -0.0397
  617MPD2    C1 9138   2.541   1.842  13.950  0.9221  0.2370  0.2658
  617MPD2    C2 9139   2.444   1.745  13.918  0.4125  0.3798  0.5197
  617MPD2    C3 9140   2.349   1.709  14.014  0.3305 -0.8590 -0.0473
  617MPD2    C4 9141   2.346   1.766  14.143  0.0975  0.6775  0.3601
  617MPD2    C5 9142   2.442   1.855  14.166  0.0005 -0.2267 -0.0858
  617MPD2     H 9143   2.447   1.689  13.825 -2.2211 -1.6705  1.6785
  617MPD2    H1 9144   2.269   1.742  14.216 -0.4415 -0.1079 -0.4578
  617MPD2    H2 9145   2.602   1.960  14.127  0.5023  0.0634 -2.0757
  617MPD2    H3 9146   2.445   1.893  14.268  1.4712 -0.5198 -0.0204
  617MPD2     N 9147   2.254   1.608  13.987  0.8694 -0.0218  0.3904
  617MPD2    H5 9148   2.172   1.604  14.046  2.0746  1.9437  2.2081
  617MPD2    N1 9149   2.650   1.883  13.866  0.3815  0.0025 -0.4667
  617MPD2    H7 9150   2.724   1.947  13.893 -0.5266  0.9669 -0.2605
  618TMC3    C1 9151   2.810   1.825  13.712 -0.6634 -0.1264  0.2082
  618TMC3    C2 9152   2.907   1.860  13.807  0.1950  0.2857 -0.3081
  618TMC3    C3 9153   3.040   1.826  13.780 -0.4905  0.3953  0.2823
  618TMC3    C4 9154   2.842   1.748  13.596 -0.6123 -0.6101  0.3729
  618TMC3    C5 9155   2.974   1.715  13.582 -0.0641  0.2129 -0.2470
  618TMC3    C6 9156   3.076   1.753  13.665 -0.3956  0.1590 -0.2771
  618TMC3     C 9157   2.669   1.826  13.744  0.4503  0.3461 -0.2808
  618TMC3     O 9158   2.584   1.772  13.672 -0.3564 -0.7383  0.1877
  618TMC3     H 9159   2.868   1.888  13.905  2.5659 -1.4074  1.1175
  618TMC3    H1 9160   2.773   1.728  13.515 -1.9570  1.9401  0.9090
  618TMC3    H2 9161   3.177   1.724  13.640 -0.3295  0.6546 -0.5702
  618TMC3    C7 9162   3.005   1.653  13.449  0.4538 -0.5841  0.1365
  618TMC3    C8 9163   3.137   1.855  13.885 -0.7309  0.8818 -0.1483
  618TMC3    O1 9164   3.118   1.654  13.400 -0.1345 -0.0468  0.2493
  618TMC3    O2 9165   3.096   1.886  13.997  0.0553 -0.2436  0.1103
  619MPD2     C 9166   3.724   2.556  13.874 -0.2102 -0.8748  0.1943
  619MPD2    C1 9167   3.666   2.677  13.837 -0.4108  0.1587 -0.7255
  619MPD2    C2 9168   3.530   2.693  13.857 -0.0414 -1.1446 -0.4284
  619MPD2    C3 9169   3.455   2.597  13.918  0.2234  0.5026 -0.2242
  619MPD2    C4 9170   3.515   2.484  13.955  0.5657 -0.1857 -0.2483
  619MPD2    C5 9171   3.648   2.464  13.936  0.0385  0.0284 -0.0801
  619MPD2     H 9172   3.476   2.771  13.805  0.7923  0.1128  0.5749
  619MPD2    H1 9173   3.464   2.417  14.023 -0.2468  1.4856  0.7857
  619MPD2    H2 9174   3.827   2.531  13.850  0.3941  0.7624  1.0483
  619MPD2    H3 9175   3.695   2.379  13.983  0.0797  0.8853  1.4528
  619MPD2     N 9176   3.316   2.603  13.937  0.1309  0.1759 -0.1481
  619MPD2    H5 9177   3.279   2.512  13.964 -1.5271  1.2106  1.1032
  619MPD2    N1 9178   3.739   2.776  13.768  0.6795  0.7010 -0.0849
  619MPD2    H7 9179   3.681   2.845  13.721 -0.5982  0.6147  1.3581
  620TMC3    C1 9180   3.942   2.885  13.693 -0.3430  0.2281 -0.0290
  620TMC3    C2 9181   3.885   2.922  13.576  0.1381 -0.3705  0.9408
  620TMC3    C3 9182   3.928   3.040  13.524  0.5156  0.4990  0.1356
  620TMC3    C4 9183   4.042   2.943  13.763 -0.1988 -0.0675 -0.0777
  620TMC3    C5 9184   4.083   3.058  13.715  0.4333  0.4979  0.2326
  620TMC3    C6 9185   4.026   3.112  13.594  0.5614 -0.4203  0.1365
  620TMC3     C 9186   3.876   2.782  13.774  0.7283  0.6167 -0.4175
  620TMC3     O 9187   3.959   2.722  13.841  0.4393 -0.3217 -0.8089
  620TMC3     H 9188   3.806   2.867  13.527 -0.3445  1.8266 -0.7165
  620TMC3    H1 9189   4.085   2.900  13.853 -1.0647  2.4296  1.5178
  620TMC3    H2 9190   4.050   3.212  13.559 -0.0066 -0.5533 -0.6349
  620TMC3    C7 9191   4.178   3.143  13.784 -0.6567  0.0335  0.1285
  620TMC3    C8 9192   3.861   3.096  13.400 -0.2953 -0.4627  0.1386
  620TMC3    O1 9193   4.208   3.107  13.899 -0.2221 -0.0334  0.0082
  620TMC3    O2 9194   3.749   3.052  13.372 -0.1047 -0.0228  0.5255
  621MPD2     C 9195   0.071   2.902  10.422 -0.2717  0.1040  0.2960
  621MPD2    C1 9196   0.050   2.983  10.317 -0.5326 -0.3789  1.1543
  621MPD2    C2 9197   0.157   3.042  10.249 -0.8353  0.0395 -0.1915
  621MPD2    C3 9198   0.290   3.023  10.292 -1.4012  0.8514 -0.4046
  621MPD2    C4 9199   0.308   2.935  10.397 -0.2267 -0.6409 -0.0219
  621MPD2    C5 9200   0.199   2.879  10.460  0.0887 -0.8491  0.5598
  621MPD2     H 9201   0.130   3.116  10.175  2.2698 -0.1921 -1.5576
  621MPD2    H1 9202   0.405   2.905  10.433 -0.9170 -0.5714  1.9102
  621MPD2    H2 9203   4.719   2.857  10.490 -1.0885  1.0771  0.0691
  621MPD2    H3 9204   0.225   2.806  10.535 -1.7761 -2.2801 -0.1737
  621MPD2     N 9205   0.399   3.079  10.221 -0.1025  0.3639 -0.3892
  621MPD2    H5 9206   0.492   3.075  10.263 -0.4592  1.8179  0.5601
  621MPD2    N1 9207   4.635   2.993  10.265  0.1112  0.4173 -0.1943
  621MPD2    H7 9208   4.621   3.076  10.209 -1.3016  0.8330  0.7877
  622TMC3    C1 9209   4.407   2.938  10.228  0.4765  0.0577 -0.2691
  622TMC3    C2 9210   4.294   2.901  10.289 -0.1751  0.1600  0.1132
  622TMC3    C3 9211   4.180   2.944  10.237  0.2223 -0.0826  0.8941
  622TMC3    C4 9212   4.413   2.998  10.105  0.2011  0.4239  0.1881
  622TMC3    C5 9213   4.295   3.030  10.053  0.8868 -0.5029  0.3398
  622TMC3    C6 9214   4.174   3.003  10.115 -0.4472  0.1254 -1.0244
  622TMC3     C 9215   4.533   2.900  10.289  0.3275  0.2335 -0.3851
  622TMC3     O 9216   4.536   2.792  10.347 -0.7001 -0.2384  0.0694
  622TMC3     H 9217   4.292   2.856  10.388  0.6601  0.2721  0.1802
  622TMC3    H1 9218   4.503   3.025  10.051  0.2036 -0.6035 -0.3151
  622TMC3    H2 9219   4.084   3.049  10.078  0.2286  2.0825 -0.2274
  622TMC3    C7 9220   4.293   3.135   9.962 -0.5729  0.3111  0.6502
  622TMC3    C8 9221   4.055   2.931  10.316 -0.3480 -0.0739  0.3055
  622TMC3    O1 9222   4.387   3.209   9.954 -0.0232  0.2239 -0.4211
  622TMC3    O2 9223   4.048   2.822  10.368  0.5320  0.0222 -0.2437
  623MPD2     C 9224   2.949   3.018  15.972  0.1654 -0.1504  0.2699
  623MPD2    C1 9225   2.956   3.136  16.052  0.4178 -0.2667 -0.0415
  623MPD2    C2 9226   3.060   3.155  16.141 -0.1313  0.7189  0.0607
  623MPD2    C3 9227   3.149   3.052  16.157 -0.5913 -0.1931 -0.0560
  623MPD2    C4 9228   3.131   2.929  16.091 -0.5319 -0.3257 -0.4352
  623MPD2    C5 9229   3.032   2.918  15.999  0.1189 -0.4351 -0.3354
  623MPD2     H 9230   3.078   3.247  16.194  0.1465  0.5849  0.1965
  623MPD2    H1 9231   3.202   2.848  16.084  1.7450  1.6254  0.0860
  623MPD2    H2 9232   2.869   3.001  15.901  0.0411  1.1924  0.0882
  623MPD2    H3 9233   3.039   2.830  15.935 -0.3989 -0.0451 -0.9282
  623MPD2     N 9234   3.257   3.090  16.233 -0.4270  0.5087  0.0580
  623MPD2    H5 9235   3.268   3.188  16.256  1.0219  0.5486 -0.7839
  623MPD2    N1 9236   2.868   3.240  16.038 -0.3982 -0.2553  0.0023
  623MPD2    H7 9237   2.877   3.327  16.090  2.6267 -0.6724  0.1993
  624TMC3    C1 9238   3.557   3.129  16.561 -0.5934  0.2992 -1.1140
  624TMC3    C2 9239   3.565   3.258  16.523  0.4653 -0.1642  0.4026
  624TMC3    C3 9240   3.522   3.295  16.398 -0.8676 -1.0826  0.0587
  624TMC3    C4 9241   3.485   3.042  16.481 -0.7054 -0.4316  0.2528
  624TMC3    C5 9242   3.460   3.073  16.349 -0.8479  0.0932  0.0757
  624TMC3    C6 9243   3.479   3.201  16.304 -1.0006 -0.3434 -0.1663
  624TMC3     C 9244   3.596   3.110  16.701  0.5683 -1.0638  0.4606
  624TMC3     O 9245   3.665   3.194  16.755  0.0092  0.0407  0.0815
  624TMC3     H 9246   3.607   3.331  16.591 -1.4705  1.5517 -0.2328
  624TMC3    H1 9247   3.464   2.939  16.508  0.5073 -0.7282  0.0511
  624TMC3    H2 9248   3.457   3.232  16.203 -2.9006 -1.4649 -0.1044
  624TMC3    C7 9249   3.349   3.003  16.292  0.3617  0.2992 -0.2193
  624TMC3    C8 9250   3.439   3.413  16.397  0.1515  0.0889 -0.2343
  624TMC3    O1 9251   3.345   2.880  16.297 -0.0468  0.3994 -0.6145
  624TMC3    O2 9252   3.323   3.390  16.369 -0.8328  0.7139 -0.1738
  625MPD2     C 9253   3.547   4.323   0.740  0.5474 -0.4383  0.1257
  625MPD2    C1 9254   3.656   4.405   0.741  0.2599  0.5109 -0.3277
  625MPD2    C2 9255   3.777   4.362   0.793  0.6308  0.7246  0.0894
  625MPD2    C3 9256   3.782   4.233   0.851  0.4898  0.2207  1.0458
  625MPD2    C4 9257   3.670   4.159   0.860  0.0078 -0.0311  1.2283
  625MPD2    C5 9258   3.560   4.204   0.802 -0.6227  0.4076 -0.1702
  625MPD2     H 9259   3.865   4.425   0.799 -0.1678  1.8388  0.1214
  625MPD2    H1 9260   3.665   4.066   0.916  1.1492 -0.3477  0.7935
  625MPD2    H2 9261   3.449   4.344   0.699  0.1046  2.0652  2.4846
  625MPD2    H3 9262   3.476   4.139   0.821 -2.0126  1.3382 -3.1491
  625MPD2     N 9263   3.907   4.196   0.905 -0.1519 -0.0383 -0.0882
  625MPD2    H5 9264   3.988   4.249   0.877 -0.1515 -0.4219 -0.8002
  625MPD2    N1 9265   3.652   4.540   0.695  0.4835 -0.0347  0.0658
  625MPD2    H7 9266   3.740   4.588   0.711  1.6986 -2.2542 -0.0329
  626TMC3    C1 9267   3.572   0.033   0.635  0.3159 -0.2047  0.1280
  626TMC3    C2 9268   3.481   0.103   0.565  0.7343 -0.4950  0.1039
  626TMC3    C3 9269   3.506   0.236   0.553  0.1368  0.3997 -0.1514
  626TMC3    C4 9270   3.687   0.085   0.685 -0.0784 -0.2130 -1.0891
  626TMC3    C5 9271   3.701   0.214   0.688 -0.3308  0.2759  0.0723
  626TMC3    C6 9272   3.604   0.296   0.627 -0.3823 -1.0503  0.4543
  626TMC3     C 9273   3.542   4.610   0.649  0.0488 -0.2712 -0.0514
  626TMC3     O 9274   3.435   4.563   0.612  0.0149  0.4566  0.2789
  626TMC3     H 9275   3.392   0.065   0.517  0.7275  0.8732 -0.9850
  626TMC3    H1 9276   3.758   0.033   0.748  0.8257  3.1984  0.7510
  626TMC3    H2 9277   3.619   0.402   0.610 -1.2336 -0.9315  0.4421
  626TMC3    C7 9278   3.825   0.269   0.719 -1.0158  0.3976 -0.4101
  626TMC3    C8 9279   3.440   0.306   0.446 -0.0666  0.3915 -0.7707
  626TMC3    O1 9280   3.916   0.190   0.727  0.0695  0.2938  0.2005
  626TMC3    O2 9281   3.393   0.239   0.353  0.6126 -0.8201 -0.0488
  627MPD2     C 9282   1.907   0.253  14.435 -0.0278  0.0310  0.0544
  627MPD2    C1 9283   2.047   0.230  14.429  0.4714 -0.4508 -0.0835
  627MPD2    C2 9284   2.095   0.141  14.337  0.4793 -0.1115  0.2259
  627MPD2    C3 9285   2.018   0.086  14.243 -0.4732 -0.7493  0.4546
  627MPD2    C4 9286   1.875   0.104  14.250  0.0693 -0.1776  0.1137
  627MPD2    C5 9287   1.824   0.183  14.349  0.4474  0.9484  0.3943
  627MPD2     H 9288   2.202   0.126  14.327  0.4386 -2.7995  3.8260
  627MPD2    H1 9289   1.804   0.062  14.179  0.1366  1.9863 -1.2403
  627MPD2    H2 9290   1.862   0.300  14.522  2.4551  0.7753  0.9330
  627MPD2    H3 9291   1.717   0.198  14.353  0.1993 -1.1524  1.8268
  627MPD2     N 9292   2.082   0.004  14.145  0.8190 -0.4999  0.2371
  627MPD2    H5 9293   2.184   0.001  14.150  0.9385  1.3114 -1.2984
  627MPD2    N1 9294   2.139   0.298  14.505  0.0389 -0.2677  0.2033
  627MPD2    H7 9295   2.236   0.270  14.502  0.2898  0.5930 -0.0125
  628TMC3    C1 9296   2.219   0.483  14.608  0.4544 -0.0805  0.3246
  628TMC3    C2 9297   2.312   0.420  14.687 -0.5904  0.9444  0.0950
  628TMC3    C3 9298   2.405   0.511  14.739  0.1579 -0.4070 -0.2475
  628TMC3    C4 9299   2.215   0.616  14.583  0.1023 -0.4758 -0.3370
  628TMC3    C5 9300   2.309   0.696  14.642  0.1905 -0.0089 -0.2062
  628TMC3    C6 9301   2.413   0.643  14.716  0.2149  0.7436  0.4630
  628TMC3     C 9302   2.104   0.409  14.577 -0.1697  0.1838 -1.2611
  628TMC3     O 9303   1.991   0.458  14.603 -0.1340 -0.4744 -0.2872
  628TMC3     H 9304   2.327   0.314  14.704 -1.4169  0.5486 -1.6889
  628TMC3    H1 9305   2.133   0.657  14.525 -0.5618 -0.8352  0.3509
  628TMC3    H2 9306   2.456   0.711  14.789  0.5409  0.5891  0.4144
  628TMC3    C7 9307   2.309   0.845  14.635  1.1958 -0.0926  0.8136
  628TMC3    C8 9308   2.533   0.461  14.791 -0.1070 -0.5494 -0.5181
  628TMC3    O1 9309   2.396   0.907  14.700  0.1556  0.3328  0.0166
  628TMC3    O2 9310   2.528   0.350  14.843  0.7481  0.2208 -0.1029
  629MPD2     C 9311   4.679   3.619  16.476 -0.1436 -0.4343 -0.2040
  629MPD2    C1 9312   4.699   3.505  16.536  0.5318 -0.3561  0.4956
  629MPD2    C2 9313   4.581   3.445  16.586  0.3374 -0.3258 -0.0701
  629MPD2    C3 9314   4.456   3.504  16.594  0.5421 -0.1357 -0.0307
  629MPD2    C4 9315   4.448   3.628  16.531 -0.5288  0.4436 -0.4176
  629MPD2    C5 9316   4.557   3.671  16.458  0.2656 -0.1152  0.5952
  629MPD2     H 9317   4.591   3.348  16.631  0.7679 -1.3623 -2.3786
  629MPD2    H1 9318   4.359   3.689  16.529 -0.8916 -0.0430  1.2333
  629MPD2    H2 9319   0.030   3.675  16.416  0.6350 -1.1921 -0.0097
  629MPD2    H3 9320   4.546   3.764  16.403 -0.4512 -1.0565 -0.8412
  629MPD2     N 9321   4.356   3.437  16.659  0.1399  0.1571  0.1191
  629MPD2    H5 9322   4.370   3.338  16.679 -1.1217 -0.4340 -1.8532
  629MPD2    N1 9323   0.108   3.453  16.544  0.2215 -0.2172  0.0284
  629MPD2    H7 9324   0.181   3.509  16.501 -1.5251  0.2094 -2.3446
  630TMC3    C1 9325   0.289   3.358  16.645  0.2695 -0.9883  0.1601
  630TMC3    C2 9326   0.361   3.413  16.537  0.0975  0.8498 -0.3273
  630TMC3    C3 9327   0.501   3.432  16.556 -0.0832 -0.0701  0.3295
  630TMC3    C4 9328   0.347   3.331  16.769 -0.1972  0.0299  0.3860
  630TMC3    C5 9329   0.480   3.374  16.786 -0.0282  0.3203  1.0797
  630TMC3    C6 9330   0.561   3.411  16.678 -0.0114  0.9228  0.5414
  630TMC3     C 9331   0.144   3.355  16.636  0.2113 -0.0095 -0.0491
  630TMC3     O 9332   0.075   3.300  16.718 -0.2694 -0.3510 -0.6857
  630TMC3     H 9333   0.317   3.418  16.438 -0.8903 -0.5592  0.0424
  630TMC3    H1 9334   0.275   3.332  16.850 -0.1794  2.4610  0.3758
  630TMC3    H2 9335   0.667   3.424  16.693  0.4001  1.2116 -2.6732
  630TMC3    C7 9336   0.543   3.363  16.918  0.2106 -0.0128  0.6264
  630TMC3    C8 9337   0.597   3.473  16.446 -0.2171 -0.6766  0.4033
  630TMC3    O1 9338   0.661   3.394  16.930  0.2285 -0.5195 -0.0900
  630TMC3    O2 9339   0.712   3.499  16.474  0.2843 -0.2232  0.0182
  631MPD2     C 9340   3.723   2.857  15.366  0.0081 -0.9799  0.5767
  631MPD2    C1 9341   3.851   2.900  15.341 -0.1341 -0.0850 -0.0584
  631MPD2    C2 9342   3.954   2.879  15.432 -0.0171  0.0145 -0.5110
  631MPD2    C3 9343   3.921   2.807  15.544  0.3080 -0.1594 -0.2805
  631MPD2    C4 9344   3.792   2.777  15.573  0.4867  0.4392  0.0533
  631MPD2    C5 9345   3.695   2.801  15.487 -0.6940  0.9986 -0.1069
  631MPD2     H 9346   4.059   2.903  15.415  0.7573 -1.9574  1.4424
  631MPD2    H1 9347   3.771   2.722  15.664 -0.6405  1.2754  0.2995
  631MPD2    H2 9348   3.646   2.879  15.292  2.5112 -0.3204 -1.8547
  631MPD2    H3 9349   3.594   2.771  15.514  0.4541 -1.9606  0.8473
  631MPD2     N 9350   4.027   2.765  15.628 -0.0769 -0.1299  0.3107
  631MPD2    H5 9351   4.119   2.785  15.591 -0.1593 -1.0711 -0.4012
  631MPD2    N1 9352   3.865   2.970  15.216  0.3552  1.0946 -0.2920
  631MPD2    H7 9353   3.781   2.973  15.160 -0.2941 -0.4656  0.6264
  632TMC3    C1 9354   3.923   3.131  15.062 -0.4361  0.3526  0.1928
  632TMC3    C2 9355   3.791   3.132  15.022 -0.2293 -0.9404  0.2958
  632TMC3    C3 9356   3.760   3.221  14.924 -0.5155  0.1161 -1.0884
  632TMC3    C4 9357   4.022   3.205  15.005  0.3944  0.2330  0.6573
  632TMC3    C5 9358   3.988   3.297  14.907 -1.1563  0.4365 -0.6083
  632TMC3    C6 9359   3.857   3.299  14.859 -0.1156 -0.2687 -0.7654
  632TMC3     C 9360   3.966   3.058  15.178  0.4039  0.4318 -0.0081
  632TMC3     O 9361   4.080   3.082  15.222 -0.0538  0.2110 -0.3051
  632TMC3     H 9362   3.706   3.082  15.067 -0.0929 -0.9897  0.5020
  632TMC3    H1 9363   4.123   3.168  15.005 -0.6933 -2.7348 -0.7827
  632TMC3    H2 9364   3.841   3.354  14.767 -0.5473  0.8990  0.0074
  632TMC3    C7 9365   4.085   3.391  14.848  0.5863 -0.2316  0.4217
  632TMC3    C8 9366   3.636   3.294  14.947  0.3156 -0.6867  0.6533
  632TMC3    O1 9367   4.062   3.420  14.731 -0.2156  0.4087  0.1964
  632TMC3    O2 9368   3.574   3.278  15.050 -0.2820 -0.1890  0.5971
  633MPD2     C 9369   3.539   1.621   0.131 -0.3851 -0.6173  0.5082
  633MPD2    C1 9370   3.482   1.568   0.016 -0.3304 -0.4764  0.1261
  633MPD2    C2 9371   3.435   1.435   0.024  0.6003 -0.1400  0.0439
  633MPD2    C3 9372   3.452   1.358   0.141 -0.0607  0.1385  0.3207
  633MPD2    C4 9373   3.515   1.409   0.251 -0.1696 -0.0699  0.9635
  633MPD2    C5 9374   3.556   1.540   0.242  0.1302  0.7894  0.2698
  633MPD2     H 9375   3.399   1.388  17.613 -1.3770  0.7802  0.3485
  633MPD2    H1 9376   3.520   1.346   0.339  3.1146 -1.0306  0.0910
  633MPD2    H2 9377   3.576   1.723   0.131 -0.2031 -0.6833  0.4902
  633MPD2    H3 9378   3.592   1.595   0.328  0.5102  2.8200 -1.1844
  633MPD2     N 9379   3.435   1.217   0.148 -0.4860 -0.1759  0.6361
  633MPD2    H5 9380   3.468   1.164   0.228  1.5602  1.4546  0.8741
  633MPD2    N1 9381   3.476   1.635  17.569 -0.0662 -0.3082 -0.4695
  633MPD2    H7 9382   3.448   1.574  17.492  0.0842 -0.8407 -0.1035
  634TMC3    C1 9383   3.475   1.806  17.408 -0.0056 -0.7671 -0.1927
  634TMC3    C2 9384   3.513   1.710  17.313 -0.2914  0.0536  0.3248
  634TMC3    C3 9385   3.489   1.739  17.183  0.5301 -0.1192  0.5545
  634TMC3    C4 9386   3.433   1.932  17.370  0.4737  0.1681  0.1112
  634TMC3    C5 9387   3.417   1.956  17.237  0.3505 -0.0763 -0.9422
  634TMC3    C6 9388   3.431   1.857  17.147 -0.9096 -0.4314  0.1745
  634TMC3     C 9389   3.499   1.770  17.548 -0.7134 -0.0195 -1.0140
  634TMC3     O 9390   3.506   1.862  17.628 -0.1754 -0.0092 -0.4209
  634TMC3     H 9391   3.558   1.616  17.341 -1.2741 -0.8115 -0.9478
  634TMC3    H1 9392   3.402   1.994  17.453 -0.7120 -0.8965  0.4604
  634TMC3    H2 9393   3.418   1.873  17.041  1.7942  3.3555  0.4164
  634TMC3    C7 9394   3.338   2.067  17.194  0.2737 -0.2618  0.4049
  634TMC3    C8 9395   3.520   1.637  17.087  0.3784  0.0023 -0.0289
  634TMC3    O1 9396   3.267   2.046  17.099 -0.2731  0.3496  0.5289
  634TMC3    O2 9397   3.488   1.524  17.121  0.1045 -0.6679 -0.4705
  635TMC3    C1 9398   4.057   2.769  17.673  0.0113  0.8910  0.2762
  635TMC3    C2 9399   4.030   2.685   0.098 -0.0190 -0.4726  0.8635
  635TMC3    C3 9400   3.967   2.563   0.078 -0.2523 -0.0381  0.1785
  635TMC3    C4 9401   4.026   2.721  17.548 -0.8452 -0.1221  0.3939
  635TMC3    C5 9402   3.984   2.593  17.535 -0.1098  0.0442 -0.0053
  635TMC3    C6 9403   3.938   2.509  17.634 -0.7509 -0.3785  0.1007
  635TMC3     C 9404   4.131   2.893   0.008  0.3157  0.1894  1.0955
  635TMC3     O 9405   4.133   2.956   0.114 -0.6289  0.0946  0.5078
  635TMC3     H 9406   4.057   2.716   0.198  0.9186  2.3983 -0.2977
  635TMC3    H1 9407   4.024   2.777  17.455  1.1425  0.7267  0.8593
  635TMC3    H2 9408   3.902   2.409  17.614 -0.5202 -0.5559  0.5682
  635TMC3    C7 9409   3.984   2.532  17.403 -0.1411  0.3840 -0.5482
  635TMC3    C8 9410   3.935   2.486   0.203 -0.2777 -0.2635  0.3330
  635TMC3    O1 9411   3.998   2.411  17.407  0.1635 -0.0036 -0.5178
  635TMC3    O2 9412   3.961   2.537   0.309  0.5958  0.3782  0.0604
  636MPD2     C 9413   4.437   1.627  15.948 -0.1983  0.2167  0.1169
  636MPD2    C1 9414   4.479   1.696  16.053  0.1767  0.4365  0.0393
  636MPD2    C2 9415   4.539   1.624  16.156 -0.0876 -0.6643  0.1206
  636MPD2    C3 9416   4.567   1.487  16.144  0.2043  0.6554  0.2856
  636MPD2    C4 9417   4.535   1.426  16.021 -0.4302  0.1063  0.1252
  636MPD2    C5 9418   4.456   1.492  15.931 -0.4867 -0.5477 -0.0955
  636MPD2     H 9419   4.566   1.677  16.246 -0.6018 -2.0455  1.1065
  636MPD2    H1 9420   4.563   1.324  15.995  2.0187  0.6238  0.7630
  636MPD2    H2 9421   4.392   1.685  15.868  1.0824 -2.6171 -2.6579
  636MPD2    H3 9422   4.426   1.442  15.839 -0.3791 -0.5940 -0.1051
  636MPD2     N 9423   4.624   1.422  16.257  0.0081  0.5477  0.4448
  636MPD2    H5 9424   4.654   1.485  16.331  2.0211 -0.6773  0.6683
  636MPD2    N1 9425   4.470   1.836  16.065 -0.7682  0.4974 -0.1732
  636MPD2    H7 9426   4.498   1.871  16.156  0.3170 -0.1905 -0.2347
  637TMC3    C1 9427   0.044   1.253  16.357 -0.4252  0.0038 -0.6037
  637TMC3    C2 9428   0.055   1.354  16.447  0.0243 -0.4410  0.3953
  637TMC3    C3 9429   0.172   1.350  16.519 -0.5544 -0.3720 -0.7764
  637TMC3    C4 9430   0.148   1.187  16.305  0.0499 -0.2918 -0.0085
  637TMC3    C5 9431   0.271   1.211  16.364  0.5030 -0.4593  0.4378
  637TMC3    C6 9432   0.283   1.284  16.482 -0.2319  0.3458 -0.3431
  637TMC3     C 9433   4.659   1.285  16.261  0.0860 -0.5036 -0.3159
  637TMC3     O 9434   4.642   1.196  16.173  0.2878 -0.4395 -0.4536
  637TMC3     H 9435   4.693   1.411  16.489  0.7414  0.8958 -0.0232
  637TMC3    H1 9436   0.139   1.115  16.225 -0.3765  2.4590 -2.4368
  637TMC3    H2 9437   0.377   1.297  16.534  0.3244 -1.5508 -0.8890
  637TMC3    C7 9438   0.365   1.245  16.259  0.1392  0.0636  0.6961
  637TMC3    C8 9439   0.188   1.461  16.614  0.6199  0.3349 -0.0998
  637TMC3    O1 9440   0.331   1.232  16.145 -0.4849  0.6127 -0.1426
  637TMC3    O2 9441   0.123   1.564  16.593 -0.0386 -0.2120  0.3988
  638MPD2     C 9442   4.548   1.028  15.138 -0.5783 -0.3335 -0.1425
  638MPD2    C1 9443   4.459   0.960  15.065 -0.3436  0.1279 -0.1041
  638MPD2    C2 9444   4.392   0.848  15.121 -0.3270  0.2288  0.1382
  638MPD2    C3 9445   4.422   0.797  15.244 -0.1627 -0.1463  0.0852
  638MPD2    C4 9446   4.504   0.875  15.326  0.0839 -0.1861  0.6270
  638MPD2    C5 9447   4.562   0.981  15.268  0.2603  0.0997  0.5271
  638MPD2     H 9448   4.325   0.792  15.056 -0.4529  0.4468  0.0810
  638MPD2    H1 9449   4.544   0.842  15.421  2.0700 -2.5226 -1.0119
  638MPD2    H2 9450   4.578   1.127  15.107  1.5459 -1.1772 -0.8263
  638MPD2    H3 9451   4.639   1.040  15.317  0.1124  0.1424  0.7093
  638MPD2     N 9452   4.371   0.672  15.280  0.0602  0.0775 -0.0232
  638MPD2    H5 9453   4.320   0.618  15.211  2.8130 -0.4012 -1.7067
  638MPD2    N1 9454   4.423   1.016  14.935  0.2479 -0.2247  0.1440
  638MPD2    H7 9455   4.489   1.086  14.902  0.2357  1.0375  2.8273
  639TMC3    C1 9456   4.325   0.480  15.416  0.3294 -0.0014 -0.1965
  639TMC3    C2 9457   4.205   0.467  15.343  0.3883  0.5414  0.4546
  639TMC3    C3 9458   4.136   0.352  15.366 -0.8240  0.4369 -0.2429
  639TMC3    C4 9459   4.376   0.376  15.487 -0.2379  0.4168 -0.1406
  639TMC3    C5 9460   4.300   0.260  15.499 -0.5274 -0.5181  0.1853
  639TMC3    C6 9461   4.181   0.245  15.440  0.3560  0.4397  0.1830
  639TMC3     C 9462   4.400   0.606  15.403  0.7028  0.8884  0.7521
  639TMC3     O 9463   4.489   0.633  15.484  0.3127  0.0744  0.0884
  639TMC3     H 9464   4.165   0.537  15.271  1.3856 -1.3543 -1.9480
  639TMC3    H1 9465   4.474   0.386  15.532  0.7659  0.3686 -2.3114
  639TMC3    H2 9466   4.131   0.149  15.447  0.2242  0.3985 -1.2715
  639TMC3    C7 9467   4.371   0.134  15.514 -0.1892 -0.2652 -0.0955
  639TMC3    C8 9468   4.057   0.309  15.257 -0.1996 -0.1291 -0.1141
  639TMC3    O1 9469   4.303   0.034  15.534  0.3549 -0.1894  0.0415
  639TMC3    O2 9470   4.083   0.352  15.146  0.3366  0.0135  0.0239
  640MPD2     C 9471   0.580   4.239  10.291 -0.2188  0.4349 -0.5179
  640MPD2    C1 9472   0.607   4.333  10.194 -0.2481 -0.2259 -0.7417
  640MPD2    C2 9473   0.535   4.457  10.204 -0.2068 -1.0217 -0.2979
  640MPD2    C3 9474   0.431   4.472  10.292  0.0911 -0.3379 -0.3329
  640MPD2    C4 9475   0.400   4.370  10.374 -0.2156  0.2002 -0.1703
  640MPD2    C5 9476   0.476   4.258  10.373 -0.4464  0.3690 -0.1781
  640MPD2     H 9477   0.554   4.522  10.120 -1.5663 -1.4313 -0.9209
  640MPD2    H1 9478   0.308   4.370  10.432  0.9351 -1.1549  1.6814
  640MPD2    H2 9479   0.624   4.140  10.287 -0.4450  0.3796 -1.6300
  640MPD2    H3 9480   0.451   4.178  10.442  1.6697 -2.1801 -2.3877
  640MPD2     N 9481   0.353   4.594  10.289 -0.4040  0.1029  0.1563
  640MPD2    H5 9482   0.263   4.597  10.336 -0.0594  1.4083  0.7240
  640MPD2    N1 9483   0.702   4.296  10.092  0.3490 -0.0171 -0.6622
  640MPD2    H7 9484   0.739   4.202  10.091  2.3417  0.7447  2.8074
  641TMC3    C1 9485   0.818   4.293   9.886 -0.3027  0.0233  0.0130
  641TMC3    C2 9486   0.894   4.192   9.932 -0.1327 -0.2531 -0.0869
  641TMC3    C3 9487   0.964   4.121   9.842  0.3786  0.8360 -0.1974
  641TMC3    C4 9488   0.822   4.337   9.755 -0.1295 -0.0347 -0.8110
  641TMC3    C5 9489   0.896   4.258   9.670  0.5812  0.3043 -0.0079
  641TMC3    C6 9490   0.968   4.148   9.707  0.8319  0.2786 -0.7546
  641TMC3     C 9491   0.715   4.361   9.970 -0.4482  0.6310 -0.7938
  641TMC3     O 9492   0.655   4.451   9.917  0.3652 -0.7232 -0.4533
  641TMC3     H 9493   0.893   4.153  10.034  1.6691 -0.9125 -0.3164
  641TMC3    H1 9494   0.766   4.421   9.717  3.0456  1.5878 -1.8593
  641TMC3    H2 9495   1.025   4.078   9.646  1.0426  1.1030 -1.4945
  641TMC3    C7 9496   0.900   4.305   9.530  0.2305  0.0378 -0.1221
  641TMC3    C8 9497   1.028   4.003   9.897  0.2026  0.3234  0.2775
  641TMC3    O1 9498   0.875   4.419   9.499 -0.1136  0.2277  0.4813
  641TMC3    O2 9499   1.083   3.998  10.008  0.0073  0.1966 -0.6418
  642TMC3    C1 9500   1.451   0.905  12.225  0.2165 -0.0681  1.0137
  642TMC3    C2 9501   1.558   0.917  12.313  0.4778 -0.7685  0.0492
  642TMC3    C3 9502   1.657   0.817  12.309  0.2916 -0.1336 -0.1613
  642TMC3    C4 9503   1.439   0.798  12.142 -0.1029 -0.0787  0.1402
  642TMC3    C5 9504   1.529   0.696  12.155  0.0499 -0.6712 -0.4006
  642TMC3    C6 9505   1.637   0.697  12.236 -0.4554 -0.0093 -0.7283
  642TMC3     C 9506   1.356   1.007  12.208  0.0809 -0.1602  0.0779
  642TMC3     O 9507   1.327   1.037  12.093 -0.0736  0.7783 -0.1262
  642TMC3     H 9508   1.565   1.010  12.369  0.7840 -0.2279 -0.8758
  642TMC3    H1 9509   1.352   0.803  12.078  2.1927 -0.7835 -3.0145
  642TMC3    H2 9510   1.706   0.614  12.247  0.6871  0.9406 -0.6927
  642TMC3    C7 9511   1.486   0.563  12.109  0.6895 -0.6399 -0.2588
  642TMC3    C8 9512   1.794   0.851  12.343 -0.0669 -0.6254 -0.2434
  642TMC3    O1 9513   1.413   0.559  12.012  0.2404  0.1254  0.0355
  642TMC3    O2 9514   1.882   0.779  12.294 -0.0022 -0.5138 -0.3209
  643TMC3    C1 9515   0.776   0.061   0.574 -0.3170 -0.7115 -0.3357
  643TMC3    C2 9516   0.678   0.148   0.533 -0.3721 -0.1770  0.0793
  643TMC3    C3 9517   0.560   0.096   0.485 -0.5574 -0.4816  0.4148
  643TMC3    C4 9518   0.768   4.644   0.554 -0.3064  0.8532 -0.3160
  643TMC3    C5 9519   0.663   4.598   0.476  0.1435 -0.3806  0.2981
  643TMC3    C6 9520   0.554   4.680   0.462  0.5303  0.2668 -0.6467
  643TMC3     C 9521   0.878   0.118   0.663 -0.7103  0.7823 -0.0067
  643TMC3     O 9522   0.888   0.241   0.669 -0.4569 -0.1794 -0.1212
  643TMC3     H 9523   0.687   0.247   0.574 -0.9562 -0.4567  0.8978
  643TMC3    H1 9524   0.853   4.577   0.570 -0.9516 -0.2468 -1.5376
  643TMC3    H2 9525   0.474   4.640   0.400  0.2082 -0.0111 -0.0460
  643TMC3    C7 9526   0.647   4.452   0.466 -0.4100  0.6911  0.1883
  643TMC3    C8 9527   0.481   0.176   0.391  0.5034 -0.3758  1.1930
  643TMC3    O1 9528   0.682   4.381   0.559  0.3685 -0.7481  0.4858
  643TMC3    O2 9529   0.376   0.135   0.346 -0.2348  0.1907  0.1328
  644MPD2     C 9530   1.412   1.326   9.818 -0.1094 -0.0689  0.1633
  644MPD2    C1 9531   1.346   1.204   9.810 -0.2947 -0.0643  0.2806
  644MPD2    C2 9532   1.207   1.197   9.825  0.3843 -0.1972 -0.5977
  644MPD2    C3 9533   1.143   1.316   9.850  0.3049 -0.5118  0.0565
  644MPD2    C4 9534   1.211   1.435   9.861 -0.0966 -0.6464 -0.3083
  644MPD2    C5 9535   1.346   1.440   9.847  0.3570  0.1655 -0.5347
  644MPD2     H 9536   1.153   1.104   9.809  1.8054 -1.2696  0.8227
  644MPD2    H1 9537   1.167   1.533   9.877 -1.8990 -1.2318 -1.7183
  644MPD2    H2 9538   1.518   1.325   9.796 -0.2151 -0.7240 -0.3071
  644MPD2    H3 9539   1.405   1.531   9.845  1.6454 -0.6542 -0.0183
  644MPD2     N 9540   1.002   1.310   9.874 -0.2774  0.5976 -0.0373
  644MPD2    H5 9541   0.961   1.218   9.885 -1.0712  0.9535 -0.0439
  644MPD2    N1 9542   1.422   1.086   9.784  0.5493 -0.3409 -0.1147
  644MPD2    H7 9543   1.523   1.095   9.786  0.5929 -1.1391  1.2990
  645TMC3    C1 9544   0.784   1.387   9.914 -0.1611 -0.1355 -0.4783
  645TMC3    C2 9545   0.698   1.473   9.847 -0.4709  0.5718  0.1927
  645TMC3    C3 9546   0.564   1.477   9.888 -0.6513  0.1731  0.2233
  645TMC3    C4 9547   0.749   1.306  10.017 -0.4727  0.0317 -0.0691
  645TMC3    C5 9548   0.622   1.323  10.056  0.1062  0.1640  0.3585
  645TMC3    C6 9549   0.530   1.405   9.994 -0.1498 -0.1421  0.4655
  645TMC3     C 9550   0.924   1.422   9.881 -0.0141  0.4617  0.0205
  645TMC3     O 9551   0.953   1.536   9.850 -0.4720  0.2750  0.1347
  645TMC3     H 9552   0.741   1.531   9.767 -1.1469  0.3350 -0.3421
  645TMC3    H1 9553   0.826   1.262  10.079 -0.2315  0.5826  0.0241
  645TMC3    H2 9554   0.435   1.405  10.047 -0.5328  0.0873 -0.2308
  645TMC3    C7 9555   0.604   1.321  10.196 -0.2185  0.2318 -0.2995
  645TMC3    C8 9556   0.459   1.536   9.800  0.1977 -0.9149  0.3471
  645TMC3    O1 9557   0.543   1.413  10.249 -0.3994  0.1118 -0.2687
  645TMC3    O2 9558   0.492   1.598   9.702 -0.0329  0.1533 -0.5709
  646MPD2     C 9559   4.489   4.404  14.597 -0.6962 -0.0210  0.4314
  646MPD2    C1 9560   4.407   4.389  14.705  0.2995  0.3799 -0.0219
  646MPD2    C2 9561   4.274   4.438  14.704  0.3635  0.4475  0.3720
  646MPD2    C3 9562   4.230   4.509  14.593 -0.0289 -0.3374 -0.4748
  646MPD2    C4 9563   4.314   4.521  14.485 -0.1950  0.3156  0.3913
  646MPD2    C5 9564   4.441   4.471  14.488  0.3954  0.5427  0.1539
  646MPD2     H 9565   4.214   4.437  14.794 -0.8157 -1.4258 -0.4449
  646MPD2    H1 9566   4.272   4.563  14.394  0.2850 -1.9347 -0.8558
  646MPD2    H2 9567   4.587   4.358  14.592 -0.9306 -0.5944  1.1750
  646MPD2    H3 9568   4.503   4.493  14.402  0.3542  0.3508  0.0761
  646MPD2     N 9569   4.095   4.550  14.595 -0.1309 -0.0076 -0.2306
  646MPD2    H5 9570   4.046   4.535  14.683 -0.4028 -1.7846 -0.6753
  646MPD2    N1 9571   4.469   4.327  14.824  0.3646  0.2861 -0.3086
  646MPD2    H7 9572   4.569   4.309  14.826  0.0503 -1.2608  1.2307
  647TMC3    C1 9573   4.507   4.253  15.035  0.2613 -0.0460  0.4311
  647TMC3    C2 9574   4.455   4.169  15.129  0.1374  0.1493  0.0244
  647TMC3    C3 9575   4.533   4.140  15.235 -0.0614  0.5827  0.7614
  647TMC3    C4 9576   4.632   4.309  15.031 -0.4948  0.6395 -0.5273
  647TMC3    C5 9577   4.714   4.259  15.135  0.2447  0.4644 -0.4526
  647TMC3    C6 9578   4.664   4.184  15.241 -0.7363 -0.1546  0.2300
  647TMC3     C 9579   4.408   4.298  14.943 -0.0621  0.5774 -0.3462
  647TMC3     O 9580   4.288   4.300  14.964 -0.3003 -0.6590 -0.0527
  647TMC3     H 9581   4.356   4.125  15.129  1.0677 -1.9360  0.8715
  647TMC3    H1 9582   4.666   4.367  14.945  1.9561 -1.5829 -1.0502
  647TMC3    H2 9583   0.012   4.158  15.322  1.4109  1.2608 -1.1082
  647TMC3    C7 9584   0.138   4.251  15.122  0.0896 -0.4648 -0.4457
  647TMC3    C8 9585   4.511   4.019  15.308 -0.3312 -1.0022 -0.5994
  647TMC3    O1 9586   0.185   4.144  15.150  0.4700  0.1551 -0.3200
  647TMC3    O2 9587   4.607   3.964  15.355  0.1415 -0.5973 -0.0139
  648TMC3    C1 9588   3.835   1.541  16.231  0.3620  0.8794  0.5338
  648TMC3    C2 9589   3.862   1.443  16.143  0.1023  0.2704  0.1510
  648TMC3    C3 9590   3.793   1.439  16.024 -0.5495  0.5715 -0.1549
  648TMC3    C4 9591   3.748   1.647  16.209  0.5598  0.2148  0.1749
  648TMC3    C5 9592   3.678   1.635  16.091 -0.3845 -0.1320  0.1356
  648TMC3    C6 9593   3.703   1.535  15.999 -0.0603  0.4296 -0.2367
  648TMC3     C 9594   3.922   1.560  16.348 -0.1030  0.0695 -0.1563
  648TMC3     O 9595   3.949   1.673  16.381  0.7058 -0.5522 -0.1268
  648TMC3     H 9596   3.930   1.361  16.163  1.0449  0.8429 -0.7084
  648TMC3    H1 9597   3.738   1.728  16.280  1.3516 -0.2668  0.8368
  648TMC3    H2 9598   3.647   1.510  15.910  0.4609 -0.6712 -0.2498
  648TMC3    C7 9599   3.568   1.720  16.058  0.5280 -0.2145 -0.4904
  648TMC3    C8 9600   3.777   1.310  15.957 -0.5195  0.8472  0.0221
  648TMC3    O1 9601   3.527   1.709  15.944  0.0833 -0.0296 -0.3836
  648TMC3    O2 9602   3.681   1.293  15.882 -0.4166 -0.1981  0.4247
  649TMC3    C1 9603   2.447   2.926  13.262  0.5361 -0.5983  0.1326
  649TMC3    C2 9604   2.555   2.855  13.309 -0.3172 -0.1794  0.2973
  649TMC3    C3 9605   2.529   2.730  13.365 -0.0821 -0.4157 -0.3187
  649TMC3    C4 9606   2.320   2.887  13.287 -0.2642  0.1818  1.0405
  649TMC3    C5 9607   2.298   2.776  13.356 -0.4283 -0.3217  0.3616
  649TMC3    C6 9608   2.400   2.688  13.390  0.5497  0.3967 -0.5232
  649TMC3     C 9609   2.462   3.045  13.179  0.0679  0.2904  0.1134
  649TMC3     O 9610   2.363   3.114  13.166  0.6019 -0.1094 -0.0221
  649TMC3     H 9611   2.656   2.896  13.300 -0.1669 -1.0443 -1.9493
  649TMC3    H1 9612   2.240   2.958  13.267 -0.6031 -0.9955 -1.6683
  649TMC3    H2 9613   2.387   2.591  13.436 -0.2798  0.5265 -0.4925
  649TMC3    C7 9614   2.168   2.743  13.412  0.7418 -0.1581 -0.2500
  649TMC3    C8 9615   2.637   2.646  13.410 -0.0618  0.0796 -0.3164
  649TMC3    O1 9616   2.087   2.836  13.420 -0.0375  0.4240  0.1281
  649TMC3    O2 9617   2.613   2.535  13.452 -0.3853 -0.0305  0.2951
  650TMC3    C1 9618   0.713   4.654  12.943  0.2156 -0.2263  0.3180
  650TMC3    C2 9619   0.671   0.061  12.960  0.2000  0.0572 -0.0348
  650TMC3    C3 9620   0.657   0.146  12.860 -0.2480 -0.4931 -0.5768
  650TMC3    C4 9621   0.734   4.605  12.818 -0.1630  0.2801 -0.6367
  650TMC3    C5 9622   0.725   4.693  12.718 -0.9396 -0.3712  0.4826
  650TMC3    C6 9623   0.700   0.111  12.731 -1.0292 -0.2258  0.0196
  650TMC3     C 9624   0.773   4.583  13.059 -0.3190 -0.1432 -0.0737
  650TMC3     O 9625   0.794   4.663  13.149  0.2631  0.2500  0.1095
  650TMC3     H 9626   0.655   0.103  13.059  0.1253 -0.5744  0.2169
  650TMC3    H1 9627   0.771   4.507  12.790 -1.4877 -0.2985 -0.3633
  650TMC3    H2 9628   0.701   0.188  12.655 -1.3890 -0.2028  0.0408
  650TMC3    C7 9629   0.740   4.636  12.585 -0.5062 -0.4904  0.2327
  650TMC3    C8 9630   0.627   0.288  12.879 -0.8207  0.5858 -0.0486
  650TMC3    O1 9631   0.742   4.517  12.569  0.0708 -0.3059  0.3641
  650TMC3    O2 9632   0.656   0.360  12.788  0.0895 -0.2417  0.1865
  651MPD2     C 9633   4.545   2.064  11.421 -0.5761  0.3841  0.1379
  651MPD2    C1 9634   4.490   2.127  11.316 -0.3707  0.5448 -0.2191
  651MPD2    C2 9635   4.562   2.157  11.198  0.1317 -0.1588  0.0256
  651MPD2    C3 9636   4.696   2.111  11.180  0.2850  0.0297 -0.0656
  651MPD2    C4 9637   0.028   2.047  11.288 -0.4073  0.9337 -0.0734
  651MPD2    C5 9638   4.674   2.015  11.405 -0.5218 -0.6067 -0.0907
  651MPD2     H 9639   4.512   2.206  11.115  0.7423 -0.1885 -0.3615
  651MPD2    H1 9640   0.133   2.025  11.294 -0.4577  0.7068 -0.0470
  651MPD2    H2 9641   4.492   2.034  11.511  0.7195  0.8055  1.0363
  651MPD2    H3 9642   0.003   1.971  11.492  1.8671  1.8855 -0.1639
  651MPD2     N 9643   0.040   2.147  11.058  0.3378 -0.4181  0.4696
  651MPD2    H5 9644   4.714   2.209  10.992  1.4036  1.8842  1.9104
  651MPD2    N1 9645   4.350   2.162  11.320 -1.0538  0.0609 -0.4109
  651MPD2    H7 9646   4.321   2.200  11.230 -0.4900  2.6881  0.5309
  652TMC3    C1 9647   0.425   2.317  10.857  0.4299  0.2614 -0.7192
  652TMC3    C2 9648   0.360   2.210  10.904  0.3753  0.1710 -0.1444
  652TMC3    C3 9649   0.228   2.217  10.932 -0.8172 -0.1809  0.4600
  652TMC3    C4 9650   0.368   2.433  10.836 -0.3970  0.9833  0.3842
  652TMC3    C5 9651   0.241   2.448  10.884  0.2931  0.4276 -0.3018
  652TMC3    C6 9652   0.166   2.341  10.923  0.1625 -0.1378 -0.4937
  652TMC3     C 9653   0.570   2.308  10.852  0.5588 -0.2874 -0.1004
  652TMC3     O 9654   0.633   2.228  10.920 -0.3523  0.5481 -0.0991
  652TMC3     H 9655   0.414   2.117  10.911 -2.0218 -1.0965  1.5335
  652TMC3    H1 9656   0.431   2.512  10.798  1.5625 -1.9655 -2.4875
  652TMC3    H2 9657   0.066   2.359  10.963  0.6097  2.2247 -0.4244
  652TMC3    C7 9658   0.222   2.562  10.977  0.4639  0.2302  0.1663
  652TMC3    C8 9659   0.169   2.121  11.025  0.5277  0.3342 -0.6392
  652TMC3    O1 9660   0.133   2.551  11.060 -0.1124  0.1742  0.0065
  652TMC3    O2 9661   0.243   2.027  11.059 -0.4822 -0.0597 -0.1388
  653MPD2     C 9662   3.145   1.488   0.161  0.0499  0.9156 -0.2543
  653MPD2    C1 9663   3.094   1.611   0.117 -0.9472  0.3270  0.0443
  653MPD2    C2 9664   2.992   1.616   0.025  0.5322 -0.3130  0.4462
  653MPD2    C3 9665   2.934   1.494  17.662  0.9373 -0.7617 -0.0450
  653MPD2    C4 9666   2.994   1.374   0.024  0.5980  0.0009  0.2978
  653MPD2    C5 9667   3.094   1.372   0.111  0.4620  1.1894  0.1755
  653MPD2     H 9668   2.957   1.711  17.667 -1.7092 -0.6110  1.7585
  653MPD2    H1 9669   2.974   1.278  17.658  0.5294 -1.0883  2.5886
  653MPD2    H2 9670   3.216   1.479   0.242 -0.6938 -2.1532  0.0683
  653MPD2    H3 9671   3.135   1.281   0.154  3.2701  1.7618 -1.2486
  653MPD2     N 9672   2.833   1.506  17.568 -0.5134  0.2949  0.0190
  653MPD2    H5 9673   2.808   1.600  17.538  1.8829  0.2677 -2.0342
  653MPD2    N1 9674   3.163   1.728   0.160  0.8409 -0.7322  0.2580
  653MPD2    H7 9675   3.147   1.813   0.107 -1.4849 -0.3950  1.5260
  654TMC3    C1 9676   2.714   1.433  17.375 -0.7424  0.0759 -0.1897
  654TMC3    C2 9677   2.742   1.550  17.308 -0.1386 -0.1842 -0.4209
  654TMC3    C3 9678   2.699   1.571  17.183  0.0248 -0.8696 -0.1216
  654TMC3    C4 9679   2.664   1.331  17.299 -0.0327 -0.0626  0.4271
  654TMC3    C5 9680   2.622   1.353  17.170  0.7299 -0.6137 -0.3592
  654TMC3    C6 9681   2.636   1.476  17.112  0.0956 -0.2171  0.3038
  654TMC3     C 9682   2.783   1.402  17.498 -0.2123 -0.0391  0.1317
  654TMC3     O 9683   2.784   1.287  17.535  0.3034 -0.2113  0.4174
  654TMC3     H 9684   2.813   1.622  17.344  0.9037 -1.2911 -0.2662
  654TMC3    H1 9685   2.639   1.235  17.344 -0.2876 -0.2442 -0.1026
  654TMC3    H2 9686   2.592   1.500  17.015 -0.1857 -0.9853  0.2429
  654TMC3    C7 9687   2.602   1.237  17.087 -0.0546  0.2074 -0.4649
  654TMC3    C8 9688   2.733   1.704  17.126  0.1035 -0.2650  0.2072
  654TMC3    O1 9689   2.536   1.251  16.983  0.4081  0.3564  0.5243
  654TMC3    O2 9690   2.739   1.799  17.204 -0.2919  0.0299  0.6586
  655MPD2     C 9691   4.091   1.657  15.974 -0.5030  0.5727  0.1172
  655MPD2    C1 9692   3.999   1.736  15.906  1.2337 -0.6355 -0.9896
  655MPD2    C2 9693   3.931   1.676  15.802  0.4403  0.3865  0.2251
  655MPD2    C3 9694   3.974   1.555  15.748 -0.5322 -0.1145  0.5131
  655MPD2    C4 9695   4.075   1.484  15.815  0.0410 -0.4751  0.8474
  655MPD2    C5 9696   4.125   1.529  15.928 -0.1678  0.0677 -0.5681
  655MPD2     H 9697   3.857   1.732  15.746  0.2329  0.4731  0.5905
  655MPD2    H1 9698   4.119   1.392  15.777 -1.0470 -0.7513  0.2677
  655MPD2    H2 9699   4.146   1.687  16.062  1.1616 -1.5805 -0.1974
  655MPD2    H3 9700   4.189   1.456  15.975 -1.0121 -0.0408  0.4187
  655MPD2     N 9701   3.933   1.498  15.625  0.5673  0.3016  0.3861
  655MPD2    H5 9702   3.992   1.421  15.596 -0.5328 -0.7577  0.9674
  655MPD2    N1 9703   3.945   1.856  15.956 -0.3770  0.4101  0.0463
  655MPD2    H7 9704   3.866   1.897  15.907 -2.5304 -1.3804  2.0248
  656TMC3    C1 9705   3.902   2.030  16.111  0.4213  1.1985  0.0288
  656TMC3    C2 9706   3.886   2.045  16.245  0.0647 -0.7008 -0.0138
  656TMC3    C3 9707   3.780   2.112  16.289  0.4689  0.2253  0.2012
  656TMC3    C4 9708   3.824   2.085  16.011  0.7419  0.5329  0.2833
  656TMC3    C5 9709   3.708   2.139  16.060 -0.3837  0.4252  0.1266
  656TMC3    C6 9710   3.684   2.152  16.193 -0.9837  0.2287  0.0461
  656TMC3     C 9711   3.988   1.917  16.070 -0.4611  0.9513 -0.3712
  656TMC3     O 9712   4.078   1.882  16.141 -0.1839 -0.2169 -0.1300
  656TMC3     H 9713   3.945   1.986  16.315  1.5987  0.1102 -0.6078
  656TMC3    H1 9714   3.850   2.085  15.906 -2.8953 -0.3426 -0.6171
  656TMC3    H2 9715   3.589   2.189  16.227 -1.0214 -0.4077  0.6170
  656TMC3    C7 9716   3.600   2.156  15.966  1.1973 -0.1307  0.3553
  656TMC3    C8 9717   3.723   2.056  16.413  0.0405 -0.2602 -0.4668
  656TMC3    O1 9718   3.607   2.101  15.855  0.3963  0.0730 -0.3474
  656TMC3    O2 9719   3.709   1.933  16.411  0.6840  0.7203  0.2432
  657TMC3    C1 9720   3.347   1.390  14.866 -0.3836 -0.6095  0.1040
  657TMC3    C2 9721   3.286   1.271  14.899 -0.3696 -0.1615  0.1521
  657TMC3    C3 9722   3.172   1.275  14.969 -0.1257  0.7529  0.3015
  657TMC3    C4 9723   3.303   1.512  14.910  0.4597  0.5411  0.1454
  657TMC3    C5 9724   3.196   1.507  14.995 -0.3091  0.0431 -0.3953
  657TMC3    C6 9725   3.119   1.395  15.022 -0.4097  0.1475 -0.3052
  657TMC3     C 9726   3.476   1.378  14.804 -0.2437 -0.7135 -0.8124
  657TMC3     O 9727   3.528   1.478  14.755  0.2938  0.2136  0.0467
  657TMC3     H 9728   3.317   1.177  14.854 -0.0672  0.0344 -0.0457
  657TMC3    H1 9729   3.369   1.597  14.897 -0.4487  1.3153  0.5941
  657TMC3    H2 9730   3.040   1.399  15.095  0.0601 -0.5740  0.2418
  657TMC3    C7 9731   3.180   1.628  15.079 -0.7858  0.9288 -0.2438
  657TMC3    C8 9732   3.101   1.154  14.988 -0.0177  0.0412  0.2394
  657TMC3    O1 9733   3.287   1.683  15.106 -1.2151  0.1282  0.2727
  657TMC3    O2 9734   3.171   1.054  15.008  0.4038 -0.5375  0.1364
  658MPD2     C 9735   4.316   1.252  15.313 -0.0197  0.1516 -0.3304
  658MPD2    C1 9736   4.230   1.321  15.225  0.2860 -0.7241 -0.0027
  658MPD2    C2 9737   4.280   1.430  15.151  0.0973 -0.1956 -0.1492
  658MPD2    C3 9738   4.411   1.470  15.169  0.4551  0.7233  0.2950
  658MPD2    C4 9739   4.490   1.407  15.269  0.1325 -0.1678 -0.2785
  658MPD2    C5 9740   4.443   1.291  15.329 -0.1648 -0.2338 -0.3732
  658MPD2     H 9741   4.211   1.485  15.087 -0.7892  0.6919  1.5462
  658MPD2    H1 9742   4.589   1.442  15.296 -0.3635  0.0079  1.3021
  658MPD2    H2 9743   4.279   1.166  15.369 -1.4657 -0.1695 -1.7857
  658MPD2    H3 9744   4.503   1.238  15.402 -2.7439 -1.1456  1.0853
  658MPD2     N 9745   4.462   1.579  15.087 -0.6956 -0.2832  0.1099
  658MPD2    H5 9746   4.399   1.611  15.014 -0.1421 -0.8779 -0.6213
  658MPD2    N1 9747   4.100   1.272  15.217 -0.7306  0.2328 -0.3266
  658MPD2    H7 9748   4.072   1.206  15.289  2.9498 -0.9128  0.0603
  659TMC3    C1 9749   3.885   1.365  15.228  0.9048  1.0587 -0.4872
  659TMC3    C2 9750   3.911   1.406  15.355 -0.7588  0.2759  0.0305
  659TMC3    C3 9751   3.809   1.470  15.420  0.2055  0.7676  0.1208
  659TMC3    C4 9752   3.763   1.368  15.170 -0.1830 -0.1994  0.7854
  659TMC3    C5 9753   3.658   1.428  15.243 -0.2782  0.4351  0.4619
  659TMC3    C6 9754   3.681   1.481  15.366  0.2249  0.5382  0.5185
  659TMC3     C 9755   4.002   1.343  15.146  0.1459  0.2794 -0.3134
  659TMC3     O 9756   4.006   1.375  15.025  0.0551 -0.5943 -0.2105
  659TMC3     H 9757   4.014   1.413  15.386  0.4243  0.7009 -3.9575
  659TMC3    H1 9758   3.741   1.337  15.068 -0.1600  1.3066  0.3250
  659TMC3    H2 9759   3.600   1.519  15.428 -0.4307 -0.1926  0.1162
  659TMC3    C7 9760   3.527   1.362  15.220 -0.2785  0.2673 -0.1255
  659TMC3    C8 9761   3.825   1.533  15.547 -0.4626  0.0868 -1.1961
  659TMC3    O1 9762   3.529   1.259  15.156 -0.4269  0.2120 -1.0984
  659TMC3    O2 9763   3.749   1.627  15.567 -0.5079  0.3506 -0.5655
  660MPD2     C 9764   2.864   0.650  12.428 -0.0508  0.4780  0.3613
  660MPD2    C1 9765   2.755   0.727  12.435  0.1291  0.0793  0.3877
  660MPD2    C2 9766   2.652   0.682  12.510 -0.2554 -0.1500  0.2403
  660MPD2    C3 9767   2.643   0.560  12.573 -0.6012 -0.0833  0.5256
  660MPD2    C4 9768   2.756   0.485  12.557 -0.0596 -0.2426  0.2069
  660MPD2    C5 9769   2.872   0.531  12.499 -0.1300  0.1676  0.2104
  660MPD2     H 9770   2.556   0.733  12.512 -0.6361 -0.8532 -0.1744
  660MPD2    H1 9771   2.766   0.384  12.595  0.6116 -0.3067 -0.1455
  660MPD2    H2 9772   2.945   0.675  12.360 -0.7778  1.3612 -0.1844
  660MPD2    H3 9773   2.958   0.467  12.486  1.2003  2.2876 -1.4668
  660MPD2     N 9774   2.529   0.509  12.648 -0.2033 -0.0027  0.7470
  660MPD2    H5 9775   2.532   0.411  12.673 -2.9222 -0.7628 -1.8330
  660MPD2    N1 9776   2.744   0.841  12.347  0.1868 -0.2571  0.1067
  660MPD2    H7 9777   2.822   0.852  12.282  0.2760  4.1642  1.0005
  661TMC3    C1 9778   2.639   1.026  12.243  1.0802  0.3124  0.3923
  661TMC3    C2 9779   2.700   0.990  12.119 -0.2167  0.1272 -0.2112
  661TMC3    C3 9780   2.666   1.061  12.009  0.0521  0.5484 -0.4152
  661TMC3    C4 9781   2.537   1.121  12.249  0.0966  0.2831  0.1177
  661TMC3    C5 9782   2.522   1.195  12.135  0.3821 -0.2790  0.0099
  661TMC3    C6 9783   2.582   1.169  12.014 -0.1398 -0.0814  0.1452
  661TMC3     C 9784   2.650   0.938  12.352 -0.6297  0.5560 -0.7273
  661TMC3     O 9785   2.568   0.959  12.443 -0.0332 -0.7236  0.3518
  661TMC3     H 9786   2.767   0.905  12.114  1.1173  1.1093  0.7572
  661TMC3    H1 9787   2.473   1.141  12.334  0.2858  1.2084  0.0505
  661TMC3    H2 9788   2.557   1.228  11.926  0.7811 -0.0026 -0.0565
  661TMC3    C7 9789   2.386   1.236  12.123  0.4478  0.5893 -0.8569
  661TMC3    C8 9790   2.744   1.022  11.889 -0.4202 -0.5136  0.1845
  661TMC3    O1 9791   2.340   1.294  12.219  0.0034  0.8960  0.5433
  661TMC3    O2 9792   2.791   0.908  11.893  0.4396  0.0191 -0.3968
  662MPD2     C 9793   3.002   4.690  17.340  0.4648  0.4842  0.4870
  662MPD2    C1 9794   2.957   4.698  17.465  0.0334 -0.7261 -0.3208
  662MPD2    C2 9795   2.912   0.100  17.500 -0.4154 -0.0705  0.3152
  662MPD2    C3 9796   2.869   0.201  17.415 -0.5767 -0.7584  0.0336
  662MPD2    C4 9797   2.905   0.179  17.281 -0.0894 -0.7553 -0.0472
  662MPD2    C5 9798   2.974   0.068  17.246 -0.1133 -0.0919 -0.5772
  662MPD2     H 9799   2.888   0.111  17.605 -1.5887 -0.8210  0.1213
  662MPD2    H1 9800   2.875   0.244  17.199  2.8086 -0.2736 -0.7300
  662MPD2    H2 9801   3.042   4.598  17.298  2.0145  0.7358  1.4069
  662MPD2    H3 9802   2.995   0.039  17.144  2.0595  0.8413 -0.4029
  662MPD2     N 9803   2.794   0.320  17.447  0.1373  0.1451  0.3713
  662MPD2    H5 9804   2.733   0.356  17.374  1.3602  0.2877 -0.5905
  662MPD2    N1 9805   2.956   4.593  17.559  0.1913  0.2169  0.0745
  662MPD2    H7 9806   2.921   4.614  17.651  0.5452 -1.9738  0.7099
  663TMC3    C1 9807   2.906   4.359  17.608  0.3030 -0.1930 -0.6802
  663TMC3    C2 9808   2.878   4.395   0.059  0.1291  0.4384 -0.0458
  663TMC3    C3 9809   2.792   4.321   0.134 -0.2853 -0.1076 -0.4172
  663TMC3    C4 9810   2.836   4.258  17.549  0.0191 -0.4351  0.2410
  663TMC3    C5 9811   2.741   4.196  17.624 -0.6472  0.1525 -0.6425
  663TMC3    C6 9812   2.734   4.210   0.083 -0.1901  0.1275  0.1903
  663TMC3     C 9813   2.964   4.461  17.519  0.3308 -0.1747 -0.0331
  663TMC3     O 9814   3.005   4.415  17.415  0.6082  0.0540  0.4216
  663TMC3     H 9815   2.942   4.470   0.105  1.0834  1.0428 -2.3531
  663TMC3    H1 9816   2.857   4.234  17.445  2.3326 -0.5890  0.7413
  663TMC3    H2 9817   2.648   4.165   0.131 -0.0122  0.0578  0.4424
  663TMC3    C7 9818   2.639   4.118  17.558  0.2659  0.0497  0.6827
  663TMC3    C8 9819   2.816   4.327   0.284  0.0404  0.3155  0.0778
  663TMC3    O1 9820   2.577   4.033  17.618  0.4490  0.0418 -1.0941
  663TMC3    O2 9821   2.784   4.221   0.336 -0.0217 -0.5299  0.5236
  664MPD2     C 9822   1.307   3.294   0.337  1.0950  0.8479 -0.2900
  664MPD2    C1 9823   1.258   3.423   0.338  0.5502 -0.4097  0.1512
  664MPD2    C2 9824   1.342   3.517   0.405 -0.3911  0.1825  0.7793
  664MPD2    C3 9825   1.454   3.483   0.484 -0.4212  0.1511  0.2318
  664MPD2    C4 9826   1.484   3.351   0.494  0.6849  0.4921  0.0537
  664MPD2    C5 9827   1.414   3.257   0.415 -0.2433 -0.2143  0.2620
  664MPD2     H 9828   1.322   3.623   0.396 -0.6445  0.2017  1.5113
  664MPD2    H1 9829   1.553   3.311   0.567 -0.8671 -1.5470  0.4105
  664MPD2    H2 9830   1.261   3.215   0.279 -1.1608  1.5920  0.4417
  664MPD2    H3 9831   1.448   3.154   0.418 -0.5284 -0.3946 -2.6708
  664MPD2     N 9832   1.512   3.582   0.570 -0.4833 -0.4199  0.0004
  664MPD2    H5 9833   1.472   3.675   0.571 -0.6945 -0.5094 -0.4829
  664MPD2    N1 9834   1.151   3.461   0.251  0.1379 -0.2665  0.2739
  664MPD2    H7 9835   1.128   3.559   0.253  0.7357 -0.1045 -0.5706
  665TMC3    C1 9836   1.650   3.656   0.747 -0.4413  0.3052 -0.0690
  665TMC3    C2 9837   1.754   3.632   0.833  0.4360  0.2519  0.1790
  665TMC3    C3 9838   1.782   3.727   0.930  0.1042  0.8154 -0.1588
  665TMC3    C4 9839   1.556   3.754   0.773 -0.0402  0.1535  0.0985
  665TMC3    C5 9840   1.573   3.825   0.885 -0.0763  0.0620  0.3111
  665TMC3    C6 9841   1.690   3.821   0.960 -0.4308 -0.5505 -0.4981
  665TMC3     C 9842   1.613   3.551   0.657 -0.0181 -0.0581 -0.6095
  665TMC3     O 9843   1.682   3.450   0.666 -0.0424 -0.1801  0.3143
  665TMC3     H 9844   1.828   3.557   0.808  0.4612  0.7698 -1.2882
  665TMC3    H1 9845   1.458   3.752   0.727  0.1582 -0.9805 -0.2761
  665TMC3    H2 9846   1.706   3.889   1.043  0.1327 -0.8284 -0.3829
  665TMC3    C7 9847   1.492   3.953   0.897  0.0197  0.0645  0.4555
  665TMC3    C8 9848   1.869   3.688   1.039 -0.8531 -0.2431 -0.0754
  665TMC3    O1 9849   1.464   4.002   0.789 -0.1876 -0.2914 -0.0659
  665TMC3    O2 9850   1.860   3.762   1.136 -0.3931 -0.0177  0.5164
  666TMC3    C1 9851   0.498   3.214  10.068  0.2185  0.4823  0.8046
  666TMC3    C2 9852   0.612   3.193  10.136 -0.1148 -0.3674 -0.2130
  666TMC3    C3 9853   0.694   3.309  10.147  0.0428  0.5895  0.7873
  666TMC3    C4 9854   0.450   3.335  10.034  0.3712  0.3561  0.4506
  666TMC3    C5 9855   0.539   3.439  10.044  0.1255 -0.3366 -0.5563
  666TMC3    C6 9856   0.660   3.432  10.107 -0.0162  0.6862 -0.2560
  666TMC3     C 9857   0.384   3.128  10.097  0.3376 -0.3990 -0.1131
  666TMC3     O 9858   0.302   3.123  10.005 -0.4737 -0.2037 -0.0375
  666TMC3     H 9859   0.643   3.091  10.156 -2.9529 -0.9864  1.0296
  666TMC3    H1 9860   0.345   3.355  10.015 -0.1805 -3.5182 -0.5200
  666TMC3    H2 9861   0.713   3.520  10.139 -1.0571  1.3327 -0.3108
  666TMC3    C7 9862   0.475   3.564  10.045  0.3794 -0.2059  0.0777
  666TMC3    C8 9863   0.796   3.297  10.243 -0.2730  0.6597 -0.1945
  666TMC3    O1 9864   0.367   3.574  10.101 -0.5949 -0.2543  0.2847
  666TMC3    O2 9865   0.790   3.200  10.313  0.4318  0.3906 -0.4563
  667MPD2     C 9866   1.731   3.534  14.539  0.4951  0.6081  0.6239
  667MPD2    C1 9867   1.626   3.604  14.596  0.9216 -0.6269  0.2400
  667MPD2    C2 9868   1.500   3.551  14.598 -0.2692 -0.2668  0.2141
  667MPD2    C3 9869   1.480   3.424  14.531 -0.4422  0.4631  1.1040
  667MPD2    C4 9870   1.586   3.357  14.484  0.3482 -0.4717 -0.1032
  667MPD2    C5 9871   1.711   3.410  14.482  0.2440  0.1181  0.0339
  667MPD2     H 9872   1.412   3.597  14.640  1.5806  0.6498  3.0377
  667MPD2    H1 9873   1.564   3.257  14.447  0.3534 -0.5162  0.0136
  667MPD2    H2 9874   1.829   3.578  14.541 -0.0321  1.7751  0.5147
  667MPD2    H3 9875   1.796   3.356  14.442 -0.9904 -1.0952 -0.9239
  667MPD2     N 9876   1.356   3.356  14.520  0.5557  0.6567 -0.2623
  667MPD2    H5 9877   1.348   3.263  14.480  2.2573  0.3735  0.0626
  667MPD2    N1 9878   1.641   3.722  14.664 -0.4706 -0.1231  0.3463
  667MPD2    H7 9879   1.562   3.757  14.717 -0.0833 -0.4978  1.1820
  668TMC3    C1 9880   1.758   3.914  14.746 -0.5351  0.1935  0.0507
  668TMC3    C2 9881   1.816   4.031  14.712  0.0493 -0.0473 -0.2184
  668TMC3    C3 9882   1.811   4.134  14.801  0.2160 -0.2439 -0.0515
  668TMC3    C4 9883   1.695   3.889  14.867 -0.2752  0.7527  0.0136
  668TMC3    C5 9884   1.712   3.988  14.958  0.6389 -0.6544 -0.4888
  668TMC3    C6 9885   1.764   4.114  14.933 -0.7283  0.4627  0.6003
  668TMC3     C 9886   1.749   3.804  14.646  0.2056  0.2851 -0.5401
  668TMC3     O 9887   1.838   3.805  14.559  0.1239 -0.2677  0.1108
  668TMC3     H 9888   1.837   4.047  14.607 -0.1909 -0.3423 -0.3086
  668TMC3    H1 9889   1.667   3.787  14.888 -0.6805  0.9971  0.6536
  668TMC3    H2 9890   1.757   4.188  15.011  1.0196  0.5942  0.6317
  668TMC3    C7 9891   1.739   3.941  15.093  0.1008 -0.1266 -0.2572
  668TMC3    C8 9892   1.903   4.246  14.781 -0.0757  0.0344  0.5549
  668TMC3    O1 9893   1.836   3.993  15.137 -0.0221 -0.3211  0.2928
  668TMC3    O2 9894   1.915   4.322  14.876 -0.5703  0.3481 -0.3677
  669TMC3    C1 9895   4.436   3.346  14.643  0.4342 -0.2598 -0.1132
  669TMC3    C2 9896   4.363   3.400  14.535 -0.0677 -0.1468 -0.9929
  669TMC3    C3 9897   4.389   3.531  14.508  0.2582  0.1186  0.6335
  669TMC3    C4 9898   4.529   3.419  14.709 -0.3575 -0.1690 -1.3152
  669TMC3    C5 9899   4.553   3.548  14.678 -0.2833  0.4376 -0.1164
  669TMC3    C6 9900   4.488   3.599  14.571  0.3524  0.7337  0.8048
  669TMC3     C 9901   4.394   3.217  14.701  0.3585  0.6978 -0.6160
  669TMC3     O 9902   4.281   3.174  14.683  0.4446 -0.6338  0.3177
  669TMC3     H 9903   4.307   3.334  14.470 -2.8453 -2.9855  4.2666
  669TMC3    H1 9904   4.588   3.379  14.791 -2.9728 -0.5969  0.3699
  669TMC3    H2 9905   4.494   3.705  14.551  0.4930  0.6036  0.1559
  669TMC3    C7 9906   4.659   3.635  14.734 -0.3695 -0.5875  0.4721
  669TMC3    C8 9907   4.350   3.578  14.377 -0.0251  0.1499  1.1075
  669TMC3    O1 9908   4.667   3.752  14.702 -0.5012  0.2044 -0.1819
  669TMC3    O2 9909   4.238   3.543  14.332  0.2834 -0.2418  0.3975
  670MPD2     C 9910   2.446   1.121  13.726 -0.0390  0.9948  0.0246
  670MPD2    C1 9911   2.427   0.989  13.680 -0.9519 -0.9279 -0.1033
  670MPD2    C2 9912   2.377   0.900  13.770 -0.2250  0.1714  0.4508
  670MPD2    C3 9913   2.356   0.935  13.902 -0.0537  0.1730 -0.4329
  670MPD2    C4 9914   2.383   1.060  13.947 -0.7957 -0.2673 -0.2761
  670MPD2    C5 9915   2.422   1.154  13.856  0.3828  0.0022  0.2117
  670MPD2     H 9916   2.370   0.799  13.731 -2.5689  0.8017 -0.8088
  670MPD2    H1 9917   2.351   1.088  14.046  0.4108 -1.3854  0.4330
  670MPD2    H2 9918   2.473   1.201  13.658 -0.7118  3.8316  3.0643
  670MPD2    H3 9919   2.438   1.256  13.890  0.8690  0.8328 -2.4856
  670MPD2     N 9920   2.307   0.834  13.989  0.5882  0.4414 -0.2015
  670MPD2    H5 9921   2.274   0.751  13.940  0.1813  0.1704  0.5313
  670MPD2    N1 9922   2.444   0.946  13.542  0.3039 -0.1051 -0.4295
  670MPD2    H7 9923   2.424   0.849  13.523  2.3382 -0.9183  1.4759
  671TMC3    C1 9924   2.256   0.719  14.188  0.0183  0.5854 -0.2879
  671TMC3    C2 9925   2.341   0.650  14.266 -0.0772  0.2106  0.2726
  671TMC3    C3 9926   2.353   0.515  14.259 -0.1611 -0.5678 -0.5855
  671TMC3    C4 9927   2.163   0.648  14.116 -0.4868  0.3406  0.2686
  671TMC3    C5 9928   2.175   0.509  14.107  0.5267  0.3257  0.2367
  671TMC3    C6 9929   2.285   0.446  14.162 -0.1252  0.2633  0.8359
  671TMC3     C 9930   2.313   0.840  14.128  0.7019  0.1793  0.1341
  671TMC3     O 9931   2.381   0.908  14.200 -0.0367 -0.3757  0.1029
  671TMC3     H 9932   2.431   0.701  14.299 -1.3295  1.6267  1.4862
  671TMC3    H1 9933   2.091   0.705  14.060  1.2361  1.2777 -0.9911
  671TMC3    H2 9934   2.295   0.338  14.159 -1.9169  0.1158 -0.3407
  671TMC3    C7 9935   2.132   0.458  13.980  0.3164 -0.8495 -0.1180
  671TMC3    C8 9936   2.470   0.460  14.327 -0.5765 -0.0822 -0.5780
  671TMC3    O1 9937   2.225   0.398  13.916 -0.4675 -0.3692  0.1172
  671TMC3    O2 9938   2.512   0.515  14.426  0.1394  0.4936  0.0065
  672MPD2     C 9939   3.308   1.366   2.132 -0.3148  0.0163 -0.0847
  672MPD2    C1 9940   3.360   1.477   2.074  0.6834  0.2873 -0.3081
  672MPD2    C2 9941   3.446   1.555   2.143 -0.0555 -0.2626  0.0904
  672MPD2    C3 9942   3.502   1.509   2.256 -0.0510  0.8870  0.2563
  672MPD2    C4 9943   3.458   1.392   2.313  0.0805 -0.2972  0.4645
  672MPD2    C5 9944   3.359   1.325   2.251 -0.4624  0.0181 -0.1388
  672MPD2     H 9945   3.447   1.656   2.105 -1.0833  0.0650  0.9235
  672MPD2    H1 9946   3.493   1.347   2.406  0.5700 -1.4309 -0.2626
  672MPD2    H2 9947   3.248   1.291   2.080 -1.1856  0.1532  0.7203
  672MPD2    H3 9948   3.310   1.244   2.304 -1.5888 -0.1208 -1.4174
  672MPD2     N 9949   3.597   1.584   2.329  0.1646 -0.1556 -0.4669
  672MPD2    H5 9950   3.632   1.540   2.413  1.0653  0.1593 -0.6842
  672MPD2    N1 9951   3.329   1.506   1.942  0.4556 -0.3541  0.0196
  672MPD2    H7 9952   3.381   1.586   1.908  1.0007 -0.8812 -0.3813
  673TMC3    C1 9953   3.243   1.480   1.724 -0.9732  0.5968  0.1844
  673TMC3    C2 9954   3.359   1.499   1.669  0.0619 -0.3792  0.8307
  673TMC3    C3 9955   3.363   1.525   1.535 -0.2998  0.4656  0.7709
  673TMC3    C4 9956   3.126   1.489   1.657 -0.9833  0.2686 -0.2366
  673TMC3    C5 9957   3.126   1.539   1.530 -0.5018  0.3656 -0.2128
  673TMC3    C6 9958   3.245   1.540   1.456 -0.1207 -0.6343  0.2412
  673TMC3     C 9959   3.234   1.444   1.866 -0.0308  0.3613 -0.5372
  673TMC3     O 9960   3.149   1.360   1.891  0.1271 -0.6361 -0.6399
  673TMC3     H 9961   3.453   1.494   1.723 -0.6826 -2.6361  1.8867
  673TMC3    H1 9962   3.034   1.470   1.711 -1.7335 -0.2366 -1.6736
  673TMC3    H2 9963   3.255   1.570   1.353 -0.3156 -1.4768 -0.0239
  673TMC3    C7 9964   3.009   1.521   1.456 -0.1164 -0.1167 -0.1172
  673TMC3    C8 9965   3.482   1.504   1.453 -0.1093 -0.6540  0.1269
  673TMC3    O1 9966   2.922   1.455   1.508  0.5216 -0.2584 -0.5676
  673TMC3    O2 9967   3.480   1.551   1.340  0.6361  0.1918 -0.4269
  674MPD2     C 9968   3.052   2.022   0.542 -0.0607  0.3854 -0.3517
  674MPD2    C1 9969   3.032   1.896   0.589 -0.2333 -0.1064  0.6971
  674MPD2    C2 9970   2.960   1.809   0.512  0.2759 -0.2954  0.1363
  674MPD2    C3 9971   2.893   1.846   0.396 -0.0005  0.2867  0.3574
  674MPD2    C4 9972   2.903   1.982   0.362 -0.0958  0.4251 -0.3947
  674MPD2    C5 9973   2.990   2.063   0.426 -0.1570 -0.0362  0.3414
  674MPD2     H 9974   2.932   1.714   0.556  1.4014 -1.1466 -0.9834
  674MPD2    H1 9975   2.859   2.029   0.275 -1.1843 -0.1707 -0.1631
  674MPD2    H2 9976   3.106   2.101   0.592 -0.1223 -0.4565  1.0289
  674MPD2    H3 9977   3.016   2.159   0.385 -1.1543  0.1565  0.1554
  674MPD2     N 9978   2.811   1.750   0.339 -0.4179  0.1024  0.1992
  674MPD2    H5 9979   2.815   1.658   0.384 -0.0020 -0.4786 -1.0330
  674MPD2    N1 9980   3.100   1.863   0.710  0.2097 -0.1571 -0.3333
  674MPD2    H7 9981   3.164   1.933   0.745  1.4919 -1.8150  0.6621
  675TMC3    C1 9982   3.167   1.724   0.900 -0.2013  1.0219 -0.5065
  675TMC3    C2 9983   3.131   1.608   0.959  0.2776  0.0111  0.0042
  675TMC3    C3 9984   3.221   1.557   1.045 -0.0561 -0.1034 -0.3207
  675TMC3    C4 9985   3.276   1.801   0.924 -0.0906 -0.1973  0.0189
  675TMC3    C5 9986   3.366   1.747   1.016  0.1183 -0.2436 -0.3571
  675TMC3    C6 9987   3.340   1.624   1.064  0.3046 -0.6646 -0.4704
  675TMC3     C 9988   3.086   1.740   0.778 -0.7291  0.5087  0.0312
  675TMC3     O 9989   3.020   1.644   0.748  0.1013 -0.0354  0.1287
  675TMC3     H 9990   3.032   1.564   0.953  0.3281 -0.3456  1.7479
  675TMC3    H1 9991   3.288   1.893   0.868  0.9558 -1.1329 -1.3117
  675TMC3    H2 9992   3.410   1.576   1.130 -0.0142 -0.9911 -0.3674
  675TMC3    C7 9993   3.498   1.802   1.026 -0.2381  0.0325 -0.0541
  675TMC3    C8 9994   3.187   1.427   1.098 -0.3029 -0.6962  0.3338
  675TMC3    O1 9995   3.524   1.901   0.960 -0.7739  0.2042 -0.5463
  675TMC3    O2 9996   3.066   1.389   1.090  1.0985 -0.3340 -0.1647
  676MPD2     C 9997   0.830   4.647  10.993 -0.4536  0.1736 -0.1858
  676MPD2    C1 9998   0.749   4.580  11.079 -0.1213  0.0599 -0.1423
  676MPD2    C2 9999   0.728   4.446  11.066  0.1840 -0.2266 -0.0549
  676MPD2    C310000   0.798   4.377  10.974 -0.7301  0.6975  0.4544
  676MPD2    C410001   0.882   4.440  10.884 -0.4949  0.7544  0.0772
  676MPD2    C510002   0.892   4.577  10.886  0.4232  1.0289  0.1792
  676MPD2     H10003   0.669   4.392  11.138 -1.6172 -1.2443 -2.2960
  676MPD2    H110004   0.928   4.385  10.802  0.1958  0.9703  0.3252
  676MPD2    H210005   0.851   0.033  11.008  0.8611  0.0224 -0.8948
  676MPD2    H310006   0.963   4.625  10.820  0.2575  2.2605  0.8930
  676MPD2     N10007   0.785   4.234  10.963  0.1220 -0.6924  0.0492
  676MPD2    H510008   0.838   4.194  10.885 -0.0740 -0.0348 -0.4235
  676MPD2    N110009   0.693   4.646  11.197  0.3634  0.7465 -0.8213
  676MPD2    H710010   0.633   4.591  11.258  1.4049  0.0536 -0.4127
  677TMC3    C110011   0.634   0.097  11.349  0.5753  1.0957  0.3905
  677TMC3    C210012   0.519   0.025  11.367  0.2277 -0.8598  0.3897
  677TMC3    C310013   0.467   0.027  11.493 -0.1112 -0.1714 -0.0370
  677TMC3    C410014   0.697   0.166  11.453  0.5513  0.0101  0.4230
  677TMC3    C510015   0.631   0.173  11.573 -0.6916  0.5457  0.3289
  677TMC3    C610016   0.515   0.107  11.592  0.4740  0.1699 -0.7329
  677TMC3     C10017   0.728   0.055  11.242  0.0790 -0.1075  0.0529
  677TMC3     O10018   0.815   0.136  11.213 -0.3939  0.2207  0.8969
  677TMC3     H10019   0.469   4.695  11.285  2.3466 -0.6961 -1.0006
  677TMC3    H110020   0.789   0.219  11.432 -1.4726  3.1125 -0.6072
  677TMC3    H210021   0.473   0.096  11.692  0.2374  0.6174 -0.7823
  677TMC3    C710022   0.706   0.189  11.696  0.2737  0.1111  0.2833
  677TMC3    C810023   0.356   4.667  11.512  0.0598 -0.7245 -0.0658
  677TMC3    O110024   0.664   0.149  11.805 -0.1283  0.2449 -0.4179
  677TMC3    O210025   0.261   4.696  11.439 -0.3358  0.1230  0.0792
  678MPD2     C10026   2.252   0.334   1.924 -0.3219 -0.2184 -0.1676
  678MPD2    C110027   2.293   0.227   1.847  0.5634 -0.0198 -0.0277
  678MPD2    C210028   2.202   0.129   1.804  0.1472  0.3481  0.9520
  678MPD2    C310029   2.067   0.138   1.834  0.5161 -0.4768  0.1154
  678MPD2    C410030   2.027   0.238   1.913  0.3669  0.1515 -0.1593
  678MPD2    C510031   2.113   0.340   1.950  0.6733  0.5966 -0.1354
  678MPD2     H10032   2.232   0.043   1.745  2.6611  0.8155  1.5398
  678MPD2    H110033   1.920   0.254   1.926  0.4408  1.5768 -1.3293
  678MPD2    H210034   2.317   0.413   1.961 -1.2302  0.1918  0.5339
  678MPD2    H310035   2.068   0.417   2.012  0.1111 -0.6711  1.0403
  678MPD2     N10036   1.979   0.043   1.783 -0.0252  0.6993 -0.0980
  678MPD2    H510037   2.024   4.706   1.712  0.7379  2.6942 -1.2111
  678MPD2    N110038   2.427   0.210   1.801  0.4056 -0.0764 -0.3353
  678MPD2    H710039   2.449   0.134   1.738  1.7082  0.2896 -0.3227
  679TMC3    C110040   2.794   0.058   1.709  0.1452 -0.2609 -0.0169
  679TMC3    C210041   2.675   0.100   1.756  0.4006  0.1812  0.6229
  679TMC3    C310042   2.652   0.237   1.772  0.0050  0.5636 -0.1622
  679TMC3    C410043   2.897   0.148   1.671  0.3257 -0.1547 -0.2766
  679TMC3    C510044   2.866   0.284   1.680  0.4573  0.9206 -0.0002
  679TMC3    C610045   2.747   0.325   1.724  0.2400  0.0716 -0.8784
  679TMC3     C10046   2.828   4.635   1.713 -0.2467  0.2116  0.0409
  679TMC3     O10047   2.942   4.604   1.682 -0.3018 -0.4828  0.6746
  679TMC3     H10048   2.596   0.037   1.796 -0.9065  1.6238  0.3250
  679TMC3    H110049   2.987   0.113   1.623 -1.0095 -1.3640 -1.8942
  679TMC3    H210050   2.720   0.430   1.727  0.8975  0.2304 -0.3415
  679TMC3    C710051   2.903   0.361   1.564  1.0582  0.0234  0.8102
  679TMC3    C810052   2.531   0.292   1.832  0.5707  1.2919 -0.0446
  679TMC3    O110053   2.812   0.414   1.504 -0.4752  0.4085  0.4505
  679TMC3    O210054   2.537   0.401   1.891 -0.3952  0.2539 -0.3831
  680MPD2     C10055   2.143   3.252  13.923 -0.1415  0.2902  0.4619
  680MPD2    C110056   2.179   3.140  13.999 -0.1471  0.0748  0.8275
  680MPD2    C210057   2.306   3.123  14.047 -0.1656  1.1582  0.2066
  680MPD2    C310058   2.405   3.218  14.014 -0.1326 -0.3173  0.1197
  680MPD2    C410059   2.371   3.319  13.923 -0.6130  0.7518 -0.1952
  680MPD2    C510060   2.244   3.333  13.881  0.0737  0.6127 -0.0591
  680MPD2     H10061   2.340   3.036  14.101  1.7233  2.4470  1.0792
  680MPD2    H110062   2.442   3.392  13.887 -0.2806 -0.0908 -1.2490
  680MPD2    H210063   2.044   3.273  13.885 -0.2983 -2.0823 -0.4459
  680MPD2    H310064   2.220   3.425  13.829  0.1469 -1.2022 -3.2388
  680MPD2     N10065   2.540   3.213  14.059 -0.6053  0.2083 -0.6615
  680MPD2    H510066   2.602   3.257  13.992  0.0698  1.5555  0.8497
  680MPD2    N110067   2.083   3.042  14.039 -0.2627  0.0400 -0.0725
  680MPD2    H710068   2.117   2.955  14.079  0.1738  0.0892 -0.3366
  681TMC3    C110069   1.883   2.916  14.073  0.2999 -0.2268  0.2758
  681TMC3    C210070   1.934   2.859  14.186  0.2478 -0.2786  0.7702
  681TMC3    C310071   1.883   2.735  14.210 -0.4078  0.2890 -0.1812
  681TMC3    C410072   1.810   2.848  13.982 -0.4158  0.7554  0.6320
  681TMC3    C510073   1.769   2.720  14.016 -0.0542 -1.2174  0.4796
  681TMC3    C610074   1.800   2.667  14.131 -1.3035  0.3828  0.5907
  681TMC3     C10075   1.946   3.040  14.023 -0.1914  0.0992 -0.2234
  681TMC3     O10076   1.875   3.115  13.958 -0.4979 -0.0201  0.4076
  681TMC3     H10077   1.991   2.917  14.258 -1.2715  2.2225 -0.0306
  681TMC3    H110078   1.782   2.904  13.894 -0.5912 -0.6987 -0.2263
  681TMC3    H210079   1.755   2.578  14.172 -2.9155  1.6514  1.5295
  681TMC3    C710080   1.768   2.618  13.914 -0.5481  0.3372  0.3701
  681TMC3    C810081   1.919   2.677  14.338  0.3305  0.7804 -0.0038
  681TMC3    O110082   1.750   2.504  13.954  0.3300  0.2149 -0.1037
  681TMC3    O210083   1.850   2.589  14.381 -0.4410  0.8657 -0.2065
  682MPD2     C10084   0.105   4.582  10.691 -0.2477 -0.0058  0.1055
  682MPD2    C110085   0.060   4.450  10.702 -0.0449 -0.1058  0.1469
  682MPD2    C210086   0.032   4.397  10.822  0.1754  0.3616  0.3787
  682MPD2    C310087   0.050   4.470  10.937  0.2448  0.2976 -0.0956
  682MPD2    C410088   0.093   4.605  10.922  0.1642 -0.3276  0.6944
  682MPD2    C510089   0.130   4.659  10.800  0.2099  0.3577 -0.2900
  682MPD2     H10090   4.712   4.297  10.833  0.1608  0.4975  1.6041
  682MPD2    H110091   0.114   4.661  11.012  0.2400  0.9621 -0.1288
  682MPD2    H210092   0.139   4.623  10.597 -0.7755  1.4117  0.5334
  682MPD2    H310093   0.169   0.040  10.793  0.7479  0.0603 -1.5038
  682MPD2     N10094   0.013   4.413  11.061  0.2303  0.1770  0.0546
  682MPD2    H510095   4.714   4.313  11.058 -3.4686  0.8988 -1.1809
  682MPD2    N110096   0.036   4.368  10.588  0.5574 -0.0165 -0.3293
  682MPD2    H710097   0.008   4.273  10.606  2.0869 -0.0972  1.5617
  683TMC3    C110098   0.009   4.295  11.511 -0.0874  0.5104  0.5369
  683TMC3    C210099   4.695   4.166  11.476 -0.4937  0.9754  0.9978
  683TMC3    C310100   4.657   4.149  11.347 -0.2328  0.5887  0.5370
  683TMC3    C410101   0.012   4.395  11.428  0.3280 -0.2475 -0.2370
  683TMC3    C510102   4.704   4.371  11.295  0.1140  0.1999 -0.0868
  683TMC3    C610103   4.649   4.249  11.259  0.5038 -0.5338 -0.2367
  683TMC3     C10104   0.052   4.327  11.640 -0.0885 -0.0586 -0.3870
  683TMC3     O10105   0.067   4.440  11.679 -0.7454  0.3453 -0.0921
  683TMC3     H10106   4.680   4.083  11.544  1.9490 -1.2903 -1.2005
  683TMC3    H110107   0.052   4.491  11.459 -1.3360  0.5473 -0.5019
  683TMC3    H210108   4.613   4.235  11.158  1.3456 -2.5056 -0.2631
  683TMC3    C710109   0.021   4.464  11.192 -0.4009  0.2571  0.1023
  683TMC3    C810110   4.622   4.013  11.293 -0.3793  0.2887  0.3926
  683TMC3    O110111   0.060   4.577  11.223 -0.0983  0.1185 -0.2659
  683TMC3    O210112   4.546   4.000  11.195 -0.4073 -0.1078 -0.3711
  684MPD2     C10113   2.937   3.824  16.314  0.8093  0.4718 -0.9452
  684MPD2    C110114   2.854   3.836  16.203  0.3542 -0.0823 -0.0926
  684MPD2    C210115   2.872   3.946  16.124  0.0307  0.0326  0.9428
  684MPD2    C310116   2.980   4.033  16.146  0.6538  0.1687 -0.1703
  684MPD2    C410117   3.061   4.017  16.257 -0.0183 -0.4527  0.0564
  684MPD2    C510118   3.037   3.911  16.342  0.0437 -0.2583 -0.4134
  684MPD2     H10119   2.813   3.951  16.033  1.7466  2.0407 -0.0538
  684MPD2    H110120   3.136   4.093  16.276 -1.4886  0.8846  0.4871
  684MPD2    H210121   2.929   3.743  16.387  1.5811 -0.7526 -2.2149
  684MPD2    H310122   3.098   3.902  16.430  0.6123 -1.0143 -0.8811
  684MPD2     N10123   3.012   4.141  16.057  0.0679 -0.3924  0.1589
  684MPD2    H510124   3.099   4.189  16.080 -0.5452  1.9063 -2.3882
  684MPD2    N110125   2.757   3.740  16.166 -0.2343 -0.6273  0.5428
  684MPD2    H710126   2.691   3.773  16.096 -0.4144 -0.6412  0.7076
  685TMC3    C110127   2.629   3.533  16.170 -0.1704 -0.9571  0.0332
  685TMC3    C210128   2.561   3.611  16.074 -0.5633 -0.3460 -0.5978
  685TMC3    C310129   2.557   3.566  15.941  0.2913 -0.2100  0.7457
  685TMC3    C410130   2.685   3.409  16.134  0.1552 -0.4744  0.0338
  685TMC3    C510131   2.664   3.359  16.011 -0.2570 -0.5086 -0.0178
  685TMC3    C610132   2.607   3.440  15.912  0.3847  1.1388 -0.9420
  685TMC3     C10133   2.736   3.616  16.236 -0.7097 -0.6466  0.4470
  685TMC3     O10134   2.814   3.557  16.312 -0.1015  0.6622 -0.3906
  685TMC3     H10135   2.516   3.703  16.112 -0.0239 -0.6947  0.9023
  685TMC3    H110136   2.725   3.345  16.212 -0.0351  0.4094  0.8643
  685TMC3    H210137   2.604   3.408  15.808 -1.4344  1.0949 -0.8709
  685TMC3    C710138   2.750   3.251  15.966  0.6798  0.0457  0.0718
  685TMC3    C810139   2.437   3.595  15.861 -0.0330 -0.0286 -0.0817
  685TMC3    O110140   2.717   3.188  15.863 -0.3008  0.0326 -0.3184
  685TMC3    O210141   2.403   3.518  15.771  0.1743  0.5981  0.5851
  686MPD2     C10142   4.289   3.035  15.452  0.2157 -0.5122 -0.5160
  686MPD2    C110143   4.280   3.000  15.584  0.0717 -0.1836  0.0218
  686MPD2    C210144   4.348   2.885  15.626 -0.0260  0.3778 -0.1478
  686MPD2    C310145   4.417   2.804  15.528 -0.3815  0.3124 -0.9035
  686MPD2    C410146   4.418   2.839  15.393  0.1945  0.4335 -0.5358
  686MPD2    C510147   4.354   2.957  15.361 -0.8275  0.3404 -0.3129
  686MPD2     H10148   4.367   2.858  15.729  0.4876 -0.5349 -0.4793
  686MPD2    H110149   4.464   2.775  15.318  1.8660  1.2102 -0.1866
  686MPD2    H210150   4.244   3.124  15.409  0.6750 -0.6773 -1.3390
  686MPD2    H310151   4.351   2.978  15.255 -3.9278 -0.7987 -0.4433
  686MPD2     N10152   4.488   2.680  15.559  0.1067 -0.0032 -0.5644
  686MPD2    H510153   4.559   2.649  15.494  1.7343  1.9153  0.2791
  686MPD2    N110154   4.188   3.065  15.665  0.1110 -0.5795 -0.1470
  686MPD2    H710155   4.120   3.125  15.621 -0.0616  0.5917  1.6987
  687TMC3    C110156   4.361   2.603  15.766 -0.7832 -1.0963  0.3465
  687TMC3    C210157   4.242   2.641  15.720  0.6813 -0.0788 -0.0469
  687TMC3    C310158   4.141   2.680  15.809 -0.2572  1.5530 -0.3384
  687TMC3    C410159   4.387   2.591  15.902  0.4200  0.7973  0.0616
  687TMC3    C510160   4.292   2.649  15.986  0.0046  0.0470  0.2603
  687TMC3    C610161   4.172   2.699  15.940 -0.0500  0.4021 -0.2831
  687TMC3     C10162   4.476   2.598  15.672 -0.4235  0.4112 -0.9250
  687TMC3     O10163   4.544   2.501  15.705 -0.1127 -0.3061  0.2447
  687TMC3     H10164   4.227   2.622  15.615 -1.0940 -1.9603  0.5546
  687TMC3    H110165   4.488   2.574  15.938 -0.5842 -1.4094  1.8787
  687TMC3    H210166   4.095   2.733  16.008  0.1340 -0.7611  0.4991
  687TMC3    C710167   4.298   2.647  16.128 -0.3612  0.1603  0.9528
  687TMC3    C810168   4.012   2.729  15.760  0.6521 -0.8619  0.8961
  687TMC3    O110169   4.377   2.565  16.177 -0.5535  0.3730  0.0760
  687TMC3    O210170   3.927   2.756  15.845  0.2424 -0.0369  0.1625
  688MPD2     C10171   3.568   2.333  17.591  0.1204 -0.5205 -0.8757
  688MPD2    C110172   3.574   2.194  17.596 -0.3668  0.1459 -0.3230
  688MPD2    C210173   3.654   2.117  17.514  0.0147 -0.0122 -0.0484
  688MPD2    C310174   3.720   2.180  17.411 -0.4208 -0.2779  0.0884
  688MPD2    C410175   3.705   2.314  17.397  0.1066 -0.2686 -0.6852
  688MPD2    C510176   3.636   2.394  17.482 -0.4563  0.3450  0.2004
  688MPD2     H10177   3.661   2.010  17.528 -0.8232 -0.5341 -3.5640
  688MPD2    H110178   3.749   2.366  17.312 -1.5347  3.0217  0.4666
  688MPD2    H210179   3.502   2.395  17.651  1.3353 -0.3437  0.2767
  688MPD2    H310180   3.614   2.500  17.469  0.2629  0.5014  0.2417
  688MPD2     N10181   3.786   2.110  17.303 -0.3742 -0.1923  0.3518
  688MPD2    H510182   3.820   2.177  17.234 -1.8151 -0.0531 -0.2350
  688MPD2    N110183   3.502   2.118   0.011  0.2162 -0.2791 -0.2033
  688MPD2    H710184   3.517   2.018   0.017 -1.9097 -0.6685 -1.1992
  689TMC3    C110185   3.363   2.077   0.202  0.6746 -1.0336 -0.7143
  689TMC3    C210186   3.375   2.124   0.332 -0.5654  0.2032 -0.7903
  689TMC3    C310187   3.360   2.040   0.438  0.2142 -0.0147  0.1043
  689TMC3    C410188   3.326   1.945   0.176  0.2973  1.0800  0.0538
  689TMC3    C510189   3.305   1.869   0.292 -0.7696 -0.0119 -0.1611
  689TMC3    C610190   3.322   1.913   0.425 -0.0145 -0.4041  0.6053
  689TMC3     C10191   3.405   2.166   0.094 -0.3557 -0.2802  0.0810
  689TMC3     O10192   3.354   2.276   0.096  0.2783  0.4972 -0.3114
  689TMC3     H10193   3.404   2.228   0.337 -0.0797  0.0501 -0.5090
  689TMC3    H110194   3.316   1.906   0.075  0.7627  1.7439 -0.2430
  689TMC3    H210195   3.299   1.847   0.508 -2.9609 -1.0799 -0.7379
  689TMC3    C710196   3.235   1.742   0.275 -0.1338 -0.3761 -0.0888
  689TMC3    C810197   3.411   2.078   0.572 -0.0339 -0.0170 -0.2282
  689TMC3    O110198   3.230   1.672   0.378 -0.0301 -0.1393 -0.3376
  689TMC3    O210199   3.381   2.003   0.662  0.6262 -0.7696 -0.0816
  690MPD2     C10200   1.055   4.316  16.073  0.4411 -0.2966 -0.9649
  690MPD2    C110201   1.011   4.273  15.952  0.0739 -1.0878  1.0573
  690MPD2    C210202   1.068   4.341  15.842 -0.3247 -0.2309  0.0449
  690MPD2    C310203   1.168   4.441  15.860 -0.4083 -0.3080 -0.3973
  690MPD2    C410204   1.203   4.473  15.988  0.1900 -0.2074 -0.3943
  690MPD2    C510205   1.143   4.411  16.092 -0.3310 -0.2373 -0.0748
  690MPD2     H10206   1.028   4.320  15.744  2.5979 -1.0005 -0.9472
  690MPD2    H110207   1.276   4.548  16.018  0.0788 -0.7153  1.1063
  690MPD2    H210208   1.019   4.287  16.170  0.1698 -0.0396 -0.9914
  690MPD2    H310209   1.175   4.432  16.193 -3.3114 -1.9764  1.2292
  690MPD2     N10210   1.217   4.498  15.739  0.8234 -0.4279  0.1904
  690MPD2    H510211   1.167   4.482  15.652 -0.7013 -2.9526  1.5486
  690MPD2    N110212   0.907   4.177  15.927 -0.6678 -0.1283  0.3208
  690MPD2    H710213   0.883   4.162  15.830  2.1179 -2.3798 -0.0108
  691TMC3    C110214   0.708   4.057  15.979 -0.0886  0.5188 -0.1353
  691TMC3    C210215   0.601   4.049  16.072 -0.4051  0.0967  0.0175
  691TMC3    C310216   0.482   4.003  16.026 -0.6366 -0.6310  0.7682
  691TMC3    C410217   0.684   4.022  15.846 -0.6416 -0.5532 -0.1075
  691TMC3    C510218   0.562   3.967  15.815 -0.6481  1.1925  0.5557
  691TMC3    C610219   0.457   3.965  15.899 -0.4040  0.1650  0.3174
  691TMC3     C10220   0.834   4.119  16.029 -0.0999  0.2428 -0.8588
  691TMC3     O10221   0.841   4.128  16.148 -0.2778 -0.5493 -0.3114
  691TMC3     H10222   0.610   4.101  16.167 -1.5683 -0.0969  0.2321
  691TMC3    H110223   0.768   4.033  15.779  0.5747 -2.7508  1.0272
  691TMC3    H210224   0.359   3.932  15.865 -1.6144 -0.3751  4.1995
  691TMC3    C710225   0.564   3.883  15.695 -0.2319  0.1463  0.0396
  691TMC3    C810226   0.364   4.005  16.107  0.8313  0.5991  0.1609
  691TMC3    O110227   0.672   3.890  15.636 -0.3040 -0.2766 -0.5223
  691TMC3    O210228   0.375   3.948  16.216  0.0717 -0.0860  0.1449
  692TMC3    C110229   2.413   0.562  16.218  0.2433 -0.6487  0.3308
  692TMC3    C210230   2.531   0.575  16.274  0.7125 -0.3950 -0.2546
  692TMC3    C310231   2.637   0.513  16.210 -0.4003 -0.1223 -0.4903
  692TMC3    C410232   2.394   0.507  16.096 -0.1850  0.3408 -0.1874
  692TMC3    C510233   2.499   0.453  16.025 -0.2056  0.1263  0.8110
  692TMC3    C610234   2.615   0.439  16.094  0.1032  0.3542 -1.3288
  692TMC3     C10235   2.295   0.630  16.281 -0.1849 -0.9807  0.0072
  692TMC3     O10236   2.179   0.604  16.252 -0.4223  0.7154 -0.3510
  692TMC3     H10237   2.518   0.592  16.380  1.0979 -1.3049 -0.0600
  692TMC3    H110238   2.297   0.510  16.049 -0.5729  2.5619  0.7547
  692TMC3    H210239   2.703   0.413  16.035  1.1723  3.0517 -0.9005
  692TMC3    C710240   2.470   0.363  15.915  0.1160  0.1157  0.0784
  692TMC3    C810241   2.731   0.455  16.303  0.2682  0.4219  0.1434
  692TMC3    O110242   2.363   0.372  15.855  0.0343  0.2882 -0.1104
  692TMC3    O210243   2.777   0.345  16.269  0.3927  0.3513  0.3007
  693MPD2     C10244   1.961   4.016  11.117 -0.3348 -0.0569 -1.3179
  693MPD2    C110245   1.951   3.916  11.024  0.2799  0.3124 -0.2501
  693MPD2    C210246   2.061   3.843  10.983 -0.3809 -0.5222 -0.2032
  693MPD2    C310247   2.180   3.864  11.053 -0.3798 -0.1810 -0.1481
  693MPD2    C410248   2.191   3.958  11.155 -0.8792 -0.3350 -0.0973
  693MPD2    C510249   2.081   4.030  11.190  0.2074  0.3081 -0.5715
  693MPD2     H10250   2.036   3.771  10.905  0.7743  1.1260 -2.1009
  693MPD2    H110251   2.282   3.982  11.210 -0.5986 -1.6900  0.0374
  693MPD2    H210252   1.874   4.067  11.157  0.5612  0.7474 -0.4074
  693MPD2    H310253   2.080   4.094  11.278 -0.4988 -0.0549 -0.3146
  693MPD2     N10254   2.298   3.788  11.024 -0.1724  0.7736  0.3352
  693MPD2    H510255   2.384   3.805  11.076  0.8014 -0.5626 -0.8381
  693MPD2    N110256   1.818   3.863  11.009  0.2644  0.7887 -0.7529
  693MPD2    H710257   1.747   3.911  11.063 -0.6959  0.1789 -1.4716
  694TMC3    C110258   1.651   3.708  10.971 -0.6853  0.5938  0.1515
  694TMC3    C210259   1.602   3.611  10.888 -0.3536  0.1218 -0.0413
  694TMC3    C310260   1.486   3.539  10.932  0.0551 -0.1390 -0.7770
  694TMC3    C410261   1.605   3.735  11.093  0.4004  0.6247 -1.0004
  694TMC3    C510262   1.495   3.652  11.135  0.2613  0.5359  0.6183
  694TMC3    C610263   1.425   3.564  11.050  0.1418 -0.5437  0.0134
  694TMC3     C10264   1.782   3.756  10.936  0.2284 -0.2786 -0.7160
  694TMC3     O10265   1.846   3.686  10.857  0.4358  0.9491 -0.2928
  694TMC3     H10266   1.645   3.602  10.789 -0.1857 -4.0812  0.3996
  694TMC3    H110267   1.662   3.788  11.167  0.3168 -0.7268  0.0346
  694TMC3    H210268   1.360   3.484  11.084 -0.3095  0.2062  0.9275
  694TMC3    C710269   1.454   3.681  11.275  0.1504 -0.4725  0.9187
  694TMC3    C810270   1.440   3.420  10.867  0.0797 -0.0818  0.5209
  694TMC3    O110271   1.479   3.787  11.328  0.4735 -0.1581 -0.0428
  694TMC3    O210272   1.316   3.409  10.866 -0.0164  0.4117 -0.1196
  695MPD2     C10273   2.970   0.155  13.269  0.1031 -0.4459 -1.1613
  695MPD2    C110274   2.882   0.143  13.375 -0.8603 -0.3079  0.2886
  695MPD2    C210275   2.753   0.197  13.360 -0.2919 -0.2424 -0.0860
  695MPD2    C310276   2.705   0.248  13.238 -0.7536 -0.2393 -0.0635
  695MPD2    C410277   2.796   0.262  13.139 -0.5605 -0.0956 -0.4980
  695MPD2    C510278   2.919   0.208  13.149 -0.2273 -0.3249 -0.7839
  695MPD2     H10279   2.693   0.203  13.451  2.1056  2.8844  1.2951
  695MPD2    H110280   2.774   0.288  13.036  2.0662  0.3004 -0.9634
  695MPD2    H210281   3.076   0.139  13.285 -0.1012  0.6607  1.3923
  695MPD2    H310282   2.975   0.217  13.056 -1.0690  1.0580 -1.1579
  695MPD2     N10283   2.574   0.294  13.234 -0.5379 -0.2741 -0.4534
  695MPD2    H510284   2.528   0.300  13.325  0.4924  0.5711  0.0176
  695MPD2    N110285   2.908   0.091  13.501  0.3595 -0.4050 -0.1249
  695MPD2    H710286   2.830   0.078  13.565  0.6751 -0.7943  0.1764
  696TMC3    C110287   2.393   0.442  13.166  0.7299 -0.0360  0.8456
  696TMC3    C210288   2.320   0.383  13.265 -0.0217 -0.0091 -0.2324
  696TMC3    C310289   2.202   0.439  13.300  0.3137 -0.0046  0.1760
  696TMC3    C410290   2.369   0.563  13.115  0.4415 -0.2360 -0.5946
  696TMC3    C510291   2.261   0.629  13.174 -0.6063 -1.1222 -0.4336
  696TMC3    C610292   2.173   0.565  13.254  0.3917  0.5130  0.6902
  696TMC3     C10293   2.524   0.377  13.134 -0.2528  0.3166 -0.4361
  696TMC3     O10294   2.573   0.411  13.028 -0.0586  0.4777  0.0391
  696TMC3     H10295   2.340   0.285  13.306 -0.4429 -0.3910 -0.9418
  696TMC3    H110296   2.443   0.616  13.056  1.6868  0.9740  2.0321
  696TMC3    H210297   2.087   0.619  13.293  0.8080  0.8442  1.1441
  696TMC3    C710298   2.240   0.768  13.136  1.2776 -0.5305 -0.1323
  696TMC3    C810299   2.161   0.411  13.438  0.3821 -0.0514  0.5577
  696TMC3    O110300   2.277   0.826  13.035 -0.1963 -0.5751 -0.7931
  696TMC3    O210301   2.249   0.363  13.508 -0.4363  0.3914 -0.3544
  697MPD2     C10302   1.567   2.030  15.911  0.2862  0.0760 -0.0811
  697MPD2    C110303   1.699   2.003  15.869  0.1793  0.4514 -0.2288
  697MPD2    C210304   1.772   2.109  15.815 -0.0805 -0.3060  0.6437
  697MPD2    C310305   1.743   2.240  15.824 -0.4359 -0.1704  0.5995
  697MPD2    C410306   1.622   2.267  15.895 -0.0693  0.3926  0.4155
  697MPD2    C510307   1.542   2.162  15.928  0.2074 -0.6314 -0.1047
  697MPD2     H10308   1.859   2.092  15.753  0.3147  0.6535  0.9240
  697MPD2    H110309   1.580   2.366  15.907 -1.8880 -0.7882  4.0236
  697MPD2    H210310   1.497   1.957  15.950 -0.8356  2.4092  2.1674
  697MPD2    H310311   1.443   2.192  15.960  0.0909 -0.7290 -0.3726
  697MPD2     N10312   1.823   2.342  15.777  0.6434  0.1606  0.3450
  697MPD2    H510313   1.909   2.317  15.728  0.1732 -1.2310  0.2580
  697MPD2    N110314   1.760   1.876  15.868  0.4567  0.4713 -1.6246
  697MPD2    H710315   1.861   1.868  15.871  0.4583  2.1051  1.6871
  698TMC3    C110316   1.923   2.549  15.785  0.3895  0.6054  0.2869
  698TMC3    C210317   1.897   2.675  15.741  0.5023  0.1604  0.1554
  698TMC3    C310318   1.996   2.718  15.662 -0.7762 -0.7735  0.9190
  698TMC3    C410319   2.040   2.485  15.766 -0.1634 -0.2416 -0.2551
  698TMC3    C510320   2.136   2.544  15.698 -0.5532 -0.5184 -0.4904
  698TMC3    C610321   2.117   2.662  15.649  0.0155  0.0404 -0.6978
  698TMC3     C10322   1.801   2.476  15.803 -0.2033 -0.5819 -0.0687
  698TMC3     O10323   1.694   2.535  15.833 -0.0272  0.4309 -0.0631
  698TMC3     H10324   1.803   2.727  15.756  0.1166 -0.7730  1.0316
  698TMC3    H110325   2.061   2.381  15.792 -1.6341 -0.6572 -0.7315
  698TMC3    H210326   2.193   2.685  15.575 -0.2893  0.3814 -0.9069
  698TMC3    C710327   2.197   2.454  15.596 -0.5363 -1.0238  0.3668
  698TMC3    C810328   1.972   2.827  15.562  0.3365 -0.3029  0.8142
  698TMC3    O110329   2.249   2.349  15.634  0.3166 -0.5686  0.1529
  698TMC3    O210330   1.855   2.854  15.533 -0.1906 -0.2142 -0.7214
  699TMC3    C110331   2.320   0.515  12.748 -0.0027  0.2392 -0.8225
  699TMC3    C210332   2.342   0.388  12.804  0.6674  0.0565  0.4756
  699TMC3    C310333   2.238   0.334  12.875  0.4216  0.4064  1.3499
  699TMC3    C410334   2.197   0.581  12.762 -0.4644 -0.0388 -0.1538
  699TMC3    C510335   2.102   0.517  12.836 -0.1014  0.0676 -0.7169
  699TMC3    C610336   2.122   0.393  12.897  0.4282  0.0378  0.2725
  699TMC3     C10337   2.423   0.590  12.686  0.6908 -0.4099 -0.2662
  699TMC3     O10338   2.421   0.710  12.683  0.5944 -0.4731 -0.3130
  699TMC3     H10339   2.444   0.351  12.811 -0.0742 -1.8928  1.1739
  699TMC3    H110340   2.187   0.685  12.734  1.0592 -0.0405 -0.7173
  699TMC3    H210341   2.049   0.345  12.962  1.2240  0.0086  1.1313
  699TMC3    C710342   2.006   0.606  12.904 -0.7651 -0.3719  0.0191
  699TMC3    C810343   2.268   0.205  12.944  0.3440 -0.7408 -0.2838
  699TMC3    O110344   1.977   0.578  13.021 -0.0489 -0.0116  0.5354
  699TMC3    O210345   2.181   0.157  13.014  0.1813  0.6498  0.3534
  700TMC3    C110346   1.475   2.113  17.225 -0.0661 -0.4497 -0.3906
  700TMC3    C210347   1.594   2.067  17.276 -0.3047 -0.3950 -0.4627
  700TMC3    C310348   1.648   2.128  17.386  0.1141  0.1267  0.2148
  700TMC3    C410349   1.408   2.213  17.287  0.8268 -0.4538 -0.4126
  700TMC3    C510350   1.461   2.266  17.405 -0.3564 -0.4220  0.2992
  700TMC3    C610351   1.588   2.227  17.455 -0.5541 -0.3645 -0.0055
  700TMC3     C10352   1.452   2.082  17.089  0.7425 -0.0328  0.6633
  700TMC3     O10353   1.516   1.994  17.039 -0.0738  0.5801 -0.4437
  700TMC3     H10354   1.654   1.993  17.225 -1.3817 -1.8560  0.3791
  700TMC3    H110355   1.309   2.243  17.255  0.4202 -0.5563  0.7415
  700TMC3    H210356   1.637   2.271  17.541  1.3632 -2.1758 -0.1809
  700TMC3    C710357   1.424   2.409  17.427  0.4077 -0.2538 -0.3370
  700TMC3    C810358   1.795   2.134  17.371  0.5810 -0.8440  0.4319
  700TMC3    O110359   1.365   2.453  17.328 -0.1142 -0.0264 -0.0372
  700TMC3    O210360   1.842   2.088  17.269 -0.2804 -0.2552 -0.1903
  701TMC3    C110361   1.112   1.284  15.662  0.3510 -0.1436  0.2987
  701TMC3    C210362   1.063   1.356  15.559  0.8212  0.4618 -0.4396
  701TMC3    C310363   1.054   1.492  15.575 -0.0366  0.0721  0.5672
  701TMC3    C410364   1.148   1.336  15.785  0.1721  0.2608 -0.6843
  701TMC3    C510365   1.146   1.476  15.790  0.4116  0.0514 -0.5902
  701TMC3    C610366   1.097   1.553  15.687  0.0991  0.7526  0.1450
  701TMC3     C10367   1.121   1.146  15.653 -0.4532 -0.3494 -0.7516
  701TMC3     O10368   1.093   1.093  15.761 -0.6490 -0.4844  0.0245
  701TMC3     H10369   1.058   1.315  15.459  0.5616 -1.8743  0.5331
  701TMC3    H110370   1.190   1.274  15.863 -1.1498  1.8639  1.2958
  701TMC3    H210371   1.090   1.661  15.689  0.0206  0.7690 -0.9863
  701TMC3    C710372   1.192   1.542  15.908 -0.4132 -0.3033 -1.0418
  701TMC3    C810373   0.999   1.573  15.470 -0.6489  0.1274  0.4718
  701TMC3    O110374   1.171   1.662  15.914  0.0915 -0.5705 -0.5830
  701TMC3    O210375   1.031   1.695  15.475 -0.3805 -0.3613  0.2039
  702MPD2     C10376   1.205   3.749  10.739 -0.6068 -0.2661 -0.4223
  702MPD2    C110377   1.131   3.857  10.694 -0.5631  0.5999  0.3389
  702MPD2    C210378   1.186   3.956  10.607 -0.0647  0.2630  0.5798
  702MPD2    C310379   1.311   3.943  10.558 -0.1698  0.2210 -0.9691
  702MPD2    C410380   1.385   3.839  10.609  0.6308 -0.3812 -0.4377
  702MPD2    C510381   1.335   3.744  10.698  0.6687  0.9044  0.5517
  702MPD2     H10382   1.132   4.044  10.575  0.1776 -0.8950 -3.0454
  702MPD2    H110383   1.492   3.832  10.594  0.7267  0.0173  0.0647
  702MPD2    H210384   1.168   3.670  10.804  1.7628  0.5744  1.9745
  702MPD2    H310385   1.410   3.671  10.725  1.9143  1.0277 -2.5850
  702MPD2     N10386   1.354   4.050  10.486 -0.7500 -0.3000 -0.1695
  702MPD2    H510387   1.279   4.112  10.457 -0.5301 -0.5368 -1.2625
  702MPD2    N110388   0.996   3.869  10.735  0.5126  0.3202 -0.3967
  702MPD2    H710389   0.960   3.961  10.710  0.0835 -0.1700 -1.6049
  703TMC3    C110390   1.502   4.191  10.373 -0.2408  0.0577 -0.1739
  703TMC3    C210391   1.386   4.251  10.325  0.8874 -0.3715 -0.7629
  703TMC3    C310392   1.401   4.382  10.293 -0.4916 -0.6607 -0.7513
  703TMC3    C410393   1.626   4.243  10.357 -0.1200 -0.0282  0.5322
  703TMC3    C510394   1.630   4.377  10.317  0.7142  0.3593 -0.0689
  703TMC3    C610395   1.520   4.453  10.290  0.3223 -0.0089  0.3483
  703TMC3     C10396   1.488   4.072  10.456  0.3193 -0.1912  0.3269
  703TMC3     O10397   1.587   4.008  10.480 -0.5056  0.0619  0.6064
  703TMC3     H10398   1.283   4.215  10.320  0.7324 -0.1334  0.5422
  703TMC3    H110399   1.710   4.190  10.400 -0.0536 -0.3114  0.0498
  703TMC3    H210400   1.522   4.559  10.267  1.9667 -0.0612  0.2541
  703TMC3    C710401   1.736   4.464  10.377 -0.3087  0.8077  0.7944
  703TMC3    C810402   1.292   4.454  10.245  0.4803  0.1508 -0.8189
  703TMC3    O110403   1.703   4.578  10.391  0.5119  0.3709 -0.4776
  703TMC3    O210404   1.321   4.543  10.171 -0.2739  0.8035 -0.1955
  704TMC3    C110405   3.020   2.382  12.070 -0.6447  0.3424 -0.1527
  704TMC3    C210406   3.119   2.428  12.151 -0.0042  0.0362  0.2655
  704TMC3    C310407   3.128   2.368  12.276 -0.5164 -0.6597 -0.0731
  704TMC3    C410408   2.925   2.292  12.105  0.1304 -0.0626 -0.6099
  704TMC3    C510409   2.941   2.229  12.221 -0.1487  0.8220  0.4244
  704TMC3    C610410   3.040   2.270  12.311 -0.4142 -0.5113  0.4592
  704TMC3     C10411   3.015   2.412  11.928 -0.4944  0.3318  0.1408
  704TMC3     O10412   2.908   2.404  11.867 -0.2259  0.4853  0.1490
  704TMC3     H10413   3.196   2.498  12.123  1.8068 -1.6337  1.1131
  704TMC3    H110414   2.844   2.265  12.039 -0.2146  1.1558 -0.6832
  704TMC3    H210415   3.053   2.216  12.404 -1.8325  1.9879  2.0979
  704TMC3    C710416   2.901   2.087  12.221 -0.2210 -0.3638 -0.4124
  704TMC3    C810417   3.259   2.360  12.340 -0.3487 -0.6075  0.6834
  704TMC3    O110418   2.930   2.031  12.115 -0.2086  0.0414  0.3781
  704TMC3    O210419   3.348   2.422  12.278 -0.8584  0.0379 -0.0553
  705MPD2     C10420   2.750   4.411  16.204  0.2152 -0.3572  0.0931
  705MPD2    C110421   2.767   4.524  16.285  0.1812 -0.4412  0.6717
  705MPD2    C210422   2.685   4.542  16.394  0.1396 -0.0300  0.1482
  705MPD2    C310423   2.588   4.451  16.421  0.5861 -0.0827 -0.0073
  705MPD2    C410424   2.572   4.335  16.345  0.6410  0.7697 -0.7015
  705MPD2    C510425   2.662   4.313  16.246 -0.3452  0.3293 -0.0196
  705MPD2     H10426   2.696   4.632  16.452  0.3253  0.7555 -1.0958
  705MPD2    H110427   2.500   4.257  16.364 -0.0529  1.8391  1.1298
  705MPD2    H210428   2.813   4.378  16.123 -0.7008  0.5173 -0.9643
  705MPD2    H310429   2.653   4.232  16.174 -3.2692  0.0658  0.6459
  705MPD2     N10430   2.493   4.471  16.533 -0.7083  0.4123 -0.2944
  705MPD2    H510431   2.410   4.413  16.525 -0.3756 -0.6010  3.6779
  705MPD2    N110432   2.861   4.625  16.260 -0.4299 -0.1453 -0.1827
  705MPD2    H710433   2.865   4.694  16.334  0.8350 -1.7734  1.2658
  706TMC3    C110434   3.202   0.116  15.994  0.3589  0.4627 -0.1889
  706TMC3    C210435   3.220   0.220  16.087  0.9963 -0.5717 -0.8262
  706TMC3    C310436   3.154   0.220  16.207  0.1005 -0.1372 -0.4512
  706TMC3    C410437   3.115   0.012  16.021 -0.0821 -0.1667 -1.0164
  706TMC3    C510438   3.044   0.017  16.137  0.0480 -0.4621  0.2921
  706TMC3    C610439   3.057   0.119  16.232  0.2138  0.1107  0.0497
  706TMC3     C10440   3.295   0.124  15.891 -0.4925 -0.2238 -0.3815
  706TMC3     O10441   3.409   0.158  15.919 -0.3605  0.5375  0.5396
  706TMC3     H10442   3.288   0.302  16.070  1.3384 -0.5615  0.6397
  706TMC3    H110443   3.107   4.652  15.948 -2.6927 -1.8216  1.0818
  706TMC3    H210444   3.004   0.123  16.326 -0.8717 -4.3690 -0.3662
  706TMC3    C710445   2.963   4.615  16.172  0.4304  0.0837  0.6147
  706TMC3    C810446   3.102   0.354  16.236 -0.2824 -0.2622  0.3810
  706TMC3    O110447   2.982   4.528  16.089 -0.6518 -0.1040 -0.4500
  706TMC3    O210448   3.050   0.409  16.141  0.4399  0.1979  0.9849
  707TMC3    C110449   1.243   4.168   2.330  0.1492  0.6186 -0.3638
  707TMC3    C210450   1.324   4.055   2.342  0.7057 -0.3943  0.6745
  707TMC3    C310451   1.368   4.005   2.461 -0.3720 -0.7563  0.0364
  707TMC3    C410452   1.212   4.236   2.439 -0.2719 -0.1369 -0.7033
  707TMC3    C510453   1.251   4.181   2.557 -0.0315  0.0192 -0.7797
  707TMC3    C610454   1.338   4.077   2.573 -0.1719  0.5704 -0.0312
  707TMC3     C10455   1.177   4.193   2.209 -0.3554  0.2633 -0.0905
  707TMC3     O10456   1.063   4.235   2.212 -0.5083 -0.1333 -0.1546
  707TMC3     H10457   1.355   3.994   2.259  0.7251 -0.7215  0.9236
  707TMC3    H110458   1.142   4.319   2.433  0.5932  0.6083 -0.5458
  707TMC3    H210459   1.356   4.033   2.670  1.8308  3.3596  0.8576
  707TMC3    C710460   1.214   4.246   2.674  0.1252 -0.3918  0.0128
  707TMC3    C810461   1.419   3.868   2.481 -0.6032  0.4938 -1.0850
  707TMC3    O110462   1.120   4.321   2.658  0.1838  0.2411  0.2478
  707TMC3    O210463   1.396   3.819   2.590 -0.4339 -0.4675  0.0019
  708MPD2     C10464   1.052   4.323  14.143 -0.5412  0.4305  0.1141
  708MPD2    C110465   1.042   4.191  14.104 -0.1594 -0.0887  0.0763
  708MPD2    C210466   1.161   4.122  14.089 -0.3639  0.2050 -0.3988
  708MPD2    C310467   1.285   4.177  14.122 -0.0293  0.1985  0.2158
  708MPD2    C410468   1.286   4.302  14.178 -0.1282  0.0689 -0.9892
  708MPD2    C510469   1.169   4.373  14.188 -0.7112  0.2437  0.0549
  708MPD2     H10470   1.158   4.018  14.059 -0.0578  0.1518 -0.2425
  708MPD2    H110471   1.377   4.354  14.207 -1.9607  2.1705  0.9627
  708MPD2    H210472   0.963   4.385  14.148 -0.5978  0.4781 -1.6257
  708MPD2    H310473   1.175   4.478  14.214 -0.6562 -0.0074  1.0568
  708MPD2     N10474   1.409   4.105  14.120  0.3170 -1.0663 -0.0298
  708MPD2    H510475   1.489   4.155  14.157  0.2364  0.3325 -1.7947
  708MPD2    N110476   0.911   4.137  14.089  0.5057  0.1339 -0.0790
  708MPD2    H710477   0.836   4.204  14.103 -0.5647 -0.8215 -1.2257
  709TMC3    C110478   0.732   3.985  14.038  0.4699  0.4480 -0.2091
  709TMC3    C210479   0.716   3.865  13.965 -0.2941 -0.1037 -0.0001
  709TMC3    C310480   0.651   3.764  14.022  0.4225 -0.4279  1.0525
  709TMC3    C410481   0.689   4.000  14.165  0.0225 -0.7720 -0.1106
  709TMC3    C510482   0.625   3.891  14.223 -0.5412  0.3360 -0.0369
  709TMC3    C610483   0.609   3.773  14.157 -0.1106 -0.0474 -0.2470
  709TMC3     C10484   0.875   4.015  14.038 -0.3931  0.1684 -0.1337
  709TMC3     O10485   0.950   3.929  13.993 -0.2015  0.3794 -0.0524
  709TMC3     H10486   0.760   3.860  13.866  1.1204 -1.6729  0.7152
  709TMC3    H110487   0.710   4.087  14.227 -2.2113  1.6385 -2.7322
  709TMC3    H210488   0.568   3.688  14.210 -0.1278  1.0146  1.4452
  709TMC3    C710489   0.678   3.882  14.358  0.4633 -0.1387  0.0597
  709TMC3    C810490   0.612   3.638  13.951  0.5114  0.8702  0.3169
  709TMC3    O110491   0.661   3.981  14.428  0.1126  0.6033 -0.2735
  709TMC3    O210492   0.561   3.546  14.012  0.3519 -0.1830 -0.0966
  710TMC3    C110493   2.656   0.470   0.741 -1.0861  0.3034 -0.1382
  710TMC3    C210494   2.697   0.381   0.651 -0.1256  0.2216 -0.0174
  710TMC3    C310495   2.786   0.286   0.701 -0.0133 -0.1753 -0.0448
  710TMC3    C410496   2.711   0.487   0.863 -0.3434 -0.2153 -0.1670
  710TMC3    C510497   2.817   0.409   0.896 -0.9451 -0.1854  0.3823
  710TMC3    C610498   2.849   0.298   0.828  0.1880 -0.2302  0.4682
  710TMC3     C10499   2.555   0.554   0.689 -0.1668 -0.6944  0.1265
  710TMC3     O10500   2.515   0.528   0.576 -0.9017  0.3686  0.8129
  710TMC3     H10501   2.636   0.345   0.569  2.5143 -0.5297 -1.6846
  710TMC3    H110502   2.695   0.576   0.922 -0.3240  0.3464 -1.0203
  710TMC3    H210503   2.914   0.222   0.871 -0.6946 -1.5333 -0.4851
  710TMC3    C710504   2.874   0.418   1.029 -0.0384 -0.0629 -0.1621
  710TMC3    C810505   2.784   0.158   0.629  0.1129 -0.3038 -0.4270
  710TMC3    O110506   2.800   0.465   1.113 -0.0756  0.6506  0.6836
  710TMC3    O210507   2.718   0.151   0.525  0.7867  0.3238  0.4961
  711TMC3    C110508   1.850   1.209  15.347 -0.2451  0.0751 -0.2293
  711TMC3    C210509   1.859   1.196  15.483 -0.0436  0.3584 -0.2806
  711TMC3    C310510   1.984   1.155  15.533  0.6756  0.1873 -0.1413
  711TMC3    C410511   1.955   1.177  15.266 -0.8425  0.4797  0.3818
  711TMC3    C510512   2.076   1.128  15.318  0.2244 -0.5650  0.1358
  711TMC3    C610513   2.085   1.111  15.455  0.2367  0.0485  0.3302
  711TMC3     C10514   1.726   1.218  15.280  0.0401 -0.2453 -0.2516
  711TMC3     O10515   1.716   1.168  15.170  0.4927 -0.1153 -0.0820
  711TMC3     H10516   1.772   1.194  15.548  0.8538  0.1363  0.9027
  711TMC3    H110517   1.944   1.182  15.158 -0.7939  0.0649  0.3542
  711TMC3    H210518   2.173   1.064  15.500 -0.2215 -2.1447 -1.0882
  711TMC3    C710519   2.169   1.053  15.232  0.2075  0.2012  0.3729
  711TMC3    C810520   1.994   1.105  15.673 -0.5373 -0.8237  0.1648
  711TMC3    O110521   2.253   0.986  15.293 -0.7359 -0.3681 -0.7841
  711TMC3    O210522   1.893   1.059  15.721 -0.2023  0.1382  0.2131
  712MPD2     C10523   2.876   2.065  13.511  0.4419  0.2014  0.0519
  712MPD2    C110524   2.760   2.134  13.542 -0.6854  0.2906 -0.3184
  712MPD2    C210525   2.771   2.234  13.634  0.1484 -0.7889 -0.1803
  712MPD2    C310526   2.890   2.275  13.696  0.0613 -0.6441 -0.9654
  712MPD2    C410527   2.996   2.199  13.670 -0.2941  0.3181 -0.2154
  712MPD2    C510528   2.990   2.095  13.577  0.3286 -0.0152  0.0160
  712MPD2     H10529   2.682   2.292  13.655 -0.8276 -2.2406 -0.3313
  712MPD2    H110530   3.087   2.210  13.727  0.7948  0.7059 -2.0211
  712MPD2    H210531   2.884   1.978  13.447  2.5745 -0.0559  0.6649
  712MPD2    H310532   3.077   2.032  13.562  2.1626  2.0057  2.0626
  712MPD2     N10533   2.917   2.384  13.786  0.0858 -0.1436  0.0428
  712MPD2    H510534   3.014   2.390  13.816  0.4297 -0.3339 -1.0433
  712MPD2    N110535   2.630   2.104  13.499  0.1253 -0.4451  0.2903
  712MPD2    H710536   2.565   2.181  13.512  1.0557  0.2446  0.8505
  713TMC3    C110537   2.896   2.588  13.893 -1.0218 -0.0633 -0.2031
  713TMC3    C210538   3.031   2.597  13.900 -0.0931 -1.4159 -0.0821
  713TMC3    C310539   3.095   2.695  13.965  0.4545  0.3597 -0.5604
  713TMC3    C410540   2.823   2.695  13.933 -0.2497  0.7004  1.0531
  713TMC3    C510541   2.896   2.809  13.974 -0.5093 -0.0824  0.4450
  713TMC3    C610542   3.026   2.802  14.006  0.6488  0.0746 -0.0814
  713TMC3     C10543   2.831   2.481  13.825 -0.3416  0.4307  0.3682
  713TMC3     O10544   2.711   2.494  13.802 -0.2595 -0.5181 -0.0980
  713TMC3     H10545   3.101   2.532  13.849  3.3371  2.2382 -0.0271
  713TMC3    H110546   2.716   2.691  13.913 -0.2216  1.9990  0.6590
  713TMC3    H210547   3.071   2.885  14.058 -0.6808 -0.3574  1.7969
  713TMC3    C710548   2.867   2.920  13.890  0.1346 -0.3044 -0.6688
  713TMC3    C810549   3.238   2.715  13.940 -0.4887  0.5246  0.0144
  713TMC3    O110550   2.965   2.989  13.863  0.1531  0.5154 -0.2853
  713TMC3    O210551   3.279   2.829  13.950 -0.5721 -0.0841 -0.1951
  714MPD2     C10552   0.793   0.662   1.814  0.5472  0.1377  0.1444
  714MPD2    C110553   0.870   0.622   1.712 -0.0427 -0.2637 -0.0855
  714MPD2    C210554   0.819   0.642   1.585  0.4783 -0.7659  0.4328
  714MPD2    C310555   0.692   0.679   1.564 -0.3342  0.1906  0.2431
  714MPD2    C410556   0.610   0.692   1.671  0.1841  0.1354  0.0005
  714MPD2    C510557   0.661   0.689   1.802  0.2037 -0.3590 -0.2236
  714MPD2     H10558   0.878   0.631   1.494  1.5825 -1.5999  1.2549
  714MPD2    H110559   0.506   0.716   1.656  0.7980  1.8921 -1.5253
  714MPD2    H210560   0.835   0.643   1.912  0.3866  1.5802  0.4831
  714MPD2    H310561   0.594   0.700   1.886  1.9930  0.0994  1.1395
  714MPD2     N10562   0.652   0.703   1.429  0.2001  0.4978 -0.4781
  714MPD2    H510563   0.722   0.689   1.357  0.6102 -1.7732  0.3919
  714MPD2    N110564   1.003   0.581   1.738  0.3630 -0.9587 -0.5427
  714MPD2    H710565   1.044   0.589   1.830  0.4994 -0.1166 -0.6719
  715TMC3    C110566   1.228   0.524   1.680 -0.1594  0.2206 -0.3627
  715TMC3    C210567   1.303   0.450   1.598  0.2615  0.3385  0.5837
  715TMC3    C310568   1.439   0.458   1.621 -0.8393  0.0598  0.2582
  715TMC3    C410569   1.272   0.606   1.777 -0.3573 -0.5223  0.6287
  715TMC3    C510570   1.406   0.599   1.800 -0.7890 -0.1514  0.4162
  715TMC3    C610571   1.492   0.530   1.722  0.3143 -0.4409  0.0550
  715TMC3     C10572   1.089   0.539   1.637 -0.6719  0.1680 -0.3239
  715TMC3     O10573   1.064   0.493   1.527  0.1289  0.0198  0.0280
  715TMC3     H10574   1.263   0.384   1.521 -1.4285  0.8611  1.0200
  715TMC3    H110575   1.203   0.665   1.837 -1.0783 -0.1214 -0.5965
  715TMC3    H210576   1.597   0.542   1.745 -0.3896 -0.3867  3.2518
  715TMC3    C710577   1.462   0.680   1.905 -0.4716  0.9176  0.3109
  715TMC3    C810578   1.524   0.391   1.524 -0.1662 -0.9909 -0.2402
  715TMC3    O110579   1.573   0.726   1.895 -0.3577 -0.7837  0.2694
  715TMC3    O210580   1.488   0.403   1.410  0.1631  0.3519 -0.4438
  716MPD2     C10581   1.192   3.764   9.898 -0.3807 -0.6812 -0.0551
  716MPD2    C110582   1.084   3.781   9.815  0.0135  0.3875  0.4451
  716MPD2    C210583   1.058   3.677   9.729 -0.1532 -0.6782 -0.2512
  716MPD2    C310584   1.114   3.548   9.737 -0.2389  0.1281  0.3190
  716MPD2    C410585   1.219   3.539   9.826 -0.0202 -0.4846  0.2022
  716MPD2    C510586   1.249   3.642   9.909 -0.1595 -0.0880  0.1402
  716MPD2     H10587   0.978   3.696   9.658  2.6786 -0.0702 -3.2321
  716MPD2    H110588   1.265   3.443   9.845 -1.9217 -1.1829  1.1601
  716MPD2    H210589   1.236   3.850   9.948 -0.6065  0.0895 -1.1884
  716MPD2    H310590   1.326   3.623   9.984 -0.6380  0.9527  0.8873
  716MPD2     N10591   1.064   3.446   9.648 -0.0651 -0.0741 -0.4169
  716MPD2    H510592   0.975   3.473   9.607 -0.4952 -0.7316  0.0781
  716MPD2    N110593   1.017   3.900   9.809 -0.1920  0.2923 -0.4252
  716MPD2    H710594   0.958   3.914   9.727 -1.4286  1.4977  0.6536
  717TMC3    C110595   1.063   3.247   9.513  0.2308 -0.1900  0.3245
  717TMC3    C210596   0.944   3.290   9.453 -0.0884 -0.7818  0.3073
  717TMC3    C310597   0.894   3.220   9.352  0.7786 -0.5325 -0.0731
  717TMC3    C410598   1.124   3.140   9.464  0.5704 -0.3648  0.3679
  717TMC3    C510599   1.067   3.071   9.362 -0.5001 -0.1575  0.2995
  717TMC3    C610600   0.946   3.101   9.310 -0.3881 -0.4301 -0.3726
  717TMC3     C10601   1.114   3.319   9.625 -0.4391  0.1778 -0.1275
  717TMC3     O10602   1.215   3.277   9.679  0.6617  0.0173 -0.7303
  717TMC3     H10603   0.900   3.387   9.473 -0.5924 -0.5652 -1.9274
  717TMC3    H110604   1.217   3.101   9.505  0.6724 -1.2057 -0.6410
  717TMC3    H210605   0.912   3.047   9.222  2.0512 -1.9862 -0.3582
  717TMC3    C710606   1.123   2.938   9.320  0.9832 -0.4887 -0.3310
  717TMC3    C810607   0.749   3.232   9.342  0.0359 -0.2764 -0.3974
  717TMC3    O110608   1.063   2.875   9.239 -0.3068  0.8892 -0.8054
  717TMC3    O210609   0.709   3.349   9.356 -0.4114 -0.6884 -0.0154
  718MPD2     C10610   0.059   2.373  13.035  0.3901 -0.1838  0.7514
  718MPD2    C110611   0.020   2.447  12.928  0.9111 -0.0912 -0.5292
  718MPD2    C210612   4.620   2.507  12.936 -0.6472  0.2468  0.8521
  718MPD2    C310613   4.528   2.497  13.039 -0.2901  0.5196 -0.4525
  718MPD2    C410614   4.568   2.425  13.143  0.1675 -0.4208  0.0622
  718MPD2    C510615   4.689   2.356  13.140 -0.0067  0.6608 -0.3283
  718MPD2     H10616   4.585   2.573  12.858  0.8066  0.8381  0.7001
  718MPD2    H110617   4.513   2.410  13.235 -0.8119 -1.5928 -0.7188
  718MPD2    H210618   0.154   2.321  13.042  0.8804  0.7761  1.1119
  718MPD2    H310619   0.005   2.287  13.215  0.3072 -0.2132 -1.2785
  718MPD2     N10620   4.404   2.569  13.018  0.4544 -0.1575  0.3189
  718MPD2    H510621   4.398   2.620  12.930  2.2000 -0.5694 -0.0436
  718MPD2    N110622   0.106   2.467  12.817  0.3830 -0.5217  0.0503
  718MPD2    H710623   0.182   2.402  12.800  2.1679  1.6971 -0.4772
  719TMC3    C110624   0.161   2.542  12.604  0.8734 -0.5308  0.1565
  719TMC3    C210625   0.070   2.532  12.508 -0.5120  0.8307 -0.3062
  719TMC3    C310626   0.086   2.597  12.389  0.1891 -0.0026  0.1888
  719TMC3    C410627   0.253   2.633  12.592  0.4209 -0.5472  0.6273
  719TMC3    C510628   0.271   2.698  12.471 -0.2970  0.4344 -0.2861
  719TMC3    C610629   0.195   2.671  12.360  0.3204  0.7817  0.4486
  719TMC3     C10630   0.091   2.572  12.726 -0.2850  0.8014  0.4737
  719TMC3     O10631   0.006   2.658  12.707  0.2532 -0.3671 -0.8515
  719TMC3     H10632   4.700   2.472  12.527  1.0999 -2.0389 -1.7297
  719TMC3    H110633   0.309   2.662  12.680  0.7184 -1.1181  0.6330
  719TMC3    H210634   0.198   2.750  12.287  0.2721  0.0512 -0.3461
  719TMC3    C710635   0.385   2.780  12.448 -0.2847 -0.0634 -0.6205
  719TMC3    C810636   4.687   2.665  12.348 -0.2194  0.0593 -0.8351
  719TMC3    O110637   0.407   2.823  12.330  0.2396  0.2186  0.4846
  719TMC3    O210638   4.694   2.703  12.232  0.7095  0.1627  0.0305
  720MPD2     C10639   3.625   3.963  13.944  0.1410  0.0032 -0.2878
  720MPD2    C110640   3.725   4.041  13.893 -0.6621 -0.7759 -0.1665
  720MPD2    C210641   3.835   4.075  13.975 -0.0949  0.9248 -0.2432
  720MPD2    C310642   3.858   4.011  14.098  0.3313 -0.0915 -0.2476
  720MPD2    C410643   3.763   3.915  14.135 -0.2795  0.8109 -0.1862
  720MPD2    C510644   3.651   3.897  14.060 -0.6383  0.5234 -0.0468
  720MPD2     H10645   3.910   4.143  13.938  1.3700 -0.4895  0.0930
  720MPD2    H110646   3.766   3.876  14.236  0.2421  0.2954 -0.4025
  720MPD2    H210647   3.539   3.923  13.891  0.6857 -0.3185 -0.9237
  720MPD2    H310648   3.563   3.848  14.101  0.1250 -0.0960  0.8332
  720MPD2     N10649   3.981   4.038  14.172 -0.8041 -1.1518 -0.1358
  720MPD2    H510650   4.033   4.121  14.144 -0.5192 -0.5281  2.2399
  720MPD2    N110651   3.712   4.102  13.765 -0.5799 -0.3169  0.2962
  720MPD2    H710652   3.787   4.162  13.733 -0.1055 -0.8364  0.4122
  721TMC3    C110653   4.137   4.014  14.334  0.9356  0.2485 -0.4154
  721TMC3    C210654   4.167   3.970  14.465 -0.5259 -1.0681  1.0676
  721TMC3    C310655   4.286   4.009  14.517  0.4473 -0.9126 -0.3073
  721TMC3    C410656   4.223   4.088  14.262 -0.3998  0.1685 -0.8054
  721TMC3    C510657   4.339   4.131  14.319  0.5414 -0.2920  0.4488
  721TMC3    C610658   4.363   4.100  14.450 -0.1745  0.1303 -0.1979
  721TMC3     C10659   4.025   3.955  14.266  1.0566 -0.2653  0.5606
  721TMC3     O10660   3.979   3.849  14.307 -0.4557 -0.7634 -0.0568
  721TMC3     H10661   4.092   3.925  14.529 -1.0324  0.4157  1.5384
  721TMC3    H110662   4.212   4.100  14.155 -1.5077  1.8182 -0.4957
  721TMC3    H210663   4.444   4.152  14.502  0.3943 -1.9731  1.0076
  721TMC3    C710664   4.420   4.229  14.250 -0.3376  0.3889  0.2884
  721TMC3    C810665   4.324   3.967  14.647  0.1154  0.0853  0.1784
  721TMC3    O110666   4.538   4.243  14.266  0.1733 -0.4684  0.0969
  721TMC3    O210667   4.416   4.033  14.694 -0.8421  0.0271 -0.1081
  722MPD2     C10668   1.602   2.853  13.604  0.9287 -0.1652  0.4056
  722MPD2    C110669   1.647   2.938  13.505 -0.6006 -0.3826 -0.0657
  722MPD2    C210670   1.581   2.952  13.386  0.1886  0.0393  0.7319
  722MPD2    C310671   1.472   2.865  13.355 -0.8669  0.7164 -0.9093
  722MPD2    C410672   1.417   2.795  13.459  0.7430  0.3214  0.8225
  722MPD2    C510673   1.482   2.785  13.582  0.0027  0.2873  0.9838
  722MPD2     H10674   1.629   3.022  13.318  1.7618 -0.9671  0.8019
  722MPD2    H110675   1.337   2.725  13.440  1.4869 -0.4492  0.5325
  722MPD2    H210676   1.661   2.837  13.693  0.1335 -2.2069  0.5621
  722MPD2    H310677   1.453   2.709  13.653  1.6463 -0.4278  0.8978
  722MPD2     N10678   1.400   2.875  13.233 -0.6835 -0.8662  0.3196
  722MPD2    H510679   1.431   2.946  13.168 -0.7010  0.6484  1.9613
  722MPD2    N110680   1.766   3.018  13.512  0.0264  0.1185 -0.5165
  722MPD2    H710681   1.792   3.083  13.438 -1.6081 -0.6967 -1.8150
  723TMC3    C110682   1.260   2.840  13.047 -0.3420 -0.0037 -0.5513
  723TMC3    C210683   1.251   2.747  12.945 -0.2720  0.7924 -0.1817
  723TMC3    C310684   1.175   2.787  12.838 -0.4856 -0.0649 -0.2257
  723TMC3    C410685   1.205   2.963  13.043  0.2135  0.1018 -0.2771
  723TMC3    C510686   1.134   2.995  12.930  0.2883  0.2967  0.0108
  723TMC3    C610687   1.115   2.909  12.835  0.2807  0.1092  0.2783
  723TMC3     C10688   1.302   2.791  13.185  0.0352 -0.6836  0.1429
  723TMC3     O10689   1.241   2.693  13.224  0.6106 -0.6045 -0.6344
  723TMC3     H10690   1.259   2.643  12.972 -0.3016  0.3201 -1.9872
  723TMC3    H110691   1.209   3.015  13.138 -1.5129  0.0380 -0.1728
  723TMC3    H210692   1.047   2.924  12.752  1.5443 -3.0865 -1.3677
  723TMC3    C710693   1.047   3.110  12.926 -0.2652  0.7826 -0.0779
  723TMC3    C810694   1.178   2.700  12.724  0.2959 -0.8080  0.1667
  723TMC3    O110695   0.940   3.099  12.868 -0.3565 -0.2351 -0.9717
  723TMC3    O210696   1.134   2.740  12.620  0.1185  0.5683  0.6911
  724TMC3    C110697   2.468   0.933  10.024  0.6810  0.1913 -0.5820
  724TMC3    C210698   2.404   0.997   9.917  0.0463 -0.0851 -0.0087
  724TMC3    C310699   2.431   1.131   9.903  0.3242  0.5004  0.1440
  724TMC3    C410700   2.555   0.996  10.108  0.3203 -0.3031 -0.4707
  724TMC3    C510701   2.578   1.131  10.084 -0.0583 -0.3574 -0.2449
  724TMC3    C610702   2.531   1.198   9.974  0.6518 -0.1791  0.9185
  724TMC3     C10703   2.466   0.786  10.025  0.2173 -0.4388  0.5996
  724TMC3     O10704   2.490   0.726  10.129  0.0322 -0.1342  0.4654
  724TMC3     H10705   2.305   0.962   9.889  0.2804 -0.4828 -0.3363
  724TMC3    H110706   2.605   0.923  10.171 -0.4108 -0.1946  0.2351
  724TMC3    H210707   2.562   1.299   9.950  0.4216 -0.1099  0.9120
  724TMC3    C710708   2.689   1.196  10.154 -0.3614  0.2894  0.2070
  724TMC3    C810709   2.346   1.207   9.814  0.2563  0.5132 -0.0838
  724TMC3    O110710   2.746   1.285  10.095  0.2044 -0.5574 -0.1521
  724TMC3    O210711   2.264   1.141   9.754 -0.6163 -0.1218  0.3077
  725TMC3    C110712   4.188   0.050  13.307 -0.7078  0.4783 -0.0759
  725TMC3    C210713   4.065   0.076  13.244 -0.3487 -0.1265  0.0729
  725TMC3    C310714   4.058   0.042  13.113 -0.0804  0.0185 -0.1891
  725TMC3    C410715   4.299   0.003  13.238  0.9622  1.2765 -0.0496
  725TMC3    C510716   4.280   4.679  13.108  0.2744  0.0955 -0.7317
  725TMC3    C610717   4.157   4.694  13.047  0.8064 -0.4804  0.3028
  725TMC3     C10718   4.206   0.104  13.446  0.1138  0.1040  0.2214
  725TMC3     O10719   4.111   0.109  13.523 -0.3770  0.5655 -0.1271
  725TMC3     H10720   3.981   0.103  13.306 -1.0306 -0.4273 -0.7147
  725TMC3    H110721   4.374   4.670  13.296 -0.5260 -0.1280  0.6165
  725TMC3    H210722   4.153   4.689  12.939 -0.8262  0.0072  0.3394
  725TMC3    C710723   4.373   4.593  13.044  0.1803  0.1434 -0.2982
  725TMC3    C810724   3.935   0.068  13.042  0.1631  0.4970  0.1135
  725TMC3    O110725   4.332   4.522  12.955 -0.0877  0.2988 -0.1579
  725TMC3    O210726   3.832   0.049  13.107 -0.1199  0.0434 -0.3740
  726MPD2     C10727   1.835   1.710  10.150  0.0608 -0.2810 -0.3374
  726MPD2    C110728   1.885   1.704  10.275 -0.1856  0.2717 -0.3428
  726MPD2    C210729   1.844   1.600  10.359 -0.0516  0.2395 -0.5992
  726MPD2    C310730   1.748   1.504  10.326 -0.7589 -0.0749 -0.0564
  726MPD2    C410731   1.705   1.512  10.198 -0.2776  0.6833 -0.5007
  726MPD2    C510732   1.734   1.622  10.120 -0.6337 -0.0044  0.1571
  726MPD2     H10733   1.878   1.598  10.461  0.7479 -2.0603 -0.9064
  726MPD2    H110734   1.629   1.441  10.164  1.7112 -1.5013 -0.3972
  726MPD2    H210735   1.856   1.784  10.074 -1.7329  0.5730  0.0039
  726MPD2    H310736   1.690   1.622  10.022 -0.7198 -2.5089  0.2020
  726MPD2     N10737   1.705   1.394  10.412  0.0546 -0.2848  0.9366
  726MPD2    H510738   1.640   1.325  10.374  0.6707 -1.1274  1.3981
  726MPD2    N110739   1.991   1.789  10.314 -0.6126 -0.1467  0.0977
  726MPD2    H710740   2.015   1.778  10.412 -0.2243 -1.7275 -0.1789
  727TMC3    C110741   2.147   1.957  10.296  0.1316 -0.2980 -0.1941
  727TMC3    C210742   2.254   1.895  10.373 -0.1271  0.4720 -0.5154
  727TMC3    C310743   2.337   1.971  10.449  0.9740  0.2629  0.3977
  727TMC3    C410744   2.132   2.086  10.309 -0.0645 -0.1791 -0.2468
  727TMC3    C510745   2.230   2.157  10.368 -0.1171 -0.7024 -0.4684
  727TMC3    C610746   2.339   2.103  10.434  0.6079  0.0202 -0.0906
  727TMC3     C10747   2.027   1.901  10.247 -0.6145  0.4124  0.5323
  727TMC3     O10748   1.980   1.955  10.146  0.3449 -0.1330 -0.1987
  727TMC3     H10749   2.263   1.789  10.352  1.5886  0.5764 -0.2674
  727TMC3    H110750   2.050   2.137  10.260 -0.6951 -1.1149 -0.1553
  727TMC3    H210751   2.383   2.170  10.508 -0.1932  0.5970 -0.1430
  727TMC3    C710752   2.210   2.295  10.379 -0.5819  0.7001 -0.4055
  727TMC3    C810753   2.450   1.916  10.524 -0.2382 -0.2989  0.2227
  727TMC3    O110754   2.096   2.335  10.365 -0.8341 -0.4791 -0.1290
  727TMC3    O210755   2.541   1.994  10.545  0.4652  0.7790  0.0031
  728TMC3    C110756   1.313   4.671  15.606 -0.4425  0.1769  0.0757
  728TMC3    C210757   1.427   4.705  15.541 -0.2354 -0.5048  0.3469
  728TMC3    C310758   1.414   0.087  15.448  0.0075  0.2974 -0.2123
  728TMC3    C410759   1.189   0.012  15.577  0.4290 -0.3053 -0.2049
  728TMC3    C510760   1.182   0.112  15.482  0.1128  0.1020  0.8600
  728TMC3    C610761   1.297   0.150  15.416 -0.2621  0.6807  0.0494
  728TMC3     C10762   1.319   4.596  15.731 -0.3883 -0.1320 -0.0921
  728TMC3     O10763   1.412   4.621  15.812  0.3283  0.2740  0.0048
  728TMC3     H10764   1.527   4.671  15.564 -0.5265 -1.2039  0.5822
  728TMC3    H110765   1.102   4.715  15.639  0.9098 -3.0057 -0.2300
  728TMC3    H210766   1.292   0.230  15.343 -1.2048  0.8379  0.2832
  728TMC3    C710767   1.067   0.201  15.495 -0.4144 -0.2087 -0.7941
  728TMC3    C810768   1.516   0.094  15.344 -0.4753 -0.0004 -1.0365
  728TMC3    O110769   1.009   0.208  15.604  0.5265  0.1262  0.2068
  728TMC3    O210770   1.516   0.198  15.282 -0.3635  0.3107 -0.1990
  729MPD2     C10771   3.193   0.985  17.037 -0.0122  0.5159  0.9176
  729MPD2    C110772   3.310   0.925  17.055  0.1527 -0.3330  0.5121
  729MPD2    C210773   3.338   0.872  17.178 -0.0845  0.3782  0.6427
  729MPD2    C310774   3.258   0.897  17.286 -0.1872 -0.4737  0.0047
  729MPD2    C410775   3.137   0.966  17.263 -0.1635 -0.5096 -0.5789
  729MPD2    C510776   3.107   1.007  17.140 -0.0790 -0.3037 -0.5705
  729MPD2     H10777   3.431   0.817  17.184 -1.0309 -1.5013 -2.3204
  729MPD2    H110778   3.060   0.980  17.338  1.0459  1.9263  0.1781
  729MPD2    H210779   3.174   1.014  16.934  1.9234 -3.1383 -0.4655
  729MPD2    H310780   3.011   1.052  17.117 -0.3679 -1.2133 -1.1517
  729MPD2     N10781   3.285   0.859  17.417 -0.2383 -0.2323 -0.2023
  729MPD2    H510782   3.221   0.887  17.490 -0.8071  1.8743 -1.5282
  729MPD2    N110783   3.395   0.907  16.942 -0.0824  0.2777 -0.5721
  729MPD2    H710784   3.350   0.941  16.857  0.9951 -1.5648 -1.8806
  730TMC3    C110785   3.437   0.819  17.599  0.1410 -0.5152  0.0190
  730TMC3    C210786   3.568   0.809  17.612 -0.0229 -0.5276  0.3864
  730TMC3    C310787   3.639   0.909  17.669 -0.1780  0.2425 -0.4027
  730TMC3    C410788   3.366   0.915  17.661  0.0275  0.4619  0.0232
  730TMC3    C510789   3.437   1.012   0.040  0.3023  0.2831  0.2599
  730TMC3    C610790   3.574   1.005   0.056  0.3277  0.3536  0.4486
  730TMC3     C10791   3.393   0.785  17.467 -0.7113  0.5208  0.4340
  730TMC3     O10792   3.480   0.726  17.402  0.3069 -0.0760 -0.1596
  730TMC3     H10793   3.622   0.722  17.578 -1.6554 -1.3617 -0.0696
  730TMC3    H110794   3.259   0.928  17.652 -0.3355 -2.0448  0.8254
  730TMC3    H210795   3.635   1.076   0.110 -0.9328  0.4867  1.7091
  730TMC3    C710796   3.385   1.145   0.045 -0.3744 -0.5492  0.0465
  730TMC3    C810797   3.744   0.960  17.583 -0.0734  0.0441 -0.0338
  730TMC3    O110798   3.306   1.180  17.640  0.2884  0.6334  0.0185
  730TMC3    O210799   3.799   1.065  17.622 -0.1299  0.4656  0.7299
  731MPD2     C10800   3.635   4.385  12.155  0.0458 -0.8668  0.4937
  731MPD2    C110801   3.760   4.333  12.149  0.3911 -0.3936  0.0036
  731MPD2    C210802   3.803   4.239  12.244  0.6884  0.3058 -1.1192
  731MPD2    C310803   3.717   4.193  12.338  0.0474 -0.6551  0.3989
  731MPD2    C410804   3.590   4.249  12.351 -0.7702 -0.1660 -0.2033
  731MPD2    C510805   3.556   4.346  12.257  1.0224 -0.2081  0.4146
  731MPD2     H10806   3.898   4.188  12.236  0.3445 -0.8253  2.2387
  731MPD2    H110807   3.521   4.232  12.433  0.9429 -0.6864  1.1117
  731MPD2    H210808   3.598   4.459  12.086 -0.9812 -3.0994 -1.3498
  731MPD2    H310809   3.462   4.392  12.287  0.7182 -0.1693 -0.6019
  731MPD2     N10810   3.759   4.083  12.418 -0.7002  0.4414  0.0205
  731MPD2    H510811   3.855   4.049  12.408 -1.3025 -1.5403  0.9005
  731MPD2    N110812   3.838   4.358  12.042 -0.0550  0.0435  0.1344
  731MPD2    H710813   3.795   4.413  11.968 -0.5066 -0.7188 -0.1691
  732TMC3    C110814   4.013   4.330  11.886 -0.3803 -0.2648  0.3352
  732TMC3    C210815   3.913   4.303  11.795  0.2281 -0.6046 -0.3108
  732TMC3    C310816   3.945   4.225  11.683  0.2219 -0.0411 -0.4183
  732TMC3    C410817   4.132   4.265  11.884 -0.2528 -0.7932  0.4263
  732TMC3    C510818   4.164   4.185  11.775 -0.2994 -0.3276  0.0676
  732TMC3    C610819   4.072   4.163  11.673 -0.7188 -0.0680  0.0476
  732TMC3     C10820   3.965   4.319  12.020 -0.2996 -0.5518  0.5420
  732TMC3     O10821   4.047   4.276  12.101  0.4232 -0.4222  0.5279
  732TMC3     H10822   3.822   4.362  11.790 -0.9700 -2.3299  1.2561
  732TMC3    H110823   4.213   4.285  11.954  1.0099 -0.2563 -1.1752
  732TMC3    H210824   4.097   4.105  11.584 -1.1672  0.9380 -0.7410
  732TMC3    C710825   4.250   4.072  11.799  0.1328  0.0230  0.2904
  732TMC3    C810826   3.839   4.160  11.616  0.9020  0.0761 -0.1229
  732TMC3    O110827   4.292   4.014  11.701 -0.1636 -0.0027 -0.3104
  732TMC3    O210828   3.846   4.134  11.494  1.0908 -0.1205  0.5990
  733TMC3    C110829   3.988   2.753  13.066 -0.2786 -0.5621 -0.0063
  733TMC3    C210830   4.084   2.668  13.121 -0.2050  0.4509  0.8163
  733TMC3    C310831   4.187   2.636  13.040 -0.6992 -0.6644  0.1452
  733TMC3    C410832   3.997   2.809  12.945 -0.2131 -0.0620 -0.0134
  733TMC3    C510833   4.099   2.773  12.864  0.3404  0.4361  0.0192
  733TMC3    C610834   4.199   2.689  12.913  0.3924  0.6865  0.2843
  733TMC3     C10835   3.853   2.763  13.133  0.1035  0.6881 -0.1314
  733TMC3     O10836   3.779   2.848  13.078  0.3239 -0.7383 -0.0243
  733TMC3     H10837   4.091   2.639  13.225  0.7971 -0.7714  0.4143
  733TMC3    H110838   3.928   2.881  12.904  1.1335  1.2363  0.0092
  733TMC3    H210839   4.278   2.654  12.849 -0.0021  1.2018 -0.4848
  733TMC3    C710840   4.107   2.816  12.726 -0.4358 -0.7690 -0.3289
  733TMC3    C810841   4.299   2.567  13.104  0.7087 -0.4396 -0.7519
  733TMC3    O110842   4.006   2.861  12.670 -0.3566  0.3277  0.5495
  733TMC3    O210843   4.288   2.494  13.204  0.2257  0.3856  0.0186
  734MPD2     C10844   1.822   0.068  12.702 -0.4993  0.2643 -0.2575
  734MPD2    C110845   1.838   4.690  12.600  0.2921  0.5929 -0.9955
  734MPD2    C210846   1.841   0.020  12.474 -0.2551  0.1231  0.1214
  734MPD2    C310847   1.839   0.156  12.453  0.0386  0.1800  0.6100
  734MPD2    C410848   1.828   0.249  12.549 -0.2238 -0.5792 -0.2023
  734MPD2    C510849   1.808   0.199  12.673 -0.0808  0.1843  0.0971
  734MPD2     H10850   1.857   4.673  12.390 -1.5906  0.1821 -0.1654
  734MPD2    H110851   1.818   0.354  12.524 -0.3474 -0.0760  1.9802
  734MPD2    H210852   1.814   0.031  12.804  0.9803 -0.9408 -0.5840
  734MPD2    H310853   1.803   0.266  12.759 -2.6935 -0.4012  0.3744
  734MPD2     N10854   1.840   0.184  12.312 -0.4650  0.2559  0.1195
  734MPD2    H510855   1.870   0.112  12.247  1.1584  0.7276  0.3627
  734MPD2    N110856   1.847   4.546  12.615  0.5255  0.1708  0.1660
  734MPD2    H710857   1.848   4.500  12.524 -4.9554  1.2050 -0.4504
  735TMC3    C110858   1.811   4.332  12.677 -0.4180 -0.3864  0.5264
  735TMC3    C210859   1.717   4.308  12.585  0.0467  0.4515  0.0590
  735TMC3    C310860   1.708   4.179  12.540 -0.1820 -0.1494 -0.5886
  735TMC3    C410861   1.914   4.246  12.704  0.4992  0.0133 -0.3519
  735TMC3    C510862   1.918   4.130  12.632 -0.0539 -1.0534 -0.6779
  735TMC3    C610863   1.814   4.102  12.549 -0.6719  0.1918 -0.5819
  735TMC3     C10864   1.825   4.466  12.725 -0.7487  0.8754  0.5366
  735TMC3     O10865   1.853   4.492  12.840 -0.1640  0.1957 -0.1935
  735TMC3     H10866   1.629   4.372  12.578  0.1395  0.4618 -1.0641
  735TMC3    H110867   1.993   4.277  12.772  0.3269 -0.3309  0.0060
  735TMC3    H210868   1.823   4.017  12.483 -0.6995 -1.6836  1.7943
  735TMC3    C710869   2.043   4.078  12.616  0.1576  0.0145  0.4282
  735TMC3    C810870   1.654   4.165  12.407 -0.1681 -0.2658  0.0934
  735TMC3    O110871   2.131   4.143  12.666  0.4894  0.2226  0.3087
  735TMC3    O210872   1.571   4.076  12.384 -0.1043  0.2148 -0.0866
  736MPD2     C10873   2.194   3.791  12.466  0.4743 -0.5354 -0.2870
  736MPD2    C110874   2.176   3.926  12.480  0.0207 -0.0719 -0.5643
  736MPD2    C210875   2.258   4.019  12.422  0.4062  0.0622  0.7902
  736MPD2    C310876   2.375   3.978  12.362  0.1735  0.3468 -0.5535
  736MPD2    C410877   2.402   3.850  12.349 -0.5366  0.3496 -1.2765
  736MPD2    C510878   2.308   3.752  12.399 -0.6373 -0.6633  0.1818
  736MPD2     H10879   2.231   4.123  12.433  0.5337  0.1676  0.1168
  736MPD2    H110880   2.489   3.814  12.295  0.9272 -0.2776  1.4942
  736MPD2    H210881   2.128   3.712  12.502 -0.1591 -0.5196 -1.4293
  736MPD2    H310882   2.311   3.645  12.382  0.8671 -0.7665  1.1694
  736MPD2     N10883   2.472   4.066  12.313 -0.6176  0.3120 -0.1626
  736MPD2    H510884   2.550   4.024  12.263 -1.8216 -0.4996 -1.3272
  736MPD2    N110885   2.053   3.954  12.554 -0.2529  0.7127 -0.5071
  736MPD2    H710886   1.988   3.879  12.574 -0.9574  1.1252 -1.2928
  737TMC3    C110887   2.562   4.262  12.229 -0.5020  0.2406  0.7404
  737TMC3    C210888   2.532   4.388  12.198 -0.7922 -0.3023  0.1057
  737TMC3    C310889   2.610   4.448  12.102 -0.4074  0.0410 -0.1310
  737TMC3    C410890   2.653   4.191  12.163 -0.6907  0.8409 -0.1688
  737TMC3    C510891   2.725   4.250  12.064 -0.1729  1.5000 -0.5693
  737TMC3    C610892   2.702   4.381  12.025  0.1124 -0.4551 -0.1365
  737TMC3     C10893   2.475   4.201  12.326 -0.1453 -0.5410  0.6798
  737TMC3     O10894   2.416   4.280  12.392 -0.4879  0.4107 -0.1368
  737TMC3     H10895   2.458   4.441  12.257 -0.5251  2.1913 -1.7794
  737TMC3    H110896   2.679   4.093  12.201  0.7523  1.4843  0.5133
  737TMC3    H210897   2.760   4.429  11.948 -0.2483 -1.1542 -0.8469
  737TMC3    C710898   2.829   4.169  11.999 -0.0793  0.3140 -0.3579
  737TMC3    C810899   2.582   4.589  12.088  0.4781 -0.5056 -0.0197
  737TMC3    O110900   2.842   4.054  12.030  0.1309 -0.2713  0.2367
  737TMC3    O210901   2.504   4.632  12.174  0.5591  0.2015  0.2238
  738MPD2     C10902   1.989   3.033  15.350 -1.2451 -0.9023 -1.2028
  738MPD2    C110903   2.091   2.993  15.433 -0.7915  0.4913 -0.2386
  738MPD2    C210904   2.214   3.051  15.418 -0.6599 -0.3693  0.1639
  738MPD2    C310905   2.240   3.138  15.315  0.4283  0.4114 -0.1311
  738MPD2    C410906   2.142   3.171  15.227 -0.7269  0.6626  0.7189
  738MPD2    C510907   2.014   3.112  15.241 -0.2187 -0.6035  0.1212
  738MPD2     H10908   2.293   3.022  15.486  1.3950 -0.0577 -2.0854
  738MPD2    H110909   2.155   3.235  15.141  0.6707  0.5334  0.8337
  738MPD2    H210910   1.891   2.985  15.351 -1.3540 -0.6897 -1.8366
  738MPD2    H310911   1.935   3.140  15.172  0.6004  1.6799  0.1254
  738MPD2     N10912   2.367   3.187  15.288  0.4370 -0.0858  0.1498
  738MPD2    H510913   2.378   3.239  15.202 -1.5964 -0.5960 -0.4310
  738MPD2    N110914   2.082   2.900  15.534  0.2921 -0.3732 -0.0322
  738MPD2    H710915   2.164   2.893  15.594  1.0218 -1.3819 -1.1417
  739TMC3    C110916   2.586   3.261  15.333  0.3088  0.9633  1.1023
  739TMC3    C210917   2.627   3.256  15.204  0.5361  1.2000  0.1924
  739TMC3    C310918   2.754   3.310  15.184  0.1504  0.1762 -0.1291
  739TMC3    C410919   2.661   3.318  15.435  0.2608  0.3504 -0.0704
  739TMC3    C510920   2.785   3.367  15.408  0.2280 -0.8768 -0.0059
  739TMC3    C610921   2.842   3.352  15.283 -0.5733  0.1019 -0.1228
  739TMC3     C10922   2.465   3.200  15.384  0.6548  0.3774 -0.4214
  739TMC3     O10923   2.459   3.176  15.502  0.5983 -0.4901  0.0980
  739TMC3     H10924   2.563   3.209  15.130  1.1776 -0.9792  1.0371
  739TMC3    H110925   2.602   3.352  15.519  0.6154 -1.2403  0.8262
  739TMC3    H210926   2.940   3.395  15.267 -0.6528  1.0076  1.8722
  739TMC3    C710927   2.828   3.476  15.498 -0.1236 -0.0765  0.8195
  739TMC3    C810928   2.798   3.306  15.046  0.6187 -1.1863 -0.2822
  739TMC3    O110929   2.946   3.491  15.524  0.3684  0.4082 -0.1993
  739TMC3    O210930   2.725   3.245  14.967 -0.6202 -0.2090  0.0801
  740TMC3    C110931   3.173   4.236  14.686 -0.0678 -0.0101  0.1821
  740TMC3    C210932   3.129   4.165  14.797 -0.7830  0.6856 -0.2478
  740TMC3    C310933   3.229   4.119  14.879  0.8680 -0.7798  0.0363
  740TMC3    C410934   3.307   4.259  14.654 -0.7212  0.2932 -0.2933
  740TMC3    C510935   3.393   4.215  14.750  0.4039  0.4464 -0.4705
  740TMC3    C610936   3.362   4.129  14.857  0.1030  0.7775 -0.2083
  740TMC3     C10937   3.072   4.323  14.620  0.4090 -0.0276 -0.0342
  740TMC3     O10938   3.111   4.405  14.539 -0.5825  0.0200  0.4944
  740TMC3     H10939   3.026   4.137  14.814 -0.4482 -1.6881 -2.0661
  740TMC3    H110940   3.333   4.319  14.567 -1.3329  1.0495  0.0461
  740TMC3    H210941   3.427   4.093  14.936 -0.3180 -0.8481 -0.6172
  740TMC3    C710942   3.529   4.208  14.712 -0.4769 -0.3747  0.3311
  740TMC3    C810943   3.183   4.046  15.000  0.2545  0.2173  0.1926
  740TMC3    O110944   3.600   4.160  14.799  0.2091  0.5788 -0.1277
  740TMC3    O210945   3.263   3.971  15.057 -0.4837 -0.4308 -0.3774
  741TMC3    C110946   3.076   3.733  13.795  0.2314 -0.4737 -0.2825
  741TMC3    C210947   2.969   3.727  13.879 -0.2353  0.5249 -0.9509
  741TMC3    C310948   2.993   3.669  13.999 -0.4168 -0.5968  0.4040
  741TMC3    C410949   3.206   3.692  13.819 -0.4734  0.1160  0.4518
  741TMC3    C510950   3.218   3.631  13.942 -1.0578 -0.9035 -0.2976
  741TMC3    C610951   3.115   3.618  14.028 -0.6163  0.5183 -0.0252
  741TMC3     C10952   3.064   3.786  13.667 -0.2115 -0.0175 -0.8474
  741TMC3     O10953   3.152   3.769  13.578 -0.1194  0.2665 -0.3602
  741TMC3     H10954   2.869   3.752  13.846  0.0017 -0.7197 -2.6277
  741TMC3    H110955   3.286   3.696  13.746 -0.6054 -1.2676  0.2272
  741TMC3    H210956   3.129   3.558  14.117  3.8542 -0.0355 -1.0777
  741TMC3    C710957   3.349   3.578  13.975 -0.8971 -0.5955  0.6590
  741TMC3    C810958   2.878   3.648  14.076 -0.2337 -0.8465 -0.7353
  741TMC3    O110959   3.448   3.632  13.929  0.9722  0.1533 -0.1003
  741TMC3    O210960   2.769   3.657  14.023  0.7652 -0.0972 -0.7349
  742TMC3    C110961   2.354   1.718  15.692 -0.6416  0.3480 -0.1546
  742TMC3    C210962   2.296   1.771  15.581 -0.0695  0.3840 -0.6034
  742TMC3    C310963   2.334   1.712  15.463  0.2266  1.0017 -0.2500
  742TMC3    C410964   2.456   1.629  15.698 -0.1663  0.2136  0.3286
  742TMC3    C510965   2.507   1.590  15.577  0.4484  0.4664  0.0998
  742TMC3    C610966   2.442   1.625  15.462  0.1896  0.9620 -0.3825
  742TMC3     C10967   2.284   1.732  15.821  0.1026  0.3276 -0.2044
  742TMC3     O10968   2.307   1.650  15.911  0.2190 -0.3896  0.5265
  742TMC3     H10969   2.202   1.823  15.599 -1.1712 -1.7000 -0.2791
  742TMC3    H110970   2.489   1.580  15.789 -0.9408 -1.2908 -0.2047
  742TMC3    H210971   2.485   1.587  15.371  1.5039 -0.4144  0.8187
  742TMC3    C710972   2.599   1.482  15.571  0.2426  0.5144  0.6264
  742TMC3    C810973   2.295   1.763  15.332  0.0777 -0.8872 -0.0023
  742TMC3    O110974   2.596   1.393  15.486  0.1412 -0.0904 -0.0686
  742TMC3    O210975   2.361   1.736  15.234 -0.1177  0.5064  0.4549
  743MPD2     C10976   2.280   3.373   2.234  0.0340  0.0845 -0.2700
  743MPD2    C110977   2.304   3.446   2.125 -0.0598 -0.2299  0.3307
  743MPD2    C210978   2.425   3.503   2.104 -0.4853 -0.8575 -0.6385
  743MPD2    C310979   2.522   3.496   2.200  0.4970 -0.2004  0.0779
  743MPD2    C410980   2.497   3.431   2.316  0.8938 -0.0035 -0.7791
  743MPD2    C510981   2.376   3.364   2.333 -0.4309 -0.3864  0.1673
  743MPD2     H10982   2.439   3.556   2.011 -1.0558 -0.6250 -0.5925
  743MPD2    H110983   2.573   3.418   2.393 -0.1462  0.4812  0.3422
  743MPD2    H210984   2.184   3.326   2.254  0.1238 -0.2518 -0.6179
  743MPD2    H310985   2.360   3.295   2.416 -0.2485  0.4274  0.8866
  743MPD2     N10986   2.633   3.569   2.163  0.0597 -0.5769  0.2512
  743MPD2    H510987   2.635   3.620   2.075  1.9594 -0.6733  0.2585
  743MPD2    N110988   2.192   3.456   2.039  0.0514  0.5209  0.0253
  743MPD2    H710989   2.106   3.406   2.061  0.0416  1.3976  2.0318
  744TMC3    C110990   2.069   3.538   1.861 -0.0653  0.3826 -0.1585
  744TMC3    C210991   1.958   3.550   1.943  0.1824  0.0690 -0.6601
  744TMC3    C310992   1.835   3.578   1.886  0.0513 -0.2806 -0.1135
  744TMC3    C410993   2.070   3.548   1.720  0.6008 -0.2138 -1.5308
  744TMC3    C510994   1.941   3.568   1.675  0.1279  0.2772  0.4413
  744TMC3    C610995   1.829   3.582   1.754  0.0989  0.8624  0.5048
  744TMC3     C10996   2.196   3.514   1.915 -0.1800  0.0751  0.3202
  744TMC3     O10997   2.292   3.538   1.845 -0.4031 -0.2969 -0.1091
  744TMC3     H10998   1.961   3.533   2.050 -0.7893  2.2781 -0.2781
  744TMC3    H110999   2.156   3.548   1.654  1.2164 -2.0423 -0.7008
  744TMC3    H211000   1.729   3.596   1.713  0.4854  0.5505 -0.5530
  744TMC3    C711001   1.916   3.534   1.542  0.5055  0.2326 -0.4369
  744TMC3    C811002   1.724   3.598   1.969  0.5554  0.5614 -0.4032
  744TMC3    O111003   1.808   3.559   1.494 -0.1146 -0.9682  1.0668
  744TMC3    O211004   1.634   3.670   1.932 -0.3808  0.0749  0.5742
  745TMC3    C111005   2.459   2.018  13.368 -0.8906 -0.1567  0.5821
  745TMC3    C211006   2.393   2.016  13.493 -0.1828 -0.5005  0.5537
  745TMC3    C311007   2.308   2.123  13.529  0.5371  0.3416  0.1532
  745TMC3    C411008   2.445   2.125  13.287 -0.4388 -0.0050  0.0213
  745TMC3    C511009   2.375   2.235  13.332  0.0580 -0.0387 -0.7157
  745TMC3    C611010   2.296   2.233  13.445 -0.5391  0.1908  0.3948
  745TMC3     C11011   2.595   1.993  13.421 -0.5176  0.5738  0.4352
  745TMC3     O11012   2.656   1.901  13.370  0.0225  0.3771 -0.0113
  745TMC3     H11013   2.427   1.942  13.564  0.8995  0.4038  0.9745
  745TMC3    H111014   2.501   2.123  13.195  1.4205  1.0010  1.1479
  745TMC3    H211015   2.251   2.322  13.488 -2.5040  0.2377 -1.7623
  745TMC3    C711016   2.370   2.358  13.247  0.3461 -0.0445  0.8759
  745TMC3    C811017   2.283   2.165  13.665  0.2021 -0.1099  0.3019
  745TMC3    O111018   2.275   2.430  13.270  0.0592  0.1088  0.4865
  745TMC3    O211019   2.174   2.216  13.681 -0.1420 -0.1979  0.1876
  746TMC3    C111020   0.698   4.017  10.973 -0.3088  0.3826  0.1580
  746TMC3    C211021   0.805   3.976  10.898  0.1532 -0.0065 -0.5105
  746TMC3    C311022   0.788   3.853  10.828 -0.8547 -1.4304 -0.2247
  746TMC3    C411023   0.584   3.949  10.985  0.6464  0.8284 -0.8966
  746TMC3    C511024   0.568   3.841  10.901  0.4572 -0.4389 -0.1294
  746TMC3    C611025   0.666   3.793  10.823  0.1480  0.3738 -0.5846
  746TMC3     C11026   0.703   4.150  11.036  0.4349 -0.1925 -0.3367
  746TMC3     O11027   0.630   4.176  11.131 -0.0096  0.1821 -0.6296
  746TMC3     H11028   0.902   4.022  10.915  1.2659 -1.6225 -2.5857
  746TMC3    H111029   0.511   3.987  11.055 -0.1849 -0.5455 -1.0108
  746TMC3    H211030   0.641   3.708  10.761 -1.5991  0.8727 -0.5756
  746TMC3    C711031   0.452   3.760  10.899  0.4403 -0.0534 -0.7459
  746TMC3    C811032   0.909   3.782  10.790 -0.6571 -0.1225 -0.0047
  746TMC3    O111033   0.411   3.726  10.792  0.7353 -0.2311  0.3404
  746TMC3    O211034   0.909   3.661  10.765 -0.1273 -0.1581 -0.3034
  747TMC3    C111035   3.451   4.558  11.248  0.4019  0.3368 -0.3312
  747TMC3    C211036   3.359   4.476  11.302 -0.3233  0.0231 -0.4668
  747TMC3    C311037   3.381   4.431  11.423  0.0736  0.8521 -0.4025
  747TMC3    C411038   3.561   4.593  11.319  0.2702 -0.9038  0.3149
  747TMC3    C511039   3.570   4.542  11.442 -0.0274 -0.3205 -0.1640
  747TMC3    C611040   3.482   4.462  11.503 -0.1363 -0.6893  0.2725
  747TMC3     C11041   3.411   4.639  11.133 -0.2994  0.3913 -0.0099
  747TMC3     O11042   3.455   0.033  11.118  0.2096  0.0843  0.5468
  747TMC3     H11043   3.258   4.462  11.264 -0.4182  0.1677 -0.2709
  747TMC3    H111044   3.635   4.663  11.281 -1.0760  0.6710  0.6223
  747TMC3    H211045   3.498   4.428  11.605 -0.0824  0.4638  0.6423
  747TMC3    C711046   3.700   4.547  11.505  0.0961 -0.1922 -0.2219
  747TMC3    C811047   3.296   4.325  11.459  0.1461  0.2303  0.7840
  747TMC3    O111048   3.707   4.528  11.626  0.4779  0.3062  0.3978
  747TMC3    O211049   3.262   4.250  11.375  0.0479  0.2660 -0.0290
  748MPD2     C11050   4.489   4.087   1.791 -0.0225 -0.4633 -0.1712
  748MPD2    C111051   4.503   4.195   1.875 -0.2994 -0.4291  0.5150
  748MPD2    C211052   4.583   4.299   1.829 -0.5632 -0.4491  0.8486
  748MPD2    C311053   4.643   4.304   1.705  0.2654 -0.6125 -0.1847
  748MPD2    C411054   4.615   4.201   1.620  0.2945  0.2216  0.5346
  748MPD2    C511055   4.545   4.090   1.667  0.0781  0.1841  0.2644
  748MPD2     H11056   4.608   4.379   1.898 -1.1332  0.1479  0.3567
  748MPD2    H111057   4.652   4.175   1.522 -0.5545  0.9863  0.0143
  748MPD2    H211058   4.420   4.007   1.813 -0.2441  0.0719  1.1180
  748MPD2    H311059   4.548   4.012   1.593  3.5724  1.7215 -1.2047
  748MPD2     N11060   0.018   4.406   1.682  0.0223 -0.0597  0.6892
  748MPD2    H511061   0.033   4.465   1.763  0.1491  0.7745  0.0611
  748MPD2    N111062   4.409   4.199   1.985  0.7538 -0.0330  0.0533
  748MPD2    H711063   4.356   4.113   1.996 -1.2570  1.1594 -0.3417
  749TMC3    C111064   0.184   4.535   1.566  0.6708 -0.0130 -0.4064
  749TMC3    C211065   0.237   4.562   1.688 -0.6244 -0.0510  0.4918
  749TMC3    C311066   0.333   4.656   1.688  0.2321  0.1201  0.3705
  749TMC3    C411067   0.233   4.586   1.444 -0.3811 -0.0365  0.4215
  749TMC3    C511068   0.337   4.672   1.451 -0.5212 -0.4472  0.2444
  749TMC3    C611069   0.383   4.715   1.574 -0.3905 -0.3111  0.2568
  749TMC3     C11070   0.083   4.430   1.560  0.0561  0.1389 -0.8024
  749TMC3     O11071   0.057   4.373   1.452  0.3466 -0.4360  0.4644
  749TMC3     H11072   0.193   4.519   1.777  0.6866 -0.9927  0.6856
  749TMC3    H111073   0.179   4.558   1.354 -1.7117 -2.6911  2.0381
  749TMC3    H211074   0.462   0.071   1.576 -0.4285 -0.3493  3.5231
  749TMC3    C711075   0.393   0.012   1.329 -0.0004 -0.3590 -0.3890
  749TMC3    C811076   0.424   4.644   1.798 -0.0590 -0.7205 -0.2866
  749TMC3    O111077   0.475   0.101   1.335  0.4225 -0.1835 -0.5004
  749TMC3    O211078   0.372   4.613   1.906 -0.6625 -0.2357 -0.0354
  750MPD2     C11079   1.051   1.198  11.425  0.6247  0.2217 -0.1979
  750MPD2    C111080   0.917   1.168  11.416 -0.4624  0.3926  0.0583
  750MPD2    C211081   0.873   1.064  11.340 -0.0499  0.0880 -0.5581
  750MPD2    C311082   0.964   0.980  11.272  0.2900 -0.6319  0.1485
  750MPD2    C411083   1.098   1.015  11.275  0.3458  0.5080 -0.0333
  750MPD2    C511084   1.140   1.124  11.346 -0.6972 -0.9783 -0.3178
  750MPD2     H11085   0.769   1.033  11.330 -0.1950  1.1288 -2.1581
  750MPD2    H111086   1.173   0.958  11.222 -0.3186 -1.2094  0.8527
  750MPD2    H211087   1.076   1.289  11.477  0.0786  0.7255 -0.8118
  750MPD2    H311088   1.246   1.144  11.355 -1.3598  1.1216  2.7381
  750MPD2     N11089   0.922   0.873  11.183  0.3986  0.3303  0.0221
  750MPD2    H511090   0.996   0.828  11.129  0.4774 -1.8822  2.0011
  750MPD2    N111091   0.829   1.247  11.492  0.3344 -0.0925 -0.1586
  750MPD2    H711092   0.878   1.318  11.544 -0.8887 -0.1255  1.0301
  751TMC3    C111093   0.773   0.754  11.045  0.0650  0.0429  0.0149
  751TMC3    C211094   0.641   0.703  11.043 -1.0328  0.8497  0.1678
  751TMC3    C311095   0.608   0.631  10.934 -0.3968 -0.7598  0.2728
  751TMC3    C411096   0.866   0.723  10.954 -0.2691  0.2792  0.5251
  751TMC3    C511097   0.822   0.664  10.841 -0.5187  0.4866 -0.3155
  751TMC3    C611098   0.693   0.618  10.830 -0.4477 -0.1744  0.0394
  751TMC3     C11099   0.796   0.836  11.161 -0.3170  0.3471 -0.7034
  751TMC3     O11100   0.699   0.880  11.212  0.9617  0.3739  0.3242
  751TMC3     H11101   0.559   0.715  11.112 -0.0248 -0.0713  1.5205
  751TMC3    H111102   0.963   0.771  10.958  0.7003 -1.7055  0.7799
  751TMC3    H211103   0.661   0.551  10.750  1.6657 -1.7096  0.4721
  751TMC3    C711104   0.924   0.574  10.792  0.8720 -0.0575  0.1063
  751TMC3    C811105   0.565   0.501  10.962 -0.4393  0.0318 -0.0484
  751TMC3    O111106   1.036   0.616  10.764 -0.2887  0.6759  0.4546
  751TMC3    O211107   0.647   0.416  10.938  0.0412  0.1856  0.5576
  752TMC3    C111108   4.093   0.367  17.421  0.3048 -0.2208  0.9333
  752TMC3    C211109   4.159   0.261  17.471 -0.2958  0.0932 -0.2075
  752TMC3    C311110   4.096   0.196  17.570  0.1754 -0.6383 -0.5985
  752TMC3    C411111   3.974   0.415  17.463 -0.2294  0.4890 -0.5899
  752TMC3    C511112   3.914   0.346  17.565  0.2888 -0.6898 -0.3809
  752TMC3    C611113   3.980   0.239  17.620  0.1092  1.4962 -0.0083
  752TMC3     C11114   4.162   0.438  17.313 -0.2431  0.4072  0.3146
  752TMC3     O11115   4.284   0.423  17.304 -0.1366  0.0762 -0.0015
  752TMC3     H11116   4.251   0.222  17.429  0.7048 -0.3370  2.3849
  752TMC3    H111117   3.933   0.507  17.422  2.3166  1.9951  0.2516
  752TMC3    H211118   3.928   0.195   0.024  0.4845  0.7352 -0.1723
  752TMC3    C711119   3.840   0.420  17.658  0.2851  0.0367  0.1140
  752TMC3    C811120   4.115   0.055  17.580 -0.3855  0.1575  0.9275
  752TMC3    O111121   3.738   0.370   0.023 -0.2414 -0.5973  0.2315
  752TMC3    O211122   4.082   0.003   0.008  0.0048 -0.5614 -0.2474
  753TMC3    C111123   1.207   2.392  13.854  0.2434  0.1484 -0.2720
  753TMC3    C211124   1.200   2.340  13.980 -0.4617 -0.5140 -0.3489
  753TMC3    C311125   1.161   2.213  13.998  0.4625  0.0291  0.0086
  753TMC3    C411126   1.163   2.316  13.741  0.3662  0.2867  0.4764
  753TMC3    C511127   1.115   2.188  13.766  0.0061  0.0384 -0.7409
  753TMC3    C611128   1.113   2.137  13.898 -0.7119  0.5454 -0.0620
  753TMC3     C11129   1.225   2.526  13.834 -0.1199 -0.0699 -0.0154
  753TMC3     O11130   1.156   2.574  13.744 -0.8852  0.2273 -0.4176
  753TMC3     H11131   1.202   2.408  14.064  2.0280  0.7555 -1.4362
  753TMC3    H111132   1.162   2.364  13.644  1.5638  0.6586  0.6483
  753TMC3    H211133   1.072   2.037  13.911  0.2910  0.0248 -0.9117
  753TMC3    C711134   1.105   2.094  13.654  0.5006  0.0631  0.0501
  753TMC3    C811135   1.200   2.135  14.115 -0.1315 -0.6104 -0.1503
  753TMC3    O111136   1.156   2.136  13.549  0.8182 -0.0150 -0.0332
  753TMC3    O211137   1.193   2.016  14.102  0.1891 -0.0703 -0.1056
  754MPD2     C11138   0.604   1.266  13.517  0.5172  0.4968 -0.2763
  754MPD2    C111139   0.618   1.131  13.534 -0.4029  0.0001 -0.3229
  754MPD2    C211140   0.524   1.044  13.492 -0.4520 -0.6680 -0.7326
  754MPD2    C311141   0.402   1.089  13.439  0.1681 -0.0571  0.1597
  754MPD2    C411142   0.383   1.221  13.419 -0.1246  0.0765  0.6016
  754MPD2    C511143   0.484   1.304  13.453 -0.0181  0.4456  0.8747
  754MPD2     H11144   0.538   0.939  13.511 -0.1391 -0.3318  0.9236
  754MPD2    H111145   0.296   1.249  13.361  0.2989  0.4228  0.1338
  754MPD2    H211146   0.682   1.337  13.539 -1.0434  1.1391  3.1604
  754MPD2    H311147   0.451   1.406  13.433 -1.2240 -0.0616  0.2517
  754MPD2     N11148   0.295   1.009  13.399 -0.7248  0.2135  0.0337
  754MPD2    H511149   0.214   1.060  13.367 -0.6512  0.0810 -0.3717
  754MPD2    N111150   0.734   1.093  13.596  0.0322 -0.3025  0.0752
  754MPD2    H711151   0.795   1.174  13.594 -0.1490 -0.1599  0.3779
  755MPD2     C11152   4.276   1.388  13.357  0.0321 -0.3479 -0.4195
  755MPD2    C111153   4.298   1.362  13.490 -0.2160 -0.8042  0.5883
  755MPD2    C211154   4.378   1.260  13.529 -0.6098  0.8528  0.4388
  755MPD2    C311155   4.452   1.196  13.438 -0.2947  0.0821 -0.3215
  755MPD2    C411156   4.443   1.236  13.304 -0.5265  0.5801  0.3326
  755MPD2    C511157   4.341   1.311  13.264 -0.4814  0.5078  0.0964
  755MPD2     H11158   4.391   1.235  13.634 -1.8350 -1.4463  0.0219
  755MPD2    H111159   4.492   1.175  13.229 -2.8849  0.9578 -1.5060
  755MPD2    H211160   4.203   1.461  13.323  2.8932  1.3120 -3.0017
  755MPD2    H311161   4.326   1.315  13.157  1.0937 -3.4556 -0.2778
  755MPD2     N11162   4.552   1.105  13.471  0.5156  0.5513  0.3032
  755MPD2    H511163   4.608   1.067  13.395 -3.2888 -0.6825 -1.8944
  755MPD2    N111164   4.241   1.433  13.588 -0.2165 -0.1152  0.5610
  755MPD2    H711165   4.274   1.418  13.683 -1.0630  1.7955  1.1622
  756MPD2     C11166   0.451   1.977   9.869  0.5203 -0.0906 -0.0013
  756MPD2    C111167   0.417   1.894   9.970 -0.5171 -0.4084  0.5234
  756MPD2    C211168   0.288   1.873  10.000 -0.0301 -0.3224 -0.3994
  756MPD2    C311169   0.190   1.930   9.917 -0.7117 -0.1436 -0.3319
  756MPD2    C411170   0.224   2.011   9.808  0.1472  0.5636 -0.8079
  756MPD2    C511171   0.356   2.041   9.792 -0.2940  0.0770  0.8729
  756MPD2     H11172   0.262   1.827  10.095  1.6959  0.1903  0.3261
  756MPD2    H111173   0.152   2.050   9.737  0.5659  1.1299 -0.9239
  756MPD2    H211174   0.551   1.991   9.830  1.1401 -0.9376  1.2931
  756MPD2    H311175   0.385   2.115   9.719  0.2096  1.8613  2.9061
  756MPD2     N11176   0.056   1.908   9.956 -0.7406 -0.4122  0.0601
  756MPD2    H511177   0.042   1.843  10.033  2.0534 -0.3367  0.6315
  756MPD2    N111178   0.514   1.826  10.048  0.0618 -0.4072  0.7425
  756MPD2    H711179   0.486   1.782  10.135  0.9182 -1.9311  0.2621
  757MPD2     C11180   4.609   1.140  10.219 -0.7603  0.5140 -0.7061
  757MPD2    C111181   4.697   1.204  10.136  0.3620 -0.3216 -0.5089
  757MPD2    C211182   4.676   1.339  10.107  0.2172 -0.5844 -0.4619
  757MPD2    C311183   4.568   1.406  10.163  0.5602 -0.0673 -0.1260
  757MPD2    C411184   4.478   1.341  10.240  0.0847 -0.2728  0.3774
  757MPD2    C511185   4.499   1.208  10.272  0.0654  0.3157  0.2453
  757MPD2     H11186   0.030   1.389  10.045 -0.7443 -0.2314 -1.3175
  757MPD2    H111187   4.387   1.387  10.278  1.6182  0.2680  3.3546
  757MPD2    H211188   4.623   1.036  10.247  0.2543  1.4470  2.2302
  757MPD2    H311189   4.424   1.157  10.331 -0.6984  3.1954  1.7718
  757MPD2     N11190   4.550   1.538  10.124 -0.0197  0.1934  0.7704
  757MPD2    H511191   4.633   1.578  10.081 -0.3092 -1.8824 -1.7283
  757MPD2    N111192   0.079   1.127  10.076 -0.3063 -0.5817 -0.3643
  757MPD2    H711193   0.066   1.027  10.078 -0.3089 -0.5483  1.1135
  758MPD2     C11194   4.676   0.380  16.161 -0.5943  0.2852  0.0453
  758MPD2    C111195   0.034   0.364  16.272 -0.0432 -0.2986  0.1474
  758MPD2    C211196   4.719   0.418  16.396  0.0313  0.5765 -0.4790
  758MPD2    C311197   4.606   0.496  16.405 -0.3181 -0.5476 -0.3319
  758MPD2    C411198   4.532   0.520  16.295 -0.0266 -0.1933 -0.6712
  758MPD2    C511199   4.572   0.467  16.172  0.2427  0.4445 -0.4077
  758MPD2     H11200   0.066   0.388  16.476  0.5137  2.9655  0.0037
  758MPD2    H111201   4.445   0.584  16.297 -0.3126 -0.6269  0.4034
  758MPD2    H211202   4.697   0.338  16.064  4.4506  0.5747  0.9995
  758MPD2    H311203   4.508   0.473  16.085 -0.6593 -0.7394  0.1668
  758MPD2     N11204   4.557   0.546  16.530  0.5131 -0.2975 -0.1632
  758MPD2    H511205   4.481   0.613  16.516  0.5407  0.2630  2.3637
  758MPD2    N111206   0.146   0.274  16.259 -0.0972 -0.3919 -0.0501
  758MPD2    H711207   0.149   0.220  16.173  1.4162  0.8352 -0.7769
  759MPD2     C11208   3.640   3.975   9.868  0.4546  0.4805  0.0561
  759MPD2    C111209   3.700   3.915   9.971  0.0846 -0.1479  0.2300
  759MPD2    C211210   3.830   3.948   9.996  0.2121  0.4314  0.0374
  759MPD2    C311211   3.906   4.023   9.904  0.6600 -0.0610 -0.6507
  759MPD2    C411212   3.848   4.075   9.796  0.9461 -0.6281  0.4711
  759MPD2    C511213   3.716   4.051   9.777  0.3542 -0.0857  0.1128
  759MPD2     H11214   3.885   3.911  10.081 -0.2655 -0.0497  0.1374
  759MPD2    H111215   3.903   4.128   9.719 -2.1342 -0.2653 -1.4890
  759MPD2    H211216   3.538   3.970   9.833  0.0254 -0.3483  1.4066
  759MPD2    H311217   3.671   4.091   9.687 -1.5061  0.2232  1.1796
  759MPD2     N11218   4.035   4.059   9.941  0.0134 -0.7675 -0.1706
  759MPD2    H511219   4.075   4.023  10.027  1.3099 -1.7914 -1.1977
  759MPD2    N111220   3.620   3.837  10.065 -0.0628  0.1038 -0.3160
  759MPD2    H711221   3.670   3.797  10.144  1.7183  0.2418 -1.3686
  760MPD2     C11222   3.581   1.129  11.942  0.5164  0.2175 -0.2925
  760MPD2    C111223   3.712   1.112  11.958  0.5613 -0.7410  0.6260
  760MPD2    C211224   3.770   0.990  11.989 -0.0567  0.0376 -0.3052
  760MPD2    C311225   3.687   0.871  12.015  0.2643 -0.0018 -0.1461
  760MPD2    C411226   3.547   0.898  11.995  0.0881  0.0330  0.6458
  760MPD2    C511227   3.496   1.022  11.963  0.1410  0.6044  1.3826
  760MPD2     H11228   3.878   0.983  11.993 -0.0023  3.9141  3.4810
  760MPD2    H111229   3.467   0.826  12.013 -0.0711  0.1898  0.5575
  760MPD2    H211230   3.532   1.223  11.919  1.1393  0.4734 -0.5593
  760MPD2    H311231   3.391   1.049  11.964  0.1096  0.4878  1.0648
  760MPD2     N11232   3.733   0.741  12.044  0.8512  0.0934 -0.4035
  760MPD2    H511233   3.665   0.667  12.045 -0.8501  1.6473 -1.0160
  760MPD2    N111234   3.797   1.216  11.931  0.2291 -0.1134 -0.5726
  760MPD2    H711235   3.896   1.199  11.941 -0.0065 -0.7487  0.6413
  761MPD2     C11236   0.274   0.138  11.150 -0.7111  0.2709 -0.3229
  761MPD2    C111237   0.353   0.132  11.036  0.1388  0.5685 -0.5519
  761MPD2    C211238   0.408   0.252  10.989 -0.4572  0.3509 -0.0452
  761MPD2    C311239   0.385   0.373  11.063 -0.4521 -0.1449 -0.3727
  761MPD2    C411240   0.302   0.372  11.171  0.3749  0.1783 -0.4800
  761MPD2    C511241   0.245   0.262  11.216  0.3177  0.2456  0.3611
  761MPD2     H11242   0.476   0.262  10.904 -0.9634 -0.4307 -0.5442
  761MPD2    H111243   0.264   0.461  11.220 -1.3649 -0.5715 -0.4945
  761MPD2    H211244   0.234   0.048  11.194  2.2185 -1.4379 -1.1525
  761MPD2    H311245   0.172   0.259  11.296 -2.1850  0.8010 -1.9219
  761MPD2     N11246   0.444   0.493  11.023  0.4974  0.4132  0.2603
  761MPD2    H511247   0.404   0.577  11.063  0.7949  0.5596  0.2432
  761MPD2    N111248   0.395   0.004  10.976 -0.4951  0.3972 -0.6126
  761MPD2    H711249   0.360   4.646  11.031 -0.3912 -0.5636 -1.9031
  762MPD2     C11250   0.813   4.630  10.279 -0.5011  0.3930 -0.1497
  762MPD2    C111251   0.830   4.540  10.380  0.5746  0.4264  0.3678
  762MPD2    C211252   0.950   4.466  10.388  0.5051  0.6497 -0.2858
  762MPD2    C311253   1.050   4.493  10.302  0.5060 -0.3585  0.6415
  762MPD2    C411254   1.031   4.593  10.205 -0.0144 -0.7414  0.0779
  762MPD2    C511255   0.915   4.660  10.195 -0.2460 -0.3765  0.1214
  762MPD2     H11256   0.965   4.392  10.466  1.1064  1.1491  0.0748
  762MPD2    H111257   1.117   4.627  10.147  0.3997 -1.6028  0.1846
  762MPD2    H211258   0.724   4.687  10.256 -0.0079  1.3896  0.4572
  762MPD2    H311259   0.904   0.022  10.124 -0.5430 -0.6948 -0.1970
  762MPD2     N11260   1.172   4.425  10.306  0.5369  0.4101  0.4713
  762MPD2    H511261   1.178   4.350  10.373 -2.0918 -0.5226 -0.3411
  762MPD2    N111262   0.727   4.528  10.481  1.1535 -1.0180  0.4131
  762MPD2    H711263   0.658   4.601  10.490  2.1363 -0.1166  0.5816
  763MPD2     C11264   2.419   0.105  16.234  0.2985 -0.2735 -0.3470
  763MPD2    C111265   2.303   0.180  16.244 -0.1592 -0.3921 -1.2176
  763MPD2    C211266   2.286   0.263  16.353  0.1525 -0.6200  0.0183
  763MPD2    C311267   2.385   0.275  16.451  0.2889  0.2277 -0.8209
  763MPD2    C411268   2.507   0.218  16.423  0.0448 -0.9603  0.3489
  763MPD2    C511269   2.527   0.134  16.314  0.0012 -0.2449 -0.3120
  763MPD2     H11270   2.187   0.306  16.363  1.2689  1.7874  0.7747
  763MPD2    H111271   2.572   0.226  16.509  3.5671 -2.5648 -2.1539
  763MPD2    H211272   2.439   0.047  16.145 -0.8062 -0.5064 -0.4467
  763MPD2    H311273   2.615   0.071  16.305 -1.0625 -2.0299  1.7842
  763MPD2     N11274   2.375   0.358  16.564  0.1918 -0.1372  0.2496
  763MPD2    H511275   2.462   0.383  16.609  0.9575  0.4359 -1.5574
  763MPD2    N111276   2.195   0.157  16.152  0.2182  0.1402  0.9087
  763MPD2    H711277   2.116   0.220  16.160  0.8637  1.2660 -1.5106
  764MPD2     C11278   0.562   2.197  17.675 -0.0525  0.2671  0.1272
  764MPD2    C111279   0.470   2.114  17.614 -0.3683 -0.1221  0.3066
  764MPD2    C211280   0.442   1.987  17.666  0.0380 -0.2883  0.3141
  764MPD2    C311281   0.517   1.937   0.088 -0.0368 -0.5149 -0.0095
  764MPD2    C411282   0.610   2.021   0.145 -0.2073 -0.0896  0.8192
  764MPD2    C511283   0.629   2.147   0.098  0.9968  0.7687  0.2983
  764MPD2     H11284   0.371   1.930  17.607  1.1816  0.8864 -2.2327
  764MPD2    H111285   0.679   1.988   0.221  0.6403 -0.6321 -0.1807
  764MPD2    H211286   0.588   2.299  17.648 -1.6723  1.1838  1.9455
  764MPD2    H311287   0.703   2.204   0.153  1.2161  0.0302  0.7567
  764MPD2     N11288   0.505   1.802   0.128  0.0516  0.2640 -0.3978
  764MPD2    H511289   0.428   1.759   0.078 -1.0662  0.5158  1.0923
  764MPD2    N111290   0.395   2.156  17.502  0.4294 -0.2099 -0.0173
  764MPD2    H711291   0.312   2.105  17.473 -1.0850  2.2285  0.0631
  765MPD2     C11292   4.595   4.151  16.198  0.5023 -0.0637  0.1376
  765MPD2    C111293   4.628   4.187  16.071  0.7540  0.0463  0.1005
  765MPD2    C211294   0.036   4.160  16.019  0.2426 -0.0665 -0.3873
  765MPD2    C311295   0.132   4.091  16.094 -0.0505  0.8226 -0.6562
  765MPD2    C411296   0.094   4.055  16.224 -0.6980  0.4600 -0.6752
  765MPD2    C511297   4.688   4.078  16.266  0.2499 -0.5864  0.0660
  765MPD2     H11298   0.063   4.194  15.920  0.1777 -1.4581 -0.8891
  765MPD2    H111299   0.160   3.992  16.283 -1.6399  0.7961  0.7454
  765MPD2    H211300   4.503   4.183  16.246  1.9531 -1.4115  3.7773
  765MPD2    H311301   4.654   4.039  16.362 -1.1618  0.4093 -0.0226
  765MPD2     N11302   0.261   4.069  16.040  0.0477 -0.0270  0.0373
  765MPD2    H511303   0.289   4.107  15.950 -1.1116  0.0641 -0.2927
  765MPD2    N111304   4.549   4.264  15.992 -0.1623  0.0292  0.4126
  765MPD2    H711305   4.585   4.304  15.906 -2.7145  2.0666  0.3076
  766MPD2     C11306   3.913   4.431  15.476 -0.3742 -0.4666  0.1162
  766MPD2    C111307   4.028   4.515  15.487  0.1098 -0.1427 -0.5190
  766MPD2    C211308   4.076   4.583  15.373  0.2967  0.6867 -0.5262
  766MPD2    C311309   4.008   4.570  15.253 -0.5093  1.1591  0.4728
  766MPD2    C411310   3.888   4.512  15.250  0.7756 -0.8650  0.8518
  766MPD2    C511311   3.850   4.436  15.356 -1.1471  0.2508 -0.0635
  766MPD2     H11312   4.167   4.640  15.384 -0.8871  2.6413 -0.7324
  766MPD2    H111313   3.821   4.523  15.166  0.2702 -2.9055  1.0057
  766MPD2    H211314   3.871   4.373  15.557 -1.6156  0.4277  0.1070
  766MPD2    H311315   3.757   4.383  15.338 -1.2914  1.0969 -1.8142
  766MPD2     N11316   4.066   4.607  15.133  0.3770  0.0299  0.0260
  766MPD2    H511317   4.006   4.598  15.051  1.6947 -0.6489 -0.8664
  766MPD2    N111318   4.102   4.533  15.603  0.6209  0.5342 -0.6628
  766MPD2    H711319   4.185   4.589  15.584  2.1129 -1.7913 -0.9637
  767MPD2     C11320   3.765   0.116  15.291  1.0347 -0.2890  0.4482
  767MPD2    C111321   3.861   0.174  15.218 -0.0105 -0.1130  0.5776
  767MPD2    C211322   3.865   0.165  15.080  0.3735 -0.3053 -0.5230
  767MPD2    C311323   3.767   0.100  15.007 -0.9999 -0.3403 -0.2198
  767MPD2    C411324   3.667   0.037  15.081 -0.2463 -0.2223 -0.5923
  767MPD2    C511325   3.673   0.041  15.216  0.1094  0.6422  0.4394
  767MPD2     H11326   3.940   0.225  15.031  0.9581 -2.0335 -1.7425
  767MPD2    H111327   3.589   4.696  15.036 -1.9017  0.7345  1.0115
  767MPD2    H211328   3.751   0.118  15.399 -1.1524 -0.9140  0.1958
  767MPD2    H311329   3.593   4.702  15.260  1.2773 -2.2744 -1.2487
  767MPD2     N11330   3.773   0.096  14.865  0.1792 -0.0101 -0.6939
  767MPD2    H511331   3.852   0.141  14.820  0.8095 -2.7876 -2.3659
  767MPD2    N111332   3.952   0.237  15.304  0.1247  0.0088 -0.0561
  767MPD2    H711333   3.938   0.220  15.404  1.7466 -2.3973 -0.2291
  768MPD2     C11334   0.486   3.398  10.505  0.2469 -0.1380 -0.3362
  768MPD2    C111335   0.425   3.344  10.616  0.4209 -0.0146  0.6318
  768MPD2    C211336   0.500   3.362  10.734  0.3371  0.2905  0.2356
  768MPD2    C311337   0.613   3.445  10.740  0.3260  0.6244 -0.2148
  768MPD2    C411338   0.674   3.488  10.633  0.2902  0.9089  0.6814
  768MPD2    C511339   0.609   3.456  10.512 -0.0272  0.2156  0.4728
  768MPD2     H11340   0.465   3.317  10.826  1.6222 -0.6323  0.2811
  768MPD2    H111341   0.768   3.541  10.636  0.0752  1.3916 -0.6903
  768MPD2    H211342   0.445   3.381  10.406  1.9399  0.0637 -1.0650
  768MPD2    H311343   0.650   3.491  10.418 -0.7002 -1.2038 -0.3548
  768MPD2     N11344   0.682   3.460  10.866 -0.7136  0.0238  0.1431
  768MPD2    H511345   0.755   3.531  10.864 -0.2660 -0.3706  2.6511
  768MPD2    N111346   0.303   3.273  10.621  0.3605 -0.0416  0.0198
  768MPD2    H711347   0.289   3.226  10.709 -1.2326  2.4478  1.1005
  769MPD2     C11348   0.869   1.590  14.987 -0.0838 -0.1435 -0.1837
  769MPD2    C111349   0.831   1.470  15.031 -0.2166  0.0525  0.0860
  769MPD2    C211350   0.852   1.440  15.165  0.4491 -0.3101  0.5659
  769MPD2    C311351   0.902   1.541  15.254 -0.4894  1.1513  0.4691
  769MPD2    C411352   0.934   1.669  15.203 -0.5623  0.9324 -0.0635
  769MPD2    C511353   0.917   1.686  15.069 -0.2326  0.4810 -0.3769
  769MPD2     H11354   0.846   1.338  15.201 -1.1917 -0.8539 -1.2641
  769MPD2    H111355   0.969   1.756  15.257 -0.3720  0.3606  0.7371
  769MPD2    H211356   0.857   1.613  14.882  2.4583  0.0898 -0.4248
  769MPD2    H311357   0.933   1.784  15.026 -2.0498  1.2016  0.6042
  769MPD2     N11358   0.926   1.503  15.385 -0.4210 -0.4219 -0.2011
  769MPD2    H511359   0.900   1.407  15.407 -1.8986  0.2882  1.1667
  769MPD2    N111360   0.783   1.381  14.935 -0.4829  1.0233  0.0780
  769MPD2    H711361   0.771   1.423  14.844 -0.0101 -0.9434 -0.8937
  770MPD2     C11362   0.853   0.386  14.798  0.1821 -0.2411  0.2311
  770MPD2    C111363   0.776   0.448  14.894  0.1489  0.7077 -0.4758
  770MPD2    C211364   0.748   0.587  14.892  0.3817  0.2798  0.1580
  770MPD2    C311365   0.771   0.660  14.778 -0.0155 -0.1995  0.3348
  770MPD2    C411366   0.849   0.595  14.683 -0.0531 -0.0430  0.4116
  770MPD2    C511367   0.890   0.466  14.685  0.1876 -0.3602  0.5408
  770MPD2     H11368   0.705   0.644  14.974 -0.5451 -0.9989  0.5742
  770MPD2    H111369   0.895   0.651  14.603  0.7642  0.4876  1.2521
  770MPD2    H211370   0.871   0.280  14.810 -0.7561 -0.1487  2.3806
  770MPD2    H311371   0.964   0.443  14.609 -0.5505 -0.7332 -0.0634
  770MPD2     N11372   0.747   0.801  14.772 -0.3428 -0.4401  0.3551
  770MPD2    H511373   0.705   0.838  14.856  0.1409  1.6626 -0.3223
  770MPD2    N111374   0.731   0.367  14.999  0.3966  0.3541 -0.3508
  770MPD2    H711375   0.783   0.281  15.014  1.0396  1.1200  1.8387
  771MPD2     C11376   1.931   3.954  13.601 -0.3272 -0.7579  0.3300
  771MPD2    C111377   1.911   4.077  13.542 -0.3330  0.9037  0.3689
  771MPD2    C211378   1.794   4.108  13.470  0.7091 -0.1975  0.7698
  771MPD2    C311379   1.701   4.003  13.450 -0.5997  0.4000 -0.2166
  771MPD2    C411380   1.720   3.881  13.509 -0.0268  0.0917 -0.4148
  771MPD2    C511381   1.834   3.855  13.583  0.7035  0.2165 -0.3211
  771MPD2     H11382   1.771   4.205  13.428 -1.6652  0.1241  2.8484
  771MPD2    H111383   1.666   3.792  13.478  0.2089 -0.6145  1.1808
  771MPD2    H211384   2.020   3.921  13.652  0.7696  0.1161 -1.0105
  771MPD2    H311385   1.849   3.756  13.624 -1.7732 -0.3874 -0.8544
  771MPD2     N11386   1.599   4.026  13.359 -0.2445 -0.0676 -0.1914
  771MPD2    H511387   1.597   4.114  13.308  0.1676 -0.1078 -0.2718
  771MPD2    N111388   1.999   4.182  13.555 -0.2082  0.4039  1.3471
  771MPD2    H711389   1.971   4.269  13.511 -0.9635  1.0638  3.1084
  772MPD2     C11390   1.880   0.116  13.759 -0.9219  0.0984  0.3173
  772MPD2    C111391   1.846   4.712  13.706  0.6416  0.4629 -0.2884
  772MPD2    C211392   1.718   4.664  13.722 -0.3429  0.5420  0.0524
  772MPD2    C311393   1.621   0.027  13.770 -0.6687 -0.2122 -0.9156
  772MPD2    C411394   1.653   0.160  13.805  0.2398 -0.0203  0.1267
  772MPD2    C511395   1.783   0.196  13.814  0.6854  0.4550  0.3846
  772MPD2     H11396   1.690   4.567  13.682  2.1462 -1.1450  2.4259
  772MPD2    H111397   1.573   0.212  13.855  1.5492  0.6113  1.5722
  772MPD2    H211398   1.983   0.149  13.761 -0.3454 -1.7573  1.2678
  772MPD2    H311399   1.807   0.285  13.871 -1.5461  0.3274  1.4968
  772MPD2     N11400   1.483   4.715  13.775  0.0089 -0.2119 -0.8884
  772MPD2    H511401   1.421   0.058  13.825  0.4730 -0.7238  0.3139
  772MPD2    N111402   1.945   4.626  13.648  0.0709 -0.1781 -0.1425
  772MPD2    H711403   1.911   4.541  13.604 -0.4032 -0.7139  1.2452
  773MPD2     C11404   1.334   0.887   0.357  0.0550 -0.0387  0.6011
  773MPD2    C111405   1.222   0.812   0.357  0.4289  0.2654  0.7705
  773MPD2    C211406   1.206   0.701   0.435  0.1371 -0.2308  0.3541
  773MPD2    C311407   1.304   0.676   0.525  0.3580 -0.0339  0.3489
  773MPD2    C411408   1.421   0.746   0.529 -0.7541 -0.2202  0.0168
  773MPD2    C511409   1.431   0.856   0.450  0.4654 -0.1695 -0.4555
  773MPD2     H11410   1.115   0.643   0.429  1.0058 -1.7889  2.4458
  773MPD2    H111411   1.505   0.736   0.595 -1.4189 -0.6413  0.7997
  773MPD2    H211412   1.348   0.984   0.310 -2.6857  0.0805  0.0406
  773MPD2    H311413   1.520   0.918   0.447 -1.1756  2.1775 -1.6251
  773MPD2     N11414   1.284   0.555   0.585 -0.1485  0.6497  0.5252
  773MPD2    H511415   1.199   0.506   0.558  1.6570 -1.7364 -0.7307
  773MPD2    N111416   1.107   0.856   0.276 -0.4055  0.8323  0.3661
  773MPD2    H711417   1.028   0.793   0.284 -0.1951  0.6230  0.8111
  774MPD2     C11418   0.542   0.057  13.415 -0.2576  0.3294 -0.1090
  774MPD2    C111419   0.433   0.098  13.482 -0.8956  0.2401 -0.0267
  774MPD2    C211420   0.427   0.225  13.539  0.4957  0.0758  0.0763
  774MPD2    C311421   0.533   0.315  13.527  0.8360  0.6722  0.6021
  774MPD2    C411422   0.638   0.264  13.452  0.1183 -0.2596 -0.5834
  774MPD2    C511423   0.647   0.141  13.396  0.2569 -0.2534  0.5588
  774MPD2     H11424   0.338   0.256  13.593  0.1723  0.6674 -0.7887
  774MPD2    H111425   0.728   0.324  13.442 -0.5445  0.2382 -3.5212
  774MPD2    H211426   0.542   4.681  13.363  0.4229  0.3960 -0.2342
  774MPD2    H311427   0.736   0.116  13.340 -0.8259 -0.4928 -1.0344
  774MPD2     N11428   0.523   0.438  13.604 -0.4633  0.0450  0.2926
  774MPD2    H511429   0.435   0.455  13.651  0.0049  2.0521  0.4077
  774MPD2    N111430   0.322   0.014  13.505 -0.2610 -0.4758  0.1267
  774MPD2    H711431   0.248   0.051  13.564  1.1616  1.2244  0.8481
  775MPD2     C11432   1.598   0.853  16.170  0.1153  0.3236  0.1050
  775MPD2    C111433   1.511   0.958  16.126 -0.2522  0.7200 -0.3908
  775MPD2    C211434   1.569   1.068  16.066  0.0566  0.5483 -0.1434
  775MPD2    C311435   1.704   1.086  16.063  0.1905 -0.9766 -0.3042
  775MPD2    C411436   1.787   0.985  16.116 -0.7324 -0.1828 -0.0925
  775MPD2    C511437   1.731   0.871  16.161 -0.5834 -0.8037 -0.4342
  775MPD2     H11438   1.504   1.141  16.018 -1.2287 -0.8371 -0.4835
  775MPD2    H111439   1.893   0.994  16.132 -0.7279  2.0339 -1.4195
  775MPD2    H211440   1.560   0.757  16.203  0.4356 -0.7477 -2.6458
  775MPD2    H311441   1.800   0.790  16.181  1.7336  1.3999  0.4973
  775MPD2     N11442   1.763   1.201  16.016 -0.3395  0.2972  0.4326
  775MPD2    H511443   1.857   1.219  16.051  0.3530  0.9521 -1.7783
  775MPD2    N111444   1.371   0.956  16.148  0.1017  0.4281  0.2224
  775MPD2    H711445   1.336   0.876  16.200 -0.0884  1.1056  1.1316
  776MPD2     C11446   0.670   1.951  11.924  0.2404  0.1980  0.0488
  776MPD2    C111447   0.696   1.891  11.804  0.1880  0.3108 -0.2374
  776MPD2    C211448   0.755   1.972  11.706 -0.4162 -0.2771 -0.1202
  776MPD2    C311449   0.783   2.108  11.731  0.2759 -0.2489  0.4374
  776MPD2    C411450   0.763   2.155  11.856  0.3537 -0.0953 -0.9467
  776MPD2    C511451   0.707   2.077  11.957  0.4181 -0.7118 -0.9175
  776MPD2     H11452   0.766   1.936  11.604  1.9630 -0.8986  0.3547
  776MPD2    H111453   0.767   2.260  11.883  2.6026 -0.4613  0.1669
  776MPD2    H211454   0.621   1.900  12.006  1.2935  1.2391  1.3270
  776MPD2    H311455   0.660   2.118  12.045  2.3893  0.5370 -0.4393
  776MPD2     N11456   0.828   2.182  11.628  0.2780 -0.4748  0.4520
  776MPD2    H511457   0.831   2.138  11.536 -3.5157 -1.2787  0.7146
  776MPD2    N111458   0.679   1.749  11.795  0.2630  0.5150  0.2386
  776MPD2    H711459   0.642   1.711  11.882  0.7651 -1.6074 -0.4963
  777MPD2     C11460   1.243   4.361   1.118 -0.0319 -0.6255 -0.4088
  777MPD2    C111461   1.326   4.294   1.213 -0.6214  0.6248  0.1721
  777MPD2    C211462   1.416   4.196   1.180 -0.5367 -0.0855 -0.1476
  777MPD2    C311463   1.415   4.141   1.053  0.6039 -0.0406 -0.2626
  777MPD2    C411464   1.332   4.203   0.962  0.1368 -0.6219  0.0848
  777MPD2    C511465   1.255   4.312   0.988  0.1418  0.2110 -0.1750
  777MPD2     H11466   1.487   4.151   1.248 -0.4942 -0.9932 -0.7997
  777MPD2    H111467   1.334   4.168   0.860  0.3680  0.2874 -0.2242
  777MPD2    H211468   1.177   4.443   1.142 -0.5990 -0.8544 -1.2198
  777MPD2    H311469   1.201   4.352   0.903 -0.8662 -0.5673  0.1060
  777MPD2     N11470   1.490   4.016   1.024  0.1631  0.6171 -0.1835
  777MPD2    H511471   1.530   3.971   1.105 -2.8084 -0.5933  0.5883
  777MPD2    N111472   1.322   4.345   1.342 -0.1263  0.5996  0.0745
  777MPD2    H711473   1.244   4.404   1.369 -1.7705 -0.8986 -1.3565
  778MPD2     C11474   2.073   4.465  14.673 -0.4031  0.3329 -0.0930
  778MPD2    C111475   2.075   4.333  14.627  0.3747  0.0948  0.3986
  778MPD2    C211476   2.166   4.299  14.529  0.1943 -0.0294  0.3591
  778MPD2    C311477   2.267   4.386  14.485  0.1565 -1.3854  0.5897
  778MPD2    C411478   2.254   4.519  14.528  0.1148 -1.1932 -0.4978
  778MPD2    C511479   2.157   4.558  14.621 -0.3872  0.5409  0.5904
  778MPD2     H11480   2.155   4.198  14.492  0.5603  0.7233 -1.7983
  778MPD2    H111481   2.320   4.598  14.497 -0.1973 -0.1646  1.4610
  778MPD2    H211482   1.986   4.498  14.728 -0.6687  1.6015 -1.2693
  778MPD2    H311483   2.141   4.657  14.661  2.0888  1.1233  0.1140
  778MPD2     N11484   2.356   4.346  14.389  0.2071  1.0912  0.0604
  778MPD2    H511485   2.350   4.246  14.371  1.7773  1.0753 -0.3643
  778MPD2    N111486   1.981   4.239  14.667  0.4774  0.5914  0.1577
  778MPD2    H711487   1.965   4.163  14.602 -0.9973  1.7738 -0.8577
  779MPD2     C11488   1.934   3.030  14.840  0.3764 -0.4258  0.4790
  779MPD2    C111489   1.900   2.971  14.718  0.6393 -0.0988 -0.1662
  779MPD2    C211490   1.963   3.025  14.606  0.1540  0.2323 -0.4372
  779MPD2    C311491   2.043   3.133  14.617 -0.9701 -0.3386  0.0663
  779MPD2    C411492   2.075   3.188  14.741 -0.5288  0.1706  0.4602
  779MPD2    C511493   2.021   3.134  14.852 -0.2911  0.2140 -0.2605
  779MPD2     H11494   1.944   2.980  14.510  1.4624 -1.1636 -0.0499
  779MPD2    H111495   2.131   3.280  14.746 -1.5981  0.7654  1.3740
  779MPD2    H211496   1.897   2.991  14.935 -0.6759  0.1803  0.3161
  779MPD2    H311497   2.067   3.162  14.946  1.7304 -0.4966 -1.0365
  779MPD2     N11498   2.091   3.204  14.507  0.2744 -0.3952  0.8456
  779MPD2    H511499   2.155   3.274  14.541  1.5468 -1.0492 -0.2346
  779MPD2    N111500   1.810   2.859  14.701 -0.2360 -0.2090 -1.0421
  779MPD2    H711501   1.787   2.819  14.611  0.2170  0.7515 -1.5857
  780MPD2     C11502   0.482   2.602   0.318 -0.5764 -0.7869 -0.0971
  780MPD2    C111503   0.430   2.516   0.225  0.0671 -0.1080  0.4118
  780MPD2    C211504   0.454   2.537   0.095 -0.1069 -0.2242 -0.9433
  780MPD2    C311505   0.533   2.635   0.055  0.0399  0.0006 -0.1410
  780MPD2    C411506   0.577   2.733   0.151  0.0534 -0.0365  0.5147
  780MPD2    C511507   0.556   2.712   0.284 -0.1487 -0.3702  0.0470
  780MPD2     H11508   0.437   2.450   0.033 -0.1790 -1.3448  0.6818
  780MPD2    H111509   0.641   2.820   0.143  0.2532 -0.2673 -0.3107
  780MPD2    H211510   0.464   2.583   0.423 -0.9044  0.3114  0.0381
  780MPD2    H311511   0.608   2.771   0.358 -1.1416 -1.4278  1.5913
  780MPD2     N11512   0.574   2.640  17.596  0.5162  0.4147 -0.2713
  780MPD2    H511513   0.539   2.568  17.533  0.7870 -0.7118  0.8642
  780MPD2    N111514   0.351   2.413   0.279  0.3331 -0.4730 -0.3829
  780MPD2    H711515   0.353   2.406   0.381  2.7607  3.5618 -0.1560
  781MPD2     C11516   3.680   4.659  12.353 -0.3620 -0.1698  0.4627
  781MPD2    C111517   3.782   4.581  12.404  0.0083  0.0240  0.1533
  781MPD2    C211518   3.903   4.570  12.342  0.0890  0.8712 -0.2470
  781MPD2    C311519   3.923   4.660  12.239  0.1329 -0.2865  0.2717
  781MPD2    C411520   3.822   0.018  12.187  0.3900 -0.7541 -0.6135
  781MPD2    C511521   3.699   0.019  12.243  0.8263  0.1687 -0.5647
  781MPD2     H11522   3.965   4.484  12.362  1.1669  1.1536 -2.3088
  781MPD2    H111523   3.843   0.093  12.112  1.6938 -1.8583 -1.3732
  781MPD2    H211524   3.577   4.657  12.387 -0.6037 -0.8390 -0.3146
  781MPD2    H311525   3.615   0.074  12.203  0.3595  0.0948  0.3057
  781MPD2     N11526   4.049   4.671  12.176 -0.3108  0.2329  0.4700
  781MPD2    H511527   4.057   0.017  12.099 -0.3082 -3.8115 -2.9326
  781MPD2    N111528   3.763   4.512  12.527  0.4665 -0.9337 -0.3413
  781MPD2    H711529   3.667   4.512  12.560  0.4987 -0.2736 -0.2486
  782MPD2     C11530   1.268   0.744  10.128  0.4948  0.1246 -0.4491
  782MPD2    C111531   1.375   0.694  10.196  0.7371  1.0534  0.6318
  782MPD2    C211532   1.445   0.775  10.283  0.0283  0.0608  0.3402
  782MPD2    C311533   1.409   0.907  10.292 -0.3644 -0.6842 -0.5296
  782MPD2    C411534   1.328   0.964  10.196 -0.0531 -0.2062  0.4052
  782MPD2    C511535   1.248   0.878  10.122  0.8484 -0.0423  0.3064
  782MPD2     H11536   1.527   0.748  10.348  1.3224 -0.4503 -1.5014
  782MPD2    H111537   1.301   1.069  10.192 -1.3551 -0.5064  1.0791
  782MPD2    H211538   1.206   0.675  10.072 -0.5932  0.7528 -0.0285
  782MPD2    H311539   1.166   0.923  10.066 -0.2993  0.8075  2.6890
  782MPD2     N11540   1.476   0.986  10.384  0.0953  0.6947  0.0153
  782MPD2    H511541   1.471   1.086  10.370 -0.4672  0.9814  2.2835
  782MPD2    N111542   1.396   0.555  10.186  0.1047  0.3583 -0.5263
  782MPD2    H711543   1.323   0.497  10.147 -0.4568 -0.9390  2.4636
  783MPD2     C11544   0.830   0.230  10.696  0.0367 -0.1418 -0.0563
  783MPD2    C111545   0.916   0.343  10.706 -0.4056 -0.0632  0.1842
  783MPD2    C211546   1.031   0.348  10.622 -0.2757 -0.4805  0.7444
  783MPD2    C311547   1.072   0.241  10.547  0.6929 -0.0111 -0.5611
  783MPD2    C411548   0.995   0.129  10.543 -0.4889  0.2481  0.3842
  783MPD2    C511549   0.878   0.125  10.618 -0.3213  0.0808 -0.0124
  783MPD2     H11550   1.098   0.433  10.612  0.5316 -1.4255 -1.8231
  783MPD2    H111551   1.001   0.042  10.478  0.6072  1.3771 -1.0325
  783MPD2    H211552   0.737   0.227  10.751  1.3830  0.2045  2.2258
  783MPD2    H311553   0.815   0.037  10.609 -0.9086  0.5321 -0.3685
  783MPD2     N11554   1.203   0.252  10.483 -0.4347  0.6623 -0.4501
  783MPD2    H511555   1.240   0.346  10.476 -0.3702  0.6895  0.2585
  783MPD2    N111556   0.861   0.453  10.771 -0.1273 -0.2488  0.2810
  783MPD2    H711557   0.773   0.443  10.821 -0.6437  1.8569 -0.2207
  784MPD2     C11558   3.923   1.246   1.326 -0.0736  0.4869 -0.1340
  784MPD2    C111559   3.898   1.222   1.453  0.0717 -0.4360 -0.1553
  784MPD2    C211560   3.792   1.280   1.519 -0.1573 -0.1965  0.0374
  784MPD2    C311561   3.701   1.367   1.450  0.3834  0.0140 -0.7784
  784MPD2    C411562   3.726   1.384   1.309 -0.5091 -0.3704  0.0283
  784MPD2    C511563   3.837   1.327   1.257 -0.0677  0.3351  0.3173
  784MPD2     H11564   3.770   1.254   1.622  1.2358 -1.4431  0.0249
  784MPD2    H111565   3.673   1.453   1.245  0.7081  0.5616  0.0211
  784MPD2    H211566   4.002   1.194   1.272  0.4065  0.1855  0.8635
  784MPD2    H311567   3.870   1.337   1.155 -0.6322 -2.7748 -0.1709
  784MPD2     N11568   3.578   1.417   1.506  0.3454 -0.5717  0.1389
  784MPD2    H511569   3.561   1.382   1.600  0.8941 -0.0443  0.4325
  784MPD2    N111570   3.986   1.150   1.536 -0.2006  0.0807  0.2507
  784MPD2    H711571   3.963   1.153   1.634  0.6186  1.3213  0.3996
  785MPD2     C11572   3.485   4.471  10.374 -0.0007  0.0133  0.1833
  785MPD2    C111573   3.444   4.565  10.470 -0.0196  0.0358  0.0459
  785MPD2    C211574   3.342   4.658  10.437 -0.9118  0.1041  0.8264
  785MPD2    C311575   3.290   4.661  10.307  0.0744 -0.4109  0.7266
  785MPD2    C411576   3.327   4.564  10.216 -0.6200 -0.6798 -0.1539
  785MPD2    C511577   3.426   4.469  10.251  0.1298 -0.3863  0.3104
  785MPD2     H11578   3.302   0.016  10.503  1.6764  1.6262  0.6002
  785MPD2    H111579   3.293   4.566  10.113 -1.8009  0.7761  0.2685
  785MPD2    H211580   3.569   4.405  10.386  0.0964  0.2166  0.6223
  785MPD2    H311581   3.472   4.413  10.170 -1.6511 -0.1750 -0.8564
  785MPD2     N11582   3.213   0.056  10.281  0.2794 -0.1794 -0.0691
  785MPD2    H511583   3.188   0.109  10.364 -2.5939 -0.7022 -0.5815
  785MPD2    N111584   3.511   4.585  10.592 -0.5101  0.3665 -0.1023
  785MPD2    H711585   3.487   4.671  10.639  2.1595  0.5860  0.8477
  786MPD2     C11586   1.949   1.975  15.018 -0.9543  0.2648  0.1201
  786MPD2    C111587   2.039   1.873  14.997 -0.0070 -0.0274  0.3059
  786MPD2    C211588   2.108   1.829  15.108 -0.3235  0.1938 -0.2821
  786MPD2    C311589   2.098   1.884  15.232 -0.0907 -0.1328 -0.1909
  786MPD2    C411590   2.008   1.979  15.253  0.3258  0.2018  0.1197
  786MPD2    C511591   1.931   2.022  15.142  0.2478 -0.2503  0.1192
  786MPD2     H11592   2.170   1.740  15.106  0.2902  0.5921  0.9059
  786MPD2    H111593   1.987   2.014  15.353  0.1318  0.6648 -0.0813
  786MPD2    H211594   1.890   2.025  14.942  0.9845 -0.8623 -2.1310
  786MPD2    H311595   1.847   2.090  15.158  0.9152  0.6697 -0.2580
  786MPD2     N11596   2.177   1.843  15.344 -0.5035  0.1790  0.1539
  786MPD2    H511597   2.141   1.865  15.436  0.5457 -1.0764  0.8640
  786MPD2    N111598   2.069   1.814  14.872 -0.2066  0.1419  0.0401
  786MPD2    H711599   2.158   1.764  14.871  0.2815  1.0302 -0.7025
  787MPD2     C11600   2.686   1.670  14.776 -1.0260  0.2320 -0.7129
  787MPD2    C111601   2.601   1.595  14.695 -0.3008 -0.2659  0.3927
  787MPD2    C211602   2.647   1.475  14.644 -0.0136 -0.1403  0.0726
  787MPD2    C311603   2.775   1.428  14.673 -0.0597 -0.1248 -0.9277
  787MPD2    C411604   2.861   1.519  14.740 -0.0673  0.0481  0.3409
  787MPD2    C511605   2.823   1.643  14.786  0.4498  0.2269  0.5404
  787MPD2     H11606   2.582   1.409  14.587  1.5080 -1.4373 -0.1373
  787MPD2    H111607   2.967   1.501  14.759  0.0648 -2.1411 -2.4158
  787MPD2    H211608   2.656   1.768  14.813  0.2863  0.0501  0.8348
  787MPD2    H311609   2.896   1.709  14.833  0.4242 -0.0097  0.9165
  787MPD2     N11610   2.813   1.298  14.628  0.0741 -0.3742  0.0041
  787MPD2    H511611   2.743   1.239  14.584  0.5693 -1.1715  0.2756
  787MPD2    N111612   2.471   1.634  14.671 -0.3966  0.3155 -0.4583
  787MPD2    H711613   2.436   1.715  14.721 -1.7835  1.2487 -2.9441
  788MPD2     C11614   4.255   4.655   1.225  0.0148  0.3260  0.3710
  788MPD2    C111615   4.288   4.580   1.113  0.5979 -0.1129 -0.0681
  788MPD2    C211616   4.349   4.643   1.009 -0.1806  0.5109  0.0548
  788MPD2    C311617   4.377   0.061   1.016  0.8270  0.2705 -0.1353
  788MPD2    C411618   4.348   0.133   1.128 -0.5240 -0.0255  1.0698
  788MPD2    C511619   4.291   0.069   1.235 -0.3014  0.3290  0.5041
  788MPD2     H11620   4.364   4.593   0.914 -1.2283 -4.0852  2.2999
  788MPD2    H111621   4.375   0.238   1.128  0.0812 -0.1711 -1.3870
  788MPD2    H211622   4.208   4.604   1.308 -0.3367  1.1586  0.6831
  788MPD2    H311623   4.266   0.125   1.324 -0.8831  2.1077 -0.7691
  788MPD2     N11624   4.449   0.132   0.916  0.6875  0.4738  0.1661
  788MPD2    H511625   4.447   0.233   0.920  0.4898  0.5515 -1.8074
  788MPD2    N111626   4.260   4.440   1.108 -0.0034  0.0318  0.9243
  788MPD2    H711627   4.211   4.391   1.182 -0.8844 -1.5384 -0.7340
  789MPD2     C11628   4.462   0.132  16.163 -0.5131 -0.6000 -0.4597
  789MPD2    C111629   4.494   0.092  16.297 -0.5711 -0.3966 -0.4317
  789MPD2    C211630   4.410   0.139  16.398  0.2409  0.0122  0.5517
  789MPD2    C311631   4.318   0.235  16.380  0.0338  0.1696  0.5933
  789MPD2    C411632   4.292   0.270  16.251 -0.2412 -0.8092 -0.0377
  789MPD2    C511633   4.360   0.215  16.142  0.0058  0.1074  0.1937
  789MPD2     H11634   4.436   0.105  16.497  0.4656 -1.2959  0.0453
  789MPD2    H111635   4.222   0.348  16.222 -0.7901 -2.0559 -2.1437
  789MPD2    H211636   4.524   0.097  16.081  0.6972  0.3799  0.0440
  789MPD2    H311637   4.336   0.251  16.043  1.2311  0.6130  0.0790
  789MPD2     N11638   4.259   0.310  16.481  0.6484 -0.1280  0.1057
  789MPD2    H511639   4.187   0.377  16.455  0.0868 -0.0071  1.9918
  789MPD2    N111640   4.598   0.001  16.325 -0.7153 -0.0185 -1.1346
  789MPD2    H711641   4.604   4.690  16.421 -1.0302  0.6258 -0.9137
  790MPD2     C11642   0.524   2.146  13.837  0.5564 -0.3226 -0.3852
  790MPD2    C111643   0.620   2.043  13.834  1.1056  0.4711  0.3699
  790MPD2    C211644   0.650   1.979  13.712 -0.3676  0.4720  1.0576
  790MPD2    C311645   0.580   2.009  13.597  0.6064 -0.2936  0.3473
  790MPD2    C411646   0.490   2.112  13.608  0.8034  0.0218 -0.1377
  790MPD2    C511647   0.465   2.179  13.723  0.6232  0.0286 -0.3141
  790MPD2     H11648   0.733   1.910  13.714 -2.5265 -2.1243 -0.3200
  790MPD2    H111649   0.447   2.155  13.518  1.7404  0.5342 -0.3375
  790MPD2    H211650   0.489   2.208  13.919  0.7497 -1.4607  0.5545
  790MPD2    H311651   0.399   2.265  13.720 -0.9068 -1.1818 -1.4010
  790MPD2     N11652   0.586   1.919  13.488  0.4109  0.1747  0.1820
  790MPD2    H511653   0.636   1.833  13.509 -1.5494 -0.7457  1.0669
  790MPD2    N111654   0.680   2.026  13.954 -0.0865  0.5352  0.2890
  790MPD2    H711655   0.655   2.081  14.036  1.4839  0.9485  0.4968
  791MPD2     C11656   0.119   1.906  12.869 -0.5948 -0.7616 -0.0014
  791MPD2    C111657   0.146   1.776  12.905  0.6163  0.4343 -0.5369
  791MPD2    C211658   0.074   1.670  12.857  0.6386  0.3858 -0.5285
  791MPD2    C311659   4.695   1.695  12.763  0.6135 -0.0734  0.0933
  791MPD2    C411660   4.669   1.822  12.713  0.8594  0.0270 -0.1552
  791MPD2    C511661   0.018   1.921  12.778 -0.8035 -0.8031 -0.8177
  791MPD2     H11662   0.104   1.566  12.868  1.4898  0.8924  1.8568
  791MPD2    H111663   4.603   1.834  12.628  2.8980  1.3319 -1.5575
  791MPD2    H211664   0.162   1.992  12.918  2.7598 -2.3986 -0.1131
  791MPD2    H311665   4.718   2.020  12.738  0.8275 -0.4537 -0.7575
  791MPD2     N11666   4.622   1.581  12.710 -0.2822 -0.0717  0.0366
  791MPD2    H511667   4.653   1.492  12.749 -1.9187 -1.5402 -2.0512
  791MPD2    N111668   0.262   1.767  12.989 -0.4300  0.2054  0.2196
  791MPD2    H711669   0.302   1.850  13.031  0.4612  0.2479 -0.7061
  792MPD2     C11670   1.613   2.016  11.428 -0.2427  0.3855  0.3836
  792MPD2    C111671   1.518   2.024  11.333  0.6581 -0.1462  0.5319
  792MPD2    C211672   1.430   1.920  11.311  0.8102 -0.1645  0.3065
  792MPD2    C311673   1.448   1.795  11.386 -0.0406 -0.5516  0.2502
  792MPD2    C411674   1.557   1.787  11.467  0.3566 -0.4802 -0.8031
  792MPD2    C511675   1.641   1.891  11.488  0.7521  0.6219 -0.4167
  792MPD2     H11676   1.358   1.912  11.231  1.1928 -0.8245  0.0288
  792MPD2    H111677   1.575   1.702  11.531  1.1276  0.4031  0.1494
  792MPD2    H211678   1.685   2.096  11.437  1.4640 -1.0439 -0.6323
  792MPD2    H311679   1.726   1.892  11.556  1.0499 -2.2809 -0.7770
  792MPD2     N11680   1.367   1.679  11.373 -0.7517 -0.0945  0.0451
  792MPD2    H511681   1.403   1.591  11.409  2.7399  0.7695 -1.3040
  792MPD2    N111682   1.501   2.141  11.253  0.3075 -0.5877  0.6840
  792MPD2    H711683   1.577   2.207  11.256 -0.7532  0.6599  0.0529
  793MPD2     C11684   0.565   1.620  10.769  0.3361  0.5046  0.6392
  793MPD2    C111685   0.697   1.623  10.724 -0.6767 -0.1286 -0.2780
  793MPD2    C211686   0.805   1.591  10.806 -0.7498  0.3502 -0.0836
  793MPD2    C311687   0.768   1.561  10.941  0.4152 -0.2777 -0.2628
  793MPD2    C411688   0.641   1.538  10.981  0.2620 -0.2547 -0.1664
  793MPD2    C511689   0.540   1.570  10.896 -0.1489 -0.2339  0.2496
  793MPD2     H11690   0.908   1.585  10.774 -0.0747  1.5482  1.8592
  793MPD2    H111691   0.615   1.521  11.085 -0.4926 -0.7949 -0.4479
  793MPD2    H211692   0.477   1.639  10.709 -0.8412  3.4894  3.3253
  793MPD2    H311693   0.438   1.544  10.922  0.1142  0.4647  1.9997
  793MPD2     N11694   0.865   1.536  11.044 -0.1016  0.0920 -0.0863
  793MPD2    H511695   0.962   1.532  11.014 -0.0049  1.4930  0.0395
  793MPD2    N111696   0.723   1.670  10.592  0.5468 -0.0088 -0.4103
  793MPD2    H711697   0.822   1.669  10.569  0.3584 -0.2093 -1.2150
  794MPD2     C11698   0.636   1.445  17.502 -0.0741 -0.8907 -0.1305
  794MPD2    C111699   0.614   1.318  17.462  0.2873 -0.7065 -0.4296
  794MPD2    C211700   0.502   1.297  17.384  1.1240 -0.3011  0.4526
  794MPD2    C311701   0.403   1.393  17.361  0.1664 -0.3524 -0.5960
  794MPD2    C411702   0.420   1.517  17.416  0.1685 -0.0013  0.0021
  794MPD2    C511703   0.547   1.544  17.474  0.1529 -0.7697  0.5859
  794MPD2     H11704   0.492   1.202  17.334 -1.2156 -0.3492  0.9957
  794MPD2    H111705   0.355   1.602  17.400  2.0644  1.2780 -0.8937
  794MPD2    H211706   0.719   1.474  17.566  0.4204 -0.3955 -0.9934
  794MPD2    H311707   0.560   1.643  17.516 -0.2380 -1.2341  1.8032
  794MPD2     N11708   0.288   1.372  17.279  0.7684  0.6446 -0.2127
  794MPD2    H511709   0.217   1.444  17.281  0.0810 -0.1018  2.4288
  794MPD2    N111710   0.693   1.203  17.487  0.3768  0.2835 -0.5775
  794MPD2    H711711   0.662   1.112  17.455  1.2754  1.0374 -3.5960
  795MPD2     C11712   2.595   3.225  13.568  0.5677  0.3080  0.2202
  795MPD2    C111713   2.507   3.140  13.635 -0.1207 -0.1799 -0.2200
  795MPD2    C211714   2.561   3.052  13.729 -0.1839 -0.0188 -0.2270
  795MPD2    C311715   2.693   3.042  13.757 -0.2004 -0.4888  0.1898
  795MPD2    C411716   2.772   3.140  13.699  0.4537 -0.2231 -1.0872
  795MPD2    C511717   2.726   3.232  13.602 -0.2615 -0.5418 -0.9496
  795MPD2     H11718   2.495   2.983  13.780  0.1661  0.0409  0.3097
  795MPD2    H111719   2.876   3.143  13.729  0.1940  1.9946 -0.3970
  795MPD2    H211720   2.552   3.296  13.498 -1.1833 -0.8889  0.0810
  795MPD2    H311721   2.793   3.307  13.563 -0.3728 -0.7122 -1.4588
  795MPD2     N11722   2.740   2.936  13.848 -0.0887 -0.4029 -0.4321
  795MPD2    H511723   2.664   2.885  13.891 -0.2120 -0.3868 -0.6329
  795MPD2    N111724   2.370   3.135  13.614 -0.0186 -0.0027  0.5205
  795MPD2    H711725   2.323   3.076  13.681  1.0155  0.0897  1.3158
  796MPD2     C11726   2.527   4.625  15.674 -0.4222  0.6895 -0.0410
  796MPD2    C111727   2.646   4.661  15.725 -0.3781 -0.7157  0.8681
  796MPD2    C211728   2.661   0.062  15.791  0.2518  0.1241  0.0132
  796MPD2    C311729   2.551   0.146  15.812  0.2188 -0.0311  0.7714
  796MPD2    C411730   2.437   0.108  15.744 -0.4044  0.0040  0.3848
  796MPD2    C511731   2.424   4.710  15.676 -0.3361 -0.4777  0.8081
  796MPD2     H11732   2.757   0.083  15.838  0.9735 -0.2047 -1.3076
  796MPD2    H111733   2.358   0.182  15.735  0.9267  1.1641 -1.7757
  796MPD2    H211734   2.512   4.522  15.644  1.5529  0.2855  0.3659
  796MPD2    H311735   2.330   4.692  15.624  0.2687  1.0160 -0.7999
  796MPD2     N11736   2.561   0.260  15.896 -0.4969  0.4236 -0.4321
  796MPD2    H511737   2.649   0.262  15.946 -0.9071 -1.6719  0.3791
  796MPD2    N111738   2.753   4.566  15.712  0.2902  0.2597  0.3970
  796MPD2    H711739   2.723   4.475  15.679 -3.3719  1.4103  0.5678
  797MPD2     C11740   3.742   4.061  16.626  0.1957  0.1681  0.3031
  797MPD2    C111741   3.842   4.156  16.669  0.2307  0.8528  0.3327
  797MPD2    C211742   3.915   4.224  16.573 -0.0424  0.0135 -0.4863
  797MPD2    C311743   3.897   4.198  16.437 -0.0105  0.2108 -0.3132
  797MPD2    C411744   3.798   4.111  16.390  0.2664 -0.1789 -0.2472
  797MPD2    C511745   3.722   4.047  16.486  0.3183 -0.2570 -0.2135
  797MPD2     H11746   3.981   4.302  16.611  2.9507 -2.4377 -0.6877
  797MPD2    H111747   3.777   4.087  16.287  2.3399  1.2532 -1.0135
  797MPD2    H211748   3.669   4.010  16.686 -1.9473 -0.4776 -2.8897
  797MPD2    H311749   3.645   3.982  16.446 -2.1023  1.7639  1.1643
  797MPD2     N11750   3.961   4.268  16.337  0.4462  0.6565 -0.2639
  797MPD2    H511751   3.917   4.271  16.245  0.4160 -0.9153 -0.3097
  797MPD2    N111752   3.857   4.198  16.802  0.2872  0.4207  0.4923
  797MPD2    H711753   3.924   4.274  16.810  0.9449 -0.1113  0.0473
  798MPD2     C11754   3.803   0.188  16.534 -0.3989  0.3746 -0.5521
  798MPD2    C111755   3.911   0.106  16.551  0.1225 -0.1581  0.0143
  798MPD2    C211756   3.920   0.026  16.665  0.8500  0.5437  0.5463
  798MPD2    C311757   3.821   0.033  16.764 -0.7274 -1.0256  0.0377
  798MPD2    C411758   3.710   0.112  16.747  0.0808 -0.6342  0.2905
  798MPD2    C511759   3.706   0.192  16.641  0.0081 -0.1858 -0.3135
  798MPD2     H11760   4.005   4.680  16.682  1.0257  0.5041 -0.4733
  798MPD2    H111761   3.625   0.114  16.815  0.1788 -2.3320  0.4481
  798MPD2    H211762   3.797   0.245  16.441 -0.1177  1.4169  0.0657
  798MPD2    H311763   3.629   0.266  16.622  1.5037  1.5472  0.4447
  798MPD2     N11764   3.838   4.671  16.878 -0.5097 -0.0902 -0.1740
  798MPD2    H511765   3.922   4.614  16.890 -0.5872 -0.0354  0.6007
  798MPD2    N111766   4.005   0.095  16.442 -0.4542 -0.2550  0.6495
  798MPD2    H711767   3.985   0.154  16.362 -0.7824 -0.6427  0.4447
  799MPD2     C11768   2.225   1.124  14.603  0.7816  0.0823  0.2675
  799MPD2    C111769   2.195   1.025  14.508  0.6522  0.3168  0.1844
  799MPD2    C211770   2.130   1.060  14.395  0.0723 -0.0062 -0.3837
  799MPD2    C311771   2.114   1.193  14.363 -0.1670  0.1557  0.0764
  799MPD2    C411772   2.135   1.289  14.463 -0.4539 -0.2123 -0.0679
  799MPD2    C511773   2.190   1.254  14.585 -0.8066  0.1306  0.2540
  799MPD2     H11774   2.099   0.981  14.328  2.8442  0.0334 -1.7146
  799MPD2    H111775   2.117   1.394  14.445 -0.7491  0.2055  2.7060
  799MPD2    H211776   2.265   1.089  14.698 -1.5602 -1.2438  0.7725
  799MPD2    H311777   2.196   1.324  14.668 -2.6361  1.4863 -0.7611
  799MPD2     N11778   2.077   1.247  14.236  0.1618 -0.4001 -0.0550
  799MPD2    H511779   2.068   1.348  14.229 -0.6004 -0.6051 -1.9813
  799MPD2    N111780   2.228   0.891  14.529  0.2778  0.2024  0.6921
  799MPD2    H711781   2.193   0.824  14.461 -2.3996  2.1495  0.1718
  800MPD2     C11782   2.448   2.293  14.132 -0.1686 -0.6560  0.2140
  800MPD2    C111783   2.550   2.250  14.056 -0.0405  0.3325 -0.1986
  800MPD2    C211784   2.531   2.200  13.925  0.1871  0.7453  0.3829
  800MPD2    C311785   2.400   2.197  13.877 -0.1192 -0.4031 -0.0121
  800MPD2    C411786   2.295   2.245  13.954  0.0838  0.3716  0.1575
  800MPD2    C511787   2.323   2.292  14.079 -0.3622  0.0600  0.3642
  800MPD2     H11788   2.613   2.162  13.865  0.6509 -1.4138  2.3602
  800MPD2    H111789   2.205   2.262  13.896 -1.5047 -0.6391  2.3470
  800MPD2    H211790   2.461   2.325  14.235 -1.3676  2.1770 -0.5231
  800MPD2    H311791   2.243   2.346  14.129  1.3722  2.1384  0.8774
  800MPD2     N11792   2.394   2.147  13.744  0.1235 -0.2116  0.6377
  800MPD2    H511793   2.482   2.109  13.711 -0.8030 -0.7210 -1.2438
  800MPD2    N111794   2.683   2.263  14.122  0.4717  0.2127 -0.5594
  800MPD2    H711795   2.687   2.300  14.216  0.5105 -1.0244 -0.0793
  801MPD2     C11796   3.294   2.819  14.381  0.1373  0.6863  0.0264
  801MPD2    C111797   3.170   2.759  14.363 -0.8084  0.1671 -0.4536
  801MPD2    C211798   3.056   2.810  14.426  0.2333  0.1878 -0.1165
  801MPD2    C311799   3.074   2.922  14.513  0.5890 -0.1748  0.5029
  801MPD2    C411800   3.202   2.983  14.529 -0.0034  0.0700 -0.4419
  801MPD2    C511801   3.306   2.922  14.469 -0.5482 -0.4464 -0.6922
  801MPD2     H11802   2.959   2.763  14.414  0.6612 -1.4810  2.9502
  801MPD2    H111803   3.220   3.068  14.592  1.5903 -0.4247 -0.2387
  801MPD2    H211804   3.385   2.783  14.334  0.9198  2.9982 -0.2751
  801MPD2    H311805   3.404   2.967  14.483 -0.6748  0.1859 -1.8305
  801MPD2     N11806   2.965   2.963  14.595  0.2101 -0.4734  0.1974
  801MPD2    H511807   2.991   3.033  14.663  0.6496 -0.2674 -0.1795
  801MPD2    N111808   3.155   2.635  14.300  0.6183  0.1315  0.1293
  801MPD2    H711809   3.240   2.583  14.280 -0.4668 -1.5656 -0.0731
  802MPD2     C11810   1.966   3.077   0.050  0.8464  0.2963  0.2014
  802MPD2    C111811   1.947   3.204   0.096  0.5253  0.6207  0.1152
  802MPD2    C211812   2.060   3.271   0.139  0.0339 -0.0784  0.0827
  802MPD2    C311813   2.188   3.225   0.123 -0.6694  0.3413 -0.2563
  802MPD2    C411814   2.204   3.100   0.065  0.0106  0.7463  0.0107
  802MPD2    C511815   2.093   3.030   0.024 -0.8164 -0.9257  0.6354
  802MPD2     H11816   2.036   3.373   0.168  1.1163  0.5223 -1.1297
  802MPD2    H111817   2.303   3.059   0.057  0.6851  2.3500  0.0495
  802MPD2    H211818   1.884   3.026  17.680 -1.8025  0.9101  3.8931
  802MPD2    H311819   2.108   2.930  17.664 -0.7208  0.1630 -1.9960
  802MPD2     N11820   2.302   3.300   0.141 -0.3977  0.2441  0.0741
  802MPD2    H511821   2.295   3.386   0.195  1.2622  0.2905  0.2359
  802MPD2    N111822   1.816   3.257   0.100  0.2160  0.3341  0.0468
  802MPD2    H711823   1.817   3.358   0.114 -2.7638  0.0234  2.5471
  803MPD2     C11824   3.844   1.944  11.869 -0.5343 -0.0609  0.0818
  803MPD2    C111825   3.809   1.925  12.000  0.1402  0.6677 -0.2557
  803MPD2    C211826   3.711   1.835  12.028 -0.1784 -1.1990  0.2357
  803MPD2    C311827   3.681   1.738  11.938 -0.0923  1.0146 -0.0340
  803MPD2    C411828   3.739   1.739  11.814 -0.7685  0.4160 -0.3956
  803MPD2    C511829   3.827   1.841  11.780  0.6685  0.3186 -0.3996
  803MPD2     H11830   3.669   1.821  12.128  2.9732 -2.6373  1.3656
  803MPD2    H111831   3.714   1.675  11.730  0.1001 -2.3798  1.4884
  803MPD2    H211832   3.902   2.028  11.832  0.3053 -0.7845 -0.2361
  803MPD2    H311833   3.874   1.848  11.683 -0.0884 -0.2401 -0.8050
  803MPD2     N11834   3.591   1.631  11.969  0.1520 -0.1180 -0.3766
  803MPD2    H511835   3.595   1.542  11.920  1.4478  0.4415 -1.2979
  803MPD2    N111836   3.842   2.014  12.109  0.0557 -0.0488 -0.2868
  803MPD2    H711837   3.797   1.992  12.197  0.1407  1.5836  0.1576
  804MPD2     C11838   2.856   2.678  17.189  0.1303  0.1783  0.4732
  804MPD2    C111839   2.855   2.676  17.328 -0.3373 -0.6921  0.9725
  804MPD2    C211840   2.835   2.796  17.393 -0.4267 -0.2004  0.2883
  804MPD2    C311841   2.815   2.912  17.324 -0.1511  0.2220  0.2219
  804MPD2    C411842   2.823   2.916  17.188  0.1534  0.1806 -0.8372
  804MPD2    C511843   2.852   2.795  17.124  0.4484  0.2480 -0.0203
  804MPD2     H11844   2.848   2.811  17.500  0.3456 -3.2624  0.6350
  804MPD2    H111845   2.817   3.014  17.142 -0.8656 -0.4695 -2.0731
  804MPD2    H211846   2.872   2.589  17.128 -1.4365 -0.4761  1.0257
  804MPD2    H311847   2.874   2.785  17.019 -2.2740 -2.1603 -0.3708
  804MPD2     N11848   2.801   3.029  17.404  0.2715 -0.7163 -0.5034
  804MPD2    H511849   2.799   3.017  17.504  0.8018 -0.9392 -0.5175
  804MPD2    N111850   2.873   2.563  17.413  0.4775  0.0337 -0.2692
  804MPD2    H711851   2.867   2.587  17.511  0.2148 -0.6701 -0.1128
  805MPD2     C11852   2.084   0.944  15.918 -0.0509  0.7704 -0.0548
  805MPD2    C111853   2.158   1.043  15.850  0.1802 -0.0231  0.5470
  805MPD2    C211854   2.281   1.077  15.906  1.0616  0.8918  0.6339
  805MPD2    C311855   2.341   1.011  16.017 -0.1865 -0.0455  0.2995
  805MPD2    C411856   2.265   0.914  16.075  0.3982  0.6494 -0.3049
  805MPD2    C511857   2.141   0.882  16.025  0.0615  0.1153 -0.0256
  805MPD2     H11858   2.332   1.162  15.863 -2.2254  2.2883 -0.5377
  805MPD2    H111859   2.300   0.851  16.156 -1.8454  0.6973  0.6911
  805MPD2    H211860   1.990   0.901  15.885  0.7192 -0.2611 -0.9003
  805MPD2    H311861   2.088   0.798  16.067  0.5240  0.1081  0.5464
  805MPD2     N11862   2.474   1.045  16.058  0.8847 -0.7633  0.2010
  805MPD2    H511863   2.518   1.123  16.010  0.6026 -0.2358  0.8166
  805MPD2    N111864   2.121   1.109  15.729 -0.7905 -0.0748 -0.0927
  805MPD2    H711865   2.186   1.172  15.685 -1.0955 -0.3710 -0.9866
  806MPD2     C11866   3.283   1.093   1.470  0.1203 -0.5645  0.0802
  806MPD2    C111867   3.399   1.113   1.395 -0.0065 -0.3901  0.1017
  806MPD2    C211868   3.399   1.201   1.286  0.3326 -0.2251  0.5317
  806MPD2    C311869   3.280   1.262   1.251  0.5321 -0.0273 -0.1507
  806MPD2    C411870   3.169   1.235   1.324 -0.4079  0.2806  0.8037
  806MPD2    C511871   3.163   1.159   1.436 -1.0524 -0.0361 -0.2942
  806MPD2     H11872   3.489   1.237   1.237 -1.1357  2.1546 -0.4297
  806MPD2    H111873   3.075   1.285   1.305 -0.9625 -0.7372  0.8735
  806MPD2    H211874   3.281   1.018   1.547  4.0830  0.8902  1.6425
  806MPD2    H311875   3.072   1.146   1.494 -0.7091  0.6451  0.3949
  806MPD2     N11876   3.289   1.361   1.157  0.1823 -0.1833 -0.1545
  806MPD2    H511877   3.379   1.382   1.115  0.0250 -0.4485 -0.6328
  806MPD2    N111878   3.510   1.028   1.431 -0.1599  0.4010  0.0971
  806MPD2    H711879   3.500   0.966   1.511  0.2399  0.2597  0.0391
  807MPD2     C11880   3.847   0.823   1.996  0.3799 -0.1558 -0.2065
  807MPD2    C111881   3.751   0.769   1.913  0.8711  0.0435 -0.4382
  807MPD2    C211882   3.642   0.709   1.972  0.1622  0.0358  0.0749
  807MPD2    C311883   3.635   0.684   2.104 -0.0931 -0.3047  0.2901
  807MPD2    C411884   3.731   0.740   2.182  0.4444  0.1100 -0.3779
  807MPD2    C511885   3.836   0.811   2.128  0.5031 -0.0852 -0.1233
  807MPD2     H11886   3.565   0.664   1.911  0.0725  1.9363 -1.1807
  807MPD2    H111887   3.724   0.735   2.290 -5.6244 -0.1521 -0.8168
  807MPD2    H211888   3.926   0.886   1.957  1.5799 -0.7778  1.2295
  807MPD2    H311889   3.916   0.842   2.195  1.6606  1.7353 -2.3954
  807MPD2     N11890   3.521   0.622   2.162 -0.1842  0.3246  0.2930
  807MPD2    H511891   3.449   0.589   2.098  0.1252 -1.3618  0.8221
  807MPD2    N111892   3.751   0.795   1.774  0.3866  0.2593 -0.7459
  807MPD2    H711893   3.664   0.773   1.726 -0.6151  2.7599 -0.1056
  808MPD2     C11894   2.352   2.499   9.408 -0.9136  0.1715  0.4003
  808MPD2    C111895   2.442   2.510   9.514 -0.3401 -0.3872  0.1650
  808MPD2    C211896   2.484   2.637   9.549 -1.0424  0.1194  0.2793
  808MPD2    C311897   2.438   2.747   9.488  0.0740  0.0649 -0.4172
  808MPD2    C411898   2.358   2.733   9.376 -0.1763  0.7055 -0.4217
  808MPD2    C511899   2.316   2.606   9.339 -0.4286  0.4238 -0.3917
  808MPD2     H11900   2.558   2.641   9.629 -1.7109  1.0133  0.8524
  808MPD2    H111901   2.321   2.815   9.317 -0.7212  0.0281 -1.0257
  808MPD2    H211902   2.315   2.402   9.375 -2.3674  0.5334  0.9510
  808MPD2    H311903   2.241   2.598   9.262 -1.6372  1.3956  0.6947
  808MPD2     N11904   2.486   2.875   9.520  0.3820  0.4446 -0.2901
  808MPD2    H511905   2.452   2.950   9.460 -1.1489  0.7193  0.9145
  808MPD2    N111906   2.498   2.404   9.583 -0.5485 -0.0902 -0.4404
  808MPD2    H711907   2.572   2.410   9.653 -0.8532 -2.5443  0.0850
  809MPD2     C11908   3.153   3.587   9.396 -0.7631 -0.9499  0.0832
  809MPD2    C111909   3.143   3.453   9.405  0.1069 -0.7927  0.1292
  809MPD2    C211910   3.021   3.393   9.416  0.4098  0.1238 -0.1091
  809MPD2    C311911   2.910   3.476   9.411 -0.2972  0.0481  0.4450
  809MPD2    C411912   2.927   3.613   9.419  0.2252  0.4694 -0.0171
  809MPD2    C511913   3.047   3.671   9.407 -0.5595 -0.3799  0.6647
  809MPD2     H11914   3.013   3.285   9.423 -1.9021  0.2940 -0.2897
  809MPD2    H111915   2.836   3.670   9.435 -1.6643 -2.4306 -0.2212
  809MPD2    H211916   3.250   3.634   9.405 -0.1403 -1.8018 -1.9674
  809MPD2    H311917   3.075   3.775   9.410 -4.5239  0.6607  1.1951
  809MPD2     N11918   2.783   3.417   9.411 -0.9694 -0.1948  0.3557
  809MPD2    H511919   2.709   3.482   9.437 -1.9954 -0.9905 -0.5346
  809MPD2    N111920   3.251   3.362   9.400 -0.6945 -0.2797  0.0215
  809MPD2    H711921   3.231   3.263   9.400 -2.5627  0.1131 -2.0320
  810MPD2     C11922   3.140   1.794  10.376  0.0916  0.0885  0.3442
  810MPD2    C111923   3.092   1.714  10.480  0.3788 -0.9111  0.4741
  810MPD2    C211924   3.159   1.725  10.602  0.7846 -0.4469 -0.3681
  810MPD2    C311925   3.257   1.825  10.621 -0.3059 -0.3326  0.0070
  810MPD2    C411926   3.296   1.905  10.515  0.4521  0.8027 -0.7734
  810MPD2    C511927   3.240   1.882  10.396 -0.1885  0.3523 -0.0066
  810MPD2     H11928   3.128   1.674  10.693  0.6680  0.1736 -0.0554
  810MPD2    H111929   3.378   1.976  10.516  0.5138  0.6991  3.0795
  810MPD2    H211930   3.099   1.790  10.276 -0.7770 -1.2272  0.7586
  810MPD2    H311931   3.279   1.950  10.321 -0.7696  3.4240  2.4170
  810MPD2     N11932   3.302   1.857  10.753 -0.1175 -0.7255 -0.0537
  810MPD2    H511933   3.314   1.958  10.763  1.2846 -1.0464  1.4798
  810MPD2    N111934   2.990   1.619  10.452 -0.2359  0.0873 -0.2207
  810MPD2    H711935   2.950   1.625  10.359  1.0573  1.0420 -0.7168
  811MPD2     C11936   2.203   1.396  10.167 -0.0818  0.9046  0.5025
  811MPD2    C111937   2.309   1.489  10.174  0.2832  0.2686 -0.4981
  811MPD2    C211938   2.299   1.603  10.099 -0.0687  0.1310  0.0478
  811MPD2    C311939   2.192   1.627  10.016  0.3594 -0.2053  0.8425
  811MPD2    C411940   2.091   1.530  10.006 -0.0396 -0.0173  0.2868
  811MPD2    C511941   2.097   1.422  10.089  0.2399 -0.5566  0.2563
  811MPD2     H11942   2.376   1.679  10.090 -1.1106  1.1630 -0.2604
  811MPD2    H111943   2.002   1.541   9.947  2.1706  1.4162 -2.7754
  811MPD2    H211944   2.206   1.303  10.223  2.7436 -0.1361 -1.3700
  811MPD2    H311945   2.009   1.358  10.095  0.1154 -0.4722 -0.6068
  811MPD2     N11946   2.192   1.744   9.939 -0.5213  0.2232 -0.2589
  811MPD2    H511947   2.278   1.799   9.945 -1.8696  2.3080 -0.0953
  811MPD2    N111948   2.412   1.464  10.271  0.5962 -0.4280 -0.3231
  811MPD2    H711949   2.416   1.375  10.319 -1.0913 -0.7941 -0.8722
  812MPD2     C11950   1.598   1.548  12.166 -0.5420  0.0623 -0.7184
  812MPD2    C111951   1.536   1.624  12.260  0.2195  0.3554 -0.4094
  812MPD2    C211952   1.503   1.565  12.382 -1.2130 -0.2770 -0.7884
  812MPD2    C311953   1.536   1.432  12.417 -0.2485  0.2770  0.5131
  812MPD2    C411954   1.595   1.362  12.316  0.9547 -0.1121  0.8901
  812MPD2    C511955   1.626   1.418  12.195  0.5994 -0.3150  0.1414
  812MPD2     H11956   1.440   1.617  12.452 -0.0198  0.2481 -0.1165
  812MPD2    H111957   1.611   1.255  12.321 -0.6240 -0.2234  3.8293
  812MPD2    H211958   1.613   1.575  12.062  2.5131  2.9502  0.4834
  812MPD2    H311959   1.658   1.361  12.108 -0.9672 -0.4501 -0.3536
  812MPD2     N11960   1.509   1.378  12.547  0.5172  0.0446 -0.0469
  812MPD2    H511961   1.454   1.435  12.610  1.6544 -1.2244  2.1174
  812MPD2    N111962   1.503   1.757  12.219 -0.1988  0.2167 -0.8083
  812MPD2    H711963   1.536   1.799  12.132  0.6184  0.4856 -0.3670
  813MPD2     C11964   0.349   3.398  12.916 -0.1499 -0.3910  0.0525
  813MPD2    C111965   0.460   3.370  13.002  0.2439 -0.4353  0.1230
  813MPD2    C211966   0.443   3.263  13.094  0.4386 -0.2137  0.5224
  813MPD2    C311967   0.321   3.210  13.120 -0.7053 -0.4426 -0.7288
  813MPD2    C411968   0.212   3.240  13.041  0.0671 -0.4707 -0.0093
  813MPD2    C511969   0.231   3.340  12.943 -0.0438  0.6090 -0.0476
  813MPD2     H11970   0.526   3.237  13.160  1.8976  0.1475 -1.1830
  813MPD2    H111971   0.117   3.191  13.058  0.4988 -0.9769  0.9704
  813MPD2    H211972   0.356   3.468  12.834 -3.3038  0.2366  0.3332
  813MPD2    H311973   0.142   3.366  12.888 -1.1906 -2.4114  0.4093
  813MPD2     N11974   0.300   3.152  13.247 -0.2088 -0.8362 -0.8365
  813MPD2    H511975   0.383   3.156  13.306 -0.9169  2.2669 -0.0657
  813MPD2    N111976   0.581   3.432  12.992  0.4011  0.4242 -0.1576
  813MPD2    H711977   0.655   3.391  13.048  1.4298  1.4490 -0.7789
  814MPD2     C11978   1.406   0.070  12.188  0.8787  0.8533  0.4875
  814MPD2    C111979   1.373   0.141  12.074 -0.2077 -0.2367 -0.5446
  814MPD2    C211980   1.408   0.273  12.074  0.3213  0.1886  0.5001
  814MPD2    C311981   1.470   0.332  12.187 -0.0932  0.6487 -0.4225
  814MPD2    C411982   1.479   0.259  12.304 -0.6381  0.1084 -0.6008
  814MPD2    C511983   1.456   0.127  12.296 -0.4876  0.3746  0.7898
  814MPD2     H11984   1.392   0.329  11.982 -0.4121  0.5883  0.8729
  814MPD2    H111985   1.509   0.310  12.395  0.6557  1.3027 -1.7091
  814MPD2    H211986   1.395   4.682  12.175 -0.4739  0.9808  0.5717
  814MPD2    H311987   1.464   0.069  12.388 -0.5505 -0.5308  0.2253
  814MPD2     N11988   1.520   0.461  12.193  0.0746  0.3215 -0.2031
  814MPD2    H511989   1.575   0.482  12.276 -0.1659  0.4521 -0.0754
  814MPD2    N111990   1.325   0.088  11.946 -0.3059  0.4316 -0.0897
  814MPD2    H711991   1.338   0.143  11.861 -0.3594  1.3487  0.4941
  815MPD2     C11992   1.532   3.790  12.049  0.1862 -0.6427 -0.4469
  815MPD2    C111993   1.488   3.668  11.995  0.1587 -0.3042  0.4930
  815MPD2    C211994   1.369   3.615  12.030  0.2722  0.4703  0.6924
  815MPD2    C311995   1.296   3.670  12.130  0.0978  0.3442  0.2144
  815MPD2    C411996   1.332   3.790  12.184 -0.4282 -0.1512 -0.2142
  815MPD2    C511997   1.448   3.851  12.143  0.2046  0.0192  0.6671
  815MPD2     H11998   1.340   3.523  11.981  1.0943  1.2972 -1.3688
  815MPD2    H111999   1.267   3.843  12.253 -0.3803 -0.3518 -0.0191
  815MPD2    H212000   1.620   3.848  12.022 -1.3068  0.6047 -2.6360
  815MPD2    H312001   1.471   3.948  12.186 -1.7268 -0.6491  3.1787
  815MPD2     N12002   1.177   3.598  12.160  0.2355  0.0457  0.0086
  815MPD2    H512003   1.153   3.516  12.105 -0.5569 -0.2918  0.8503
  815MPD2    N112004   1.571   3.606  11.904  0.0111 -0.7067  0.1057
  815MPD2    H712005   1.648   3.657  11.863 -2.5173  3.5551  0.6800
  816MPD2     C12006   2.041   2.261  17.613  0.9975  0.1967 -0.1217
  816MPD2    C112007   1.992   2.226  17.492 -0.5263 -0.0078 -0.1807
  816MPD2    C212008   2.067   2.247  17.377 -0.0246 -0.2414  1.0597
  816MPD2    C312009   2.194   2.298  17.386 -0.3323  0.2208  0.4145
  816MPD2    C412010   2.253   2.314  17.507  0.1727  0.8917 -0.8187
  816MPD2    C512011   2.175   2.307  17.623 -0.5951 -0.8678  0.4118
  816MPD2     H12012   2.024   2.240  17.278  2.5502 -3.4713  0.1844
  816MPD2    H112013   2.358   2.336  17.524 -0.6884  2.9516  1.8076
  816MPD2    H212014   1.986   2.260   0.026  0.1019 -0.9671 -0.6718
  816MPD2    H312015   2.227   2.312   0.038  1.1646 -0.5384 -0.5523
  816MPD2     N12016   2.262   2.345  17.268  0.3096  0.1083 -0.4702
  816MPD2    H512017   2.216   2.348  17.177 -0.2227 -0.7327 -0.2394
  816MPD2    N112018   1.855   2.186  17.483 -0.0925  0.6973 -0.2072
  816MPD2    H712019   1.797   2.204  17.564 -0.0511 -1.3405  0.2618
  817MPD2     C12020   1.587   0.043  10.008 -0.6385  0.0345  0.6498
  817MPD2    C112021   1.712   0.098   9.987  0.2332 -0.3851  0.7248
  817MPD2    C212022   1.715   0.233   9.963 -0.2428 -0.1571  0.0189
  817MPD2    C312023   1.601   0.305   9.933  0.2222 -0.0630 -0.1191
  817MPD2    C412024   1.479   0.232   9.923  0.3934  0.0088  0.1487
  817MPD2    C512025   1.476   0.104   9.970 -0.4010  0.4868 -0.4015
  817MPD2     H12026   1.812   0.281   9.958 -0.9414  1.2286 -0.2947
  817MPD2    H112027   1.390   0.275   9.880  0.9260  1.3078  0.3337
  817MPD2    H212028   1.568   4.661  10.042 -0.1096  0.1437  1.2614
  817MPD2    H312029   1.380   0.054   9.978 -1.7453  3.3021  1.2791
  817MPD2     N12030   1.618   0.441   9.903 -0.3731  0.0640 -0.0628
  817MPD2    H512031   1.706   0.490   9.918  0.7713 -1.5080 -1.6638
  817MPD2    N112032   1.832   0.031  10.005  0.1041 -0.0213 -0.1706
  817MPD2    H712033   1.920   0.082   9.999  0.1534 -0.3806 -2.3258
  818MPD2     C12034   0.456   4.064   9.920  0.2284  0.0224 -0.5339
  818MPD2    C112035   0.389   3.999  10.018 -0.5632  0.2450 -0.9919
  818MPD2    C212036   0.421   3.863  10.036 -0.2758  0.0682  0.5699
  818MPD2    C312037   0.515   3.797   9.957  0.3275  0.2608  0.1810
  818MPD2    C412038   0.593   3.870   9.866  0.1779 -0.0269 -0.7701
  818MPD2    C512039   0.556   4.004   9.846 -0.4439  0.5214  0.1314
  818MPD2     H12040   0.362   3.817  10.114  1.3366 -0.4941  1.4664
  818MPD2    H112041   0.669   3.835   9.797  0.5213  1.0459 -0.9383
  818MPD2    H212042   0.426   4.166   9.896  1.4574  0.1542 -1.4913
  818MPD2    H312043   0.625   4.063   9.788  0.1114  1.2703  1.5657
  818MPD2     N12044   0.542   3.658   9.974 -0.5735 -0.0737  0.1922
  818MPD2    H512045   0.618   3.619   9.919 -1.5559  0.3753 -1.4547
  818MPD2    N112046   0.297   4.058  10.110  0.4385  0.5900 -0.1010
  818MPD2    H712047   0.274   3.996  10.187  1.9008  1.7276  1.2494
  819MPD2     C12048   2.595   0.755  15.771  0.6811 -0.1270  0.5139
  819MPD2    C112049   2.639   0.630  15.730 -0.4539  0.1628  0.2967
  819MPD2    C212050   2.758   0.577  15.777  0.4034 -0.2123 -0.2880
  819MPD2    C312051   2.831   0.657  15.862  0.6628  0.1660  0.5052
  819MPD2    C412052   2.777   0.773  15.912  0.2488 -0.0174 -0.8640
  819MPD2    C512053   2.665   0.824  15.867  0.8491  0.5241  0.2634
  819MPD2     H12054   2.805   0.490  15.734  0.2102 -0.7872  0.6659
  819MPD2    H112055   2.834   0.847  15.967 -0.3416  0.2939 -0.6709
  819MPD2    H212056   2.501   0.800  15.742  0.1850 -1.0442  0.7145
  819MPD2    H312057   2.627   0.919  15.904 -0.1657  0.8946 -1.7262
  819MPD2     N12058   2.965   0.619  15.886  0.1122 -0.2106  0.8277
  819MPD2    H512059   3.006   0.542  15.835  0.3105  0.0733  0.5577
  819MPD2    N112060   2.547   0.554  15.650  0.4817 -0.6406 -0.2259
  819MPD2    H712061   2.457   0.599  15.636  1.0976  0.6229 -0.1388
  820MPD2     C12062   2.067   0.889  14.923  0.0113  0.4401  1.0868
  820MPD2    C112063   2.152   0.914  15.032 -0.4916 -0.1002  0.0534
  820MPD2    C212064   2.222   0.801  15.077  0.5750  0.0074  0.5018
  820MPD2    C312065   2.206   0.675  15.019 -0.1236 -0.5629  0.3355
  820MPD2    C412066   2.132   0.658  14.907 -0.0807 -0.2967  0.4595
  820MPD2    C512067   2.060   0.767  14.857 -0.6544  0.5030  0.2655
  820MPD2     H12068   2.282   0.813  15.167  1.1014  0.7099  0.0553
  820MPD2    H112069   2.118   0.557  14.871 -1.0381 -0.1882  0.5469
  820MPD2    H212070   2.012   0.976  14.887  1.6018  0.5706 -1.0144
  820MPD2    H312071   1.995   0.759  14.770 -1.3682 -1.2792  0.9585
  820MPD2     N12072   2.265   0.562  15.090 -0.3293  0.6836  0.5595
  820MPD2    H512073   2.242   0.467  15.061  0.5989  0.1296  1.6405
  820MPD2    N112074   2.126   1.032  15.105 -0.5706  0.1860 -0.7771
  820MPD2    H712075   2.062   1.096  15.060  0.0022  1.5482  0.3290
  821MPD2     C12076   2.400   2.569  13.068 -0.1314  0.1940  0.1568
  821MPD2    C112077   2.501   2.493  13.108  0.3701  0.5168  0.7029
  821MPD2    C212078   2.628   2.519  13.070  0.3304 -0.7452  0.4563
  821MPD2    C312079   2.656   2.640  12.997 -0.1144  0.8589  0.2177
  821MPD2    C412080   2.552   2.722  12.954  0.3172  0.0329  0.1427
  821MPD2    C512081   2.430   2.684  12.991 -0.3210 -0.7843 -0.5301
  821MPD2     H12082   2.703   2.444  13.092  1.2591 -0.5753 -2.1104
  821MPD2    H112083   2.567   2.799  12.879 -0.1939 -0.4434 -0.4529
  821MPD2    H212084   2.297   2.541  13.084 -0.3642  1.7699  1.3654
  821MPD2    H312085   2.348   2.740  12.948  0.1629 -1.2928 -2.1390
  821MPD2     N12086   2.780   2.674  12.961 -0.3923  0.3350  0.2821
  821MPD2    H512087   2.794   2.724  12.873  0.7091 -2.5714 -1.1764
  821MPD2    N112088   2.487   2.382  13.190 -0.5419  0.2224  0.1422
  821MPD2    H712089   2.571   2.327  13.202 -1.1793 -0.7376  0.1301
  822MPD2     C12090   3.333   1.907  16.058  0.4062 -0.1424  0.2333
  822MPD2    C112091   3.422   1.897  16.162 -0.0049 -0.0030 -0.2445
  822MPD2    C212092   3.394   1.979  16.276  0.5110 -0.3437 -0.5255
  822MPD2    C312093   3.296   2.074  16.270 -0.7037  0.4745 -0.9455
  822MPD2    C412094   3.218   2.079  16.158  0.1143  0.1603 -0.2045
  822MPD2    C512095   3.233   1.991  16.059 -0.3754  0.1032  0.6093
  822MPD2     H12096   3.447   1.971  16.370  0.4457 -0.1532 -0.4709
  822MPD2    H112097   3.128   2.139  16.147  1.8560  2.8731  0.3259
  822MPD2    H212098   3.322   1.836  15.977 -0.2430  0.2096  0.0173
  822MPD2    H312099   3.162   1.966  15.981  1.0138  1.2433 -1.0368
  822MPD2     N12100   3.278   2.158  16.379  0.1275 -0.0787 -0.1751
  822MPD2    H512101   3.356   2.163  16.444 -1.1863 -3.0030  1.5922
  822MPD2    N112102   3.534   1.809  16.163  0.0802  0.0278  0.3134
  822MPD2    H712103   3.596   1.805  16.244  0.8985  1.0605 -0.2657
  823MPD2     C12104   3.222   2.566  17.147  0.1029  0.7324  0.3851
  823MPD2    C112105   3.206   2.461  17.058  0.4121  0.0532 -0.5257
  823MPD2    C212106   3.238   2.331  17.102 -0.4973 -0.1813  0.1759
  823MPD2    C312107   3.298   2.308  17.225 -0.2721  0.0244 -0.3183
  823MPD2    C412108   3.308   2.412  17.314 -0.1875 -0.6502 -0.4414
  823MPD2    C512109   3.268   2.534  17.278  0.2173 -0.6315  0.4160
  823MPD2     H12110   3.223   2.249  17.033 -2.3930 -1.2548  1.8917
  823MPD2    H112111   3.341   2.391  17.415 -0.7601  1.1957  0.1335
  823MPD2    H212112   3.186   2.665  17.121  0.2415  1.4581  3.0298
  823MPD2    H312113   3.261   2.604  17.360  1.1367  1.2901 -1.1514
  823MPD2     N12114   3.351   2.178  17.268  0.9286  0.5134  0.0996
  823MPD2    H512115   3.424   2.173  17.338 -0.4570  1.2949  1.5852
  823MPD2    N112116   3.161   2.489  16.929 -0.1715 -0.1692 -0.6587
  823MPD2    H712117   3.147   2.586  16.902 -0.7932  0.4073  1.7273
  824MPD2     C12118   3.795   1.025  15.847 -0.2004 -0.5215 -0.2430
  824MPD2    C112119   3.901   1.108  15.896  0.1626 -0.1640  0.0711
  824MPD2    C212120   4.036   1.066  15.887  0.2705 -0.2512  0.2181
  824MPD2    C312121   4.065   0.947  15.832  0.0418 -0.5817  0.3210
  824MPD2    C412122   3.959   0.866  15.785 -0.5448 -0.1565  0.8661
  824MPD2    C512123   3.825   0.907  15.791 -0.2739  0.0969  0.1333
  824MPD2     H12124   4.115   1.131  15.923 -0.3414  1.6475 -1.8354
  824MPD2    H112125   3.969   0.763  15.752  0.6918  0.3334 -0.2736
  824MPD2    H212126   3.690   1.045  15.862 -0.5795 -2.1334 -0.8372
  824MPD2    H312127   3.747   0.835  15.766  0.7401 -0.0686 -2.5599
  824MPD2     N12128   4.202   0.919  15.807 -0.4208  0.3703 -0.3175
  824MPD2    H512129   4.272   0.985  15.842 -0.9348  0.6775  0.1252
  824MPD2    N112130   3.883   1.229  15.963  0.1772  0.4805 -0.0283
  824MPD2    H712131   3.968   1.262  16.008  1.0395 -2.6653  0.6298
  825MPD2     C12132   0.146   1.278  15.878  0.6837  0.1600  0.2203
  825MPD2    C112133   0.055   1.263  15.780  0.0854 -1.2996  0.0934
  825MPD2    C212134   0.007   1.380  15.713 -0.5355 -0.3085  0.8357
  825MPD2    C312135   0.046   1.508  15.755  0.0977  0.1542  0.3118
  825MPD2    C412136   0.133   1.516  15.859 -0.9252 -0.1579  0.3188
  825MPD2    C512137   0.185   1.403  15.916 -0.1919 -0.2358  0.5732
  825MPD2     H12138   4.649   1.374  15.637  0.7707 -1.0574 -0.4484
  825MPD2    H112139   0.177   1.611  15.887 -1.0673  0.1351 -0.4730
  825MPD2    H212140   0.172   1.199  15.947 -1.1724  1.5499  2.5158
  825MPD2    H312141   0.248   1.419  16.003  0.7574  2.5624 -0.6386
  825MPD2     N12142   4.719   1.629  15.700  0.2442 -1.6618 -0.4044
  825MPD2    H512143   0.036   1.708  15.752 -0.0843 -2.2964  0.8098
  825MPD2    N112144   0.003   1.129  15.761 -0.4392  0.4921  0.1589
  825MPD2    H712145   0.032   1.057  15.826  1.6168  1.4163  0.2785
  826MPD2     C12146   4.127   1.882  13.426 -0.6707  0.2558  0.8324
  826MPD2    C112147   4.248   1.877  13.498  0.4097 -0.4607 -0.0600
  826MPD2    C212148   4.258   1.967  13.606 -0.5320 -0.0946  0.3213
  826MPD2    C312149   4.155   2.045  13.647  0.3595 -0.1693 -0.8263
  826MPD2    C412150   4.034   2.041  13.575 -0.4574  0.0172 -0.2072
  826MPD2    C512151   4.023   1.961  13.465  0.3211  0.4351 -1.1166
  826MPD2     H12152   4.363   1.979  13.631 -0.5340  0.9781 -0.2063
  826MPD2    H112153   3.948   2.105  13.587  0.7436  1.1575  2.3064
  826MPD2    H212154   4.105   1.819  13.340 -0.8503  0.0638  1.0210
  826MPD2    H312155   3.932   1.957  13.407  0.6492 -0.8098 -1.5483
  826MPD2     N12156   4.177   2.149  13.743 -0.5787 -0.4277 -0.0564
  826MPD2    H512157   4.104   2.214  13.769  0.0854  0.6205 -0.8116
  826MPD2    N112158   4.357   1.791  13.460 -0.3755 -0.1642 -0.5573
  826MPD2    H712159   4.350   1.749  13.368 -0.9748  1.7246 -1.3654
  827MPD2     C12160   0.857   2.887  10.216  0.8395 -0.0165  0.1949
  827MPD2    C112161   0.805   2.822  10.327  0.5413  0.2395 -0.5125
  827MPD2    C212162   0.683   2.759  10.305 -0.4020 -0.2965  0.5466
  827MPD2    C312163   0.617   2.774  10.185  0.1509  0.3130 -0.2541
  827MPD2    C412164   0.670   2.845  10.079  0.4677 -0.5859  0.3604
  827MPD2    C512165   0.798   2.895  10.095 -0.2025 -0.3331  0.3182
  827MPD2     H12166   0.643   2.694  10.382 -0.0940 -1.0622  0.0540
  827MPD2    H112167   0.623   2.870   9.985 -0.1082 -1.9396  0.2852
  827MPD2    H212168   0.954   2.934  10.223  1.9888 -2.8064  2.6279
  827MPD2    H312169   0.854   2.949  10.019 -2.3853 -0.1583 -1.1779
  827MPD2     N12170   0.482   2.726  10.178 -0.7041  0.6721  0.1372
  827MPD2    H512171   0.448   2.678  10.260  1.7444 -2.9938 -0.9694
  827MPD2    N112172   0.880   2.820  10.453 -0.1620  0.0997 -0.3171
  827MPD2    H712173   0.973   2.860  10.452  0.4538 -1.3614 -1.0400
  828MPD2     C12174   3.579   2.524  12.850 -0.2101  0.3188 -0.2912
  828MPD2    C112175   3.585   2.577  12.723  0.4586 -0.6545 -0.1641
  828MPD2    C212176   3.702   2.590  12.652 -0.3193  0.1801 -0.7732
  828MPD2    C312177   3.814   2.534  12.710  0.2947 -0.2248 -0.6629
  828MPD2    C412178   3.801   2.464  12.831  0.8653  0.2139 -0.1209
  828MPD2    C512179   3.690   2.464  12.904  0.0432 -0.3029 -0.2820
  828MPD2     H12180   3.714   2.641  12.557 -0.1973  0.6302 -0.5209
  828MPD2    H112181   3.886   2.399  12.851 -1.1476 -2.6477 -1.0267
  828MPD2    H212182   3.488   2.526  12.910  1.1897 -1.3241  1.9213
  828MPD2    H312183   3.696   2.413  13.000  2.2087  0.9019  0.2261
  828MPD2     N12184   3.944   2.524  12.652 -0.7101  0.9589 -0.0319
  828MPD2    H512185   4.023   2.480  12.699 -1.0061 -1.1809 -1.5561
  828MPD2    N112186   3.474   2.630  12.659 -0.3260  0.4329 -0.2788
  828MPD2    H712187   3.489   2.634  12.559  0.8640  3.1224  0.0148
  829MPD2     C12188   3.584   2.887  11.901  0.0362  0.1346 -0.2981
  829MPD2    C112189   3.451   2.893  11.886  0.1282 -0.6710 -0.5045
  829MPD2    C212190   3.375   2.868  12.000  0.5734  0.0878 -0.0835
  829MPD2    C312191   3.439   2.830  12.126  0.0080 -0.4761  0.2533
  829MPD2    C412192   3.574   2.841  12.135 -0.2061 -0.2109 -0.6538
  829MPD2    C512193   3.647   2.870  12.024 -0.0004 -0.5652 -0.0805
  829MPD2     H12194   3.269   2.888  11.997  0.3958 -0.5667  2.2651
  829MPD2    H112195   3.628   2.812  12.224 -1.5054  0.3332  0.3109
  829MPD2    H212196   3.652   2.913  11.820  0.5774 -1.2407 -0.2884
  829MPD2    H312197   3.755   2.867  12.030  0.0125 -0.6980 -0.3519
  829MPD2     N12198   3.368   2.798  12.247 -0.3414 -0.3810  0.9313
  829MPD2    H512199   3.434   2.771  12.320  1.0100  1.7410  0.4756
  829MPD2    N112200   3.399   2.917  11.756 -0.1334 -0.2602 -0.5057
  829MPD2    H712201   3.468   2.926  11.682 -1.5411 -0.4853 -1.8641
  830MPD2     C12202   3.316   0.493  15.380 -0.2830 -0.7209 -0.1953
  830MPD2    C112203   3.401   0.524  15.484 -0.4747 -0.3033 -0.4883
  830MPD2    C212204   3.531   0.554  15.446  0.3606  0.7599 -0.6252
  830MPD2    C312205   3.579   0.549  15.313  0.0955 -0.1372 -0.3961
  830MPD2    C412206   3.488   0.506  15.222 -0.0369 -0.2490 -0.3216
  830MPD2    C512207   3.361   0.477  15.254  0.0500 -0.3605 -0.1938
  830MPD2     H12208   3.602   0.576  15.525 -0.6520  3.4991 -0.4834
  830MPD2    H112209   3.514   0.482  15.119 -0.8924  0.6619 -0.7561
  830MPD2    H212210   3.212   0.470  15.403 -0.7388  0.3078 -1.2468
  830MPD2    H312211   3.291   0.437  15.181 -1.3541  1.5883  0.0712
  830MPD2     N12212   3.714   0.572  15.272 -0.5858  0.1525  0.4811
  830MPD2    H512213   3.736   0.553  15.175  1.7013  0.6100  0.8899
  830MPD2    N112214   3.356   0.519  15.617 -0.1956  0.0605  0.0480
  830MPD2    H712215   3.261   0.488  15.633 -0.0663 -0.8467 -0.9172
  831MPD2     C12216   3.532   2.267  16.658  0.4398 -0.2553  0.1067
  831MPD2    C112217   3.562   2.155  16.583  0.2417 -0.6256 -0.4801
  831MPD2    C212218   3.496   2.039  16.616 -0.7944 -0.2561  0.0235
  831MPD2    C312219   3.393   2.026  16.705  0.6928 -0.1553  0.1759
  831MPD2    C412220   3.370   2.138  16.778  0.2127 -0.0927 -0.1224
  831MPD2    C512221   3.433   2.252  16.758 -0.2346  0.1218  0.1365
  831MPD2     H12222   3.529   1.956  16.555 -0.2501 -0.3885  0.5015
  831MPD2    H112223   3.292   2.128  16.853  0.1225  1.8320  0.0250
  831MPD2    H212224   3.572   2.367  16.645 -3.0898  1.3206  1.1827
  831MPD2    H312225   3.401   2.329  16.827 -0.5184 -1.1569  1.4218
  831MPD2     N12226   3.313   1.906  16.731 -0.1412  0.3582  0.0928
  831MPD2    H512227   3.235   1.904  16.796 -0.7238  2.2699 -0.5680
  831MPD2    N112228   3.653   2.161  16.476 -0.1744  0.4196 -0.5477
  831MPD2    H712229   3.685   2.254  16.450 -2.3254  0.6939 -2.1911
  832MPD2     C12230   1.847   3.063  17.363 -0.0655  0.3572  0.1469
  832MPD2    C112231   1.823   3.169  17.275 -0.2367  0.6080 -0.1717
  832MPD2    C212232   1.756   3.140  17.153 -0.4205  0.1677  0.7735
  832MPD2    C312233   1.704   3.016  17.122 -0.3312  0.2761  0.3054
  832MPD2    C412234   1.741   2.916  17.205  0.6980 -0.2745 -0.0282
  832MPD2    C512235   1.806   2.936  17.322 -0.4657 -0.8344 -0.1792
  832MPD2     H12236   1.743   3.217  17.078 -0.1263  0.3187  0.8770
  832MPD2    H112237   1.712   2.816  17.176  1.3018 -0.5999  0.4843
  832MPD2    H212238   1.899   3.076  17.457 -0.9583  2.9234  0.2913
  832MPD2    H312239   1.823   2.854  17.391  1.8099  0.3626  0.6894
  832MPD2     N12240   1.635   2.982  17.000 -0.4002  0.2375 -0.2719
  832MPD2    H512241   1.601   2.886  16.997 -1.6981  0.7355 -1.7705
  832MPD2    N112242   1.884   3.290  17.311 -0.0347 -0.2836 -0.3845
  832MPD2    H712243   1.919   3.297  17.405 -1.3282 -0.4703  0.1154
  833MPD2     C12244   0.264   0.089  13.098 -0.5308  0.3071 -0.5000
  833MPD2    C112245   0.242   0.170  12.988 -0.4704 -0.4676  0.1265
  833MPD2    C212246   0.291   0.134  12.860  0.0628  0.1717 -0.4863
  833MPD2    C312247   0.336   0.010  12.829  0.8799 -0.2311 -0.6255
  833MPD2    C412248   0.346   4.648  12.946  0.3657 -0.3471 -0.0586
  833MPD2    C512249   0.321   4.692  13.075  0.1561 -0.0279  0.3038
  833MPD2     H12250   0.265   0.208  12.785 -1.6788  1.2006  1.1375
  833MPD2    H112251   0.388   4.548  12.938  0.6273 -0.3619  1.4791
  833MPD2    H212252   0.233   0.119  13.197 -0.9670 -1.9657  0.0545
  833MPD2    H312253   0.329   4.625  13.159  0.7747 -0.6454 -0.2480
  833MPD2     N12254   0.371   4.684  12.695  0.3930 -0.8487 -0.3421
  833MPD2    H512255   0.402   4.588  12.684  1.1771 -0.6659  0.1699
  833MPD2    N112256   0.185   0.302  12.992 -0.6259 -0.0478 -0.4046
  833MPD2    H712257   0.182   0.347  12.901  0.7369  4.4553  1.8065
  834MPD2     C12258   0.184   4.098  11.890 -0.2505 -0.1907 -0.4625
  834MPD2    C112259   0.124   4.218  11.846  0.0146  0.3165 -0.1112
  834MPD2    C212260   0.124   4.325  11.929 -0.0318 -0.5154  0.0768
  834MPD2    C312261   0.182   4.311  12.054 -0.1114 -0.1634 -0.4043
  834MPD2    C412262   0.233   4.190  12.101 -0.3046 -0.2976 -0.1353
  834MPD2    C512263   0.223   4.084  12.012  0.0837 -0.8776 -0.0280
  834MPD2     H12264   0.076   4.417  11.899  2.0164  0.1202 -1.2406
  834MPD2    H112265   0.287   4.177  12.193  0.6340  1.5446 -0.4168
  834MPD2    H212266   0.202   4.013  11.825 -0.3807  0.4259 -1.3022
  834MPD2    H312267   0.253   3.985  12.046 -0.5924 -0.8921  0.5297
  834MPD2     N12268   0.197   4.425  12.132 -0.5694 -0.0760  0.4135
  834MPD2    H512269   0.162   4.511  12.091 -1.4339 -0.1601  0.9802
  834MPD2    N112270   0.085   4.212  11.710  0.5507 -0.8225  0.7640
  834MPD2    H712271   0.093   4.126  11.657 -2.1501 -2.5509  3.1485
  835MPD2     C12272   4.626   2.923  10.897 -0.3278  0.6744  0.7021
  835MPD2    C112273   4.500   2.952  10.941  1.0189 -0.3147  0.6214
  835MPD2    C212274   4.470   2.933  11.070  0.7932  0.5443 -0.0043
  835MPD2    C312275   4.565   2.878  11.161  0.0398  0.5525  0.6855
  835MPD2    C412276   4.693   2.852  11.116 -0.0319 -0.0626 -0.3960
  835MPD2    C512277   0.001   2.876  10.978  0.1747 -0.2026  0.6127
  835MPD2     H12278   4.372   2.960  11.109  1.3261  1.0473  0.9862
  835MPD2    H112279   0.057   2.827  11.180  0.5202 -0.0351 -1.1023
  835MPD2    H212280   4.660   2.946  10.796  0.0647  2.5802  1.2702
  835MPD2    H312281   0.106   2.860  10.956  0.1703 -0.8205  1.0251
  835MPD2     N12282   4.532   2.875  11.303 -0.0686  0.2402 -0.2484
  835MPD2    H512283   4.608   2.861  11.369 -0.8039 -0.7146  0.3864
  835MPD2    N112284   4.398   2.996  10.849  0.3037 -0.7646 -0.5201
  835MPD2    H712285   4.312   3.027  10.894  2.3409 -0.7227  3.3465
  836MPD2     C12286   4.045   3.360  11.610 -0.2212 -0.3104 -0.1329
  836MPD2    C112287   4.036   3.248  11.686 -0.1189 -0.2902 -0.0697
  836MPD2    C212288   3.943   3.228  11.787 -0.4158 -0.6633 -0.8111
  836MPD2    C312289   3.836   3.312  11.781 -0.3604 -0.3304  0.3773
  836MPD2    C412290   3.841   3.429  11.707 -0.1185 -0.6143  0.0450
  836MPD2    C512291   3.948   3.454  11.629 -0.0466 -0.1711  0.9292
  836MPD2     H12292   3.946   3.134  11.841  1.4738 -0.7101 -1.0312
  836MPD2    H112293   3.762   3.503  11.709 -0.5388 -1.0305 -0.9655
  836MPD2    H212294   4.123   3.378  11.536 -1.1626  1.7494 -0.6132
  836MPD2    H312295   3.952   3.550  11.580  0.8048 -1.0127 -0.6248
  836MPD2     N12296   3.708   3.297  11.852  0.3395 -0.3204  0.1532
  836MPD2    H512297   3.632   3.362  11.841 -0.9294 -1.6891  0.8835
  836MPD2    N112298   4.128   3.152  11.656  0.1671  0.1660  0.2765
  836MPD2    H712299   4.192   3.159  11.578  1.2169 -1.9108  0.9364
  837MPD2     C12300   2.417   2.490  10.038 -0.2360  0.0615  0.4797
  837MPD2    C112301   2.300   2.468   9.963  0.6969  0.3655 -0.6318
  837MPD2    C212302   2.240   2.581   9.910  0.3186  0.5220  0.3341
  837MPD2    C312303   2.292   2.708   9.920 -0.4445  0.9701  0.4622
  837MPD2    C412304   2.419   2.725   9.983  0.4533 -0.2219  0.0181
  837MPD2    C512305   2.466   2.620  10.060  0.5455  0.1833  0.8012
  837MPD2     H12306   2.149   2.570   9.853  0.8000  1.7963 -0.6737
  837MPD2    H112307   2.460   2.825   9.996  0.7231 -0.3261 -0.0473
  837MPD2    H212308   2.458   2.409  10.098 -0.3277 -1.3264 -1.2999
  837MPD2    H312309   2.553   2.641  10.120  2.6973  1.7930 -2.9172
  837MPD2     N12310   2.227   2.810   9.846 -0.3869  0.0875  0.0168
  837MPD2    H512311   2.132   2.800   9.811 -0.1889  3.1033 -1.4157
  837MPD2    N112312   2.250   2.347   9.921  0.0028  0.0991 -0.0060
  837MPD2    H712313   2.159   2.358   9.879 -0.5059  1.3451  1.4415
  838MPD2     C12314   0.900   0.974  11.769 -0.2636  0.0495 -0.0103
  838MPD2    C112315   0.962   0.860  11.817 -0.5297  0.6048  0.0484
  838MPD2    C212316   0.885   0.751  11.855 -0.5185 -0.2878  0.0824
  838MPD2    C312317   0.752   0.744  11.812  0.6640 -0.6800  0.1870
  838MPD2    C412318   0.695   0.851  11.757  0.0477  0.2429 -0.1706
  838MPD2    C512319   0.763   0.967  11.743  0.2268  0.2721 -0.0818
  838MPD2     H12320   0.920   0.657  11.897 -1.5505  0.0959  1.7828
  838MPD2    H112321   0.590   0.870  11.740  0.1895 -0.5846 -2.0326
  838MPD2    H212322   0.955   1.062  11.736 -0.6361  0.5272  0.6431
  838MPD2    H312323   0.714   1.058  11.709 -0.7743  0.3328  1.5201
  838MPD2     N12324   0.677   0.629  11.835  0.8168  0.2881 -0.4718
  838MPD2    H512325   0.719   0.569  11.906  0.4754 -0.0552 -0.5622
  838MPD2    N112326   1.097   0.849  11.829  0.1059 -0.3584  0.0191
  838MPD2    H712327   1.133   0.760  11.864 -0.1370 -0.9651 -1.2735
  839MPD2     C12328   0.922   0.253  11.892 -0.2139  0.3905  0.3868
  839MPD2    C112329   0.922   0.300  11.764  0.2218  0.4424 -0.0413
  839MPD2    C212330   1.023   0.383  11.715 -0.1069 -0.1558 -0.5948
  839MPD2    C312331   1.119   0.427  11.806  0.7307 -0.3409  1.1406
  839MPD2    C412332   1.126   0.371  11.934 -0.6248  0.1748 -0.4500
  839MPD2    C512333   1.030   0.284  11.976 -0.6756  0.2703  0.6132
  839MPD2     H12334   1.023   0.419  11.613  3.1048  1.1978 -0.1211
  839MPD2    H112335   1.206   0.398  12.002  0.2214  0.3932 -1.5128
  839MPD2    H212336   0.833   0.200  11.925  0.1072  1.0898  2.3317
  839MPD2    H312337   1.027   0.248  12.078 -1.6746  1.0919  0.8733
  839MPD2     N12338   1.219   0.509  11.773  0.1639 -0.0597 -0.5093
  839MPD2    H512339   1.256   0.556  11.855  0.1251 -3.5092  1.4823
  839MPD2    N112340   0.824   0.258  11.671  0.2445 -0.2050  0.2771
  839MPD2    H712341   0.843   0.294  11.577  0.3221 -0.9227  0.0209
  840MPD2     C12342   1.478   3.005  10.575  0.5306  0.4853  0.9418
  840MPD2    C112343   1.382   3.029  10.678  0.1224  0.0996 -0.2344
  840MPD2    C212344   1.403   3.148  10.748 -0.5159  0.3953  0.5468
  840MPD2    C312345   1.511   3.231  10.727  0.1867 -0.1285 -0.3160
  840MPD2    C412346   1.589   3.207  10.618  0.1097 -0.1499  0.1713
  840MPD2    C512347   1.571   3.095  10.540  0.0042  0.4242 -0.0390
  840MPD2     H12348   1.343   3.166  10.836  1.1929  0.0324  1.7787
  840MPD2    H112349   1.663   3.278  10.584  1.3891 -1.2298  0.6989
  840MPD2    H212350   1.471   2.910  10.523 -2.2376  0.4624  1.3744
  840MPD2    H312351   1.647   3.082  10.464 -0.9434 -2.2471 -0.5177
  840MPD2     N12352   1.537   3.356  10.791 -0.1655  0.2034  0.0119
  840MPD2    H512353   1.633   3.387  10.792 -1.3117  3.7498  0.3700
  840MPD2    N112354   1.277   2.935  10.699  0.4234  0.0910 -0.1368
  840MPD2    H712355   1.261   2.862  10.630 -1.9680 -0.3594  0.8952
  841MPD2     C12356   0.321   3.059  14.472 -0.2821  0.5143 -0.6501
  841MPD2    C112357   0.378   3.005  14.353 -0.0875  0.4252  0.5708
  841MPD2    C212358   0.507   3.046  14.335 -0.0235 -0.5914 -0.4969
  841MPD2    C312359   0.581   3.140  14.421  0.8469 -0.0560 -0.2646
  841MPD2    C412360   0.517   3.181  14.533  0.0646 -0.5417  0.3298
  841MPD2    C512361   0.386   3.139  14.558 -0.6430  0.1939 -0.5364
  841MPD2     H12362   0.567   3.016  14.249  0.6823  3.1941 -1.3187
  841MPD2    H112363   0.561   3.231  14.617 -0.6440 -0.5781  0.7259
  841MPD2    H212364   0.224   3.025  14.507  0.1036 -0.5136 -0.5634
  841MPD2    H312365   0.342   3.165  14.654 -2.5096  1.1553 -1.6838
  841MPD2     N12366   0.719   3.175  14.397 -0.6209 -0.8494  0.0256
  841MPD2    H512367   0.765   3.125  14.323 -2.7128 -0.2438 -1.6763
  841MPD2    N112368   0.322   2.915  14.254  0.1619  0.0080  0.6993
  841MPD2    H712369   0.378   2.886  14.174 -0.9633 -3.0153  0.9957
  842MPD2     C12370   0.426   3.128  17.173  0.0646 -0.2012 -0.5705
  842MPD2    C112371   0.499   3.239  17.130 -0.2547  0.3156  1.0273
  842MPD2    C212372   0.579   3.304  17.221  0.9324  0.1996 -0.7223
  842MPD2    C312373   0.592   3.261  17.355  0.1060  0.5181  0.3284
  842MPD2    C412374   0.521   3.153  17.398 -0.1469 -0.9310 -0.4860
  842MPD2    C512375   0.442   3.085  17.306 -0.1609 -0.0494 -0.5600
  842MPD2     H12376   0.619   3.396  17.181 -1.0812  1.6563  0.5714
  842MPD2    H112377   0.525   3.121  17.501 -2.8088  0.7849  0.1531
  842MPD2    H212378   0.367   3.070  17.102 -3.1087  2.7330 -0.3311
  842MPD2    H312379   0.385   3.007  17.355 -1.5314  2.1385  1.3478
  842MPD2     N12380   0.678   3.342  17.439  0.1491  0.2157 -0.3871
  842MPD2    H512381   0.705   3.433  17.403  1.7854  0.1567  0.7089
  842MPD2    N112382   0.471   3.270  16.993  0.0273  0.2795  0.1693
  842MPD2    H712383   0.401   3.211  16.949  0.2876  1.2051 -1.4845
  843MPD2     C12384   3.133   4.153   0.021  0.2414  0.0186  0.2316
  843MPD2    C112385   3.148   4.134   0.155  0.2890  0.0020  0.6985
  843MPD2    C212386   3.238   4.209   0.224  0.1756  0.6575  0.2312
  843MPD2    C312387   3.326   4.298   0.162  0.7284 -0.0023  0.0103
  843MPD2    C412388   3.308   4.319   0.029 -0.1056 -0.2453  0.1855
  843MPD2    C512389   3.217   4.237  17.638 -0.1301 -0.0161  0.2897
  843MPD2     H12390   3.249   4.198   0.331 -1.4447 -0.5657  0.2681
  843MPD2    H112391   3.370   4.390  17.655  1.0507  0.4240  2.3429
  843MPD2    H212392   3.067   4.098  17.636 -0.4117  1.2288 -0.1393
  843MPD2    H312393   3.221   4.239  17.529  3.3402 -1.4558  0.3889
  843MPD2     N12394   3.443   4.360   0.219 -0.3666 -0.0514  0.7896
  843MPD2    H512395   3.483   4.436   0.165 -1.3487 -1.5487 -2.0057
  843MPD2    N112396   3.080   4.027   0.214 -0.1302 -0.4770  0.2860
  843MPD2    H712397   3.047   3.953   0.152  0.1259 -0.0364 -0.3719
  844MPD2     C12398   2.027   3.811  16.639 -0.0803 -0.3464 -0.4819
  844MPD2    C112399   2.117   3.712  16.656  0.8335 -0.2128 -0.2215
  844MPD2    C212400   2.241   3.735  16.719 -0.1462 -0.3546  1.1140
  844MPD2    C312401   2.282   3.867  16.748  0.2590  0.8997 -0.6586
  844MPD2    C412402   2.192   3.965  16.727 -1.2672 -0.2702  0.0919
  844MPD2    C512403   2.068   3.939  16.671 -0.6217 -0.2546  0.1110
  844MPD2     H12404   2.306   3.649  16.735 -0.8933 -1.1947 -0.3902
  844MPD2    H112405   2.217   4.069  16.743 -1.4119 -0.3295  0.6895
  844MPD2    H212406   1.926   3.799  16.600 -0.3420 -1.4575  0.5318
  844MPD2    H312407   1.999   4.020  16.650 -0.1613 -0.2619 -1.4410
  844MPD2     N12408   2.414   3.884  16.798  0.2701  0.5933  0.3828
  844MPD2    H512409   2.476   3.807  16.819 -0.5680 -0.3930 -0.7861
  844MPD2    N112410   2.071   3.588  16.604 -0.5384  0.0108 -0.3307
  844MPD2    H712411   1.978   3.589  16.565 -0.8829 -2.1143  0.4277
  845MPD2     C12412   2.244   4.527  17.114 -0.0889  0.1770  0.0545
  845MPD2    C112413   2.209   4.451  17.009 -0.4765  0.4363  0.5140
  845MPD2    C212414   2.314   4.406  16.928  0.3574  0.1397  0.0990
  845MPD2    C312415   2.445   4.432  16.959 -0.3719  0.3946  0.4556
  845MPD2    C412416   2.472   4.509  17.068  0.4200  0.1928 -0.0862
  845MPD2    C512417   2.376   4.571  17.135 -1.2407 -0.1903 -0.2672
  845MPD2     H12418   2.304   4.346  16.838 -0.5181  0.9845 -0.3738
  845MPD2    H112419   2.575   4.532  17.092  0.1305  1.4260 -0.0255
  845MPD2    H212420   2.167   4.560  17.182  2.6458 -0.0424  3.2509
  845MPD2    H312421   2.402   4.621  17.228  1.2351  0.0051 -1.0694
  845MPD2     N12422   2.535   4.348  16.886 -0.3279  0.0510  0.2672
  845MPD2    H512423   2.483   4.278  16.835 -0.8353  0.5833  0.0453
  845MPD2    N112424   2.080   4.403  16.995  0.5886  0.2633  0.2632
  845MPD2    H712425   2.016   4.415  17.072  0.5029  0.2290  0.1975
  846MPD2     C12426   3.943   4.283  14.406 -0.4857  0.5574 -0.6790
  846MPD2    C112427   3.835   4.316  14.337  0.0445  0.4033  0.1842
  846MPD2    C212428   3.708   4.308  14.396 -0.1446  0.0293  0.0056
  846MPD2    C312429   3.700   4.275  14.530  0.6315  0.1034 -0.5472
  846MPD2    C412430   3.814   4.244  14.605  0.1169 -0.4443 -0.0802
  846MPD2    C512431   3.930   4.243  14.537 -0.1950  0.2050 -0.0620
  846MPD2     H12432   3.620   4.341  14.342 -0.7123 -0.5808  0.5577
  846MPD2    H112433   3.817   4.225  14.712  0.1828  0.1331  0.0203
  846MPD2    H212434   4.042   4.300  14.366 -0.7287  1.4736 -0.8976
  846MPD2    H312435   4.025   4.225  14.587 -1.0487  0.7033  1.7393
  846MPD2     N12436   3.566   4.246  14.576  0.4386 -0.5998 -0.3003
  846MPD2    H512437   3.490   4.252  14.509 -0.3612 -2.9990  0.4242
  846MPD2    N112438   3.842   4.369  14.206 -0.2740 -0.7683 -0.5495
  846MPD2    H712439   3.759   4.406  14.160 -0.2666 -0.1751 -0.0896
  847MPD2     C12440   3.363   0.849  13.332  0.2977 -0.4755 -0.3691
  847MPD2    C112441   3.312   0.969  13.367 -0.2992 -0.0541  0.3740
  847MPD2    C212442   3.404   1.065  13.420 -0.1276  0.6034 -0.1013
  847MPD2    C312443   3.538   1.039  13.436  0.0105  0.4847 -0.1853
  847MPD2    C412444   3.581   0.905  13.405 -0.1088 -0.2072 -0.3049
  847MPD2    C512445   3.493   0.817  13.353 -0.2485 -0.1366  0.5163
  847MPD2     H12446   3.372   1.167  13.435  1.4895  0.9360  1.1101
  847MPD2    H112447   3.680   0.869  13.428 -0.8221 -1.6467  0.5694
  847MPD2    H212448   3.293   0.773  13.297  0.5782 -1.0686  0.3566
  847MPD2    H312449   3.533   0.726  13.309  0.9100  1.5445 -1.9124
  847MPD2     N12450   3.623   1.142  13.482 -0.4327  0.2310  0.1105
  847MPD2    H512451   3.574   1.230  13.495 -2.0157 -0.6613  0.2090
  847MPD2    N112452   3.180   1.011  13.371  0.0831  0.5287 -0.2830
  847MPD2    H712453   3.155   1.106  13.399 -1.2241  0.7012 -2.0068
  848MPD2     C12454   1.465   3.076  16.164 -0.5334  0.2280 -0.4300
  848MPD2    C112455   1.472   3.153  16.278  0.4857 -0.1452 -0.3680
  848MPD2    C212456   1.448   3.290  16.258  0.1226  1.0738  0.2844
  848MPD2    C312457   1.419   3.348  16.134  0.4463  0.1503 -0.4681
  848MPD2    C412458   1.420   3.268  16.021  0.7034  0.2999  0.3192
  848MPD2    C512459   1.450   3.132  16.041 -0.5174  0.5256 -0.1090
  848MPD2     H12460   1.429   3.342  16.351  1.8614 -0.9945  1.7876
  848MPD2    H112461   1.393   3.307  15.924 -0.6569  0.7079  0.8592
  848MPD2    H212462   1.481   2.969  16.177 -0.3658  0.5938  2.2630
  848MPD2    H312463   1.452   3.069  15.952 -3.8799  0.6934 -0.2948
  848MPD2     N12464   1.380   3.479  16.113  0.0789  0.5612  0.8509
  848MPD2    H512465   1.353   3.513  16.021 -0.1981  1.2814  1.1996
  848MPD2    N112466   1.485   3.100  16.406 -0.3407 -1.0501 -0.3010
  848MPD2    H712467   1.482   3.167  16.482 -0.7303 -0.0524 -1.1921
  849MPD2     C12468   0.840   3.841  14.587 -0.2554  0.0572  0.1047
  849MPD2    C112469   0.870   3.795  14.463 -0.0469 -0.6333 -0.9384
  849MPD2    C212470   0.999   3.767  14.419  0.0499 -0.0896 -0.8538
  849MPD2    C312471   1.105   3.799  14.506  0.2650  0.2669  0.2119
  849MPD2    C412472   1.072   3.846  14.633 -0.0736  0.0880  0.7739
  849MPD2    C512473   0.941   3.867  14.677  0.4163  0.4665  0.1343
  849MPD2     H12474   1.020   3.728  14.320  5.4879 -0.2605  0.4009
  849MPD2    H112475   1.149   3.861  14.708 -1.1424 -1.2280  2.1127
  849MPD2    H212476   0.740   3.865  14.623  0.4731  0.1295  2.1114
  849MPD2    H312477   0.914   3.894  14.778  0.8292 -0.8812  0.6024
  849MPD2     N12478   1.245   3.796  14.466  0.4978 -0.6596 -0.3017
  849MPD2    H512479   1.316   3.797  14.538  1.0985  0.5791 -0.9189
  849MPD2    N112480   0.770   3.786  14.362 -0.2425 -0.2575  1.1201
  849MPD2    H712481   0.792   3.727  14.282  0.4017  3.8753 -1.7635
  850MPD2     C12482   3.043   1.326  15.402 -0.1278  0.0594 -0.4898
  850MPD2    C112483   3.114   1.232  15.331  0.2814  0.6486  0.0122
  850MPD2    C212484   3.242   1.262  15.292  0.1449  0.0932 -0.1581
  850MPD2    C312485   3.298   1.388  15.306 -0.1841 -0.0586 -0.8993
  850MPD2    C412486   3.222   1.475  15.379 -0.2443 -0.3157 -0.1468
  850MPD2    C512487   3.099   1.447  15.435 -0.5628 -0.7819  0.2189
  850MPD2     H12488   3.293   1.190  15.229  0.0191  0.2715 -0.4694
  850MPD2    H112489   3.265   1.572  15.400 -1.9284  0.6479 -1.0962
  850MPD2    H212490   2.946   1.303  15.444  0.6027  0.2161  1.2666
  850MPD2    H312491   3.044   1.517  15.496  0.7224 -1.4070  2.0658
  850MPD2     N12492   3.423   1.429  15.271  0.2651  0.2771 -0.2389
  850MPD2    H512493   3.449   1.521  15.305  0.1094 -0.0766  0.8458
  850MPD2    N112494   3.071   1.094  15.303  0.1362 -0.4758  0.2546
  850MPD2    H712495   3.139   1.025  15.269  1.8654  1.4938 -0.3000
  851MPD2     C12496   3.517   1.136  15.555  0.3992  0.4803  0.2023
  851MPD2    C112497   3.502   1.013  15.503  0.0312  0.0621 -0.1743
  851MPD2    C212498   3.612   0.940  15.455  0.3571  0.0415 -0.2845
  851MPD2    C312499   3.740   0.992  15.463  0.3799  0.7500  0.6844
  851MPD2    C412500   3.750   1.122  15.510 -0.5822  0.0910 -0.3161
  851MPD2    C512501   3.641   1.190  15.561 -0.3145 -0.0667 -0.5342
  851MPD2     H12502   3.606   0.836  15.426 -2.2748  0.5676 -1.6204
  851MPD2    H112503   3.847   1.169  15.517 -0.8498  0.4741  0.7710
  851MPD2    H212504   3.432   1.176  15.608  0.6246  1.4614 -0.1705
  851MPD2    H312505   3.654   1.288  15.604 -0.4019  1.1908 -3.3833
  851MPD2     N12506   3.849   0.921  15.421  0.3215 -0.1697  0.7156
  851MPD2    H512507   3.828   0.824  15.400 -0.9796 -0.1753  2.0316
  851MPD2    N112508   3.378   0.960  15.506  0.4837  0.3251  0.1979
  851MPD2    H712509   3.320   1.004  15.577  0.7128 -0.0771  0.6386
  852MPD2     C12510   3.468   0.733   9.996 -0.0994 -0.5323  1.0771
  852MPD2    C112511   3.469   0.595  10.011  0.5110  0.7491  0.2999
  852MPD2    C212512   3.591   0.530   9.983  0.4058  0.3414  0.5535
  852MPD2    C312513   3.705   0.599   9.956  0.6256 -0.5793 -0.5689
  852MPD2    C412514   3.697   0.741   9.944  0.2425 -0.5925  0.6396
  852MPD2    C512515   3.578   0.804   9.963  0.1146  0.1159 -0.4001
  852MPD2     H12516   3.593   0.423  10.001  2.3449  0.1864 -0.5731
  852MPD2    H112517   3.786   0.794   9.913 -0.4491 -0.4941 -1.2099
  852MPD2    H212518   3.382   0.798  10.006 -0.6252 -0.8572 -1.2248
  852MPD2    H312519   3.585   0.913   9.959  0.2950  0.1852  1.6504
  852MPD2     N12520   3.828   0.531   9.945  0.2235 -0.0489  0.0379
  852MPD2    H512521   3.819   0.432   9.963  0.9663 -0.3194 -1.0804
  852MPD2    N112522   3.361   0.514  10.048  0.2990 -0.4298 -0.0797
  852MPD2    H712523   3.371   0.413  10.047 -0.9025 -0.5421 -0.1305
  853MPD2     C12524   0.500   3.644  12.267 -0.1734  0.4169  0.8247
  853MPD2    C112525   0.481   3.782  12.262 -0.6466 -0.5203  0.0715
  853MPD2    C212526   0.502   3.843  12.140 -0.0978 -0.0268 -0.2930
  853MPD2    C312527   0.528   3.768  12.027 -0.0130 -0.7867  0.4170
  853MPD2    C412528   0.543   3.631  12.039  1.0775 -0.2485  0.2627
  853MPD2    C512529   0.524   3.572  12.157  0.1842 -0.0308 -0.0786
  853MPD2     H12530   0.482   3.949  12.140  2.1375  0.3787 -1.2313
  853MPD2    H112531   0.573   3.560  11.963 -0.9244 -0.4696 -0.3086
  853MPD2    H212532   0.510   3.589  12.361 -1.8908 -0.0987  0.7012
  853MPD2    H312533   0.530   3.463  12.159  1.0963  0.0184  0.3416
  853MPD2     N12534   0.537   3.818  11.896 -0.0983  0.3909  0.1541
  853MPD2    H512535   0.562   3.752  11.823 -0.5209 -1.0710  1.3490
  853MPD2    N112536   0.446   3.862  12.367  0.0464 -0.0401 -0.4983
  853MPD2    H712537   0.458   3.963  12.363  1.0092 -0.1236  0.4496
  854MPD2     C12538   2.184   3.961  13.290 -0.2861 -0.6355  0.3593
  854MPD2    C112539   2.276   4.013  13.193 -0.2634 -0.0996  0.3150
  854MPD2    C212540   2.385   3.941  13.161 -0.8630 -0.5356 -0.4093
  854MPD2    C312541   2.407   3.823  13.230  0.6087 -0.3309  1.0492
  854MPD2    C412542   2.318   3.769  13.328  0.6806  0.1623 -0.1806
  854MPD2    C512543   2.213   3.846  13.362  0.5036 -0.6374  0.9278
  854MPD2     H12544   2.452   3.977  13.084  2.4483  0.0573  2.7551
  854MPD2    H112545   2.338   3.675  13.378  1.0401  1.2331  1.6786
  854MPD2    H212546   2.101   4.030  13.307  1.1815  1.2705 -0.2020
  854MPD2    H312547   2.147   3.812  13.441  0.0531 -0.1522  0.7583
  854MPD2     N12548   2.530   3.750  13.217 -0.0915 -1.0050 -0.0719
  854MPD2    H512549   2.544   3.674  13.283 -0.8237 -0.7969  0.3222
  854MPD2    N112550   2.237   4.131  13.136  0.0314 -0.0947  0.0223
  854MPD2    H712551   2.158   4.172  13.184 -1.3001 -0.9468 -1.4128
  855MPD2     C12552   3.184   3.315  13.812 -0.1583 -0.0534 -0.1979
  855MPD2    C112553   3.050   3.350  13.813  0.1204  0.4299  0.5985
  855MPD2    C212554   2.997   3.416  13.704 -0.1732  0.4314 -0.0936
  855MPD2    C312555   3.076   3.444  13.595  0.2761 -0.0068  0.0892
  855MPD2    C412556   3.203   3.395  13.588 -0.0391  0.0502  0.0736
  855MPD2    C512557   3.255   3.330  13.697 -0.1337  0.2401 -0.2059
  855MPD2     H12558   2.894   3.444  13.717 -1.0542 -3.0256  0.5324
  855MPD2    H112559   3.263   3.410  13.500  1.7296 -1.4593  1.0182
  855MPD2    H212560   3.225   3.246  13.886 -2.3982 -0.5300  0.5901
  855MPD2    H312561   3.359   3.300  13.691 -0.2761  0.3969 -3.2476
  855MPD2     N12562   3.024   3.509  13.483 -0.3343 -0.2219 -0.8314
  855MPD2    H512563   3.077   3.519  13.397  2.3271 -0.0151  0.8268
  855MPD2    N112564   2.972   3.325  13.927  0.8292  0.1470 -0.0110
  855MPD2    H712565   2.873   3.343  13.918  0.6751 -0.4232  0.5557
  856MPD2     C12566   4.695   0.072  14.131  0.2284  0.0700 -0.3495
  856MPD2    C112567   0.044   0.186  14.102  0.6861  0.4740  0.6792
  856MPD2    C212568   4.705   0.306  14.105 -0.4005 -0.7631  0.4203
  856MPD2    C312569   4.571   0.312  14.141 -1.5348 -0.0663 -0.5485
  856MPD2    C412570   4.497   0.199  14.162 -0.1372  0.1698  0.5465
  856MPD2    C512571   4.556   0.077  14.162 -0.3354 -0.5254  0.0369
  856MPD2     H12572   0.040   0.398  14.085  0.9145 -1.2515  1.6981
  856MPD2    H112573   4.392   0.209  14.187 -0.3430 -0.3618 -0.1068
  856MPD2    H212574   0.022   4.694  14.140  0.0886  0.1611  1.2918
  856MPD2    H312575   4.504   4.709  14.200  1.6349 -1.9804 -0.6096
  856MPD2     N12576   4.495   0.429  14.149  0.3499  0.0078 -0.3172
  856MPD2    H512577   4.397   0.406  14.157  0.0862  0.9702 -0.8147
  856MPD2    N112578   0.185   0.179  14.069  0.0517 -0.1287 -0.8477
  856MPD2    H712579   0.224   0.269  14.044 -2.3826  1.1732  0.0284
  857MPD2     C12580   1.250   2.240  12.509  0.2898 -0.0198  0.2933
  857MPD2    C112581   1.325   2.242  12.629 -0.6346  0.8013 -0.0149
  857MPD2    C212582   1.316   2.356  12.708  0.8834 -0.0196  0.0128
  857MPD2    C312583   1.250   2.469  12.664  0.0042 -0.2504 -0.5853
  857MPD2    C412584   1.188   2.460  12.542 -0.5646 -0.8301  0.5523
  857MPD2    C512585   1.191   2.353  12.457 -0.2524  0.2144 -0.1826
  857MPD2     H12586   1.354   2.363  12.810  3.0336  1.4095 -0.9034
  857MPD2    H112587   1.137   2.549  12.507  0.3433 -0.4394  0.2024
  857MPD2    H212588   1.254   2.155  12.443  1.1059 -0.5531  1.0283
  857MPD2    H312589   1.160   2.350  12.354  0.5337 -0.8020 -0.3862
  857MPD2     N12590   1.250   2.584  12.747  0.5456  0.5722 -0.3694
  857MPD2    H512591   1.298   2.578  12.837  0.4456  1.1232 -0.2817
  857MPD2    N112592   1.381   2.120  12.670  0.0605 -0.5696  0.4533
  857MPD2    H712593   1.371   2.039  12.611 -1.2858 -1.5175  1.9819
  858MPD2     C12594   1.850   0.885  16.887 -0.0174  0.0932 -0.1876
  858MPD2    C112595   1.978   0.893  16.926 -0.2035 -0.5749 -0.1945
  858MPD2    C212596   2.011   0.981  17.031 -0.2964 -0.0956  0.1881
  858MPD2    C312597   1.921   1.057  17.100 -0.6387  0.0534  0.4556
  858MPD2    C412598   1.786   1.043  17.057 -0.3603 -0.4215 -0.6662
  858MPD2    C512599   1.756   0.950  16.959 -0.0508 -0.6179  0.5724
  858MPD2     H12600   2.109   1.010  17.067 -0.2501 -0.2815  0.2142
  858MPD2    H112601   1.708   1.109  17.093 -0.8796 -1.7075  0.5288
  858MPD2    H212602   1.833   0.823  16.800  0.2060  1.9588 -1.5451
  858MPD2    H312603   1.650   0.953  16.934  0.3165 -0.0006 -0.8910
  858MPD2     N12604   1.955   1.156  17.197 -0.7243 -0.7591 -0.4086
  858MPD2    H512605   1.879   1.212  17.236  0.0576 -0.8068  1.1732
  858MPD2    N112606   2.074   0.814  16.855  0.4924 -0.0099  0.5569
  858MPD2    H712607   2.046   0.735  16.798  2.5824  0.2787 -0.8823
  859MPD2     C12608   0.583   3.556  14.894  0.2545  0.1634  0.7058
  859MPD2    C112609   0.641   3.569  15.016  1.1445  0.7625 -0.0376
  859MPD2    C212610   0.667   3.456  15.090 -0.3234 -0.2120  0.6913
  859MPD2    C312611   0.628   3.332  15.042 -0.1044  0.3131 -0.4511
  859MPD2    C412612   0.574   3.318  14.914 -0.3138 -0.3319 -0.0064
  859MPD2    C512613   0.545   3.432  14.844 -1.0937 -0.0687 -0.3809
  859MPD2     H12614   0.720   3.465  15.184  1.6797  0.5688 -0.5154
  859MPD2    H112615   0.541   3.221  14.877  1.2634 -0.2979 -1.5102
  859MPD2    H212616   0.569   3.648  14.837 -0.1794  0.3859  1.1719
  859MPD2    H312617   0.496   3.436  14.747 -3.3309 -0.2418  0.7598
  859MPD2     N12618   0.632   3.212  15.110 -0.5292 -0.4870 -0.6298
  859MPD2    H512619   0.621   3.127  15.056 -1.1257 -1.1362  0.5148
  859MPD2    N112620   0.697   3.698  15.044  0.2524 -0.2322  0.4475
  859MPD2    H712621   0.685   3.770  14.974 -0.7092 -1.3487 -0.5285
  860MPD2     C12622   3.589   4.016  11.545 -0.7069 -0.2829 -0.6658
  860MPD2    C112623   3.627   4.050  11.673  0.4750 -0.9601  0.3584
  860MPD2    C212624   3.553   4.003  11.783  0.2740  0.2389 -0.1809
  860MPD2    C312625   3.433   3.929  11.766  0.4997  0.1548  0.5070
  860MPD2    C412626   3.403   3.892  11.635  0.2291  0.3894  0.4810
  860MPD2    C512627   3.478   3.940  11.528  0.2869 -0.1021  0.4115
  860MPD2     H12628   3.591   4.039  11.878 -1.6866 -0.3307  0.8144
  860MPD2    H112629   3.312   3.835  11.619  1.1927 -0.8305 -0.6309
  860MPD2    H212630   3.641   4.059  11.460 -1.8966 -0.6672 -1.5949
  860MPD2    H312631   3.439   3.923  11.428  0.2730  1.0531  0.2226
  860MPD2     N12632   3.351   3.898  11.883  0.8176 -0.2624  0.1558
  860MPD2    H512633   3.374   3.943  11.971 -0.1291  0.4415  0.0467
  860MPD2    N112634   3.743   4.126  11.703 -0.1036 -0.2355  0.3349
  860MPD2    H712635   3.761   4.139  11.802 -0.8338  2.1103  0.1617
  861MPD2     C12636   2.426   2.532  10.986  0.3548  0.5605  0.3636
  861MPD2    C112637   2.310   2.565  11.042  0.8733 -0.5780  1.1687
  861MPD2    C212638   2.230   2.655  10.978  0.3887 -0.1808  0.0655
  861MPD2    C312639   2.267   2.712  10.859 -0.2287 -0.2614 -0.2363
  861MPD2    C412640   2.387   2.673  10.797  0.5028 -0.0675 -0.6618
  861MPD2    C512641   2.468   2.582  10.865  0.9118  0.0214  1.2474
  861MPD2     H12642   2.129   2.668  11.015  0.6308  0.2861  0.5711
  861MPD2    H112643   2.432   2.725  10.714  0.3773 -1.0471 -1.3482
  861MPD2    H212644   2.488   2.454  11.029  1.4777  1.9667  1.2865
  861MPD2    H312645   2.561   2.557  10.815  0.0544  3.0988 -1.9648
  861MPD2     N12646   2.203   2.820  10.790  0.2191  0.0957  0.5067
  861MPD2    H512647   2.248   2.860  10.708  0.3152 -2.1164 -0.5382
  861MPD2    N112648   2.273   2.523  11.171 -0.3317  0.8508 -0.2608
  861MPD2    H712649   2.184   2.558  11.206 -0.4090  1.0398 -0.6460
  862MPD2     C12650   1.726   2.944  10.253  0.3220  0.4218 -0.1724
  862MPD2    C112651   1.777   2.876  10.361 -0.1819 -1.4029 -0.4367
  862MPD2    C212652   1.752   2.743  10.385 -0.0441 -0.6733  0.0028
  862MPD2    C312653   1.679   2.675  10.293  0.4884 -0.4578 -0.2206
  862MPD2    C412654   1.629   2.744  10.178  0.0667  0.2373  0.2125
  862MPD2    C512655   1.656   2.876  10.160 -0.0225 -0.5317  0.8539
  862MPD2     H12656   1.793   2.703  10.477 -1.1093 -0.7906  0.4241
  862MPD2    H112657   1.571   2.691  10.103  1.1200 -0.8955  0.1920
  862MPD2    H212658   1.737   3.050  10.232 -0.7677  0.1667 -1.9966
  862MPD2    H312659   1.634   2.931  10.070  2.1470  0.1521  0.7508
  862MPD2     N12660   1.656   2.537  10.306  0.1640  0.1667 -0.7211
  862MPD2    H512661   1.590   2.495  10.241 -2.0036  2.1940  0.1663
  862MPD2    N112662   1.866   2.939  10.446 -0.7706 -0.0380  0.0830
  862MPD2    H712663   1.904   2.883  10.521  0.1125  1.3872  0.7109
  863MPD2     C12664   0.307   0.762  17.097 -0.8680  0.2519 -0.5916
  863MPD2    C112665   0.313   0.624  17.090  0.1419 -0.0940 -0.5189
  863MPD2    C212666   0.394   0.553  17.181 -0.5586 -0.0916  0.1943
  863MPD2    C312667   0.473   0.627  17.274 -0.2696  0.6308  0.3521
  863MPD2    C412668   0.458   0.763  17.284 -0.0582  0.1682  0.7172
  863MPD2    C512669   0.373   0.831  17.198  0.4419 -0.0433  0.4193
  863MPD2     H12670   0.399   0.445  17.183  0.0656 -0.0737 -0.2465
  863MPD2    H112671   0.517   0.807  17.362  0.8746 -0.8527  0.5925
  863MPD2    H212672   0.262   0.830  17.027 -0.5547  0.8151 -0.2511
  863MPD2    H312673   0.375   0.939  17.213 -1.8740 -0.0771  0.9837
  863MPD2     N12674   0.544   0.560  17.379  1.0378 -0.0913 -0.2105
  863MPD2    H512675   0.589   0.620  17.449 -1.7020  1.0302  0.5698
  863MPD2    N112676   0.235   0.562  16.987 -0.2270  0.3997 -0.0174
  863MPD2    H712677   0.158   0.617  16.949 -0.3494  1.4914  1.8239
  864MPD2     C12678   0.675   2.028  16.998 -0.7870  0.3761  0.0936
  864MPD2    C112679   0.719   1.906  16.966 -0.6301  0.1224 -0.9677
  864MPD2    C212680   0.778   1.891  16.844 -0.3275  0.1237  0.4073
  864MPD2    C312681   0.794   1.994  16.759 -0.4992  0.0359 -0.4959
  864MPD2    C412682   0.739   2.120  16.786 -0.5816  0.6900  0.0970
  864MPD2    C512683   0.676   2.132  16.908 -0.3994  0.2845  0.0754
  864MPD2     H12684   0.812   1.796  16.803  1.1215  0.5833  0.5276
  864MPD2    H112685   0.739   2.201  16.714  1.5377 -1.1867 -2.0035
  864MPD2    H212686   0.643   2.052  17.098  0.7314  0.6837  0.5055
  864MPD2    H312687   0.638   2.229  16.937  0.3848  1.1704 -1.8282
  864MPD2     N12688   0.872   1.964  16.643 -0.6012  0.1191 -0.4044
  864MPD2    H512689   0.929   1.880  16.645  1.3798  1.5115  1.9281
  864MPD2    N112690   0.703   1.801  17.053 -0.4726  0.0995  0.1061
  864MPD2    H712691   0.648   1.830  17.133 -1.4069 -0.1783 -0.4368
  865MPD2     C12692   0.768   1.401  15.859  0.3782 -0.1514  0.3114
  865MPD2    C112693   0.813   1.370  15.986 -0.2673 -0.0046 -0.2690
  865MPD2    C212694   0.854   1.468  16.071 -0.3829  0.5453  0.3437
  865MPD2    C312695   0.845   1.603  16.030 -0.5063 -0.2064  0.0748
  865MPD2    C412696   0.807   1.631  15.901 -0.4682 -0.5749  0.5097
  865MPD2    C512697   0.756   1.533  15.818 -0.6177 -0.3401 -0.4890
  865MPD2     H12698   0.918   1.454  16.157  0.8223 -0.1998 -0.6666
  865MPD2    H112699   0.798   1.734  15.869  1.9505 -0.3206  0.6494
  865MPD2    H212700   0.730   1.319  15.799  1.4276 -0.2917 -0.1506
  865MPD2    H312701   0.717   1.562  15.721 -0.2750 -0.4619 -0.6619
  865MPD2     N12702   0.888   1.708  16.113  0.1106  0.4883 -0.1494
  865MPD2    H512703   0.900   1.795  16.061 -4.6276  1.1689 -0.0999
  865MPD2    N112704   0.837   1.234  16.030  0.7893 -0.0493 -0.2536
  865MPD2    H712705   0.824   1.161  15.962  1.9363 -0.1565 -0.3498
  866MPD2     C12706   2.709   2.494  11.608  0.2872 -0.0274 -0.0289
  866MPD2    C112707   2.721   2.497  11.471  0.1049  0.0761  0.8447
  866MPD2    C212708   2.637   2.582  11.392  0.3613 -0.7735 -0.0132
  866MPD2    C312709   2.554   2.668  11.458 -1.2749 -0.6223 -0.1089
  866MPD2    C412710   2.530   2.655  11.593  0.2407  0.2395 -0.3366
  866MPD2    C512711   2.612   2.566  11.666  0.1499  0.0414 -0.0868
  866MPD2     H12712   2.640   2.579  11.283  2.8944  0.0000  0.0459
  866MPD2    H112713   2.461   2.724  11.640  1.9044  3.0681 -2.0833
  866MPD2    H212714   2.759   2.420  11.670 -0.5141 -1.1785 -0.7530
  866MPD2    H312715   2.603   2.564  11.774  0.7928  0.8614 -0.0225
  866MPD2     N12716   2.474   2.763  11.385  0.2581  0.0619 -0.4421
  866MPD2    H512717   2.399   2.807  11.436  1.0771  1.4236 -0.4226
  866MPD2    N112718   2.819   2.413  11.410  0.1130  0.0255  0.0931
  866MPD2    H712719   2.870   2.353  11.473 -1.1818 -0.0702  1.0604
  867MPD2     C12720   4.619   1.798  16.764  0.6451  0.9441  0.3981
  867MPD2    C112721   4.641   1.779  16.896 -0.8921  0.0386  0.9449
  867MPD2    C212722   4.678   1.884  16.981 -0.2513 -0.3951  0.2752
  867MPD2    C312723   4.671   2.011  16.931  0.0454 -0.6356 -0.4843
  867MPD2    C412724   4.624   2.033  16.802 -0.4388  0.7172 -0.5104
  867MPD2    C512725   4.609   1.928  16.716  0.3069 -0.1515 -0.2073
  867MPD2     H12726   4.710   1.868  17.083 -0.9428 -1.1932  0.3615
  867MPD2    H112727   4.629   2.126  16.748  0.4920  2.1948  2.0945
  867MPD2    H212728   4.611   1.720  16.689 -1.1466 -0.2513  1.8593
  867MPD2    H312729   4.594   1.959  16.613 -2.6478 -0.7469  0.0380
  867MPD2     N12730   0.001   2.117  17.009  0.9418 -0.1585  0.0433
  867MPD2    H512731   0.020   2.207  16.967  0.1004 -0.5794 -1.2539
  867MPD2    N112732   4.648   1.646  16.938 -0.1850 -0.1859  0.0311
  867MPD2    H712733   4.636   1.576  16.864  0.1634  0.1471 -0.3389
  868MPD2     C12734   1.895   0.936  12.788  0.4432  0.0966  0.5563
  868MPD2    C112735   1.931   0.839  12.886  0.1427  0.2667  0.0680
  868MPD2    C212736   1.913   0.879  13.020  0.3857  0.3488 -0.1468
  868MPD2    C312737   1.843   1.007  13.055  0.4812  0.2276 -0.1059
  868MPD2    C412738   1.797   1.088  12.950 -0.1959  0.2053 -0.2015
  868MPD2    C512739   1.833   1.058  12.820 -0.4271 -0.1825  0.2521
  868MPD2     H12740   1.958   0.819  13.098  2.6780  0.8424 -1.0997
  868MPD2    H112741   1.741   1.181  12.955  0.8166  0.7657  0.6394
  868MPD2    H212742   1.880   0.904  12.686  0.1633 -0.4107  0.7543
  868MPD2    H312743   1.789   1.123  12.746 -1.7956  2.6644  3.6048
  868MPD2     N12744   1.818   1.041  13.189  0.4941  0.3082  0.5958
  868MPD2    H512745   1.845   0.974  13.260 -0.2496 -1.6621 -0.9865
  868MPD2    N112746   1.977   0.719  12.835  0.5177  0.6934 -0.0031
  868MPD2    H712747   1.969   0.706  12.735 -1.7393 -1.1554  0.4342
  869MPD2     C12748   3.479   3.749   2.159 -0.4099 -0.7187  0.1406
  869MPD2    C112749   3.393   3.659   2.109 -0.1148  0.1443  0.4725
  869MPD2    C212750   3.337   3.673   1.983 -0.0119  0.8178 -0.0499
  869MPD2    C312751   3.374   3.784   1.913  0.3539  0.5141 -0.1901
  869MPD2    C412752   3.465   3.876   1.965  0.4257 -0.4230 -0.7060
  869MPD2    C512753   3.523   3.854   2.083  0.0895 -0.5011 -0.1639
  869MPD2     H12754   3.282   3.594   1.934  0.6713  1.0347 -1.1678
  869MPD2    H112755   3.493   3.965   1.910 -1.9323  0.8612  0.1786
  869MPD2    H212756   3.530   3.725   2.252  0.1464 -0.5456 -0.1199
  869MPD2    H312757   3.592   3.929   2.120  0.5972 -1.0053 -0.1012
  869MPD2     N12758   3.317   3.816   1.791 -0.2371  0.4675 -0.0839
  869MPD2    H512759   3.351   3.903   1.753  0.4977 -0.1708 -0.8815
  869MPD2    N112760   3.365   3.550   2.187 -0.3948 -0.2051 -0.6169
  869MPD2    H712761   3.427   3.541   2.267  1.0496  2.5239 -1.4213
  870MPD2     C12762   2.676   2.412   2.000  0.8582  0.9362  0.1308
  870MPD2    C112763   2.639   2.315   1.907 -0.1863 -0.3245  0.1338
  870MPD2    C212764   2.522   2.332   1.838  0.3291  0.2588  0.3146
  870MPD2    C312765   2.445   2.444   1.859  0.7248 -0.7689 -0.1665
  870MPD2    C412766   2.483   2.542   1.944 -0.3641 -0.5892  0.4553
  870MPD2    C512767   2.604   2.524   2.017  0.5463 -0.2951  0.5088
  870MPD2     H12768   2.487   2.276   1.753  1.0484 -1.3160  1.0554
  870MPD2    H112769   2.417   2.622   1.978  0.8615 -0.0710  1.6366
  870MPD2    H212770   2.768   2.401   2.057 -0.1188  0.8389  1.6731
  870MPD2    H312771   2.633   2.603   2.086 -0.6485  0.1342  0.5157
  870MPD2     N12772   2.340   2.449   1.769 -0.7002  0.2329  0.4511
  870MPD2    H512773   2.327   2.363   1.718  5.2180  0.4569 -1.5231
  870MPD2    N112774   2.729   2.201   1.891  0.8713  0.1125 -0.6728
  870MPD2    H712775   2.814   2.189   1.946 -0.2981  0.5458  1.2324
  871MPD2     C12776   3.645   1.679  16.746 -0.1576  0.9529 -0.0775
  871MPD2    C112777   3.607   1.611  16.857  0.7562  0.3855 -0.8101
  871MPD2    C212778   3.590   1.472  16.850 -0.7741  0.2689 -0.0764
  871MPD2    C312779   3.619   1.405  16.729  0.0226  0.3103 -0.0433
  871MPD2    C412780   3.656   1.475  16.614 -0.2790  0.3630 -0.0330
  871MPD2    C512781   3.661   1.610  16.629  0.9310 -0.2200 -0.0045
  871MPD2     H12782   3.542   1.416  16.929 -0.5914 -0.6551 -0.6130
  871MPD2    H112783   3.675   1.433  16.516 -1.7806 -1.4854  0.4629
  871MPD2    H212784   3.660   1.787  16.748  0.0321  0.9516 -1.7946
  871MPD2    H312785   3.685   1.676  16.546  0.0390  0.0554 -0.0489
  871MPD2     N12786   3.622   1.265  16.731  0.1499  0.0936  0.0007
  871MPD2    H512787   3.596   1.226  16.821  0.6920 -1.5073 -0.5285
  871MPD2    N112788   3.574   1.683  16.968  0.1168 -0.2213 -0.3132
  871MPD2    H712789   3.584   1.783  16.958  0.7837 -0.1770  0.7982
  872MPD2     C12790   4.445   4.627  13.928  0.2013  0.1028  0.4721
  872MPD2    C112791   4.539   4.528  13.962  0.3093 -0.2157 -0.3371
  872MPD2    C212792   4.514   4.439  14.059 -0.4133 -0.0219  0.6271
  872MPD2    C312793   4.386   4.421  14.103 -0.3145  0.9001  0.2452
  872MPD2    C412794   4.291   4.516  14.065 -0.4600  0.2841 -0.3219
  872MPD2    C512795   4.319   4.612  13.978 -0.8049  0.1599  0.2995
  872MPD2     H12796   4.591   4.366  14.080 -1.8654 -2.3684 -2.1407
  872MPD2    H112797   4.196   4.515  14.117  0.6630  1.3138  1.7642
  872MPD2    H212798   4.466   4.709  13.860  0.1539  0.0367  0.3768
  872MPD2    H312799   4.243   4.686  13.956 -0.6980 -0.3933 -1.9160
  872MPD2     N12800   4.340   4.314  14.184 -0.0197 -0.5180  0.2368
  872MPD2    H512801   4.240   4.299  14.191  0.1519 -1.4691  0.6885
  872MPD2    N112802   4.665   4.518  13.908 -1.2547  0.2715  0.1222
  872MPD2    H712803   0.005   4.441  13.936 -1.5011 -0.1393 -0.4839
  873MPD2     C12804   1.842   4.194   1.181 -0.0035 -0.0006 -0.8068
  873MPD2    C112805   1.919   4.241   1.285  0.1403 -0.3854 -0.0443
  873MPD2    C212806   2.055   4.226   1.288  0.4092  0.0521 -0.4235
  873MPD2    C312807   2.115   4.147   1.191  0.4233 -0.2608 -0.0776
  873MPD2    C412808   2.035   4.077   1.104 -0.0705  0.3706 -1.0040
  873MPD2    C512809   1.904   4.116   1.088  0.5116  0.4993  0.0498
  873MPD2     H12810   2.117   4.282   1.356 -0.0818 -0.7785  0.7019
  873MPD2    H112811   2.092   4.031   1.024  0.6316  1.2324 -0.9922
  873MPD2    H212812   1.736   4.216   1.179  0.2478  1.2536 -0.5708
  873MPD2    H312813   1.834   4.095   1.008  1.5399 -0.9859 -0.4551
  873MPD2     N12814   2.252   4.131   1.180 -0.5840 -0.3100 -0.4494
  873MPD2    H512815   2.283   4.051   1.126  1.5999 -1.6573  2.8090
  873MPD2    N112816   1.856   4.334   1.377  0.1061  0.5692  0.0403
  873MPD2    H712817   1.755   4.333   1.378  0.1167  0.7130  0.9447
  874MPD2     C12818   0.539   3.530  16.093 -0.0621 -0.5984  0.0876
  874MPD2    C112819   0.609   3.530  16.208 -0.3085 -0.1582 -0.5169
  874MPD2    C212820   0.729   3.600  16.211 -0.9855  0.4057  0.1224
  874MPD2    C312821   0.785   3.660  16.103 -0.0423 -0.0790 -0.5746
  874MPD2    C412822   0.706   3.663  15.991  0.6848 -0.0414  0.1062
  874MPD2    C512823   0.592   3.599  15.993  0.3142 -0.3146 -0.0150
  874MPD2     H12824   0.792   3.597  16.299 -1.6206  1.3674  0.6188
  874MPD2    H112825   0.742   3.721  15.906  1.4053 -0.4370  0.1415
  874MPD2    H212826   0.444   3.480  16.074 -1.1594  1.6933 -0.5219
  874MPD2    H312827   0.537   3.603  15.900  1.5061 -1.5495 -0.7638
  874MPD2     N12828   0.925   3.695  16.109  0.1407  0.3433  0.7962
  874MPD2    H512829   0.974   3.676  16.196  0.0847 -0.7024  0.5908
  874MPD2    N112830   0.550   3.462  16.316 -0.2770 -0.1934  0.2389
  874MPD2    H712831   0.461   3.416  16.301 -1.4746  1.5364  2.0657
  875MPD2     C12832   2.132   2.268  15.119  0.0374  0.7281  0.0241
  875MPD2    C112833   2.041   2.371  15.138  0.4258 -0.0504 -0.1636
  875MPD2    C212834   2.046   2.442  15.258  0.7932 -0.3739 -0.3155
  875MPD2    C312835   2.141   2.409  15.357  0.1268  0.0396  0.0957
  875MPD2    C412836   2.230   2.305  15.332  0.5253  0.1592 -0.4740
  875MPD2    C512837   2.231   2.244  15.210  0.1117  0.1357  0.0260
  875MPD2     H12838   1.981   2.528  15.271 -0.2319 -1.1241 -0.4563
  875MPD2    H112839   2.317   2.288  15.394 -0.7182 -1.0140  0.9245
  875MPD2    H212840   2.132   2.200  15.034  1.9418 -0.5519  1.0608
  875MPD2    H312841   2.306   2.170  15.184 -0.6740 -0.6887  0.1029
  875MPD2     N12842   2.122   2.479  15.478 -0.2851  0.2369 -0.2110
  875MPD2    H512843   2.053   2.553  15.479  0.5926  1.0635 -0.1251
  875MPD2    N112844   1.941   2.410  15.051  0.2471  0.1413  0.3533
  875MPD2    H712845   1.878   2.478  15.091  0.6913  0.5690  0.3151
  876MPD2     C12846   0.890   3.512  15.713  0.0641 -0.7655 -0.1093
  876MPD2    C112847   1.011   3.520  15.768  0.7035 -0.2041  0.7783
  876MPD2    C212848   1.038   3.441  15.876  0.4866  0.0505 -0.2814
  876MPD2    C312849   0.944   3.351  15.925 -1.0204 -0.5338  0.4991
  876MPD2    C412850   0.820   3.352  15.881  0.5962 -0.5945  0.0721
  876MPD2    C512851   0.795   3.428  15.771  0.1880  0.0594 -0.0038
  876MPD2     H12852   1.140   3.435  15.912  0.0696 -1.2729  0.6531
  876MPD2    H112853   0.738   3.292  15.919  0.5272 -0.0934  0.7115
  876MPD2    H212854   0.855   3.583  15.640  2.1318  0.0115 -0.3377
  876MPD2    H312855   0.692   3.450  15.744  1.1954  1.1925 -2.9351
  876MPD2     N12856   0.987   3.268  16.033 -0.3344  0.4026  0.4946
  876MPD2    H512857   1.081   3.277  16.070 -0.0979 -0.3003  0.0599
  876MPD2    N112858   1.097   3.617  15.707 -0.0946  0.2311 -0.5594
  876MPD2    H712859   1.062   3.669  15.626  2.4895  0.9960 -1.2092
  877MPD2     C12860   0.948   4.295  15.476 -0.3752  1.2371  0.7844
  877MPD2    C112861   1.084   4.279  15.459  0.1789 -0.0540 -0.5109
  877MPD2    C212862   1.153   4.355  15.359 -0.3356  0.8924  0.6539
  877MPD2    C312863   1.090   4.440  15.271  0.2984  0.0419  0.9953
  877MPD2    C412864   0.957   4.453  15.290 -0.5219  0.0109 -0.1757
  877MPD2    C512865   0.887   4.389  15.401 -0.3363  0.2085 -0.6106
  877MPD2     H12866   1.253   4.323  15.334 -0.7504  2.1890 -2.8060
  877MPD2    H112867   0.901   4.519  15.225  0.0639  1.2996  0.6387
  877MPD2    H212868   0.894   4.232  15.546  1.1593 -1.0097 -0.0587
  877MPD2    H312869   0.778   4.390  15.397 -0.4357 -0.6348  2.0580
  877MPD2     N12870   1.150   4.501  15.162  0.0893  0.1379 -0.4572
  877MPD2    H512871   1.088   4.539  15.091  0.0741 -0.4052 -0.7344
  877MPD2    N112872   1.158   4.182  15.538 -0.3412  0.6836  0.5186
  877MPD2    H712873   1.255   4.177  15.511 -0.8821 -2.1026 -0.9366
  878MPD2     C12874   0.675   3.324  13.543  0.0940  0.6072  0.4212
  878MPD2    C112875   0.723   3.452  13.513 -0.1788 -0.5707 -0.3193
  878MPD2    C212876   0.716   3.546  13.613 -0.1631 -0.4143 -0.1347
  878MPD2    C312877   0.661   3.516  13.737  0.2158  0.1926 -0.7916
  878MPD2    C412878   0.620   3.390  13.766 -0.4705 -0.1170 -0.4293
  878MPD2    C512879   0.633   3.291  13.667  0.0081 -0.2533 -0.4154
  878MPD2     H12880   0.742   3.651  13.604  0.7082 -0.6144  0.0374
  878MPD2    H112881   0.598   3.351  13.865 -0.0525 -1.1090 -0.7249
  878MPD2    H212882   0.688   3.244  13.471  1.3049  0.5075  0.7552
  878MPD2    H312883   0.593   3.193  13.693  2.3894 -1.3987 -1.0726
  878MPD2     N12884   0.661   3.627  13.828  0.5199  0.2298  0.1316
  878MPD2    H512885   0.706   3.714  13.801  1.0749  0.5492  2.1276
  878MPD2    N112886   0.782   3.480  13.388  0.0392 -0.3051  0.0350
  878MPD2    H712887   0.766   3.411  13.315 -0.7327 -0.5402  0.4298
  879MPD2     C12888   1.058   0.417  17.320  0.2106  0.3661 -0.3900
  879MPD2    C112889   1.097   0.307  17.393 -0.3119 -0.2041  0.7435
  879MPD2    C212890   1.030   0.189  17.379 -0.6600 -0.1433  0.3850
  879MPD2    C312891   0.917   0.187  17.300  0.1617  0.4501 -0.2498
  879MPD2    C412892   0.882   0.300  17.222 -0.8293  0.3112 -0.0472
  879MPD2    C512893   0.954   0.418  17.232  0.4574 -0.8284 -0.4298
  879MPD2     H12894   1.055   0.098  17.433 -1.2355  0.8220  2.2510
  879MPD2    H112895   0.797   0.299  17.155  0.0338 -1.3689 -1.1074
  879MPD2    H212896   1.123   0.503  17.311  2.2284 -1.2338 -0.9794
  879MPD2    H312897   0.935   0.508  17.175  0.3008  1.0284  2.5252
  879MPD2     N12898   0.839   0.072  17.272  0.8845  0.0744  0.3985
  879MPD2    H512899   0.760   0.082  17.209 -0.4904  2.8440  2.5307
  879MPD2    N112900   1.214   0.315  17.467 -0.3029 -0.3125 -0.4221
  879MPD2    H712901   1.267   0.402  17.465 -0.7123 -0.0693 -0.6808
  880MPD2     C12902   2.700   1.623   1.067 -0.5178 -0.4359  0.9920
  880MPD2    C112903   2.786   1.728   1.076  0.2674  0.6882 -0.9600
  880MPD2    C212904   2.889   1.732   1.174  0.4298 -0.4217 -0.6444
  880MPD2    C312905   2.899   1.623   1.261 -0.2331 -0.1417  0.2820
  880MPD2    C412906   2.809   1.522   1.253  0.4286 -0.4191 -0.5551
  880MPD2    C512907   2.716   1.524   1.155  0.1188 -0.3743 -0.0409
  880MPD2     H12908   2.964   1.810   1.182  1.6252 -1.7809  1.5584
  880MPD2    H112909   2.800   1.439   1.323  1.0872  0.8556  1.0229
  880MPD2    H212910   2.625   1.613   0.989  1.0354 -1.5281 -0.3722
  880MPD2    H312911   2.651   1.437   1.159 -0.5766  0.3046  2.9731
  880MPD2     N12912   3.000   1.615   1.357  0.4838 -0.3111  0.3308
  880MPD2    H512913   3.080   1.676   1.348  0.5832 -0.0488  3.2870
  880MPD2    N112914   2.764   1.839   0.990  0.4913 -0.4786  0.3690
  880MPD2    H712915   2.676   1.835   0.940 -0.1535 -0.9967  1.5585
  881MPD2     C12916   3.242   2.439   0.386 -0.1147 -0.4307 -0.0432
  881MPD2    C112917   3.116   2.422   0.344 -0.1163  0.5733  0.4057
  881MPD2    C212918   3.026   2.390   0.440  0.2387 -0.3973  0.5821
  881MPD2    C312919   3.057   2.379   0.569 -0.2214 -0.1610 -0.0581
  881MPD2    C412920   3.185   2.417   0.613  0.4166  0.6644  0.0747
  881MPD2    C512921   3.277   2.457   0.515  0.3420 -0.5673  0.3179
  881MPD2     H12922   2.924   2.369   0.408 -0.3592  0.4972  1.9027
  881MPD2    H112923   3.223   2.409   0.714  0.6634 -2.7138 -0.2833
  881MPD2    H212924   3.318   2.473   0.317  1.2598 -2.6786  0.3540
  881MPD2    H312925   3.378   2.476   0.551  0.6025 -1.6534  0.1579
  881MPD2     N12926   2.966   2.339   0.664  0.7202 -0.0970  0.1238
  881MPD2    H512927   2.998   2.344   0.760  0.8987 -0.9699  0.1122
  881MPD2    N112928   3.093   2.378   0.209  0.4778 -0.3507 -0.0965
  881MPD2    H712929   3.176   2.387   0.152 -1.1963 -0.0850 -2.4947
  882MPD2     C12930   1.256   4.281  14.517 -1.2792  0.4474 -0.3447
  882MPD2    C112931   1.175   4.374  14.582  0.0770  0.3692  0.2504
  882MPD2    C212932   1.044   4.348  14.601 -0.5764 -0.4747 -0.0855
  882MPD2    C312933   0.983   4.236  14.538 -1.0699  1.2218 -0.2857
  882MPD2    C412934   1.057   4.141  14.479 -0.2879  0.4734 -0.3952
  882MPD2    C512935   1.193   4.162  14.468 -0.5916 -0.0494 -0.0300
  882MPD2     H12936   0.970   4.404  14.656  1.1037  2.1370 -0.4847
  882MPD2    H112937   1.018   4.051  14.434  1.2665  0.0047 -0.8193
  882MPD2    H212938   1.362   4.297  14.509 -1.0818  0.1462  1.6606
  882MPD2    H312939   1.260   4.089  14.424  0.0095 -0.0381  0.8679
  882MPD2     N12940   0.844   4.207  14.555  0.0241  0.6351  0.2898
  882MPD2    H512941   0.806   4.117  14.531 -0.8007  0.8232  0.9051
  882MPD2    N112942   1.241   4.475  14.654  0.0857 -0.3480  0.0915
  882MPD2    H712943   1.343   4.471  14.649 -0.0654 -1.7008 -1.6194
  883MPD2     C12944   3.327   3.686  16.015 -0.1257  0.6259 -1.1085
  883MPD2    C112945   3.412   3.706  15.908  0.0898 -0.0536 -0.5117
  883MPD2    C212946   3.550   3.736  15.934  0.5800 -0.5577  0.5097
  883MPD2    C312947   3.591   3.747  16.066 -0.0388  0.9533  0.0510
  883MPD2    C412948   3.509   3.718  16.175  0.2775 -0.4559  0.6334
  883MPD2    C512949   3.370   3.696  16.147  0.2388 -0.5070 -0.4273
  883MPD2     H12950   3.620   3.759  15.854  1.2018 -1.6988  0.7243
  883MPD2    H112951   3.545   3.718  16.277 -1.1912 -0.7438  1.1573
  883MPD2    H212952   3.222   3.661  16.002  0.5514 -2.7246 -0.1757
  883MPD2    H312953   3.295   3.679  16.223 -1.1139  0.5153 -1.5482
  883MPD2     N12954   3.724   3.781  16.080 -0.2091 -0.0858 -0.6139
  883MPD2    H512955   3.781   3.796  15.998  0.5604 -1.6646 -0.3516
  883MPD2    N112956   3.368   3.717  15.778  0.8289  0.1342  0.0648
  883MPD2    H712957   3.431   3.713  15.699 -1.9409  1.8076 -2.2475
  884MPD2     C12958   0.071   4.568  15.416  0.2380 -0.0630  0.0922
  884MPD2    C112959   0.094   4.698  15.367  0.6436  0.0960 -0.6991
  884MPD2    C212960   4.715   0.071  15.393  0.0133 -0.4190 -0.3291
  884MPD2    C312961   4.593   0.041  15.452  0.7696 -0.0393 -0.2253
  884MPD2    C412962   4.569   4.631  15.490  0.8608 -0.3611 -0.2807
  884MPD2    C512963   4.672   4.542  15.481 -0.5771  0.0980  0.1985
  884MPD2     H12964   0.006   0.170  15.350 -0.3501 -0.1368  0.2265
  884MPD2    H112965   4.468   4.603  15.520  1.3987  1.5470  3.3698
  884MPD2    H212966   0.144   4.490  15.397 -0.4491 -1.2456  2.1872
  884MPD2    H312967   4.643   4.445  15.519  3.3592 -0.6535  1.3152
  884MPD2     N12968   4.501   0.142  15.469 -0.1526  0.2430 -0.0958
  884MPD2    H512969   4.537   0.232  15.438  0.3279  0.0884  0.0133
  884MPD2    N112970   0.218   0.002  15.310 -0.1828  0.1066  0.1725
  884MPD2    H712971   0.286   4.647  15.325  0.1939 -0.2262 -3.3581
  885MPD2     C12972   3.342   0.655   0.408  0.0881 -1.2623 -0.4268
  885MPD2    C112973   3.383   0.531   0.369  0.3333 -0.1915  0.1761
  885MPD2    C212974   3.341   0.490   0.238 -0.3280  0.4059  0.3732
  885MPD2    C312975   3.267   0.573   0.153 -0.7784 -0.0223 -0.8720
  885MPD2    C412976   3.250   0.704   0.191  0.3208 -0.0223  1.1748
  885MPD2    C512977   3.284   0.738   0.317 -0.5788  0.2414  0.2259
  885MPD2     H12978   3.347   0.388   0.203  0.1446  0.0077  1.6223
  885MPD2    H112979   3.195   0.784   0.143  1.7009 -0.2246 -0.7189
  885MPD2    H212980   3.361   0.688   0.510 -2.2172 -1.6462  0.1330
  885MPD2    H312981   3.258   0.836   0.356  2.8626  1.5093 -0.6523
  885MPD2     N12982   3.228   0.527   0.023  0.3730 -0.0570  0.1930
  885MPD2    H512983   3.280   0.443  17.680 -1.3801 -1.3314  0.8954
  885MPD2    N112984   3.441   0.445   0.460  0.1278 -0.0810 -0.4479
  885MPD2    H712985   3.472   0.481   0.550 -1.8310 -1.2065  0.6780
  886MPD2     C12986   4.226   3.621  15.485 -0.4046 -0.0373  0.5605
  886MPD2    C112987   4.359   3.640  15.487 -0.3295 -0.1404 -0.2475
  886MPD2    C212988   4.405   3.764  15.450 -0.2163 -0.0807 -0.0762
  886MPD2    C312989   4.330   3.870  15.397 -0.5876 -0.0287 -0.1349
  886MPD2    C412990   4.191   3.843  15.397  0.3142 -0.6144 -0.0185
  886MPD2    C512991   4.145   3.725  15.447  0.3912 -0.0597 -0.1090
  886MPD2     H12992   4.511   3.781  15.461  0.2405 -2.8802 -0.2332
  886MPD2    H112993   4.127   3.925  15.369  0.1310 -1.0644 -0.9315
  886MPD2    H212994   4.190   3.521  15.505 -1.1564  0.3368  1.0745
  886MPD2    H312995   4.037   3.719  15.450  0.3048  2.0659  1.2741
  886MPD2     N12996   4.382   3.985  15.329  0.6843  0.3747 -0.2681
  886MPD2    H512997   4.307   4.048  15.301 -0.1425 -0.4674  0.0243
  886MPD2    N112998   4.452   3.546  15.524 -0.1425  0.0042  0.0809
  886MPD2    H712999   4.548   3.577  15.530 -0.0070 -0.6948  1.3938
  887MPD2     C13000   0.404   3.505  15.398 -0.0180  0.7416 -0.0062
  887MPD2    C113001   0.303   3.548  15.476  0.1939  0.5364 -0.0346
  887MPD2    C213002   0.315   3.665  15.545  0.2721 -0.2843 -0.0440
  887MPD2    C313003   0.437   3.722  15.562 -0.7756  0.4742 -0.1013
  887MPD2    C413004   0.547   3.671  15.499 -0.0039 -0.1698  0.2169
  887MPD2    C513005   0.527   3.569  15.407 -0.4743  0.7062 -0.0653
  887MPD2     H13006   0.233   3.697  15.607 -0.1985  0.5903 -1.1129
  887MPD2    H113007   0.644   3.719  15.500 -0.5250  0.8722  0.5064
  887MPD2    H213008   0.386   3.426  15.326  1.3638 -1.0631  1.6297
  887MPD2    H313009   0.608   3.535  15.344 -1.1057 -0.1228 -0.4238
  887MPD2     N13010   0.444   3.821  15.663 -0.0393  0.3379 -0.2526
  887MPD2    H513011   0.365   3.833  15.725 -0.0264  1.7855 -0.5274
  887MPD2    N113012   0.180   3.476  15.490  0.1126  0.6089 -0.2105
  887MPD2    H713013   0.102   3.533  15.521  0.4963  0.8602  0.2940
  888MPD2     C13014   1.883   3.451  14.980  0.5111  0.1841 -0.3212
  888MPD2    C113015   1.916   3.517  15.093 -0.0947 -0.6131  0.1955
  888MPD2    C213016   1.982   3.643  15.080  0.2833  0.9675 -0.2071
  888MPD2    C313017   2.011   3.700  14.963 -0.1610 -0.0411  0.5679
  888MPD2    C413018   1.977   3.630  14.844 -0.9960 -0.1488  0.0826
  888MPD2    C513019   1.910   3.510  14.857  0.8459  0.2013  0.3096
  888MPD2     H13020   2.013   3.697  15.169  0.6782 -3.2204  2.2500
  888MPD2    H113021   1.996   3.671  14.745  2.1185 -0.1936  0.6697
  888MPD2    H213022   1.837   3.353  14.980 -1.1369  0.9605 -0.6118
  888MPD2    H313023   1.884   3.457  14.766 -2.8836 -1.3206  2.2390
  888MPD2     N13024   2.080   3.826  14.966 -0.1559  0.1787 -0.5946
  888MPD2    H513025   2.102   3.872  15.054 -0.9972 -0.7474  0.0992
  888MPD2    N113026   1.885   3.476  15.221  0.6884 -0.2667  0.2882
  888MPD2    H713027   1.928   3.530  15.296  2.0697 -0.3491 -0.4465
  889MPD2     C13028   0.963   3.382  12.844 -0.1584 -0.2096  0.6232
  889MPD2    C113029   1.062   3.361  12.940  0.7861 -0.2037 -0.3973
  889MPD2    C213030   1.143   3.464  12.973  0.1478  0.3119  0.3599
  889MPD2    C313031   1.108   3.596  12.940  0.6231  0.1368  0.0166
  889MPD2    C413032   1.004   3.616  12.852  0.4662 -0.1345  0.4404
  889MPD2    C513033   0.941   3.509  12.803 -0.2086  0.0746 -0.1224
  889MPD2     H13034   1.224   3.450  13.044 -0.8670 -0.6676  1.3277
  889MPD2    H113035   0.974   3.718  12.831  0.6155 -0.5894 -1.9558
  889MPD2    H213036   0.923   3.301  12.784 -0.5380  1.3456 -1.1907
  889MPD2    H313037   0.875   3.526  12.718  0.6398 -0.6239 -0.9217
  889MPD2     N13038   1.179   3.697  13.009 -1.0316 -0.3483  0.1028
  889MPD2    H513039   1.230   3.666  13.092  0.6580  0.7383 -0.5413
  889MPD2    N113040   1.108   3.229  12.972  0.2103  0.1793 -0.4532
  889MPD2    H713041   1.198   3.221  13.018 -0.3025  0.6618  0.6484
  890MPD2     C13042   0.787   0.606  15.340 -0.5203  0.2174 -0.0194
  890MPD2    C113043   0.892   0.587  15.253  0.0699  0.5911  0.8323
  890MPD2    C213044   0.980   0.484  15.279 -0.0855 -0.2037  0.2506
  890MPD2    C313045   0.964   0.393  15.383 -0.2109 -0.3311 -0.2721
  890MPD2    C413046   0.854   0.409  15.456 -0.2540  0.2331  0.0009
  890MPD2    C513047   0.771   0.523  15.442  0.3847  0.0436 -1.6700
  890MPD2     H13048   1.070   0.467  15.221  0.3212  0.4941  0.6759
  890MPD2    H113049   0.822   0.344  15.536 -0.9063 -0.3923 -0.7573
  890MPD2    H213050   0.718   0.690  15.335  2.1382  2.3108 -1.0699
  890MPD2    H313051   0.688   0.524  15.510 -1.2144 -1.5725 -3.6011
  890MPD2     N13052   1.063   0.294  15.392  0.1907  0.9999  0.3087
  890MPD2    H513053   1.131   0.290  15.317 -0.0505  3.0874 -0.0322
  890MPD2    N113054   0.912   0.691  15.158 -0.6782  0.7073 -0.2558
  890MPD2    H713055   0.841   0.762  15.145 -2.0200 -0.3823  1.1726
  891MPD2     C13056   3.497   2.827  16.915 -0.5395  0.1794  0.0957
  891MPD2    C113057   3.566   2.938  16.879  0.1631 -0.3235 -0.4152
  891MPD2    C213058   3.653   2.996  16.967  0.9093 -0.0224  0.5024
  891MPD2    C313059   3.677   2.943  17.095  0.3397 -0.2977 -0.0446
  891MPD2    C413060   3.606   2.826  17.122  0.1621  0.4405 -0.0024
  891MPD2    C513061   3.513   2.778  17.039 -0.0171 -0.4031 -0.3640
  891MPD2     H13062   3.713   3.082  16.942 -1.3742  2.1179  2.3694
  891MPD2    H113063   3.623   2.780  17.219  0.0381 -0.0362 -0.2069
  891MPD2    H213064   3.434   2.778  16.841 -0.9059 -0.9897  1.1754
  891MPD2    H313065   3.451   2.690  17.051 -0.3762  0.2361  2.3319
  891MPD2     N13066   3.764   3.015  17.176  0.2279 -0.1061  0.3669
  891MPD2    H513067   3.788   3.106  17.137  0.4622 -0.5150 -0.4402
  891MPD2    N113068   3.555   2.984  16.746  0.3048  0.2854  0.8115
  891MPD2    H713069   3.500   2.931  16.679 -0.1152 -0.2266  1.5615
  892MPD2     C13070   0.041   0.104  14.515  0.7986  0.3297 -0.0073
  892MPD2    C113071   0.012   0.014  14.616 -0.7193  0.4895 -0.6281
  892MPD2    C213072   0.102   4.625  14.633  0.0895  0.0781 -0.0542
  892MPD2    C313073   0.216   4.610  14.556  0.1713 -0.2566  0.0998
  892MPD2    C413074   0.242   4.702  14.460  0.1560 -0.2428  1.0941
  892MPD2    C513075   0.164   0.091  14.448 -0.7396 -0.7286 -0.1245
  892MPD2     H13076   0.084   4.561  14.718  1.4285 -0.1291  0.0604
  892MPD2    H113077   0.325   4.696  14.391  0.1709  0.0298  1.0878
  892MPD2    H213078   4.702   0.194  14.499  0.1976 -0.1718 -0.6368
  892MPD2    H313079   0.176   0.160  14.366  3.5679  0.5284  1.5567
  892MPD2     N13080   0.309   4.501  14.576  0.3539 -0.1230 -0.5648
  892MPD2    H513081   0.394   4.508  14.521  0.3218  2.4376 -0.2762
  892MPD2    N113082   4.608   0.035  14.691 -0.1984 -0.1324 -0.3782
  892MPD2    H713083   4.543   0.108  14.665  1.2964  0.8648 -1.2611
  893MPD2     C13084   2.298   2.790   1.148 -0.0184 -0.1713 -0.1893
  893MPD2    C113085   2.280   2.828   1.279  0.5539 -0.2914  0.7853
  893MPD2    C213086   2.167   2.900   1.324 -0.5352 -0.2080  0.3772
  893MPD2    C313087   2.072   2.929   1.227 -0.3370  0.4173  0.8870
  893MPD2    C413088   2.090   2.883   1.098  0.0369 -0.1647  0.1116
  893MPD2    C513089   2.198   2.808   1.061 -0.0447  0.3664  0.1163
  893MPD2     H13090   2.140   2.927   1.426 -2.7953 -0.3506 -0.1804
  893MPD2    H113091   2.020   2.909   1.018  1.6659 -0.8509 -1.5436
  893MPD2    H213092   2.388   2.739   1.116 -0.0884 -0.2576 -0.2467
  893MPD2    H313093   2.214   2.781   0.958 -0.3153 -0.7907  0.3723
  893MPD2     N13094   1.950   2.985   1.254 -0.6165  0.0248  0.4047
  893MPD2    H513095   1.878   2.968   1.184 -0.1890  0.5368 -0.1559
  893MPD2    N113096   2.379   2.783   1.359 -0.3741 -0.1467  0.0252
  893MPD2    H713097   2.458   2.736   1.315 -0.4480 -0.2859  0.0425
  894MPD2     C13098   0.081   0.199   0.953  0.2300 -0.1604  0.8051
  894MPD2    C113099   0.081   0.232   1.090 -0.5465 -0.0401  0.3742
  894MPD2    C213100   0.147   0.355   1.116 -0.4342 -0.6975 -0.3476
  894MPD2    C313101   0.190   0.437   1.014  0.1687 -0.3895  0.1075
  894MPD2    C413102   0.176   0.403   0.880 -0.8240 -0.0113  0.0078
  894MPD2    C513103   0.122   0.279   0.850  0.6413  0.6446 -0.0842
  894MPD2     H13104   0.153   0.395   1.216  1.6995 -0.4407 -0.5731
  894MPD2    H113105   0.221   0.458   0.797 -0.6759 -1.2510 -0.7253
  894MPD2    H213106   0.058   0.095   0.933 -0.4972  0.1063  0.2802
  894MPD2    H313107   0.116   0.237   0.751  2.6950  2.3068 -0.8925
  894MPD2     N13108   0.259   0.552   1.064 -0.5366 -0.4621 -0.2211
  894MPD2    H513109   0.289   0.547   1.161  1.6222  0.1756 -0.8802
  894MPD2    N113110   0.031   0.157   1.195  0.8800 -0.1228 -0.3628
  894MPD2    H713111   0.033   0.207   1.284 -0.9618  0.6832 -0.7540
  895MPD2     C13112   4.416   3.610  13.822  0.2879  0.2701  0.7997
  895MPD2    C113113   4.370   3.586  13.692 -0.8493 -0.1904  0.3830
  895MPD2    C213114   4.318   3.465  13.662 -0.0250  0.0515  0.0500
  895MPD2    C313115   4.291   3.367  13.750  0.4967  0.4892 -0.1341
  895MPD2    C413116   4.327   3.395  13.881 -0.3287  0.2748  0.5303
  895MPD2    C513117   4.387   3.517  13.918  0.3425  0.5210 -0.1192
  895MPD2     H13118   4.276   3.442  13.565  0.1993 -0.8015  0.1557
  895MPD2    H113119   4.316   3.324  13.963 -2.3022  0.9478  0.8473
  895MPD2    H213120   4.466   3.702  13.848  1.5786  0.5445 -2.6734
  895MPD2    H313121   4.419   3.526  14.021 -0.8731  0.4333  0.2671
  895MPD2     N13122   4.232   3.249  13.707  0.6640  0.0081  0.6972
  895MPD2    H513123   4.219   3.247  13.606  0.4510 -0.7546  0.7374
  895MPD2    N113124   4.398   3.682  13.587 -0.1064  0.6055 -0.5550
  895MPD2    H713125   4.434   3.773  13.614  2.1828  0.1640 -2.1153
  896MPD2     C13126   1.809   1.378   1.735 -0.3730  0.3829  0.4345
  896MPD2    C113127   1.837   1.296   1.624  0.5597  0.1270  0.2805
  896MPD2    C213128   1.759   1.189   1.607  0.0407 -0.0342 -0.1195
  896MPD2    C313129   1.661   1.155   1.693 -0.1105 -0.0532  0.2447
  896MPD2    C413130   1.632   1.236   1.800 -0.8110 -0.0420  0.4993
  896MPD2    C513131   1.703   1.351   1.823  0.1686  0.0945  0.4801
  896MPD2     H13132   1.767   1.126   1.518  0.8064  3.0487 -2.2328
  896MPD2    H113133   1.541   1.235   1.858 -0.1631  2.3300  1.5765
  896MPD2    H213134   1.862   1.469   1.760  0.2757  0.2329 -0.3940
  896MPD2    H313135   1.676   1.418   1.903  0.6149 -0.2618  0.9254
  896MPD2     N13136   1.572   1.050   1.651  0.0852  0.4713  0.2166
  896MPD2    H513137   1.596   1.000   1.566  0.1807  1.3061 -0.2501
  896MPD2    N113138   1.948   1.334   1.543 -0.7929  0.1497 -0.7080
  896MPD2    H713139   2.010   1.411   1.566  0.1449 -1.8112  3.4289
  897MPD2     C13140   2.993   3.738  10.442 -0.1542 -1.0098  0.0918
  897MPD2    C113141   2.901   3.824  10.489  0.7767  0.1359  0.2613
  897MPD2    C213142   2.797   3.772  10.566  0.2429 -0.2340  0.0658
  897MPD2    C313143   2.799   3.636  10.613 -0.2536  0.3926 -0.4267
  897MPD2    C413144   2.899   3.557  10.568 -0.3854 -0.1147 -0.4586
  897MPD2    C513145   2.990   3.608  10.482 -0.3559 -0.0034 -1.4677
  897MPD2     H13146   2.722   3.838  10.607 -1.1714  0.2927 -3.3679
  897MPD2    H113147   2.901   3.455  10.603 -0.6386 -0.2381 -0.7997
  897MPD2    H213148   3.075   3.767  10.377  0.4504 -1.5379  0.6280
  897MPD2    H313149   3.074   3.542  10.465 -0.3615 -0.0817 -1.1896
  897MPD2     N13150   2.696   3.588  10.703  0.1889  0.0228  0.2834
  897MPD2    H513151   2.630   3.657  10.737 -0.6025 -1.7464  2.3268
  897MPD2    N113152   2.913   3.959  10.443  0.4670  0.4938  0.4065
  897MPD2    H713153   2.999   3.978  10.393  0.3415 -0.5776 -0.2144
  898MPD2     C13154   0.612   3.249   0.643  0.0785  0.3361 -0.5458
  898MPD2    C113155   0.647   3.357   0.558  0.3230 -0.1085  0.7376
  898MPD2    C213156   0.540   3.405   0.480  0.2096  0.4777 -0.3891
  898MPD2    C313157   0.420   3.341   0.472 -0.5611  0.1903 -0.5640
  898MPD2    C413158   0.390   3.232   0.547  0.3033  0.2751 -0.8112
  898MPD2    C513159   0.490   3.186   0.628 -0.4176  0.2345  0.0616
  898MPD2     H13160   0.554   3.497   0.424 -2.1027  2.5593  2.4989
  898MPD2    H113161   0.296   3.179   0.549 -0.7613  2.2067  0.6100
  898MPD2    H213162   0.685   3.208   0.713  1.5405  1.3107 -1.5112
  898MPD2    H313163   0.466   3.100   0.690 -1.2364  0.7500  0.4635
  898MPD2     N13164   0.325   3.392   0.374  0.7948 -0.0921 -0.5986
  898MPD2    H513165   0.350   3.474   0.319  0.6910  0.4973  0.2338
  898MPD2    N113166   0.765   3.428   0.563  0.6564 -0.0367  0.1378
  898MPD2    H713167   0.766   3.519   0.520  2.1877  0.3361  0.9401
  899MPD2     C13168   0.510   4.521  17.643  0.0155  0.9206  0.7586
  899MPD2    C113169   0.588   4.595   0.040  0.6464 -0.3722  1.2625
  899MPD2    C213170   0.623   4.561   0.168 -0.3380  0.1263  1.0241
  899MPD2    C313171   0.570   4.442   0.223 -0.1026  0.2408  0.0409
  899MPD2    C413172   0.495   4.361   0.140  0.1320  0.3848 -0.5379
  899MPD2    C513173   0.465   4.405   0.014  0.5667 -0.2390  0.8298
  899MPD2     H13174   0.681   4.629   0.230  3.2990 -0.4018 -1.7850
  899MPD2    H113175   0.444   4.270   0.171 -0.5982  1.0136  0.1198
  899MPD2    H213176   0.473   4.563  17.550  1.3501 -1.8304 -1.0240
  899MPD2    H313177   0.399   4.357  17.624 -2.1002  0.1968  3.0506
  899MPD2     N13178   0.587   4.396   0.354  0.5522  0.1049  0.5907
  899MPD2    H513179   0.564   4.297   0.356  2.2528 -0.2904  0.5150
  899MPD2    N113180   0.626   0.006  17.670  0.2229 -0.9171 -0.6249
  899MPD2    H713181   0.591   0.029  17.578  0.4248 -1.2904 -0.7971
  900MPD2     C13182   0.698   1.737  12.879  0.3155  0.4930  0.2724
  900MPD2    C113183   0.625   1.630  12.842 -0.2313 -0.1063 -0.1766
  900MPD2    C213184   0.508   1.647  12.769  0.0787  0.5342  0.6293
  900MPD2    C313185   0.469   1.766  12.728  0.0172 -0.1914  0.0986
  900MPD2    C413186   0.541   1.872  12.767  0.2562  0.2336  0.5201
  900MPD2    C513187   0.652   1.859  12.845 -0.0367 -0.5127  0.4180
  900MPD2     H13188   0.439   1.567  12.742  1.1891 -0.1333 -0.1880
  900MPD2    H113189   0.520   1.973  12.734  0.4996 -0.1603 -0.8617
  900MPD2    H213190   0.787   1.726  12.941  1.8191  3.4847 -1.3549
  900MPD2    H313191   0.702   1.953  12.867  0.2970 -0.5683 -0.1069
  900MPD2     N13192   0.362   1.767  12.639  0.1352 -0.1927 -0.1687
  900MPD2    H513193   0.337   1.680  12.592 -1.9028 -1.2132  2.8524
  900MPD2    N113194   0.673   1.502  12.878  0.1346  0.2034 -0.4933
  900MPD2    H713195   0.764   1.493  12.923 -0.1087 -0.0522 -0.0537
  901MPD2     C13196   0.489   0.457  13.176 -0.0261 -0.3747  0.2429
  901MPD2    C113197   0.549   0.447  13.052 -0.1631  0.5777  0.1211
  901MPD2    C213198   0.592   0.570  12.995 -0.3430  0.1006 -0.0182
  901MPD2    C313199   0.572   0.696  13.052  0.0203 -0.1319 -0.4422
  901MPD2    C413200   0.508   0.703  13.174  0.4107  0.2742 -0.3159
  901MPD2    C513201   0.464   0.584  13.232 -0.5410  0.4751 -0.0823
  901MPD2     H13202   0.644   0.559  12.901  1.2068 -2.2522  1.1163
  901MPD2    H113203   0.485   0.798  13.221  1.0280 -0.2958  1.1413
  901MPD2    H213204   0.462   0.372  13.238 -0.0392  2.2097  3.8297
  901MPD2    H313205   0.415   0.597  13.328  0.6533  0.4877  0.5315
  901MPD2     N13206   0.629   0.801  12.976  0.0498  0.2535  0.0371
  901MPD2    H513207   0.679   0.783  12.889  0.6591  1.0016  0.2277
  901MPD2    N113208   0.569   0.315  13.005 -0.1352 -0.7795 -0.0759
  901MPD2    H713209   0.532   0.237  13.057 -0.6236 -2.3007 -2.6740
  902MPD2     C13210   4.707   4.484  13.153 -0.8494  0.2736  0.4194
  902MPD2    C113211   4.584   4.473  13.095 -0.5478  0.1432  0.1507
  902MPD2    C213212   4.552   4.361  13.021 -0.1571 -0.2103 -0.5166
  902MPD2    C313213   4.651   4.259  13.010  0.6764 -0.1748  0.6295
  902MPD2    C413214   0.051   4.268  13.075  0.1702  0.5550 -0.5839
  902MPD2    C513215   0.084   4.385  13.137 -0.2120  0.1217  0.1874
  902MPD2     H13216   4.453   4.357  12.976 -0.1470 -3.9118 -0.2482
  902MPD2    H113217   0.128   4.196  13.050 -0.3880 -0.8132  1.7154
  902MPD2    H213218   0.026   4.567  13.212 -0.0944  0.8384 -0.8475
  902MPD2    H313219   0.178   4.400  13.188  0.2721 -0.1536 -0.6121
  902MPD2     N13220   4.616   4.146  12.937  0.2542 -0.2487  0.1288
  902MPD2    H513221   4.688   4.074  12.943 -0.9999 -1.4912  0.5159
  902MPD2    N113222   4.490   4.578  13.118 -0.2520  0.5173 -0.6017
  902MPD2    H713223   4.506   4.650  13.188 -1.0197  1.0740 -0.9932
  903MPD2     C13224   4.406   3.741  12.134  0.0869 -0.0981  0.8234
  903MPD2    C113225   4.375   3.849  12.203 -0.2043  0.1465 -0.2615
  903MPD2    C213226   4.315   3.946  12.137  0.5067  0.3234 -0.3031
  903MPD2    C313227   4.291   3.936  12.000  0.6830 -0.8705 -0.3432
  903MPD2    C413228   4.333   3.828  11.937  0.1788 -0.0437  0.5508
  903MPD2    C513229   4.375   3.717  12.004 -1.0587  0.5492  0.4889
  903MPD2     H13230   4.306   4.046  12.180 -2.0146  0.3308 -0.8638
  903MPD2    H113231   4.329   3.814  11.829 -0.1712  0.2570  0.5281
  903MPD2    H213232   4.447   3.662  12.197 -2.0126 -1.3861  0.5936
  903MPD2    H313233   4.391   3.625  11.949  0.4671  0.1948  1.5256
  903MPD2     N13234   4.240   4.046  11.936  0.1276  0.1280  0.2672
  903MPD2    H513235   4.197   4.122  11.988  1.3598 -0.4441  2.1307
  903MPD2    N113236   4.410   3.851  12.339  0.1867 -0.0090  0.0790
  903MPD2    H713237   4.448   3.765  12.377 -2.1590 -1.1058 -0.0830
  904MPD2     C13238   3.642   3.276  13.799  0.0323 -0.6709 -0.7761
  904MPD2    C113239   3.748   3.349  13.840  0.1016  0.3101 -0.0495
  904MPD2    C213240   3.851   3.290  13.918 -0.1344  0.4292  0.0914
  904MPD2    C313241   3.826   3.168  13.968  0.4547  0.4284  0.2789
  904MPD2    C413242   3.710   3.097  13.935  0.1220 -1.1537  0.9283
  904MPD2    C513243   3.620   3.147  13.851  0.4092 -0.3256 -0.1051
  904MPD2     H13244   3.940   3.345  13.944 -0.3080  0.0732  1.4284
  904MPD2    H113245   3.682   2.999  13.969  0.6820 -2.0129 -1.0754
  904MPD2    H213246   3.570   3.308  13.725  0.2618  0.4204 -0.5218
  904MPD2    H313247   3.538   3.081  13.823 -0.8194  0.6929  1.1386
  904MPD2     N13248   3.923   3.115  14.057 -0.1820 -0.3558  0.5332
  904MPD2    H513249   3.998   3.176  14.087 -1.5211  0.2895  2.5505
  904MPD2    N113250   3.747   3.485  13.803 -0.0351 -0.1854  0.5473
  904MPD2    H713251   3.689   3.507  13.722  0.4460  1.1496  0.5550
  905MPD2     C13252   3.694   3.543  13.252  0.3862 -0.6248 -1.3537
  905MPD2    C113253   3.818   3.557  13.315  0.6364 -0.0463  0.1816
  905MPD2    C213254   3.899   3.447  13.326  0.0520 -0.0765  0.0021
  905MPD2    C313255   3.858   3.317  13.301  0.4490  0.2408 -0.2020
  905MPD2    C413256   3.727   3.304  13.249 -0.4782 -0.0087 -0.0357
  905MPD2    C513257   3.654   3.423  13.220  0.0592 -0.2233  0.2279
  905MPD2     H13258   3.999   3.450  13.369  0.0063  1.5867 -0.0022
  905MPD2    H113259   3.689   3.209  13.213  0.6767  0.3669 -2.2810
  905MPD2    H213260   3.617   3.620  13.251  0.7663 -0.2063  2.0973
  905MPD2    H313261   3.553   3.409  13.181 -0.0792  0.0388  0.4957
  905MPD2     N13262   3.931   3.212  13.358  0.2863 -0.5210  0.1011
  905MPD2    H513263   4.024   3.236  13.392 -1.9843  2.4971  4.2084
  905MPD2    N113264   3.848   3.677  13.385 -1.3698  0.5943 -0.4104
  905MPD2    H713265   3.769   3.737  13.407 -0.0540  2.2305 -0.1971
  906MPD2     C13266   1.291   3.701  11.519  0.0749  0.2472  0.8215
  906MPD2    C113267   1.319   3.581  11.454 -0.8814  0.3023  0.6253
  906MPD2    C213268   1.267   3.463  11.509  0.1449  0.1055 -0.3878
  906MPD2    C313269   1.208   3.458  11.634  0.5333  0.5318  0.3905
  906MPD2    C413270   1.202   3.575  11.708  0.5260 -0.5412  0.0173
  906MPD2    C513271   1.239   3.690  11.645  0.3361 -0.5137 -0.2003
  906MPD2     H13272   1.284   3.371  11.455 -0.6295  0.2595 -0.8979
  906MPD2    H113273   1.169   3.589  11.810 -1.4134 -0.5691 -0.6182
  906MPD2    H213274   1.326   3.798  11.485 -1.5970  0.2437 -0.8962
  906MPD2    H313275   1.235   3.782  11.702 -0.9404 -2.1172  2.2914
  906MPD2     N13276   1.180   3.335  11.701  0.1656 -0.6082 -0.4570
  906MPD2    H513277   1.184   3.246  11.652  0.4286 -1.7294  1.6082
  906MPD2    N113278   1.387   3.576  11.329 -0.3087  0.1416 -0.2973
  906MPD2    H713279   1.394   3.489  11.278 -1.2620 -0.9733  1.4527
  907MPD2     C13280   4.702   2.276  15.969 -0.7297  0.6818 -0.0634
  907MPD2    C113281   0.030   2.148  15.960 -0.0423 -1.0614  0.1563
  907MPD2    C213282   0.106   2.092  16.064 -0.5019 -0.4809  0.3299
  907MPD2    C313283   0.111   2.154  16.188 -0.5895  0.5609 -0.0412
  907MPD2    C413284   0.033   2.269  16.206 -0.4824  0.3309  0.7433
  907MPD2    C513285   4.692   2.326  16.096 -0.1239  0.3907  0.1862
  907MPD2     H13286   0.153   1.995  16.051 -1.7136 -1.0955  0.5466
  907MPD2    H113287   0.014   2.309  16.305 -0.4420 -0.8043  1.2156
  907MPD2    H213288   4.635   2.318  15.895  1.7516 -0.3030 -2.8802
  907MPD2    H313289   4.643   2.420  16.120  1.2389  0.9663  0.7145
  907MPD2     N13290   0.183   2.085  16.292  0.5803 -0.2729  0.6319
  907MPD2    H513291   0.231   1.996  16.277  1.2084  0.3079 -0.7506
  907MPD2    N113292   0.011   2.068  15.849 -0.2620  0.2429  0.7644
  907MPD2    H713293   0.040   1.972  15.842 -0.1804  0.4139 -1.1075
  908MPD2     C13294   2.544   4.393   9.741 -0.1539  0.2166 -0.3159
  908MPD2    C113295   2.506   4.292   9.830 -0.1918 -0.6641 -0.2806
  908MPD2    C213296   2.598   4.251   9.925  0.2602  0.6354 -0.0586
  908MPD2    C313297   2.720   4.314   9.942 -0.6802 -0.1887  0.0200
  908MPD2    C413298   2.744   4.421   9.863  0.1590  0.0349 -0.0269
  908MPD2    C513299   2.662   4.458   9.760 -0.3068  0.6464  0.5085
  908MPD2     H13300   2.573   4.164   9.985  2.2899 -0.1296 -0.3310
  908MPD2    H113301   2.837   4.477   9.865 -0.7902  1.6553 -1.0696
  908MPD2    H213302   2.480   4.416   9.656  0.5888  0.3747 -0.8273
  908MPD2    H313303   2.705   4.535   9.697  0.5282 -0.5279 -0.3635
  908MPD2     N13304   2.797   4.285  10.059 -0.8841 -0.1341 -0.0005
  908MPD2    H513305   2.753   4.223  10.126  0.6832 -1.4006 -0.1641
  908MPD2    N113306   2.384   4.215   9.828 -0.0165 -0.2813  0.0964
  908MPD2    H713307   2.370   4.148   9.903  0.8236  0.6046  1.0459
  909MPD2     C13308   2.998   1.258  12.080 -0.1651 -0.6334 -0.4042
  909MPD2    C113309   2.956   1.350  11.989  0.9223 -0.3395 -0.3362
  909MPD2    C213310   2.838   1.416  12.013  0.0781  0.5018 -0.0438
  909MPD2    C313311   2.777   1.413  12.139 -0.1874 -0.2748  0.4328
  909MPD2    C413312   2.827   1.318  12.234 -0.1376  0.2527  0.5581
  909MPD2    C513313   2.933   1.236  12.201  0.5721 -0.5955  0.3128
  909MPD2     H13314   2.799   1.491  11.945 -1.2087 -0.1768 -0.0635
  909MPD2    H113315   2.791   1.326  12.336  0.5212 -0.5148  0.8472
  909MPD2    H213316   3.079   1.191  12.055 -0.0796 -0.5367 -0.3884
  909MPD2    H313317   2.972   1.163  12.272 -1.4726 -0.7886  1.2354
  909MPD2     N13318   2.677   1.506  12.185 -0.0751 -0.3985 -0.2347
  909MPD2    H513319   2.651   1.582  12.122 -2.3415  0.8085  2.1452
  909MPD2    N113320   3.019   1.364  11.863  0.6222 -0.2452  1.0089
  909MPD2    H713321   2.980   1.428  11.795 -1.1945 -4.2056 -1.6418
  910MPD2     C13322   3.885   2.376  15.849  0.2472 -0.4016 -0.3351
  910MPD2    C113323   4.010   2.361  15.781  0.4798 -0.6209 -0.5108
  910MPD2    C213324   4.016   2.390  15.649 -0.0866 -0.0842 -0.1364
  910MPD2    C313325   3.910   2.435  15.573 -0.7829  0.6063 -0.0174
  910MPD2    C413326   3.786   2.447  15.637  0.5011  0.3086  0.1723
  910MPD2    C513327   3.771   2.417  15.775  0.1523 -0.4107 -1.4616
  910MPD2     H13328   4.114   2.380  15.603 -1.6164 -2.3433 -2.9193
  910MPD2    H113329   3.699   2.489  15.588  0.6157  0.1872 -0.1395
  910MPD2    H213330   3.871   2.357  15.955 -0.5813 -1.9279 -0.7253
  910MPD2    H313331   3.676   2.441  15.820  1.2684  0.8659  0.2291
  910MPD2     N13332   3.923   2.503  15.445 -0.1297  0.3942  0.1254
  910MPD2    H513333   3.835   2.519  15.397  0.1643  1.9130  0.1076
  910MPD2    N113334   4.127   2.325  15.853  0.5299 -0.0410 -0.0704
  910MPD2    H713335   4.199   2.276  15.800  0.5730  0.5052 -0.5125
  911MPD2     C13336   2.313   3.583  16.266 -0.2934  0.2608  0.1439
  911MPD2    C113337   2.366   3.678  16.353 -0.3470  0.1634 -0.5253
  911MPD2    C213338   2.325   3.811  16.346 -0.3221  0.3889  0.5165
  911MPD2    C313339   2.211   3.838  16.271  0.1543 -0.3537  1.0225
  911MPD2    C413340   2.155   3.745  16.196  0.2500 -0.2703 -0.1968
  911MPD2    C513341   2.208   3.617  16.191  0.1526 -0.2348  0.3885
  911MPD2     H13342   2.372   3.890  16.403  2.2425 -0.1601 -0.8541
  911MPD2    H113343   2.071   3.765  16.131 -0.0872  0.2670  0.4089
  911MPD2    H213344   2.341   3.478  16.261 -2.0294 -0.1546 -0.7808
  911MPD2    H313345   2.160   3.537  16.136  1.8376 -0.0654 -1.3259
  911MPD2     N13346   2.148   3.966  16.281 -0.1877  0.2015 -0.3654
  911MPD2    H513347   2.048   3.965  16.260 -0.4178  3.0514  0.5373
  911MPD2    N113348   2.476   3.636  16.438 -0.2031  0.2388  0.8450
  911MPD2    H713349   2.496   3.538  16.455  2.0479  0.9697  2.3796
  912MPD2     C13350   1.689   3.801  16.010  0.3215 -0.3459 -0.8753
  912MPD2    C113351   1.739   3.841  16.129 -0.0478  0.0341  0.3441
  912MPD2    C213352   1.773   3.747  16.221  0.7593 -0.2383 -0.3944
  912MPD2    C313353   1.761   3.612  16.187  0.0959  0.1437  0.4961
  912MPD2    C413354   1.699   3.579  16.070 -0.1235 -0.5649 -0.6052
  912MPD2    C513355   1.672   3.673  15.975  0.4011  0.1102  0.5095
  912MPD2     H13356   1.801   3.774  16.323  0.8392 -0.3350 -0.3911
  912MPD2    H113357   1.681   3.476  16.042 -3.8805 -0.1862  0.3701
  912MPD2    H213358   1.656   3.879  15.942 -2.3496 -0.9928 -0.3065
  912MPD2    H313359   1.624   3.638  15.884  0.0529 -0.3366  0.8684
  912MPD2     N13360   1.810   3.520  16.278 -0.1216  0.0350 -0.4112
  912MPD2    H513361   1.850   3.559  16.363  0.6197 -0.3748 -0.5681
  912MPD2    N113362   1.772   3.981  16.144  0.0133 -0.1446  0.2122
  912MPD2    H713363   1.760   4.037  16.060 -1.9632 -1.0519 -0.1110
  913MPD2     C13364   2.654   0.349  10.516 -0.8324  1.0427  0.0430
  913MPD2    C113365   2.745   0.454  10.511  0.1672 -0.4323  0.0202
  913MPD2    C213366   2.777   0.514  10.386 -0.1666 -0.1075  0.1158
  913MPD2    C313367   2.716   0.471  10.264 -0.6091  0.1065 -0.2431
  913MPD2    C413368   2.619   0.365  10.277  0.8036  0.7502  0.9147
  913MPD2    C513369   2.595   0.299  10.401  0.3305  0.2078  0.1982
  913MPD2     H13370   2.857   0.587  10.384 -1.1140  0.8628 -3.2467
  913MPD2    H113371   2.561   0.327  10.194 -0.7031  0.6945  1.9828
  913MPD2    H213372   2.622   0.303  10.609 -0.8842  0.1593 -0.4044
  913MPD2    H313373   2.518   0.223  10.392  1.1436 -0.4415 -1.1615
  913MPD2     N13374   2.745   0.533  10.141  0.6271 -0.1899 -0.0230
  913MPD2    H513375   2.695   0.489  10.064  0.3819 -1.8515  1.0798
  913MPD2    N113376   2.802   0.504  10.632  0.2411 -0.1755  0.2123
  913MPD2    H713377   2.803   0.450  10.718 -0.4451 -0.5558 -0.0116
  914MPD2     C13378   0.640   4.703  12.092 -0.3700  0.0596 -0.1786
  914MPD2    C113379   0.654   0.104  12.152 -0.0908 -0.2006 -0.1775
  914MPD2    C213380   0.697   0.107  12.283  0.4181  0.7235  0.0244
  914MPD2    C313381   0.723   4.713  12.351  0.1661 -0.3498  0.5570
  914MPD2    C413382   0.702   4.592  12.289 -0.0440  0.1437  0.2441
  914MPD2    C513383   0.668   4.586  12.161 -0.2834  0.0931  0.3946
  914MPD2     H13384   0.700   0.203  12.332  0.1151 -0.6024  2.6614
  914MPD2    H113385   0.699   4.503  12.352 -0.3589 -1.7411 -2.4430
  914MPD2    H213386   0.603   4.696  11.990  3.1326 -1.5593 -1.3537
  914MPD2    H313387   0.650   4.497  12.101 -2.2856 -0.4300  1.7593
  914MPD2     N13388   0.750   0.009  12.491 -0.3217 -0.8677  0.2898
  914MPD2    H513389   0.788   0.097  12.523 -0.5426 -0.3026 -0.9924
  914MPD2    N113390   0.608   0.221  12.086  0.3219  0.1225  0.3170
  914MPD2    H713391   0.593   0.207  11.987 -1.5136 -0.6027  0.6988
  915MPD2     C13392   3.426   0.175  15.393  0.3231 -0.2291  0.2134
  915MPD2    C113393   3.316   0.098  15.396  0.2319 -0.1403  0.2046
  915MPD2    C213394   3.245   0.076  15.514 -0.1776 -0.7877 -0.6367
  915MPD2    C313395   3.295   0.110  15.636 -0.3206  0.1530 -0.0850
  915MPD2    C413396   3.417   0.177  15.629  0.0943 -0.7414  0.3834
  915MPD2    C513397   3.478   0.216  15.515  0.5849 -0.3092  0.2813
  915MPD2     H13398   3.149   0.025  15.519  0.8853 -2.7186  0.0016
  915MPD2    H113399   3.465   0.207  15.721 -0.6089  0.9883  0.1988
  915MPD2    H213400   3.472   0.196  15.297 -0.9500 -1.1345 -0.6054
  915MPD2    H313401   3.570   0.273  15.517  0.0908  0.4953  0.1033
  915MPD2     N13402   3.234   0.089  15.764  0.2111  0.0731 -0.6189
  915MPD2    H513403   3.139   0.054  15.767  0.4795 -0.6305 -0.3033
  915MPD2    N113404   3.263   0.064  15.269  0.3491 -0.1463 -0.6463
  915MPD2    H713405   3.307   0.102  15.186 -2.3024  1.3332 -1.3597
  916MPD2     C13406   0.997   2.628  16.503 -1.0369 -0.2931 -1.0450
  916MPD2    C113407   1.095   2.686  16.427  1.2114  0.2310  0.4153
  916MPD2    C213408   1.185   2.601  16.360  0.1371  0.2540 -0.9382
  916MPD2    C313409   1.176   2.465  16.370 -0.1436  0.4424  0.2555
  916MPD2    C413410   1.081   2.411  16.453 -1.0268 -0.4527 -0.5530
  916MPD2    C513411   0.987   2.493  16.508  0.0497 -0.7333 -0.4787
  916MPD2     H13412   1.262   2.649  16.300 -0.2890  1.4166 -0.5634
  916MPD2    H113413   1.073   2.305  16.473 -2.9300  0.2344  2.2006
  916MPD2    H213414   0.936   2.687  16.571 -0.7402  0.2190 -1.2287
  916MPD2    H313415   0.907   2.451  16.567  1.6344 -3.1820 -0.0401
  916MPD2     N13416   1.286   2.384  16.320 -0.2868 -0.1120 -0.3145
  916MPD2    H513417   1.362   2.430  16.272  1.4361 -0.5909  2.0098
  916MPD2    N113418   1.104   2.828  16.422  0.0805 -0.7705  0.1983
  916MPD2    H713419   1.042   2.874  16.489 -0.5892  0.1290 -1.0454
  917MPD2     C13420   1.866   0.952  10.956 -0.6068  0.4978  0.2048
  917MPD2    C113421   1.896   0.995  11.086 -0.4249 -0.3932  0.3854
  917MPD2    C213422   1.963   1.120  11.088 -0.2344 -0.1888 -1.2439
  917MPD2    C313423   2.000   1.195  10.976 -0.1259  0.1023  0.3503
  917MPD2    C413424   1.950   1.151  10.854  0.0542  0.2598 -0.3719
  917MPD2    C513425   1.886   1.035  10.849  0.0084 -0.5659  0.5990
  917MPD2     H13426   1.983   1.163  11.185 -0.8345  1.0275 -1.6481
  917MPD2    H113427   1.992   1.194  10.764  0.9288  0.1565 -0.0116
  917MPD2    H213428   1.827   0.852  10.940  1.3576 -0.3769  0.8849
  917MPD2    H313429   1.855   1.002  10.751 -1.5028  1.1762  0.4913
  917MPD2     N13430   2.074   1.314  10.989  0.3963 -0.3731 -0.5669
  917MPD2    H513431   2.088   1.373  10.908 -1.7249  2.1692  0.9007
  917MPD2    N113432   1.862   0.911  11.194  0.6773 -0.0836 -0.0514
  917MPD2    H713433   1.794   0.837  11.177  1.3249 -0.5925 -0.4176
  918MPD2     C13434   2.090   1.164  12.127  0.4424 -0.4325 -0.5226
  918MPD2    C113435   2.179   1.143  12.020  0.5294 -0.4065 -0.1817
  918MPD2    C213436   2.123   1.077  11.915  0.5676  0.6642 -0.4946
  918MPD2    C313437   1.992   1.035  11.913 -0.0235  0.4539 -0.1602
  918MPD2    C413438   1.909   1.059  12.021  0.2704  0.5478 -0.0438
  918MPD2    C513439   1.963   1.130  12.123 -0.1762  0.3498  0.3749
  918MPD2     H13440   2.184   1.057  11.827  0.6320  0.0325 -0.3075
  918MPD2    H113441   1.805   1.027  12.028  0.7572 -1.7221 -3.3930
  918MPD2    H213442   2.127   1.223  12.210  0.9881 -0.6686 -0.6004
  918MPD2    H313443   1.904   1.163  12.208  0.2123  2.2831 -0.1016
  918MPD2     N13444   1.940   0.975  11.798 -0.1266  0.2381 -0.2346
  918MPD2    H513445   1.983   0.986  11.707  0.1572 -0.4486 -0.1859
  918MPD2    N113446   2.319   1.171  12.026  0.1098 -0.5489 -0.1445
  918MPD2    H713447   2.379   1.151  11.946 -2.0132 -2.2323 -1.2933
  919MPD2     C13448   2.492   0.135  11.984  0.6263  0.1430 -0.2089
  919MPD2    C113449   2.597   0.061  11.935 -0.2786  0.3999  0.2277
  919MPD2    C213450   2.659   0.093  11.815  0.0073  0.2038  0.4982
  919MPD2    C313451   2.629   0.211  11.751  0.3297  0.1269  0.6130
  919MPD2    C413452   2.538   0.292  11.810  0.9610  0.3818  0.6709
  919MPD2    C513453   2.471   0.259  11.927  0.6070 -0.4535 -0.3130
  919MPD2     H13454   2.718   0.015  11.768  0.3288  1.0571 -0.5171
  919MPD2    H113455   2.523   0.395  11.778  0.0736  0.4478  1.3071
  919MPD2    H213456   2.434   0.102  12.069  0.7957 -4.1266 -1.7522
  919MPD2    H313457   2.393   0.321  11.969  1.2200  0.1076 -0.0178
  919MPD2     N13458   2.689   0.240  11.624 -0.1806 -0.2669 -0.0061
  919MPD2    H513459   2.640   0.305  11.563 -0.8514 -0.9898 -0.2354
  919MPD2    N113460   2.634   4.648  11.977  0.2404 -0.1045 -0.4382
  919MPD2    H713461   2.709   4.601  11.926  0.6305 -0.0282  0.0655
  920MPD2     C13462   2.481   0.646  10.756  0.7587  0.1294  0.3564
  920MPD2    C113463   2.442   0.515  10.752  0.6470 -0.3638 -0.0775
  920MPD2    C213464   2.491   0.438  10.842  0.1772 -0.4774  0.2890
  920MPD2    C313465   2.576   0.483  10.944  0.9422  0.3301  0.2443
  920MPD2    C413466   2.610   0.613  10.949  0.6566  0.6289 -0.9407
  920MPD2    C513467   2.553   0.695  10.860  0.5519 -0.1186  0.0525
  920MPD2     H13468   2.468   0.332  10.841 -2.3560  0.0504  0.5331
  920MPD2    H113469   2.686   0.654  11.016 -0.2402  1.2160 -0.2883
  920MPD2    H213470   2.438   0.725  10.696 -1.8008 -0.2172  1.7148
  920MPD2    H313471   2.578   0.800  10.874 -2.7272  0.7153 -0.2525
  920MPD2     N13472   2.620   0.377  11.030 -0.0247 -0.0322 -0.0909
  920MPD2    H513473   2.585   0.281  11.032  1.4360 -0.5603 -0.2407
  920MPD2    N113474   2.367   0.463  10.647  0.5350  0.5430  0.5585
  920MPD2    H713475   2.351   0.363  10.654 -2.4242  0.8856 -1.1921
  921MPD2     C13476   3.479   3.745  16.556  0.4220  0.1177 -0.2393
  921MPD2    C113477   3.418   3.619  16.527 -0.2041 -0.0346  0.0489
  921MPD2    C213478   3.288   3.603  16.570 -0.6261 -0.3194  0.1039
  921MPD2    C313479   3.212   3.707  16.630 -0.1708 -0.2230  0.1207
  921MPD2    C413480   3.275   3.825  16.657  0.0727  0.0151  0.5686
  921MPD2    C513481   3.405   3.843  16.615 -0.4693 -0.2648  0.2439
  921MPD2     H13482   3.229   3.514  16.550 -0.5019 -0.1189 -1.1915
  921MPD2    H113483   3.224   3.909  16.700 -1.9135 -2.3153  2.7332
  921MPD2    H213484   3.579   3.771  16.523  0.0668  1.9249  0.0969
  921MPD2    H313485   3.461   3.933  16.636 -0.5588 -0.3052  0.6435
  921MPD2     N13486   3.076   3.676  16.646  0.0139 -0.3351  0.0391
  921MPD2    H513487   3.043   3.585  16.615 -1.3002 -0.3451  1.4421
  921MPD2    N113488   3.487   3.524  16.459  0.2157  0.2290  0.8012
  921MPD2    H713489   3.588   3.527  16.457  0.1681  0.2451 -1.4789
  922MPD2     C13490   3.966   1.009  17.106 -0.0494  0.0819 -0.0370
  922MPD2    C113491   4.007   1.054  17.227  0.2066 -0.3221  0.3221
  922MPD2    C213492   3.928   1.025  17.341 -0.7007  0.2045 -0.0872
  922MPD2    C313493   3.820   0.936  17.344 -0.8122 -0.2887 -0.3657
  922MPD2    C413494   3.784   0.896  17.220 -0.4748 -0.8395 -0.4129
  922MPD2    C513495   3.853   0.924  17.106 -0.6467 -0.8142  0.3718
  922MPD2     H13496   3.952   1.077  17.433 -3.1854  1.9449 -0.4247
  922MPD2    H113497   3.700   0.829  17.211 -0.3115 -1.3661  1.9568
  922MPD2    H213498   4.002   1.049  17.013 -0.2884  0.4449  0.0287
  922MPD2    H313499   3.791   0.909  17.018  2.9518 -0.0389 -2.2889
  922MPD2     N13500   3.742   0.900  17.456 -0.6202  0.5235 -0.2146
  922MPD2    H513501   3.675   0.825  17.450 -0.8695  0.9164 -2.1742
  922MPD2    N113502   4.119   1.133  17.255 -0.6400 -0.9091  0.4636
  922MPD2    H713503   4.138   1.149  17.353 -1.0330  0.6395  0.2822
  923MPD2     C13504   0.266   3.094   9.237  0.2665  0.0492  0.0288
  923MPD2    C113505   0.320   3.219   9.256  0.0951  0.3744  0.2302
  923MPD2    C213506   0.454   3.231   9.282 -0.3370  0.3974  0.5056
  923MPD2    C313507   0.533   3.115   9.295 -0.0420 -0.6318  0.2523
  923MPD2    C413508   0.477   2.993   9.274 -0.2563  0.8010 -0.5819
  923MPD2    C513509   0.344   2.984   9.240 -0.3985  0.6936 -0.7519
  923MPD2     H13510   0.497   3.330   9.283 -0.5793  0.5035  0.4453
  923MPD2    H113511   0.535   2.906   9.246  1.0545  1.4132  0.2196
  923MPD2    H213512   0.164   3.089   9.200  0.7602 -1.9624 -1.0955
  923MPD2    H313513   0.300   2.885   9.240  1.2998 -0.0705 -1.0982
  923MPD2     N13514   0.675   3.117   9.324  0.1959 -0.5499  0.7871
  923MPD2    H513515   0.717   3.024   9.314 -0.7222 -0.7238 -1.4202
  923MPD2    N113516   0.229   3.331   9.244 -0.5835 -0.0408 -0.2108
  923MPD2    H713517   0.141   3.300   9.203 -1.2507  2.3742 -0.5886
  924MPD2     C13518   0.485   1.473  16.109  0.1985 -0.2909 -0.0717
  924MPD2    C113519   0.499   1.449  16.246 -0.3995 -0.7289  0.0605
  924MPD2    C213520   0.545   1.552  16.334 -0.3043  0.3091 -0.4236
  924MPD2    C313521   0.551   1.678  16.281 -0.1606  1.0764 -0.4132
  924MPD2    C413522   0.541   1.705  16.144  0.5004  0.7249 -0.4784
  924MPD2    C513523   0.502   1.600  16.056  0.7222 -0.3470 -0.3501
  924MPD2     H13524   0.565   1.541  16.440 -1.3839  2.2275 -0.0328
  924MPD2    H113525   0.570   1.802  16.106  2.7697  0.5379  0.8199
  924MPD2    H213526   0.451   1.405  16.032  2.1592  1.9472 -2.9316
  924MPD2    H313527   0.492   1.629  15.951  0.0537 -0.3506 -0.2855
  924MPD2     N13528   0.565   1.793  16.355  0.4068  0.1545 -0.0246
  924MPD2    H513529   0.550   1.882  16.310 -0.6281 -0.3136 -0.6029
  924MPD2    N113530   0.455   1.331  16.313 -0.1010  0.3642 -0.1046
  924MPD2    H713531   0.479   1.336  16.412  2.2484  0.2916 -0.6609
  925MPD2     C13532   4.371   3.812  14.894  0.3648 -0.2074  0.6920
  925MPD2    C113533   4.297   3.767  14.787 -0.1191 -0.1233  0.1303
  925MPD2    C213534   4.234   3.645  14.803  0.0079 -0.9333 -0.5950
  925MPD2    C313535   4.240   3.569  14.921  0.2158  0.5946 -0.4169
  925MPD2    C413536   4.313   3.616  15.027  0.4412  0.1543  0.0918
  925MPD2    C513537   4.373   3.743  15.014 -0.2256 -0.0395  0.7907
  925MPD2     H13538   4.177   3.608  14.718  1.1595  1.0839 -2.2470
  925MPD2    H113539   4.320   3.553  15.115  1.2781 -0.4329 -0.3881
  925MPD2    H213540   4.417   3.910  14.895  0.2656 -0.1587  0.5277
  925MPD2    H313541   4.431   3.781  15.097  0.4022 -0.7425  0.6725
  925MPD2     N13542   4.179   3.442  14.937  0.1501  0.5835 -0.4823
  925MPD2    H513543   4.189   3.400  15.029 -0.7707 -0.1308 -0.7103
  925MPD2    N113544   4.272   3.841  14.673 -0.9656 -0.1838  0.0203
  925MPD2    H713545   4.197   3.810  14.611 -0.6858  0.6234 -0.7182
  926MPD2     C13546   1.841   2.442  13.675 -0.2426  0.5092 -0.3168
  926MPD2    C113547   1.872   2.575  13.687  0.3992  0.0739 -0.1853
  926MPD2    C213548   1.965   2.628  13.599 -0.0327  0.1430 -0.3782
  926MPD2    C313549   2.028   2.551  13.503  0.2850  0.0662 -0.1537
  926MPD2    C413550   1.997   2.419  13.497 -0.3020  0.2073  0.3461
  926MPD2    C513551   1.905   2.365  13.583  0.7949  0.2478 -0.5842
  926MPD2     H13552   2.000   2.731  13.604 -0.2042  0.2864 -2.1461
  926MPD2    H113553   2.044   2.357  13.421 -1.7868 -1.7617  1.0305
  926MPD2    H213554   1.763   2.403  13.740 -1.1894 -0.7972 -2.2389
  926MPD2    H313555   1.886   2.259  13.582  1.7454  0.0758 -0.0344
  926MPD2     N13556   2.135   2.606  13.427  0.1316 -0.3270 -0.1648
  926MPD2    H513557   2.199   2.544  13.377  0.0900 -0.2303 -0.3391
  926MPD2    N113558   1.831   2.662  13.794  0.3127 -0.6026  0.6935
  926MPD2    H713559   1.851   2.761  13.800 -0.9085 -0.2955 -0.4808
  927MPD2     C13560   2.863   4.538   0.744 -0.3512  0.2216 -0.0786
  927MPD2    C113561   2.842   4.638   0.654 -0.5704 -0.4169 -0.8978
  927MPD2    C213562   2.844   4.609   0.518  1.3269  0.0728  0.2113
  927MPD2    C313563   2.847   4.480   0.469  0.4606  0.5209  0.0491
  927MPD2    C413564   2.875   4.378   0.564  0.3632  0.5118  0.0235
  927MPD2    C513565   2.880   4.410   0.696 -0.5147  0.1977 -0.6163
  927MPD2     H13566   2.830   4.694   0.452  0.4229 -0.3534 -0.1464
  927MPD2    H113567   2.895   4.275   0.537  1.0983 -0.3734  3.9561
  927MPD2    H213568   2.865   4.558   0.850  1.5023 -0.9715  0.1214
  927MPD2    H313569   2.905   4.339   0.774 -3.2912  1.4820  1.4590
  927MPD2     N13570   2.835   4.455   0.335  0.1183 -0.3840 -0.4182
  927MPD2    H513571   2.845   4.529   0.267 -2.4541 -0.6360 -1.0331
  927MPD2    N113572   2.830   0.053   0.703  0.3933  0.1383 -0.5588
  927MPD2    H713573   2.841   0.062   0.804 -0.7124 -0.4778 -0.3844
  928MPD2     C13574   2.121   3.344   1.315 -0.8494  0.1908  0.3545
  928MPD2    C113575   2.026   3.440   1.352  0.0581  0.3776 -0.2240
  928MPD2    C213576   1.965   3.516   1.253 -0.6382  0.2052  0.8706
  928MPD2    C313577   1.991   3.494   1.119  0.0269 -0.4113  0.2287
  928MPD2    C413578   2.073   3.388   1.083  0.0390 -0.0419 -0.3492
  928MPD2    C513579   2.142   3.316   1.177 -0.7403 -0.3552  0.9115
  928MPD2     H13580   1.891   3.589   1.283  0.6372  1.7335  0.3101
  928MPD2    H113581   2.101   3.379   0.979 -1.1456 -1.2170 -0.5784
  928MPD2    H213582   2.173   3.277   1.382 -1.2198 -1.5812 -1.1052
  928MPD2    H313583   2.215   3.243   1.141  0.3698  1.8826 -1.3502
  928MPD2     N13584   1.939   3.571   1.020 -0.3165  0.5333  0.7120
  928MPD2    H513585   1.951   3.533   0.927 -2.6213 -0.9249  1.0053
  928MPD2    N113586   2.019   3.464   1.488 -0.6137  0.1935  0.1437
  928MPD2    H713587   2.087   3.419   1.549 -2.1554  1.1534  2.5968
  929MPD2     C13588   1.182   3.466  10.532  0.6779 -0.3532 -0.2118
  929MPD2    C113589   1.074   3.382  10.567 -0.6186 -0.3045  0.7099
  929MPD2    C213590   0.974   3.361  10.471  0.4393 -0.2877 -0.3795
  929MPD2    C313591   0.991   3.408  10.341 -0.7688 -0.0850  0.1353
  929MPD2    C413592   1.101   3.488  10.306 -0.0117 -0.1029  0.5417
  929MPD2    C513593   1.191   3.519  10.402  0.3707 -0.9102 -0.0780
  929MPD2     H13594   0.878   3.319  10.497 -0.4997  2.7392  1.0130
  929MPD2    H113595   1.098   3.539  10.211 -2.0448 -1.6701 -0.2248
  929MPD2    H213596   1.262   3.492  10.600  0.0661 -1.0868  0.7974
  929MPD2    H313597   1.266   3.596  10.387 -0.2481 -0.5594 -1.3136
  929MPD2     N13598   0.892   3.396  10.239 -0.4830 -0.6852  0.5021
  929MPD2    H513599   0.891   3.451  10.154 -2.2314 -1.4927 -0.0009
  929MPD2    N113600   1.059   3.333  10.700 -0.3838  0.1087  0.0127
  929MPD2    H713601   1.117   3.379  10.769 -2.1697  3.3404 -0.6477
  930MPD2     C13602   1.818   0.533  13.808  0.1031  0.1064  0.4731
  930MPD2    C113603   1.955   0.505  13.817 -0.4110 -0.1543  0.1692
  930MPD2    C213604   2.029   0.455  13.710  0.0426 -1.0138 -0.1903
  930MPD2    C313605   1.959   0.447  13.587 -0.1732 -0.3813 -0.4326
  930MPD2    C413606   1.826   0.480  13.581 -0.1259 -0.2547 -0.3603
  930MPD2    C513607   1.756   0.525  13.689  0.2516  0.4500 -0.4287
  930MPD2     H13608   2.130   0.415  13.707  0.0776 -0.8573 -1.0840
  930MPD2    H113609   1.786   0.500  13.483 -0.0638 -2.5606 -0.8408
  930MPD2    H213610   1.762   0.555  13.898 -0.2768  0.9626  0.0329
  930MPD2    H313611   1.652   0.554  13.684  0.1731  0.1600 -0.4412
  930MPD2     N13612   2.024   0.428  13.464 -0.1472  0.3314  0.5642
  930MPD2    H513613   1.959   0.445  13.389  0.6014 -2.2114 -0.6403
  930MPD2    N113614   2.007   0.513  13.947  0.0659  0.3642  0.3680
  930MPD2    H713615   1.947   0.551  14.020 -1.3785 -0.0383 -0.6116
  931MPD2     C13616   3.204   0.331   1.150 -0.2132  0.0564 -0.0969
  931MPD2    C113617   3.067   0.349   1.158 -0.1511  0.6284  0.0912
  931MPD2    C213618   3.008   0.359   1.288 -0.3682  0.7647  0.2620
  931MPD2    C313619   3.092   0.339   1.399  0.6998 -0.0218 -0.2325
  931MPD2    C413620   3.224   0.316   1.389 -0.2066 -1.3317  0.7640
  931MPD2    C513621   3.282   0.322   1.264  1.0118 -0.2860  0.3375
  931MPD2     H13622   2.901   0.351   1.304 -0.6303  1.9903 -0.7681
  931MPD2    H113623   3.289   0.308   1.476  1.9506 -1.8717 -0.8990
  931MPD2    H213624   3.255   0.341   1.055  1.1126 -0.9506  0.5070
  931MPD2    H313625   3.388   0.305   1.252  0.9808  1.5890 -2.4699
  931MPD2     N13626   3.034   0.339   1.526 -0.1380  0.1856 -0.4632
  931MPD2    H513627   3.093   0.308   1.602  1.2130  2.5542 -0.5464
  931MPD2    N113628   2.998   0.357   1.040 -0.3673  0.6416  0.3648
  931MPD2    H713629   3.045   0.333   0.954 -2.1396 -0.8945 -0.1498
  932MPD2     C13630   4.611   3.718  11.216 -0.0628  0.1078 -0.5327
  932MPD2    C113631   4.637   3.768  11.345  0.3388  0.0219 -0.5928
  932MPD2    C213632   4.659   3.685  11.451 -0.0841  0.5837 -0.1072
  932MPD2    C313633   4.637   3.545  11.429 -1.0363 -0.0643 -0.0811
  932MPD2    C413634   4.608   3.498  11.301 -0.5424 -0.1699 -0.0498
  932MPD2    C513635   4.593   3.584  11.194 -0.2010  0.0842 -0.4387
  932MPD2     H13636   4.700   3.717  11.546 -2.0246 -0.4168  1.0581
  932MPD2    H113637   4.580   3.395  11.283  0.3700 -0.6482  1.3188
  932MPD2    H213638   4.605   3.772  11.122  0.9872  0.3649 -0.4488
  932MPD2    H313639   4.571   3.546  11.095 -0.8118 -0.4346 -0.1088
  932MPD2     N13640   4.647   3.443  11.534  0.5991  0.1030 -0.0166
  932MPD2    H513641   4.653   3.347  11.503 -1.3229  0.9210 -3.0022
  932MPD2    N113642   4.654   3.907  11.376 -0.0293  0.4530 -1.1711
  932MPD2    H713643   4.695   3.913  11.469  1.4428 -2.7075 -1.6506
  933MPD2     C13644   1.650   3.450   2.301  0.0465 -0.7277 -0.5656
  933MPD2    C113645   1.646   3.546   2.198  0.2211  0.1457  0.0700
  933MPD2    C213646   1.575   3.657   2.218  0.1556 -0.5137 -0.9048
  933MPD2    C313647   1.508   3.682   2.339 -0.1541 -0.6391  0.1243
  933MPD2    C413648   1.513   3.585   2.437  0.4734 -0.4542 -0.0685
  933MPD2    C513649   1.590   3.475   2.418 -0.4824 -0.2767  0.2827
  933MPD2     H13650   1.590   3.742   2.153  0.0856  1.1681  1.2948
  933MPD2    H113651   1.471   3.599   2.536 -1.1798  1.6097 -1.0536
  933MPD2    H213652   1.706   3.357   2.303  1.8161  0.3122 -1.8752
  933MPD2    H313653   1.584   3.391   2.486 -1.9393 -0.8159 -0.5166
  933MPD2     N13654   1.457   3.814   2.359  0.1148  0.4504  0.2626
  933MPD2    H513655   1.453   3.878   2.280 -1.8431  0.8777  0.7194
  933MPD2    N113656   1.724   3.523   2.085  0.2447  0.5094 -0.5538
  933MPD2    H713657   1.779   3.438   2.095 -0.2070  0.1686 -1.0328
  934MPD2     C13658   1.412   0.922   2.369  0.4226  0.1260 -0.3998
  934MPD2    C113659   1.473   0.961   2.249 -0.6041  0.0346  0.8343
  934MPD2    C213660   1.464   0.881   2.132 -0.1850 -0.7304  0.3570
  934MPD2    C313661   1.397   0.757   2.135  0.0157  0.2726 -0.9100
  934MPD2    C413662   1.327   0.721   2.253  0.1606  0.3961 -0.0556
  934MPD2    C513663   1.345   0.796   2.367 -0.1591  0.3306 -0.3861
  934MPD2     H13664   1.522   0.896   2.041  1.0965 -0.3596  1.2416
  934MPD2    H113665   1.261   0.635   2.255  0.5281  0.0669 -1.7915
  934MPD2    H213666   1.408   0.982   2.459 -1.8876  0.2713 -0.5801
  934MPD2    H313667   1.294   0.768   2.459 -0.8415  0.8434 -0.6079
  934MPD2     N13668   1.379   0.678   2.017  0.4590  0.3619 -0.0059
  934MPD2    H513669   1.307   0.608   2.020  2.1223 -1.4393 -1.8716
  934MPD2    N113670   1.558   1.076   2.239 -0.4053 -0.0347  0.5652
  934MPD2    H713671   1.601   1.096   2.149  0.0719  0.4395  0.9026
  935MPD2     C13672   1.937   0.123   1.379 -0.1367  0.1778 -0.2008
  935MPD2    C113673   1.807   0.122   1.324 -0.4242  0.6726 -0.2466
  935MPD2    C213674   1.717   0.212   1.381 -0.0462  0.4455  0.0782
  935MPD2    C313675   1.748   0.274   1.503  0.3777 -0.3879 -0.1715
  935MPD2    C413676   1.871   0.259   1.565 -0.6128 -0.4454 -0.0451
  935MPD2    C513677   1.962   0.190   1.496  0.2657 -0.2886 -0.3116
  935MPD2     H13678   1.619   0.219   1.336 -0.2975 -0.5965  0.4541
  935MPD2    H113679   1.900   0.315   1.653  0.2482  0.9028 -1.1915
  935MPD2    H213680   2.020   0.068   1.337  0.4244  1.1491 -0.3545
  935MPD2    H313681   2.056   0.175   1.547 -0.0001  1.5365  0.7200
  935MPD2     N13682   1.644   0.344   1.576 -0.2894 -0.0077  0.3877
  935MPD2    H513683   1.660   0.366   1.674 -1.2895 -0.9042  0.7400
  935MPD2    N113684   1.761   0.039   1.215  0.4784  0.0354 -0.7295
  935MPD2    H713685   1.664   0.060   1.190  0.9398  2.3580 -0.6063
  936MPD2     C13686   4.235   2.875  12.469 -0.2926 -0.6907  0.0539
  936MPD2    C113687   4.300   2.849  12.582  0.0329 -0.2621 -0.0510
  936MPD2    C213688   4.432   2.804  12.569 -0.3328  0.1618  0.8443
  936MPD2    C313689   4.488   2.772  12.450 -0.0109 -0.0410  0.1189
  936MPD2    C413690   4.415   2.789  12.333  0.0541 -0.2940  0.2830
  936MPD2    C513691   4.289   2.843  12.347 -0.0479 -0.1032 -0.2433
  936MPD2     H13692   4.490   2.784  12.659 -0.1103  1.3972  0.9657
  936MPD2    H113693   4.462   2.766  12.237  3.1514  0.7409  1.5357
  936MPD2    H213694   4.134   2.913  12.465 -0.5924 -1.7529 -2.1343
  936MPD2    H313695   4.237   2.869  12.255  1.0516 -4.3714 -2.0781
  936MPD2     N13696   4.613   2.705  12.456 -0.4628 -0.0998 -0.2649
  936MPD2    H513697   4.644   2.687  12.551 -0.9096 -1.7459 -0.4339
  936MPD2    N113698   4.241   2.833  12.702 -0.4958  0.3919 -0.2687
  936MPD2    H713699   4.306   2.813  12.777 -2.7203 -1.5609  1.1316
  937MPD2     C13700   3.004   4.061  11.787  0.3741  0.2554  0.2997
  937MPD2    C113701   3.020   4.181  11.842  0.2150  0.6574 -0.2620
  937MPD2    C213702   3.100   4.271  11.775 -0.1167 -0.1398  0.2208
  937MPD2    C313703   3.171   4.236  11.652 -0.3405  0.1426  0.3201
  937MPD2    C413704   3.159   4.107  11.614 -0.1963 -0.3587  0.5519
  937MPD2    C513705   3.072   4.019  11.680 -0.3926 -0.0311  0.2244
  937MPD2     H13706   3.102   4.375  11.807 -4.7626  0.0609 -0.1018
  937MPD2    H113707   3.217   4.076  11.528  0.0838  1.6049  0.0380
  937MPD2    H213708   2.921   3.998  11.817  1.3673 -1.6651 -0.9999
  937MPD2    H313709   3.042   3.924  11.639  2.2683 -0.4380 -0.7972
  937MPD2     N13710   3.258   4.334  11.592  0.3032 -0.1709 -0.1889
  937MPD2    H513711   3.253   4.425  11.637 -2.1855 -1.9398  3.1963
  937MPD2    N113712   2.916   4.237  11.922  0.2748 -0.3738  0.7095
  937MPD2    H713713   2.918   4.338  11.931  5.4960 -0.3692 -0.8367
  938MPD2     C13714   0.382   0.065   0.827  0.5317 -0.7597 -0.3591
  938MPD2    C113715   0.432   0.157   0.920  0.7113  0.6827  0.5644
  938MPD2    C213716   0.415   0.125   1.054  0.0311  0.3428 -0.1531
  938MPD2    C313717   0.348   0.005   1.089  0.0093  0.1379  0.0569
  938MPD2    C413718   0.291   4.640   0.994  0.0393 -0.8029 -0.2126
  938MPD2    C513719   0.303   4.673   0.864 -0.1657 -0.5699  0.3487
  938MPD2     H13720   0.475   0.181   1.125  1.0894  0.5261 -1.1903
  938MPD2    H113721   0.234   4.550   1.008 -0.3967 -0.6927 -1.3202
  938MPD2    H213722   0.391   0.083   0.720 -0.9286 -0.7204 -0.4750
  938MPD2    H313723   0.251   4.626   0.781  0.1575  0.9568 -0.7226
  938MPD2     N13724   0.341   4.671   1.218  0.3970  0.1008  0.2056
  938MPD2    H513725   0.293   4.581   1.218 -0.3736  0.5174 -0.3808
  938MPD2    N113726   0.499   0.280   0.887 -0.1255 -0.0116 -0.0299
  938MPD2    H713727   0.543   0.331   0.963  2.9226 -0.7896 -1.2517
  939MPD2     C13728   1.135   1.570   1.324 -0.3145 -0.1741  0.6712
  939MPD2    C113729   1.111   1.660   1.221 -0.2481 -0.5172  0.8438
  939MPD2    C213730   1.206   1.673   1.116 -0.3817  0.1261 -0.5206
  939MPD2    C313731   1.325   1.597   1.121  0.1202  0.5596 -0.1938
  939MPD2    C413732   1.346   1.518   1.233 -0.3100  0.6225  0.4622
  939MPD2    C513733   1.254   1.500   1.328 -0.3346  0.6134 -0.0346
  939MPD2     H13734   1.181   1.723   1.023 -0.2119  0.6674 -0.2740
  939MPD2    H113735   1.443   1.476   1.259 -0.9054 -1.9721 -1.4469
  939MPD2    H213736   1.073   1.571   1.413 -2.0103  1.1127 -0.5094
  939MPD2    H313737   1.298   1.445   1.410  0.2565  1.6289  0.3232
  939MPD2     N13738   1.420   1.599   1.019 -0.4624 -0.5087  0.4906
  939MPD2    H513739   1.406   1.668   0.945  1.2426 -0.5116  0.1739
  939MPD2    N113740   0.986   1.730   1.233  0.2670 -0.0294 -0.0661
  939MPD2    H713741   0.924   1.709   1.310 -0.1637 -1.6560 -0.8673
  940MPD2     C13742   0.867   2.567  12.687 -0.1075 -0.0810 -0.2639
  940MPD2    C113743   0.867   2.460  12.780  0.3631 -0.8064  0.3796
  940MPD2    C213744   0.867   2.328  12.734  0.5684  0.2038 -0.2786
  940MPD2    C313745   0.859   2.295  12.599 -0.7992 -0.8956 -0.3419
  940MPD2    C413746   0.865   2.404  12.510  0.4244  1.0488 -0.6518
  940MPD2    C513747   0.872   2.539  12.548 -0.1779 -0.0462 -0.3342
  940MPD2     H13748   0.882   2.248  12.804  3.9040  0.3799 -0.7785
  940MPD2    H113749   0.867   2.386  12.403 -1.7045  2.3231 -0.9170
  940MPD2    H213750   0.863   2.670  12.719  2.3337  0.1514 -0.7057
  940MPD2    H313751   0.874   2.619  12.475 -2.4162  0.4798  0.1710
  940MPD2     N13752   0.849   2.169  12.543  0.5996 -0.2878 -0.3194
  940MPD2    H513753   0.842   2.163  12.442 -0.6373 -2.1166 -0.1203
  940MPD2    N113754   0.875   2.487  12.917  0.0700  0.3002  0.4185
  940MPD2    H713755   0.875   2.404  12.976  0.4914 -1.4888 -2.1126
  941MPD2     C13756   4.441   2.223  10.376 -0.6812  0.1435  0.3873
  941MPD2    C113757   4.517   2.118  10.335 -0.1305  0.1849 -0.1136
  941MPD2    C213758   4.483   1.993  10.379  0.2080  0.0912 -0.1018
  941MPD2    C313759   4.368   1.967  10.440  0.7372 -0.0809  0.6497
  941MPD2    C413760   4.277   2.068  10.462 -0.0624 -0.2906 -0.3115
  941MPD2    C513761   4.322   2.196  10.437  0.1507 -0.0161  0.3202
  941MPD2     H13762   4.550   1.911  10.353  0.2312 -0.0776  0.4818
  941MPD2    H113763   4.181   2.050  10.510  1.0280 -0.4885  1.8263
  941MPD2    H213764   4.467   2.328  10.366  0.9030 -0.2267  0.5554
  941MPD2    H313765   4.273   2.286  10.473  0.7077  0.1669  0.6231
  941MPD2     N13766   4.329   1.835  10.476 -0.3736 -0.2451 -0.2079
  941MPD2    H513767   4.231   1.812  10.490 -0.0853 -1.8231 -0.7051
  941MPD2    N113768   4.632   2.130  10.264 -0.5520  0.3784 -0.7299
  941MPD2    H713769   4.697   2.052  10.275  2.4446  3.0994  0.8723
  942MPD2     C13770   3.824   3.755   9.604 -0.6542  0.0132 -0.3846
  942MPD2    C113771   3.794   3.679   9.717  0.6448  0.1404 -0.2631
  942MPD2    C213772   3.892   3.650   9.810  0.9367 -0.5013 -0.9598
  942MPD2    C313773   4.019   3.703   9.804 -0.3497 -0.4371  0.2098
  942MPD2    C413774   4.032   3.789   9.691  0.3306  0.1581  0.0268
  942MPD2    C513775   3.940   3.818   9.593 -0.3879  0.2287  0.1583
  942MPD2     H13776   3.859   3.585   9.890  0.7623  0.7445 -0.0178
  942MPD2    H113777   4.120   3.851   9.683 -0.6466  1.3851 -1.0467
  942MPD2    H213778   3.762   3.771   9.516  0.4757  0.7638 -1.0349
  942MPD2    H313779   3.949   3.893   9.515 -3.3557  0.3406 -0.0962
  942MPD2     N13780   4.125   3.682   9.892  0.1387  0.1137 -0.2848
  942MPD2    H513781   4.198   3.752   9.882  0.7178  0.0754  3.8611
  942MPD2    N113782   3.669   3.633   9.752  0.1583  0.0589  0.3103
  942MPD2    H713783   3.669   3.557   9.818 -0.1738  1.0455  1.4318
  943MPD2     C13784   3.300   2.040   9.701 -0.4234  0.2486  0.2690
  943MPD2    C113785   3.206   1.969   9.769 -0.3961  0.5448  0.6630
  943MPD2    C213786   3.239   1.886   9.877  0.3294 -0.0880 -0.2341
  943MPD2    C313787   3.371   1.888   9.929  0.2857  0.2689  0.2134
  943MPD2    C413788   3.460   1.975   9.871 -0.4408 -0.2383 -0.5922
  943MPD2    C513789   3.423   2.046   9.756  0.0024  0.7324 -0.3184
  943MPD2     H13790   3.165   1.820   9.921  1.0578  0.8336  2.3696
  943MPD2    H113791   3.563   1.974   9.905  0.0115  4.8113 -1.7621
  943MPD2    H213792   3.278   2.110   9.621  2.3086 -1.4009 -1.9373
  943MPD2    H313793   3.503   2.090   9.698 -0.0945 -0.3978 -1.3195
  943MPD2     N13794   3.414   1.810  10.038 -0.8165 -0.1277  0.5398
  943MPD2    H513795   3.496   1.835  10.093 -0.7092 -1.5163  1.0159
  943MPD2    N113796   3.082   1.954   9.702 -0.5829 -0.1260 -0.3947
  943MPD2    H713797   3.071   2.004   9.614  0.9121 -1.4958 -1.3576
  944MPD2     C13798   3.887   0.131  11.572 -0.9836  0.7469 -0.0304
  944MPD2    C113799   3.840   0.144  11.441  0.0949 -0.2963 -0.8334
  944MPD2    C213800   3.727   0.215  11.416  0.1592 -0.4631  0.4173
  944MPD2    C313801   3.649   0.260  11.524  0.0271  0.8498  0.0456
  944MPD2    C413802   3.688   0.233  11.650 -0.0944  0.4839 -0.4283
  944MPD2    C513803   3.806   0.176  11.672  0.0110  0.2268 -0.7242
  944MPD2     H13804   3.698   0.228  11.313 -0.6103 -0.9050  0.5756
  944MPD2    H113805   3.641   0.270  11.740  1.6145 -0.3651  0.7846
  944MPD2    H213806   3.985   0.093  11.594 -0.3710  1.1786 -2.0215
  944MPD2    H313807   3.845   0.173  11.773 -0.5945 -0.9480 -0.5289
  944MPD2     N13808   3.539   0.336  11.492 -0.0075 -0.2568 -0.8479
  944MPD2    H513809   3.530   0.350  11.391 -1.6708  1.6614 -0.4352
  944MPD2    N113810   3.932   0.109  11.341 -0.7142 -0.2171 -0.3356
  944MPD2    H713811   4.024   0.072  11.361  0.1733  1.8871 -0.5357
    1TCq1    O113812   0.641   1.487  14.212 -0.0289  0.6279 -0.4499
    1TCq1    C113813   0.764   1.537  14.183 -0.1387  0.0258  0.3874
    1TCq1    O213814   0.801   1.566  14.070  0.0529 -0.2615 -0.4853
    1TCq1    C213815   0.846   1.448  14.267  0.7396  0.1813  0.1234
    1TCq1    C313816   0.887   1.331  14.221 -0.3662 -0.5791  0.2735
    1TCq1    C413817   0.932   1.233  14.299  0.4856 -0.1086 -0.1365
    1TCq1    C513818   0.948   1.256  14.432 -0.6123 -0.0585  0.5945
    1TCq1    C613819   0.892   1.372  14.486 -0.2509 -0.3355  0.0602
    1TCq1    C713820   0.843   1.468  14.401 -0.1518  0.0552  0.0416
    1TCq1    C813821   0.948   1.433  14.605  0.2537 -0.1375 -0.3071
    1TCq1    O413822   0.874   1.511  14.660  0.1176  0.0211 -0.1779
    1TCq1    C913823   0.948   1.108  14.230  0.2109 -0.3646 -0.7187
    1TCq1    O513824   0.958   1.106  14.105 -0.4163  0.0308 -0.1746
    1TCq1    O613825   0.993   1.012  14.297 -0.3707  0.2175  0.6048
    1TCq1    H113826   0.634   1.451  14.304  2.6176  1.0400 -0.0824
    1TCq1    H213827   0.867   1.311  14.117 -0.3417 -1.5496  0.4603
    1TCq1    H313828   0.975   1.170  14.492  1.6993 -0.1104 -0.5256
    1TCq1    H413829   0.814   1.563  14.445 -1.2295  0.1282 -0.8122
    2MPD2     C13830   1.309   1.627  14.900  0.0057  0.2311  0.2700
    2MPD2    C113831   1.207   1.687  14.836 -0.0563  0.0849  0.5650
    2MPD2    C213832   1.129   1.603  14.747 -0.2515 -0.1389 -0.5722
    2MPD2    C313833   1.156   1.467  14.735 -0.5355 -0.3338  0.0827
    2MPD2    C413834   1.262   1.411  14.800  0.9193 -0.0140 -0.2985
    2MPD2    C513835   1.338   1.490  14.880  0.3209 -0.2565 -0.1472
    2MPD2     H13836   1.057   1.655  14.685  1.0660 -0.2531 -2.2125
    2MPD2    H113837   1.275   1.304  14.787 -0.7386 -0.0220 -1.9350
    2MPD2    H213838   1.363   1.685  14.973  2.5852 -2.6257  0.6546
    2MPD2    H313839   1.416   1.442  14.939 -1.9013 -2.5230  0.9596
    2MPD2     N13840   1.074   1.395  14.650  0.3890 -0.2455 -0.5759
    2MPD2    H513841   1.107   1.308  14.610 -0.3578 -0.4299 -0.7983
    2MPD2    N113842   1.202   1.829  14.844  0.1926 -0.1161 -0.3476
    2MPD2    H713843   1.271   1.887  14.890 -0.0020  1.5491 -2.1228
    3TMC2    C113844   1.138   2.038  14.750  0.6632  0.1375 -0.5942
    3TMC2    C213845   1.226   2.102  14.832 -0.1970 -0.2693  0.5598
    3TMC2    C313846   1.239   2.229  14.791  0.4627  0.8527 -0.5673
    3TMC2    C413847   1.075   2.087  14.646 -0.8031 -0.0063  0.1491
    3TMC2    C513848   1.096   2.220  14.614 -0.1287  0.1916 -0.5486
    3TMC2    C613849   1.182   2.295  14.685 -0.1962 -0.7646  0.8315
    3TMC2     C13850   1.102   1.899  14.779  0.2944 -0.4273 -0.2383
    3TMC2     O13851   0.985   1.864  14.756  0.0932 -0.2404 -0.7951
    3TMC2     H13852   1.258   2.062  14.927 -0.9197 -0.8787  0.5506
    3TMC2    H113853   1.015   2.019  14.586 -1.4787 -0.6451  1.5355
    3TMC2    H213854   1.181   2.403  14.675  1.1066 -0.8011  0.2985
    3TMC2    C713855   1.013   2.270  14.505  0.2232  0.3471 -0.3311
    3TMC2    C813856   1.347   2.309  14.848  0.5449  0.1133  0.0243
    3TMC2    O113857   0.922   2.196  14.475  0.4124 -0.2809  0.2665
    3TMC2    O213858   1.344   2.430  14.864  0.2525  0.4685 -0.5834
    3TMC2    O513859   1.439   2.227  14.910 -0.3611 -0.0746 -0.3006
    3TMC2    H513860   1.429   2.131  14.889 -0.4027  0.1604 -1.3497
    4MPD2     C13861   0.220   3.003  13.851  0.4659 -0.0097 -0.4193
    4MPD2    C113862   0.316   2.952  13.758  0.0365  0.1803 -0.0392
    4MPD2    C213863   0.449   2.965  13.790 -0.4681 -0.0410 -0.3830
    4MPD2    C313864   0.495   3.025  13.908 -0.1486  0.0794  0.2315
    4MPD2    C413865   0.401   3.093  13.981  0.0394  0.2963 -0.1516
    4MPD2    C513866   0.264   3.079  13.953 -0.8749 -0.1256  0.1364
    4MPD2     H13867   0.527   2.915  13.734 -1.8837 -3.4528  0.6970
    4MPD2    H113868   0.422   3.159  14.065 -1.5197 -0.2726  0.6895
    4MPD2    H213869   0.112   3.000  13.836  0.4416 -2.1235  0.1827
    4MPD2    H313870   0.192   3.120  14.024  0.2868  1.2861  0.5014
    4MPD2     N13871   0.635   3.031  13.925 -0.7732 -0.5114 -0.0037
    4MPD2    H513872   0.692   2.980  13.859 -1.7414 -0.4904 -0.8499
    4MPD2    N113873   0.272   2.892  13.642  0.1019 -0.0843 -0.6610
    4MPD2    H713874   0.171   2.898  13.628 -0.2912  1.5671  2.8898
    5TCq2    C113875   0.699   3.113  14.015  0.8919 -0.0709  0.4911
    5TCq2    O213876   0.650   3.181  14.100 -0.7827 -0.6640 -0.0274
    5TCq2    C213877   0.842   3.086  14.029  0.0952 -0.3824 -0.7391
    5TCq2    C313878   0.918   3.197  14.048 -0.1324 -0.1233 -0.3186
    5TCq2    C413879   1.028   3.180  14.123 -0.4139  0.7595 -0.4476
    5TCq2    C513880   1.075   3.055  14.148  0.3339  0.9122  1.0383
    5TCq2    C613881   1.002   2.945  14.114  0.0098 -0.5975  0.1277
    5TCq2    C713882   0.882   2.956  14.055  0.9636 -0.4058 -0.6912
    5TCq2    C813883   1.043   2.816  14.175  0.1404  0.4566 -0.3218
    5TCq2    O413884   1.082   2.821  14.292 -0.2485 -0.0913 -0.0814
    5TCq2    C913885   1.103   3.294  14.171  0.0289  0.0324  0.8534
    5TCq2    O513886   1.065   3.414  14.165  0.4269 -0.4982  0.0812
    5TCq2    O613887   1.218   3.273  14.215 -0.5399  0.2793  0.1711
    5TCq2    H213888   0.891   3.299  14.023  2.8113  1.3243  2.4402
    5TCq2    H313889   1.169   3.037  14.199  1.0017  0.3725 -0.3737
    5TCq2    H413890   0.817   2.872  14.037  0.2909  0.0369 -0.3172
    6MPD1     C13891   3.622   3.423  12.399  0.6475  0.0544  0.1040
    6MPD1    C113892   3.748   3.408  12.346  0.0036  0.2342  0.1032
    6MPD1    C213893   3.855   3.365  12.425  0.1657  0.1026  0.1435
    6MPD1    C313894   3.833   3.321  12.557 -0.0143 -0.3177  0.1889
    6MPD1    C413895   3.706   3.330  12.607 -0.3357  0.2595  0.7270
    6MPD1    C513896   3.604   3.384  12.528  0.3755 -0.2356  0.3559
    6MPD1     H13897   3.951   3.369  12.377  0.8735 -2.1552  1.3860
    6MPD1    H113898   3.686   3.298  12.709  0.5397  0.2005  0.8781
    6MPD1    H213899   3.537   3.454  12.338  2.0039 -0.1738 -1.9237
    6MPD1    H313900   3.511   3.408  12.577  0.3699 -0.2798  0.3671
    6MPD1     N13901   3.941   3.269  12.637 -0.1988  0.0017  0.3228
    6MPD1    H513902   3.921   3.233  12.730 -2.0787  2.1023  0.7386
    6MPD1    N113903   3.776   3.477  12.232 -0.0284  0.5965 -0.0099
    6MPD1    H613904   3.710   3.469  12.156 -0.2511 -0.1506  0.2609
    6MPD1    H713905   3.868   3.451  12.198 -0.5550  0.6389 -1.4371
    7MPD2     C13906   4.230   2.929  13.289  0.2750 -0.0569 -0.2152
    7MPD2    C113907   4.328   2.945  13.199  0.2535  0.2157  0.6751
    7MPD2    C213908   4.446   2.889  13.216 -0.7482 -0.1328  0.1131
    7MPD2    C313909   4.472   2.808  13.325 -0.1304  0.2386 -0.5180
    7MPD2    C413910   4.368   2.787  13.414 -0.1415 -0.0861  0.0325
    7MPD2    C513911   4.244   2.849  13.405  0.6324  0.5689  0.0209
    7MPD2     H13912   4.520   2.901  13.137 -0.9338 -0.3599 -0.0958
    7MPD2    H113913   4.373   2.735  13.509 -0.0345  1.2137  0.7381
    7MPD2    H213914   4.138   2.985  13.282 -0.1508 -0.8039 -0.5737
    7MPD2    H313915   4.167   2.835  13.479  2.9412 -1.9191  1.9349
    7MPD2     N13916   4.596   2.741  13.349 -0.1886 -0.0114  0.0218
    7MPD2    H513917   4.602   2.699  13.442  0.7549  3.7223  1.6314
    7MPD2    N113918   4.315   3.038  13.089  0.3030  0.2511  0.5277
    7MPD2    H713919   4.399   3.058  13.035  0.3393  1.6475  1.1182
    8TMC3    C113920   0.113   2.697  13.304 -0.4595 -0.3903  0.0279
    8TMC3    C213921   0.162   2.762  13.415 -0.0854  0.6192  0.1441
    8TMC3    C313922   0.286   2.814  13.413 -0.0432  0.4356 -0.3898
    8TMC3    C413923   0.189   2.673  13.192  0.1637 -0.1057 -0.1991
    8TMC3    C513924   0.312   2.731  13.193 -0.0924 -0.6705 -0.9054
    8TMC3    C613925   0.366   2.791  13.301  0.1249 -0.5347 -0.3483
    8TMC3     C13926   4.700   2.745  13.258 -0.0314 -0.1291 -0.0942
    8TMC3     O13927   4.701   2.772  13.142  0.0505 -0.2445 -0.1406
    8TMC3     H13928   0.095   2.776  13.499 -0.1739 -0.6446  0.2781
    8TMC3    H113929   0.151   2.635  13.098 -1.1023  0.7376 -0.0375
    8TMC3    H213930   0.452   2.856  13.289 -0.3701 -0.0258 -1.1453
    8TMC3    C713931   0.329   2.801  13.070  0.2893 -0.2589  0.0647
    8TMC3    C813932   0.355   2.845  13.539  0.7715  0.2096 -0.0310
    8TMC3    O113933   0.439   2.792  13.016  0.3639 -1.0578  0.3267
    8TMC3    O213934   0.476   2.840  13.526 -0.4546 -0.3181  0.1642
    9TMC3    C113935   4.166   3.196  12.683 -0.3899  0.1593 -0.1000
    9TMC3    C213936   4.294   3.195  12.634 -0.4958 -0.8827 -0.0960
    9TMC3    C313937   4.397   3.179  12.731  1.2248 -0.1862 -0.4032
    9TMC3    C413938   4.119   3.164  12.807 -0.3406 -0.7654 -0.6368
    9TMC3    C513939   4.222   3.142  12.898 -0.6768  0.2557 -0.0648
    9TMC3    C613940   4.357   3.151  12.859 -0.3801 -0.1172  0.1838
    9TMC3     C13941   4.067   3.246  12.585 -1.0267  0.1912  0.2787
    9TMC3     O13942   4.113   3.248  12.472 -0.3453  0.0226 -0.3469
    9TMC3     H13943   4.327   3.232  12.538 -3.3568 -0.6220 -0.9921
    9TMC3    H113944   4.015   3.162  12.839  0.2251 -0.9250  1.2138
    9TMC3    H213945   4.432   3.165  12.936  1.4495 -2.6708 -1.1266
    9TMC3    C713946   4.199   3.074  13.024 -0.3530 -0.0752 -0.0549
    9TMC3    C813947   4.535   3.156  12.689 -0.5748 -0.8841  0.2613
    9TMC3    O113948   4.084   3.057  13.064 -0.4528  0.1900 -0.7548
    9TMC3    O213949   4.576   3.218  12.589 -0.3334  0.1906 -0.0130
   10MPD2     C13950   0.289   2.974  12.814  0.2828 -0.1579 -0.7852
   10MPD2    C113951   0.194   2.930  12.903 -0.1260  0.6562  0.1745
   10MPD2    C213952   0.060   2.968  12.888  0.7673 -0.5361  0.2525
   10MPD2    C313953   0.016   3.040  12.784  0.8420  0.8027  0.2135
   10MPD2    C413954   0.108   3.086  12.694 -0.5072 -0.5583  0.1903
   10MPD2    C513955   0.243   3.057  12.714  0.5464 -0.7613 -0.6082
   10MPD2     H13956   4.707   2.942  12.964  0.3325 -1.1349 -0.3668
   10MPD2    H113957   0.081   3.151  12.612 -4.5711  0.9188  2.6904
   10MPD2    H213958   0.395   2.953  12.824  0.3975  1.1880  0.7482
   10MPD2    H313959   0.314   3.105  12.648  2.4663 -3.1046 -0.2389
   10MPD2     N13960   4.595   3.064  12.772  0.6144 -0.0095  0.1253
   10MPD2    H513961   4.539   3.017  12.843 -0.0267  1.3734  0.5328
   10MPD2    N113962   0.213   2.855  13.025  0.4715 -0.1535  0.3361
   10MPD2    H713963   0.130   2.819  13.071 -0.7013 -1.2535 -2.6467
   11MPD2     C13964   0.922   2.330  14.233 -0.2124 -0.0458  0.3935
   11MPD2    C113965   1.011   2.411  14.309 -0.3648  0.0106  0.3451
   11MPD2    C213966   1.036   2.532  14.252  0.2668  0.6965  0.0575
   11MPD2    C313967   0.981   2.579  14.139  0.0426 -0.2155  0.1368
   11MPD2    C413968   0.903   2.497  14.061 -0.4335  0.3402 -0.3842
   11MPD2    C513969   0.885   2.372  14.108  0.1273  0.0514 -0.1915
   11MPD2     H13970   1.083   2.606  14.316  2.3972 -1.4375  0.9702
   11MPD2    H113971   0.865   2.525  13.964 -0.7085  0.1272 -0.3354
   11MPD2    H213972   0.891   2.228  14.253 -1.6285  0.3378  0.1827
   11MPD2    H313973   0.836   2.298  14.044 -2.4123 -0.1027  1.9139
   11MPD2     N13974   0.995   2.709  14.099  0.1184  0.4153 -0.2558
   11MPD2    H513975   0.953   2.725  14.008 -0.6633  2.0779  0.3976
   11MPD2    N113976   1.069   2.372  14.431 -0.2586 -0.0839 -0.3146
   11MPD2    H713977   1.133   2.440  14.471 -0.3221  1.1447 -2.2797
    1MPD1     C13978   3.278   3.299  17.170 -0.0447 -0.0837  0.0335
    1MPD1    C113979   3.300   3.434  17.193  0.7463  0.4599  0.5805
    1MPD1    C213980   3.366   3.497  17.091  0.0860 -0.0788  0.2370
    1MPD1    C313981   3.435   3.438  16.989  0.2696 -0.9428 -0.2295
    1MPD1    C413982   3.430   3.305  16.981 -0.0726  0.5400 -0.1362
    1MPD1    C513983   3.342   3.234  17.067 -0.2574 -0.3085 -0.0340
    1MPD1     H13984   3.363   3.605  17.101  2.1576 -0.0042  0.0335
    1MPD1    H113985   3.472   3.242  16.904 -1.7146  0.4486 -0.9593
    1MPD1    H213986   3.210   3.241  17.231  1.0490  1.1846  2.4558
    1MPD1    H313987   3.333   3.128  17.045  2.1445 -0.2606 -1.1611
    1MPD1     N13988   3.535   3.500  16.916 -0.0234  0.2714 -0.3048
    1MPD1    H513989   3.587   3.440  16.852  2.9750  1.8160  0.6526
    1MPD1    N113990   3.229   3.502  17.296 -0.9447  0.5199 -0.4812
    1MPD1    H613991   3.279   3.575  17.347 -1.3775 -0.4104  1.2805
    1MPD1    H713992   3.205   3.430  17.364 -0.3278  0.0490 -0.7694
    2MPD1     C13993   4.362   4.223  16.911 -0.3392  0.4000 -0.3581
    2MPD1    C113994   4.294   4.246  16.792  0.9883 -0.0351 -0.2693
    2MPD1    C213995   4.202   4.154  16.762  0.1165  0.2056  0.3914
    2MPD1    C313996   4.183   4.040  16.838 -0.8166 -0.2614 -0.2820
    2MPD1    C413997   4.251   4.018  16.959 -0.1056 -0.6454 -0.7223
    2MPD1    C513998   4.343   4.112  16.994 -0.0004  0.2909  0.2181
    2MPD1     H13999   4.142   4.170  16.673  0.8604  0.5102 -0.0579
    2MPD1    H114000   4.232   3.931  17.021  2.1507 -0.7441 -0.1724
    2MPD1    H214001   4.426   4.303  16.948  1.6040 -1.2143 -0.2363
    2MPD1    H314002   4.398   4.108  17.088  0.9875 -1.4012 -0.4463
    2MPD1     N14003   4.076   3.953  16.807  0.6437 -0.2399  0.5511
    2MPD1    H514004   4.023   3.973  16.723 -2.2419 -0.6734  2.2697
    2MPD1    N114005   4.302   4.361  16.724  0.2144 -0.1966  0.5866
    2MPD1    H614006   4.396   4.397  16.740  0.0771 -0.1596  1.2892
    2MPD1    H714007   4.290   4.354  16.623 -0.2551 -1.2087  0.7203
    3TMC3    C114008   3.896   3.796  16.831 -0.1629 -0.4810 -0.8403
    3TMC3    C214009   3.916   3.741  16.705 -0.6245  0.0289  0.3429
    3TMC3    C314010   3.834   3.639  16.665 -0.5000 -0.0690  0.6783
    3TMC3    C414011   3.792   3.756  16.910  0.1226 -0.4680  0.6741
    3TMC3    C514012   3.697   3.677  16.853  0.0227  1.2840 -0.6993
    3TMC3    C614013   3.715   3.616  16.736 -0.3600  0.8046 -0.0955
    3TMC3     C14014   4.006   3.870  16.894  0.1937 -0.4646 -0.3468
    3TMC3     O14015   4.008   3.871  17.018  0.0274  0.0328 -0.2740
    3TMC3     H14016   3.998   3.780  16.645 -0.7731  0.6880  0.5668
    3TMC3    H114017   3.786   3.784  17.015  3.0275  1.7886  0.2076
    3TMC3    H214018   3.635   3.553  16.699  0.5394 -0.7782  0.6737
    3TMC3    C714019   3.584   3.632  16.935 -0.6777  0.9745 -0.0470
    3TMC3    C814020   3.844   3.588  16.535 -0.2628  0.1622 -0.3878
    3TMC3    O114021   3.561   3.705  17.033  0.3349  0.1963 -0.0551
    3TMC3    O214022   3.745   3.542  16.486 -0.6568  0.6153 -0.3899
    4MPD1     C14023   4.143   3.453  16.126 -0.2430  0.1389  0.0693
    4MPD1    C114024   4.219   3.518  16.224  0.3485  0.1641  0.5910
    4MPD1    C214025   4.153   3.563  16.339 -0.3233  0.1884 -0.4451
    4MPD1    C314026   4.017   3.546  16.360  0.5678 -0.2949  0.7235
    4MPD1    C414027   3.943   3.480  16.265  0.0428  0.4551 -0.4402
    4MPD1    C514028   4.009   3.426  16.155 -0.2294 -0.0224 -0.2801
    4MPD1     H14029   4.210   3.623  16.408 -1.9593 -0.6532  1.6590
    4MPD1    H114030   3.838   3.464  16.289  0.7267 -2.1079  0.8752
    4MPD1    H214031   4.185   3.417  16.033  2.9759  3.3660  0.2763
    4MPD1    H314032   3.952   3.362  16.088 -0.0190 -1.4688  0.9070
    4MPD1     N14033   3.974   3.592  16.487  0.3936 -0.3855 -0.0738
    4MPD1    H514034   4.048   3.628  16.547  1.6567 -0.3653 -1.6467
    4MPD1    N114035   4.353   3.556  16.195 -0.3752 -0.8032  0.3992
    4MPD1    H614036   4.398   3.493  16.128  0.3486  2.4726 -2.1813
    4MPD1    H714037   4.412   3.565  16.278  2.0312  2.3915 -1.6679
    1TCq1    O114038   0.312   3.139  11.520  0.4266  0.4217 -0.2457
    1TCq1    C114039   0.365   3.257  11.526  0.0348 -0.1188  0.7440
    1TCq1    O214040   0.372   3.327  11.425  0.2717 -0.1872  0.5725
    1TCq1    C214041   0.368   3.310  11.657 -0.0841 -0.0871 -0.8571
    1TCq1    C314042   0.376   3.219  11.764  0.7196 -0.1668  0.1421
    1TCq1    C414043   0.379   3.273  11.889 -0.1788 -0.8500 -0.0314
    1TCq1    C514044   0.330   3.399  11.902  0.8681  0.0018  0.1912
    1TCq1    C614045   0.295   3.482  11.792  0.2471  0.1104 -0.4779
    1TCq1    C714046   0.321   3.441  11.669  0.2319  0.0211  0.0906
    1TCq1    C814047   0.235   3.612  11.811  0.4722  0.4362 -0.1600
    1TCq1    O414048   0.202   3.669  11.709 -0.9185  0.1642  0.3455
    1TCq1    C914049   0.385   3.172  11.998  0.0409 -0.4414 -0.1319
    1TCq1    O514050   0.421   3.052  11.976 -0.0084  0.2279 -0.1689
    1TCq1    O614051   0.311   3.203  12.098 -0.0886  0.2211 -0.1753
    1TCq1    H114052   0.274   3.111  11.606  0.7415 -0.0901 -0.2747
    1TCq1    H214053   0.403   3.114  11.761 -1.5896 -0.7535 -0.1843
    1TCq1    H314054   0.299   3.433  12.001 -2.4852 -0.8488 -0.5531
    1TCq1    H414055   0.302   3.497  11.579  1.1214  0.7451  0.3522
    2MPD1     C14056   4.686   3.925  12.113  0.3485  0.3025 -0.2965
    2MPD1    C114057   0.073   3.880  12.189  0.0437  0.4758 -0.2603
    2MPD1    C214058   0.150   3.771  12.129  0.3213  0.9208  0.0452
    2MPD1    C314059   0.136   3.738  11.994 -0.4119 -0.1787  0.1164
    2MPD1    C414060   0.035   3.796  11.926 -0.0046 -0.2776 -0.1784
    2MPD1    C514061   4.677   3.891  11.981  0.5027 -1.2877  0.0430
    2MPD1     H14062   0.205   3.714  12.202 -0.0630 -1.5613 -1.6040
    2MPD1    H114063   0.012   3.753  11.829 -1.4064  1.2355 -0.5122
    2MPD1    H214064   4.619   4.004  12.145  1.6540  1.7212 -1.0596
    2MPD1    H314065   4.615   3.955  11.919  0.0542 -0.3467  1.4424
    2MPD1     N14066   0.215   3.635  11.942  0.4809 -0.5944 -0.0737
    2MPD1    H514067   0.280   3.594  12.008  3.0492  0.1395 -2.1473
    2MPD1    N114068   0.077   3.910  12.327 -0.2364  0.0599  0.3168
    2MPD1    H614069   0.040   4.004  12.341  3.9040  1.5399  1.4045
    2MPD1    H714070   0.175   3.918  12.355 -0.2810 -0.1411  0.5264
    1TCq1    O114071   3.577   0.730   1.151  0.4739 -0.0734  0.2171
    1TCq1    C114072   3.530   0.663   1.259  0.0271 -0.2000 -0.5928
    1TCq1    O214073   3.592   0.631   1.358 -0.0738 -0.0587 -0.4251
    1TCq1    C214074   3.387   0.666   1.247 -0.6120  0.3183  0.0693
    1TCq1    C314075   3.319   0.704   1.352  0.3320  0.5812  0.1757
    1TCq1    C414076   3.203   0.770   1.336  0.2076 -0.0864 -0.2278
    1TCq1    C514077   3.134   0.755   1.214  0.3690  0.1570 -0.7649
    1TCq1    C614078   3.202   0.699   1.112 -0.7433  0.2398 -0.6526
    1TCq1    C714079   3.336   0.664   1.123  0.4693 -0.4233 -0.0104
    1TCq1    C814080   3.134   0.664   0.994  0.7034  0.1309  0.3214
    1TCq1    O414081   3.187   0.585   0.919  0.2278  0.3801  0.1632
    1TCq1    C914082   3.128   0.803   1.454  0.4719 -0.0347 -0.3410
    1TCq1    O514083   3.190   0.796   1.561  0.3651 -0.1913 -0.0375
    1TCq1    O614084   3.006   0.842   1.435 -0.5452 -0.0120  0.9309
    1TCq1    H114085   3.506   0.781   1.107 -0.5008 -1.4142  0.2237
    1TCq1    H214086   3.380   0.719   1.441  0.1451 -1.2209  0.6028
    1TCq1    H314087   3.028   0.771   1.203  0.4694 -0.0004 -1.9901
    1TCq1    H414088   3.386   0.606   1.047 -0.7593 -1.1506 -0.2631
    2MPD1     C14089   2.820   0.825   0.608  0.3749  0.4160 -0.0948
    2MPD1    C114090   2.792   0.894   0.716 -0.0156 -0.6740  0.1576
    2MPD1    C214091   2.869   0.872   0.830 -0.0223  0.4597 -0.3862
    2MPD1    C314092   2.960   0.770   0.840 -0.2521  0.6570 -0.6476
    2MPD1    C414093   2.988   0.704   0.719 -0.1432 -0.7247  0.3924
    2MPD1    C514094   2.914   0.723   0.605  0.3303 -0.3651  0.3589
    2MPD1     H14095   2.852   0.931   0.920 -0.0408  0.2607 -0.2579
    2MPD1    H114096   3.063   0.627   0.710 -0.8966 -1.1791 -1.9562
    2MPD1    H214097   2.775   0.847   0.512  0.5420  1.7457  0.1335
    2MPD1    H314098   2.943   0.671   0.514  0.3825  1.5674 -0.7235
    2MPD1     N14099   3.031   0.751   0.963  0.3082  0.2406  0.0317
    2MPD1    H514100   3.020   0.823   1.034 -0.9388  0.4994 -0.4295
    2MPD1    N114101   2.708   1.011   0.706 -0.1662 -0.5143 -0.1330
    2MPD1    H614102   2.647   1.009   0.625  0.1337 -1.1312 -0.3452
    2MPD1    H714103   2.657   1.040   0.789  0.7026 -0.2546  0.3188
    1MPD1     C14104   1.434   4.026  11.666 -0.8186  0.7418 -0.0934
    1MPD1    C114105   1.484   4.152  11.689  0.3032 -0.1736 -0.1106
    1MPD1    C214106   1.598   4.157  11.765 -0.1012 -0.2214 -0.1745
    1MPD1    C314107   1.691   4.058  11.785  0.2516 -0.0734 -0.2864
    1MPD1    C414108   1.645   3.930  11.753  0.1309 -0.3262  0.7038
    1MPD1    C514109   1.514   3.916  11.700 -0.1510  0.0668 -0.3360
    1MPD1     H14110   1.631   4.256  11.793 -1.7082  0.3816 -0.4468
    1MPD1    H114111   1.698   3.843  11.790 -1.3582  0.0057  3.5806
    1MPD1    H214112   1.336   4.005  11.626 -0.3173 -1.1278 -0.3500
    1MPD1    H314113   1.467   3.822  11.676 -2.9639  2.1371 -2.8029
    1MPD1     N14114   1.809   4.092  11.850  0.8332 -0.1462 -0.5996
    1MPD1    H514115   1.823   4.192  11.862  2.3551 -0.0404 -3.2745
    1MPD1    N114116   1.420   4.271  11.646 -0.5536  0.4862 -0.7749
    1MPD1    H614117   1.480   4.353  11.643  2.4403 -1.6578  0.1307
    1MPD1    H714118   1.353   4.265  11.570 -0.8546  0.3494 -0.5008
    2MPD1     C14119   1.547   4.678  10.912 -0.1894  0.3696  0.5188
    2MPD1    C114120   1.526   4.605  10.790 -0.3023  0.3775  0.0374
    2MPD1    C214121   1.588   4.491  10.763 -0.2362 -0.4786  0.2157
    2MPD1    C314122   1.685   4.451  10.852 -1.3299  0.7500  0.1278
    2MPD1    C414123   1.715   4.522  10.969  0.6318 -0.2276  0.6777
    2MPD1    C514124   1.652   4.639  10.994 -0.3817 -0.4898 -0.3944
    2MPD1     H14125   1.567   4.434  10.673  1.2733 -0.8637  0.1045
    2MPD1    H114126   1.795   4.494  11.036 -0.7338 -0.0539  2.3720
    2MPD1    H214127   1.493   0.049  10.936 -0.2042  0.2763  0.8411
    2MPD1    H314128   1.680   4.699  11.080  0.7668 -1.9089  0.2294
    2MPD1     N14129   1.776   4.347  10.832  1.3331 -0.5087  0.1756
    2MPD1    H514130   1.852   4.336  10.899  0.0453 -1.4141  1.4860
    2MPD1    N114131   1.424   4.655  10.710  0.1367  0.5721  0.1164
    2MPD1    H614132   1.449   4.644  10.611 -1.9345 -1.5247 -0.1595
    2MPD1    H714133   1.421   0.036  10.729  0.0565  0.7119 -0.6006
    3MPD1     C14134   1.658   3.477  10.322  0.2007 -0.0388 -0.2578
    3MPD1    C114135   1.595   3.601  10.303 -0.6918 -0.1090  0.2532
    3MPD1    C214136   1.645   3.711  10.370 -0.4429 -0.1187  0.1990
    3MPD1    C314137   1.752   3.697  10.455 -0.2593 -1.2790  0.5732
    3MPD1    C414138   1.804   3.573  10.480 -0.2349  0.3995  0.3854
    3MPD1    C514139   1.752   3.463  10.419  0.5815  0.6128  0.5043
    3MPD1     H14140   1.597   3.806  10.348 -0.2145  0.5222  2.4209
    3MPD1    H114141   1.889   3.556  10.545  0.5263 -2.2133 -1.2731
    3MPD1    H214142   1.640   3.387  10.264  0.6678 -0.4944  0.2971
    3MPD1    H314143   1.809   3.371  10.425 -1.1546 -0.5389 -0.5272
    3MPD1     N14144   1.810   3.812  10.516  0.0661  0.0533  0.1570
    3MPD1    H514145   1.751   3.894  10.516  0.1273  0.0974 -0.5384
    3MPD1    N114146   1.499   3.613  10.206 -0.0392 -0.4738  0.1221
    3MPD1    H614147   1.461   3.708  10.202 -0.5632 -0.7428 -1.3289
    3MPD1    H714148   1.428   3.549  10.242 -1.0941  1.3310  1.2852
    4MPD2     C14149   2.195   4.652  11.859  1.0922 -0.7212 -0.7204
    4MPD2    C114150   2.269   4.540  11.886 -0.2939 -0.2832  0.6337
    4MPD2    C214151   2.383   4.517  11.805 -0.9261  0.4330 -0.1314
    4MPD2    C314152   2.415   4.599  11.702  0.4999 -0.2948  0.1357
    4MPD2    C414153   2.339   4.705  11.676 -0.0735  0.0902 -0.5948
    4MPD2    C514154   2.235   0.025  11.758  0.0962  0.1663  0.0856
    4MPD2     H14155   2.438   4.427  11.829 -1.3239 -0.3676 -2.2777
    4MPD2    H114156   2.364   0.059  11.601  3.3300  0.3744  0.7809
    4MPD2    H214157   2.100   4.679  11.904  0.9198  0.8994 -2.0483
    4MPD2    H314158   2.179   0.112  11.726 -1.3924 -0.9934 -0.5230
    4MPD2     N14159   2.527   4.561  11.621  0.0241 -0.5077  0.0420
    4MPD2    H514160   2.568   4.470  11.640 -1.0770 -0.8889  0.6441
    4MPD2    N114161   2.231   4.434  11.971 -0.2040  0.2858  0.0087
    4MPD2    H714162   2.292   4.353  11.975 -0.0652  0.3254 -1.3404
    5TMC3    C114163   2.082   4.288  12.072 -0.3658  0.5966 -0.0691
    5TMC3    C214164   1.975   4.218  12.021  0.5013  0.0087 -0.5011
    5TMC3    C314165   2.005   4.085  11.977  0.0389  0.2864 -0.6039
    5TMC3    C414166   2.195   4.224  12.113  0.1959  0.0358  0.7360
    5TMC3    C514167   2.221   4.098  12.079  0.8352 -0.5750  0.7642
    5TMC3    C614168   2.122   4.020  12.019 -1.1361 -0.1042 -0.1292
    5TMC3     C14169   2.108   4.422  12.023  0.5863 -0.1786 -0.1648
    5TMC3     O14170   2.008   4.487  11.996 -0.1399  0.0973 -0.1371
    5TMC3     H14171   1.891   4.278  11.988 -0.7932 -1.1524  0.6400
    5TMC3    H114172   2.276   4.273  12.167  0.1397  0.1032  0.7594
    5TMC3    H214173   2.141   3.915  11.999 -0.2595  0.0062  0.1244
    5TMC3    C714174   2.341   4.098  11.998 -0.1136  0.4136  0.1028
    5TMC3    C814175   1.911   4.013  11.894 -0.5701 -0.1194  0.5176
    5TMC3    O114176   2.385   4.209  11.970  0.0804 -0.8237 -0.8375
    5TMC3    O214177   1.925   3.896  11.866 -0.4691 -0.1624 -0.0104
    6TMC3    C114178   1.883   4.142  10.736 -0.3285  0.4785  0.3237
    6TMC3    C214179   1.862   4.024  10.670 -0.1679 -0.0737  0.3974
    6TMC3    C314180   1.967   3.936  10.651  0.0478  0.0610  0.1003
    6TMC3    C414181   2.011   4.183  10.767  0.9704 -0.9542  0.1655
    6TMC3    C514182   2.120   4.099  10.735  0.1545  0.0819 -0.8922
    6TMC3    C614183   2.098   3.968  10.690  0.3760 -0.4957 -0.3631
    6TMC3     C14184   1.767   4.239  10.742  0.0000  0.0785 -0.5853
    6TMC3     O14185   1.677   4.208  10.667  0.1362  0.5492  0.0607
    6TMC3     H14186   1.759   4.003  10.644  0.0953  0.2016 -0.8460
    6TMC3    H114187   2.030   4.282  10.808  0.3198 -1.4626  1.6943
    6TMC3    H214188   2.173   3.907  10.643  1.5343  1.5963 -1.1952
    6TMC3    C714189   2.253   4.137  10.785  0.2105  0.4567  0.0382
    6TMC3    C814190   1.935   3.820  10.582 -0.7534 -0.4967  0.1312
    6TMC3    O114191   2.269   4.253  10.819 -0.5968 -0.6063  0.7117
    6TMC3    O214192   2.030   3.740  10.569 -0.0763 -0.3218 -0.6900
    7MPD2     C14193   2.660   3.891  11.640  0.4499 -0.1524  0.0668
    7MPD2    C114194   2.637   4.026  11.673 -0.3246 -0.7181 -0.0626
    7MPD2    C214195   2.542   4.062  11.773  0.0133 -1.3670  0.4106
    7MPD2    C314196   2.467   3.962  11.836 -0.6183 -0.4234  0.0377
    7MPD2    C414197   2.483   3.832  11.785  0.3922 -0.5043  0.4002
    7MPD2    C514198   2.579   3.798  11.695  0.3857 -0.5265  0.4572
    7MPD2     H14199   2.542   4.168  11.796  2.5810 -1.0734 -0.9143
    7MPD2    H114200   2.429   3.747  11.825  0.0347 -1.2360 -1.6146
    7MPD2    H214201   2.735   3.872  11.565 -1.0208 -1.0551 -1.1789
    7MPD2    H314202   2.591   3.698  11.654 -1.4518 -0.6179  0.1116
    7MPD2     N14203   2.374   3.973  11.944  0.1193 -0.0327  0.1277
    7MPD2    H514204   2.332   3.888  11.979  0.3827 -0.8542 -1.5767
    7MPD2    N114205   2.713   4.126  11.609 -0.4128 -0.1535  0.6926
    7MPD2    H714206   2.758   4.091  11.525  2.5732 -0.4835  2.4607
    8TMC3    C114207   2.730   4.328  11.505 -0.0189  0.1929  0.0166
    8TMC3    C214208   2.681   4.272  11.395 -0.5383 -0.1090 -0.1965
    8TMC3    C314209   2.613   4.352  11.304 -0.0665  0.4009 -0.0128
    8TMC3    C414210   2.723   4.462  11.525 -0.0441 -0.0137  0.0161
    8TMC3    C514211   2.662   4.542  11.435 -0.3206 -0.2133 -0.2327
    8TMC3    C614212   2.601   4.485  11.327 -0.1347  0.0286 -0.4752
    8TMC3     C14213   2.717   4.259  11.630  0.7775 -0.4467 -0.5548
    8TMC3     O14214   2.671   4.330  11.716  0.1059  0.8729 -0.2398
    8TMC3     H14215   2.661   4.166  11.389 -1.4689  0.0455  0.1353
    8TMC3    H114216   2.775   4.509  11.608 -0.1540 -0.6237  0.4261
    8TMC3    H214217   2.533   4.541  11.264  0.5447  0.6913 -0.6154
    8TMC3    C714218   2.562   4.623  11.507 -0.0582 -0.7313  1.0701
    8TMC3    C814219   2.583   4.309  11.167  0.7869 -0.0987  0.4109
    8TMC3    O114220   2.505   4.711  11.445  0.2990 -0.3418  0.0772
    8TMC3    O214221   2.510   4.382  11.103 -0.4768  0.0338  0.1352
    9MPD2     C14222   2.707   4.017  10.985 -0.1796 -0.4408 -0.0575
    9MPD2    C114223   2.619   4.119  11.010 -0.1401 -0.5706  0.2301
    9MPD2    C214224   2.501   4.132  10.933 -0.4690 -0.2369 -0.2218
    9MPD2    C314225   2.470   4.043  10.839  0.4162  0.7720 -0.1792
    9MPD2    C414226   2.555   3.936  10.816 -0.1771 -0.3762 -0.4328
    9MPD2    C514227   2.675   3.929  10.882 -0.0465  0.0485 -0.7789
    9MPD2     H14228   2.436   4.218  10.945  1.0117  0.6533  1.4927
    9MPD2    H114229   2.539   3.869  10.733  2.1738  1.8272 -2.6740
    9MPD2    H214230   2.783   3.982  11.052 -0.4013 -0.1201  0.3628
    9MPD2    H314231   2.737   3.843  10.862  0.0441  0.1574 -0.9613
    9MPD2     N14232   2.346   4.041  10.776 -0.5426 -0.0019 -0.5511
    9MPD2    H514233   2.312   3.954  10.738 -0.8176  0.4811 -1.3946
    9MPD2    N114234   2.642   4.190  11.129  0.3272 -0.1128 -0.1140
    9MPD2    H714235   2.714   4.152  11.189 -0.7624 -1.9750  0.0193
    1MPD1     C14236   4.660   3.403  16.131  0.0054 -0.1027 -0.0139
    1MPD1    C114237   4.706   3.427  16.008  0.2944 -0.0084 -0.5623
    1MPD1    C214238   0.054   3.325  15.936  0.2823  0.2943  0.2240
    1MPD1    C314239   0.087   3.207  15.999  0.4082  0.9189 -0.1982
    1MPD1    C414240   0.048   3.189  16.132 -0.4305 -0.1150 -0.4077
    1MPD1    C514241   4.696   3.290  16.192  0.5301  0.0729 -0.4122
    1MPD1     H14242   0.081   3.332  15.832 -0.3801 -0.2255  0.0181
    1MPD1    H114243   0.073   3.100  16.189 -0.2902  2.5905  3.7410
    1MPD1    H214244   4.603   3.476  16.188  0.5853  0.5296 -0.2339
    1MPD1    H314245   4.679   3.278  16.298 -0.6669  0.2707 -0.5765
    1MPD1     N14246   0.164   3.099  15.947  0.0213 -0.1544  0.0967
    1MPD1    H514247   0.170   3.017  16.007  0.9360  0.0477  0.2846
    1MPD1    N114248   4.665   3.544  15.943  0.3602  0.1074  0.4822
    1MPD1    H614249   4.645   3.617  16.011 -0.7521 -0.8452  1.1803
    1MPD1    H714250   0.018   3.558  15.873  0.3897 -0.9693  0.2992
    2MPD1     C14251   0.262   2.962  14.963 -0.0147 -0.5446 -0.3392
    2MPD1    C114252   0.297   3.080  15.033 -0.7122  0.9924 -0.6819
    2MPD1    C214253   0.337   3.064  15.165 -0.7688 -0.0385 -0.4417
    2MPD1    C314254   0.331   2.946  15.227 -0.4462  0.2236  0.2482
    2MPD1    C414255   0.296   2.837  15.161 -0.9613  0.0678 -0.5889
    2MPD1    C514256   0.257   2.843  15.031 -0.1804 -0.5225 -0.0237
    2MPD1     H14257   0.362   3.149  15.228  0.3085 -1.8883  1.6154
    2MPD1    H114258   0.293   2.736  15.201  3.0925  0.2479  0.1838
    2MPD1    H214259   0.231   2.970  14.859 -1.2062  2.0310  0.2156
    2MPD1    H314260   0.223   2.758  14.973 -1.7927  0.4412 -0.4825
    2MPD1     N14261   0.362   2.945  15.366 -0.0607  0.7600  1.6961
    2MPD1    H514262   0.392   3.034  15.405 -0.8992  1.7025  0.2134
    2MPD1    N114263   0.282   3.207  14.966 -0.6497 -0.0635 -0.7158
    2MPD1    H614264   0.284   3.203  14.864  0.5910 -0.4620 -0.6805
    2MPD1    H714265   0.360   3.266  14.996  0.5273 -1.6531 -0.6509
    3TCq2    C114266   0.373   2.831  15.449 -0.3772  0.2148 -0.1039
    3TCq2    O214267   0.354   2.715  15.423  0.0500  0.6561  0.2419
    3TCq2    C214268   0.381   2.865  15.591  0.0476 -0.2264 -0.2616
    3TCq2    C314269   0.417   2.765  15.675 -0.2359 -0.5332  0.0387
    3TCq2    C414270   0.390   2.784  15.807  0.3448  0.0754 -0.2629
    3TCq2    C514271   0.319   2.886  15.861  0.0424 -0.3604  0.1928
    3TCq2    C614272   0.295   2.988  15.775 -0.9474 -0.6802  0.2314
    3TCq2    C714273   0.313   2.977  15.638  0.0680  0.2792  0.5737
    3TCq2    C814274   0.225   3.109  15.819 -0.4594 -0.0690  0.3712
    3TCq2    O414275   0.229   3.206  15.746  0.1045 -0.1174  0.7633
    3TCq2    C914276   0.419   2.679  15.897  0.1550 -0.0895 -0.0607
    3TCq2    O514277   0.439   2.566  15.847  0.2365  0.8893  0.0339
    3TCq2    O614278   0.454   2.706  16.014 -0.4570 -0.8867  0.4921
    3TCq2    H214279   0.473   2.675  15.651 -0.1279 -0.7519  1.0782
    3TCq2    H314280   0.310   2.894  15.969  1.1883 -0.5258  0.2977
    3TCq2    H414281   0.260   3.045  15.572  0.3637  0.5513  0.6212
    1TCq1    O114282   4.190   2.266  13.131  0.4733 -0.2661  0.7396
    1TCq1    C114283   4.257   2.150  13.170  0.4875  0.4977 -0.4337
    1TCq1    O214284   4.249   2.042  13.116  0.0098 -0.8065  0.4424
    1TCq1    C214285   4.329   2.183  13.297 -0.5077  0.0207 -0.0508
    1TCq1    C314286   4.278   2.279  13.382 -0.7210  0.2024  0.0786
    1TCq1    C414287   4.353   2.333  13.482 -0.4110 -0.4003 -0.6221
    1TCq1    C514288   4.481   2.284  13.501 -0.1927  0.8441  0.4103
    1TCq1    C614289   4.520   2.185  13.413 -1.0664 -0.0772  0.4452
    1TCq1    C714290   4.440   2.128  13.321  0.1320  0.1281  0.3115
    1TCq1    C814291   4.634   2.098  13.452 -0.0546  0.0707 -0.0181
    1TCq1    O414292   4.708   2.064  13.362 -0.0242  0.6661  0.1302
    1TCq1    C914293   4.309   2.431  13.579 -0.1307  0.3373 -0.3129
    1TCq1    O514294   4.190   2.461  13.588 -0.3855 -0.3595  0.1868
    1TCq1    O614295   4.394   2.456  13.676 -0.5500 -0.1429 -0.3112
    1TCq1    H114296   4.226   2.346  13.175  1.2844 -1.4346  2.1893
    1TCq1    H214297   4.180   2.322  13.365 -1.7710 -2.9273 -1.6573
    1TCq1    H314298   4.539   2.321  13.585 -0.3109  0.5693  0.6121
    1TCq1    H414299   4.463   2.043  13.259 -0.9115 -0.0454  0.1650
    2MPD2     C14300   0.131   1.959  13.609  0.5297  0.2568  0.5043
    2MPD2    C114301   0.023   2.032  13.667 -0.3955 -0.2299  0.1647
    2MPD2    C214302   0.026   2.034  13.805  0.6457 -0.1311  0.6362
    2MPD2    C314303   0.120   1.970  13.886 -0.4091  0.0041  0.6334
    2MPD2    C414304   0.223   1.897  13.823  0.1532 -0.5444 -0.2479
    2MPD2    C514305   0.221   1.892  13.688 -0.4984  0.3134 -0.1721
    2MPD2     H14306   4.663   2.089  13.849  0.8995 -1.0537  2.2746
    2MPD2    H114307   0.311   1.849  13.866  0.9449  1.7020  0.6405
    2MPD2    H214308   0.134   1.935  13.503 -0.7224  0.6428  0.3820
    2MPD2    H314309   0.297   1.836  13.635 -0.9235 -0.5188  0.0971
    2MPD2     N14310   0.125   1.991  14.028 -0.1831 -0.2892 -0.5231
    2MPD2    H514311   0.053   2.054  14.062 -0.3467 -0.1973 -1.0443
    2MPD2    N114312   4.636   2.092  13.590 -0.3778 -0.1778  0.4558
    2MPD2    H714313   4.558   2.141  13.632 -1.2399 -0.6708 -0.5731
    3TCq1    O114314   4.698   2.156  14.607 -0.3823  0.7525  0.3716
    3TCq1    C114315   4.688   2.124  14.478 -0.0438 -0.3593  0.7469
    3TCq1    O214316   4.600   2.158  14.402 -0.1122 -0.1822  0.0750
    3TCq1    C214317   0.097   2.073  14.425 -0.4787 -0.2904  0.3423
    3TCq1    C314318   0.210   2.120  14.486 -0.0674  0.5380  0.5683
    3TCq1    C414319   0.320   2.136  14.415  0.7628 -0.1543  0.2480
    3TCq1    C514320   0.325   2.088  14.287  0.3802  0.1891  0.1955
    3TCq1    C614321   0.217   2.027  14.236  0.7034  0.0472  0.6460
    3TCq1    C714322   0.097   2.024  14.297 -0.2372  0.7662  0.4345
    3TCq1    C814323   0.230   1.969  14.110  0.4582  0.0232 -0.7259
    3TCq1    O414324   0.342   1.929  14.082 -0.7076  0.2855  0.1462
    3TCq1    C914325   0.434   2.198  14.469 -0.3385 -0.5467  0.1464
    3TCq1    O514326   0.441   2.209  14.592 -0.2539 -0.0243  0.3792
    3TCq1    O614327   0.528   2.221  14.395  0.3085 -0.1483 -0.2421
    3TCq1    H114328   0.047   2.104  14.654 -0.4750  0.5248  0.2497
    3TCq1    H214329   0.214   2.167  14.584 -1.0430 -0.3152  1.0095
    3TCq1    H314330   0.419   2.099  14.236  1.1923  3.5222  2.4234
    3TCq1    H414331   0.011   1.984  14.244  1.1500 -1.6682  0.0329
    1MPD2     C14332   3.200   2.658  15.351 -0.1386  0.2146  0.0414
    1MPD2    C114333   3.146   2.530  15.367 -0.0951  0.1400 -0.1622
    1MPD2    C214334   3.167   2.427  15.277 -0.0941  0.0298 -0.0792
    1MPD2    C314335   3.245   2.450  15.166 -0.1675 -0.0072 -0.1588
    1MPD2    C414336   3.313   2.572  15.158 -0.1043 -0.1909  0.7547
    1MPD2    C514337   3.279   2.680  15.243  0.0866  0.3357 -0.5135
    1MPD2     H14338   3.113   2.334  15.284 -1.7650  1.1104  1.4309
    1MPD2    H114339   3.377   2.602  15.076  2.4367 -0.7063  2.5492
    1MPD2    H214340   3.187   2.739  15.422 -0.2382  1.9354 -1.9486
    1MPD2    H314341   3.327   2.777  15.238 -1.0227  0.9880  1.2767
    1MPD2     N14342   3.262   2.352  15.063  0.4062 -0.5770 -0.8063
    1MPD2    H514343   3.318   2.378  14.983  1.5402  2.3511  0.9289
    1MPD2    N114344   3.053   2.516  15.478 -1.1481 -0.1954  0.9858
    1MPD2    H714345   3.050   2.597  15.539  0.7757 -0.9331  2.0551
    2TMC3    C114346   2.877   2.444  15.593  1.4934  0.0158  0.1329
    2TMC3    C214347   2.806   2.332  15.614 -0.1141  0.2147  0.6336
    2TMC3    C314348   2.671   2.323  15.603  0.0832  1.3810 -0.2787
    2TMC3    C414349   2.800   2.559  15.558  0.1698 -0.5967  0.3919
    2TMC3    C514350   2.663   2.546  15.520 -0.2274 -0.3885  0.1060
    2TMC3    C614351   2.601   2.433  15.559  0.1452 -0.1634  0.5167
    2TMC3     C14352   2.982   2.408  15.506  0.4557 -0.7471  0.1174
    2TMC3     O14353   2.997   2.289  15.476 -0.1132 -0.4227  0.0280
    2TMC3     H14354   2.869   2.247  15.637  0.1351  0.3955  0.6219
    2TMC3    H114355   2.843   2.653  15.528 -0.3736  0.2621  2.3015
    2TMC3    H214356   2.495   2.410  15.561  0.2892 -0.8171  0.7619
    2TMC3    C714357   2.640   2.556  15.380 -0.3512 -0.3721 -0.3723
    2TMC3    C814358   2.629   2.211  15.526  0.9164  0.4174 -0.5305
    2TMC3    O114359   2.528   2.534  15.341 -0.4093  0.0358  0.5379
    2TMC3    O214360   2.516   2.172  15.540  0.5006 -0.0496  0.3038
    3TCq1    O114361   3.574   2.876  14.977 -0.1136  0.3162  0.6084
    3TCq1    C114362   3.451   2.926  14.953  0.3558 -0.0827 -0.6273
    3TCq1    O214363   3.401   3.014  15.021  0.2937 -0.2639 -0.0239
    3TCq1    C214364   3.388   2.842  14.860  0.8790 -0.2869 -0.0982
    3TCq1    C314365   3.466   2.791  14.760 -0.0545 -0.5804 -0.0683
    3TCq1    C414366   3.414   2.695  14.675 -0.2426 -0.1174  0.1990
    3TCq1    C514367   3.282   2.658  14.689 -0.2590 -0.1762 -0.6214
    3TCq1    C614368   3.201   2.718  14.784 -0.4802  0.0399 -0.1536
    3TCq1    C714369   3.253   2.811  14.871  0.3456 -0.2054  0.4600
    3TCq1    C814370   3.081   2.648  14.812  0.4449  0.1346 -0.0008
    3TCq1    O414371   3.031   2.585  14.720 -0.0988  0.1753 -0.0956
    3TCq1    C914372   3.505   2.619  14.591 -0.3212 -0.2212 -0.0902
    3TCq1    O514373   3.453   2.534  14.511 -0.1208  0.5869  0.1448
    3TCq1    O614374   3.623   2.648  14.585 -0.6917 -0.0982 -0.5073
    3TCq1    H114375   3.597   2.800  14.920  2.0398  0.7396  0.8971
    3TCq1    H214376   3.566   2.831  14.755 -0.2018 -0.0636  1.2194
    3TCq1    H314377   3.242   2.582  14.622 -2.8408 -1.5366  2.4464
    3TCq1    H414378   3.187   2.858  14.944 -1.8923  1.2973 -2.5373
    4MPD2     C14379   2.843   2.489  14.916  0.1155 -0.1771  0.3845
    4MPD2    C114380   2.929   2.574  14.994 -0.7574  0.0879  0.6269
    4MPD2    C214381   2.898   2.606  15.123 -0.1720 -0.7265  0.7368
    4MPD2    C314382   2.786   2.555  15.179 -0.1477  0.1026  0.1392
    4MPD2    C414383   2.706   2.465  15.107 -0.3042 -0.3635 -0.1639
    4MPD2    C514384   2.729   2.445  14.973  0.1800  0.1912 -0.1914
    4MPD2     H14385   2.951   2.675  15.187  0.6439 -1.5744  0.9854
    4MPD2    H114386   2.613   2.422  15.142 -0.7326  0.4935 -0.2483
    4MPD2    H214387   2.857   2.475  14.810  0.6384 -0.9109  0.5543
    4MPD2    H314388   2.670   2.372  14.918  0.5672  0.7825 -1.3909
    4MPD2     N14389   2.762   2.580  15.313 -0.5563  0.3289  0.0544
    4MPD2    H514390   2.834   2.628  15.365 -0.1280 -0.1315 -0.1189
    4MPD2    N114391   3.041   2.643  14.941  0.0232 -0.0498 -0.4559
    4MPD2    H714392   3.085   2.709  15.004  0.2552 -0.6870  0.0439
    5TMC2    C114393   3.057   2.005  14.848 -0.2622  0.5229 -0.6151
    5TMC2    C214394   3.044   2.086  14.733  0.5854 -0.1924 -0.1769
    5TMC2    C314395   3.110   2.206  14.721 -0.2891 -0.4622 -0.2748
    5TMC2    C414396   3.158   2.043  14.933 -0.2688 -0.8196 -1.0986
    5TMC2    C514397   3.204   2.169  14.927 -0.5190 -0.0614 -1.0306
    5TMC2    C614398   3.184   2.257  14.828  0.0345 -0.4850  0.5989
    5TMC2     C14399   2.927   1.973  14.897  0.7894  0.0980  0.2082
    5TMC2     O14400   2.834   1.944  14.820 -0.5740 -0.2210 -0.1312
    5TMC2     H14401   2.971   2.063  14.656  1.8326 -1.4779 -0.9760
    5TMC2    H114402   3.169   1.986  15.025 -0.2861  0.9315 -0.0178
    5TMC2    H214403   3.226   2.357  14.824 -0.7234 -0.1355  1.4212
    5TMC2    C714404   3.214   2.226  15.065  0.3675 -0.4212 -0.2480
    5TMC2    C814405   3.068   2.305  14.630  0.0122  0.7200  0.0011
    5TMC2    O114406   3.164   2.164  15.157  0.0056 -0.1639 -0.1359
    5TMC2    O214407   2.957   2.307  14.582  0.5619  0.3166 -0.2255
    5TMC2    O514408   3.180   2.338  14.569 -0.5696 -0.2376  0.6101
    5TMC2    H514409   3.256   2.294  14.612 -1.2756  0.1904  2.2964
    6MPD2     C14410   2.579   2.078  15.263  0.1892  0.2365 -0.4287
    6MPD2    C114411   2.698   2.128  15.302  0.5982  0.6269  0.1745
    6MPD2    C214412   2.808   2.103  15.218  0.0544 -0.0202 -0.1093
    6MPD2    C314413   2.795   2.037  15.095  0.0046 -0.0900  0.8704
    6MPD2    C414414   2.671   2.001  15.048  0.3459  0.1859 -0.0397
    6MPD2    C514415   2.570   2.020  15.137 -0.1050 -0.4064  0.3358
    6MPD2     H14416   2.906   2.131  15.254  0.0437 -0.4077  0.2129
    6MPD2    H114417   2.648   1.952  14.954  3.7173 -1.7864  0.1286
    6MPD2    H214418   2.491   2.074  15.325  0.6939 -0.4362  0.2547
    6MPD2    H314419   2.480   1.968  15.106  0.4377 -2.3539  2.0599
    6MPD2     N14420   2.920   2.023  15.025  0.0800 -0.2444 -0.0172
    6MPD2    H514421   3.007   2.066  15.056  1.1064 -1.0857 -1.7314
    6MPD2    N114422   2.719   2.200  15.421  0.3830 -0.6372 -0.1021
    6MPD2    H714423   2.811   2.238  15.442  0.2267 -0.3095 -0.0258
  945NH3     N114424   2.260   2.114  14.834 -0.1351  0.4147  0.4953
  945NH3     H214425   2.233   2.100  14.738  0.8645 -1.9373  0.5671
  945NH3     H314426   2.234   2.212  14.841 -0.9787  0.3028 -1.1583
  945NH3     H414427   2.188   2.069  14.889  1.4152 -0.8020  1.5362
  946SOD     NA14428   2.546   0.108  13.812  0.2900  0.9362  0.3872
  947SOD     NA14429   1.266   3.751  16.835 -0.2501  0.0071 -0.3373
  948SOD     NA14430   4.102   4.258  10.725 -0.6470  0.3792  0.2728
  949SOD     NA14431   3.171   2.423  10.837 -0.1724 -0.2855 -0.4271
  950SOD     NA14432   0.249   2.566   8.869  0.0804 -0.1087  0.4554
  951SOD     NA14433   0.547   1.834  14.665 -0.1035  0.3010  0.2829
  952SOD     NA14434   0.959   3.058   0.237  0.2054 -0.1192 -0.0108
  953SOD     NA14435   3.618   1.743  10.787  0.3452  0.1808 -0.3632
  954SOD     NA14436   4.127   2.603  10.489  0.0622 -0.3620 -0.0664
  955SOD     NA14437   4.336   0.758   0.449  0.4702  0.3481 -0.0347
  956SOD     NA14438   3.840   1.861  10.533  0.0384 -0.2581  0.3496
  957SOD     NA14439   0.415   0.679  11.487  0.7636  0.4344  0.0419
  958SOD     NA14440   1.679   0.702   1.117  0.4571 -0.1447 -0.2010
  959SOD     NA14441   2.365   2.924  17.290  0.2341 -0.4677 -0.2809
  960SOD     NA14442   3.638   1.830  15.531 -0.2723 -0.4981  0.2311
  961SOD     NA14443   0.047   1.358  11.695 -0.2525 -0.0497 -0.1097
  962SOD     NA14444   0.709   2.164  14.517 -0.1255  0.1257  0.4431
  963SOD     NA14445   0.981   2.058  10.930 -0.1982  0.0462 -0.0282
  964SOD     NA14446   4.521   2.202  12.189  0.2760 -0.5789  0.0070
  965SOD     NA14447   3.811   1.564  10.662 -0.1631 -0.1389 -0.3753
  966SOD     NA14448   2.385   1.011   0.040 -0.6702  0.0679 -0.2956
  967SOD     NA14449   2.562   1.977  11.287  0.3190 -0.4172  0.0116
  968SOD     NA14450   3.528   3.108  15.521  0.1607 -0.7176 -0.2671
  969SOD     NA14451   1.817   3.072   3.803 -0.6231 -0.0406 -0.0529
  970SOD     NA14452   2.758   2.009  10.191 -0.6220  0.2625  0.4145
  971SOD     NA14453   0.043   2.434  15.598 -0.3805 -0.4591 -0.3977
  972SOD     NA14454   3.947   2.433   4.311 -0.2422 -0.4478 -0.4758
  973SOD     NA14455   4.417   1.920  12.176  0.2208 -0.1012 -0.2589
  974SOD     NA14456   1.018   0.843  14.426 -0.1193  0.1950 -0.4910
  975SOD     NA14457   4.561   1.590   0.714  0.7858 -0.0753  0.1411
  976SOD     NA14458   1.399   3.332  12.520 -0.3665  0.6307  0.2547
  977SOD     NA14459   2.329   2.995   4.152  0.5097  0.1979 -0.2143
  978SOD     NA14460   0.921   0.554   2.404 -0.4339 -0.1880  0.4260
  979SOD     NA14461   3.017   0.693  13.126  0.0114 -0.0272 -0.0274
  980SOD     NA14462   1.612   2.789  15.097 -0.2890  0.0044 -0.0736
  981SOD     NA14463   4.140   0.516  10.850 -0.8917 -0.1970 -0.1397
  982SOD     NA14464   1.598   1.006   1.179  0.4074 -0.3251  0.0797
  983SOD     NA14465   0.333   4.092   7.674  0.3152 -0.5755  0.3152
  984SOD     NA14466   0.009   2.881  12.082 -0.4395  0.6650  0.3039
  985SOD     NA14467   2.436   0.919  12.645  0.3358 -0.1754  0.5214
  986SOD     NA14468   3.123   2.493   9.732 -0.3457 -0.0714 -0.3330
  987SOD     NA14469   1.589   4.259   0.397 -0.2147  0.0892  0.2840
  988SOD     NA14470   1.898   0.723   6.995 -0.0512  0.5665 -0.0535
  989SOD     NA14471   4.308   2.535  13.862 -0.2979 -0.2037  0.5812
  990SOD     NA14472   3.296   1.174   2.710  0.0440  0.5084  0.1323
  991SOD     NA14473   0.613   2.456  15.843 -0.1100  0.0472  0.5873
  992SOD     NA14474   1.015   0.748  13.142 -0.3112  0.0139 -0.3246
  993SOD     NA14475   2.653   0.606   1.209 -0.5858  0.6439 -0.0519
  994SOD     NA14476   1.174   3.568  14.067 -0.0089  0.0678 -0.0091
  995SOD     NA14477   1.323   3.781  13.796 -0.1323  0.3215 -0.2996
  996SOD     NA14478   0.675   0.173   7.976 -0.5436 -0.5919  0.0682
  997SOD     NA14479   2.501   3.990   8.322  0.1957 -0.0152  0.1296
  998SOD     NA14480   0.656   2.109  11.098  0.4085 -0.4964 -0.6074
  999SOD     NA14481   4.445   0.840   9.855 -0.0061  0.0641 -0.1877
 1000SOD     NA14482   3.650   1.035  10.619 -0.1333 -0.6862  0.7983
 1001SOD     NA14483   2.386   1.933   1.367  0.0935 -0.5485  0.4455
 1002SOD     NA14484   3.780   2.575  14.703 -0.2255 -0.0308 -0.0483
 1003SOD     NA14485   0.313   2.861  11.922  0.0928  0.4870  0.4968
 1004SOD     NA14486   2.461   1.593  13.613  0.3365 -0.6293  0.0210
 1005SOD     NA14487   3.303   0.884  14.918 -0.0506  0.1869 -0.0469
 1006SOD     NA14488   0.906   0.908   9.309  0.2110  0.0365 -0.0765
 1007SOD     NA14489   4.180   4.446  12.519 -0.0476  0.2652  0.0215
 1008SOD     NA14490   3.672   2.436  14.472 -0.7740  0.1718 -0.5738
 1009SOD     NA14491   3.430   3.845  17.139  0.0521 -0.6671 -0.4389
 1010SOD     NA14492   1.166   2.544  15.632  0.5568  0.3492 -0.2950
 1011SOD     NA14493   4.260   1.228   5.688  0.3031  0.4941  0.1537
 1012SOL     OW14494   2.318   3.300   5.377 -0.2537 -0.4944  0.7219
 1012SOL    HW114495   2.296   3.326   5.467 -1.3450 -0.7144  0.5177
 1012SOL    HW214496   2.244   3.240   5.368 -1.5809  1.2256  0.2120
 1013SOL     OW14497   2.742   3.459   7.942 -0.2423 -0.1457 -0.2190
 1013SOL    HW114498   2.803   3.402   7.894  1.0830  1.7649 -0.7815
 1013SOL    HW214499   2.657   3.431   7.908  0.3054  0.4413 -2.0428
 1014SOL     OW14500   4.055   3.350  14.230  0.4609  0.0657  0.0332
 1014SOL    HW114501   4.073   3.320  14.319 -0.4336  0.9909  0.5233
 1014SOL    HW214502   4.084   3.441  14.237  0.9390 -0.0237 -0.7966
 1015SOL     OW14503   2.620   2.286   0.311 -0.0064  0.0171 -0.2915
 1015SOL    HW114504   2.692   2.313   0.254  2.5652 -3.5891  1.2572
 1015SOL    HW214505   2.661   2.278   0.397 -0.0246 -0.4074 -0.3224
 1016SOL     OW14506   4.516   1.555   8.318 -0.1048 -0.5843  0.0184
 1016SOL    HW114507   4.439   1.612   8.318  1.6953  1.8767  0.7517
 1016SOL    HW214508   4.512   1.519   8.406  0.7997  0.7968  0.6250
 1017SOL     OW14509   2.661   4.367   7.098  0.4815 -0.8936 -0.2487
 1017SOL    HW114510   2.753   4.345   7.107  0.6024 -0.0742  0.4871
 1017SOL    HW214511   2.608   4.325   7.165 -1.4799 -0.5289 -1.5492
 1018SOL     OW14512   0.011   3.022   8.898  0.5171  0.3913 -0.1004
 1018SOL    HW114513   0.096   2.995   8.862  0.8298  0.6919  0.4031
 1018SOL    HW214514   4.663   2.963   8.865  0.5740  1.2257 -1.7325
 1019SOL     OW14515   3.679   3.373   5.397  0.4581 -0.4592 -0.5082
 1019SOL    HW114516   3.720   3.317   5.463 -0.0578 -0.4800 -0.2063
 1019SOL    HW214517   3.729   3.449   5.425 -1.6161  0.3076  1.1362
 1020SOL     OW14518   1.711   0.472  16.881  0.2440  0.0142  0.0414
 1020SOL    HW114519   1.719   0.379  16.902 -2.4385  0.1047  1.5104
 1020SOL    HW214520   1.616   0.480  16.876  0.3177 -0.5541 -2.2273
 1021SOL     OW14521   0.590   0.427   1.124  0.4732  0.6917  0.3742
 1021SOL    HW114522   0.544   0.399   1.203  0.0717  0.9640  0.2338
 1021SOL    HW214523   0.672   0.454   1.165  1.3976 -1.3536 -0.0996
 1022SOL     OW14524   0.992   0.957   1.964 -0.1183  0.2409  0.5651
 1022SOL    HW114525   0.904   0.923   1.985 -1.5863  2.4114 -2.0588
 1022SOL    HW214526   0.991   0.943   1.869  0.7903 -1.8152  0.8607
 1023SOL     OW14527   1.903   1.509   9.663  0.3873 -0.0200 -0.0669
 1023SOL    HW114528   1.950   1.587   9.692  1.0094 -0.1862 -0.6322
 1023SOL    HW214529   1.852   1.544   9.590 -0.9841 -0.9355  0.4419
 1024SOL     OW14530   0.078   0.667   7.173 -0.3870  1.0042  0.4991
 1024SOL    HW114531   0.109   0.663   7.083 -0.2981  1.1299  0.5248
 1024SOL    HW214532   0.057   0.760   7.179  1.1432  1.4780 -1.4882
 1025SOL     OW14533   1.993   0.745   6.451  0.0160  0.6699  0.0031
 1025SOL    HW114534   1.911   0.746   6.401 -0.7683 -0.3662  1.2437
 1025SOL    HW214535   2.004   0.650   6.463  0.6282  0.9401  1.5972
 1026SOL     OW14536   3.537   4.693   4.523  0.3599  0.5260  0.1921
 1026SOL    HW114537   3.585   0.032   4.465  0.8952  0.4696  0.5836
 1026SOL    HW214538   3.605   4.659   4.581 -0.3445 -1.1000  0.0887
 1027SOL     OW14539   2.007   4.009   6.499 -0.5226  0.3080  0.2271
 1027SOL    HW114540   2.042   4.094   6.525 -0.8804  0.2998  0.7458
 1027SOL    HW214541   2.009   3.956   6.580  0.1825  2.4021  1.5831
 1028SOL     OW14542   0.852   1.430   7.837 -0.1502  0.4918 -0.6931
 1028SOL    HW114543   0.807   1.509   7.868  0.4352  0.0554  1.2728
 1028SOL    HW214544   0.784   1.364   7.827  0.1038 -0.0832  1.3646
 1029SOL     OW14545   3.181   2.829   8.800 -0.2452  0.3957  0.1383
 1029SOL    HW114546   3.223   2.858   8.882 -1.1135  0.6343  0.4948
 1029SOL    HW214547   3.155   2.740   8.824  0.2782  0.4887  1.0717
 1030SOL     OW14548   2.488   2.288   6.210  0.4381 -0.2266 -0.4230
 1030SOL    HW114549   2.459   2.268   6.121  2.1301 -0.6639 -0.8926
 1030SOL    HW214550   2.575   2.325   6.195  0.5803 -1.0858 -1.7708
 1031SOL     OW14551   0.035   1.037   4.839  0.8579 -0.0140  0.2228
 1031SOL    HW114552   0.087   1.108   4.877 -1.9686  2.1804 -0.0260
 1031SOL    HW214553   4.682   1.033   4.902  0.5437 -0.4248 -0.1636
 1032SOL     OW14554   1.193   1.297   7.185 -0.1208 -0.4600  0.2227
 1032SOL    HW114555   1.215   1.211   7.220  0.3960 -0.7109 -0.7317
 1032SOL    HW214556   1.204   1.355   7.260 -0.7920 -0.8614  0.6336
 1033SOL     OW14557   4.337   1.595   2.411 -0.2237  0.1721  0.0686
 1033SOL    HW114558   4.395   1.520   2.398 -1.2032 -0.5915  0.1104
 1033SOL    HW214559   4.301   1.573   2.497  1.5484 -0.0049  0.7806
 1034SOL     OW14560   1.364   0.342   7.138 -0.0101  0.5131  0.2997
 1034SOL    HW114561   1.434   0.407   7.136  0.0001  0.4825 -0.2648
 1034SOL    HW214562   1.363   0.318   7.045 -0.2515 -0.0726  0.4527
 1035SOL     OW14563   1.259   2.157   0.386  0.8837  0.6828 -0.1389
 1035SOL    HW114564   1.210   2.088   0.341  3.0274 -0.8925 -0.0460
 1035SOL    HW214565   1.327   2.102   0.426 -0.0559 -2.3606 -2.6732
 1036SOL     OW14566   0.030   0.069   6.596 -0.1646 -0.1268 -0.1418
 1036SOL    HW114567   0.096   0.007   6.625 -1.0621 -1.0325 -0.0519
 1036SOL    HW214568   0.018   0.042   6.505 -0.1341  2.3244 -0.8979
 1037SOL     OW14569   2.697   0.522   2.960 -0.5600  0.5339  0.1289
 1037SOL    HW114570   2.712   0.607   3.001 -0.1776  1.0028 -0.9934
 1037SOL    HW214571   2.771   0.478   3.002 -0.5649 -2.0503 -2.5633
 1038SOL     OW14572   2.114   0.313   6.855  0.5106  0.4679 -0.3021
 1038SOL    HW114573   2.169   0.239   6.830  0.5154  0.3017  0.1958
 1038SOL    HW214574   2.119   0.312   6.950  2.0303  2.5529 -0.3750
 1039SOL     OW14575   0.661   4.051   3.174  0.3725  0.2239 -0.2587
 1039SOL    HW114576   0.605   4.106   3.228 -0.4934 -0.4642 -0.4467
 1039SOL    HW214577   0.669   3.969   3.223 -2.2421 -1.0604 -1.9475
 1040SOL     OW14578   3.317   3.724   4.016  0.4370 -0.2705  0.0529
 1040SOL    HW114579   3.306   3.672   3.936  1.1203 -0.0699 -0.1721
 1040SOL    HW214580   3.267   3.662   4.069 -0.3194 -0.3059 -0.6992
 1041SOL     OW14581   2.574   1.325  11.333 -0.0643  0.0694  0.0424
 1041SOL    HW114582   2.653   1.330  11.278  0.3857 -2.8966  0.4170
 1041SOL    HW214583   2.553   1.418  11.340  0.8048  0.3330 -0.7702
 1042SOL     OW14584   0.223   4.494   5.671  0.0246  0.4523  0.0181
 1042SOL    HW114585   0.258   4.581   5.652 -0.1105  0.3735 -0.5854
 1042SOL    HW214586   0.294   4.447   5.715 -0.6978 -1.2034 -0.5919
 1043SOL     OW14587   0.033   0.677   5.528 -0.3619 -0.1225  0.1896
 1043SOL    HW114588   4.702   0.758   5.528 -1.6833 -0.9474 -1.7538
 1043SOL    HW214589   0.000   0.630   5.451 -0.1059 -2.2863  1.4012
 1044SOL     OW14590   0.888   3.519   2.129 -0.2122 -0.1340 -0.0668
 1044SOL    HW114591   0.846   3.535   2.213  2.2110  3.8335  0.3719
 1044SOL    HW214592   0.941   3.445   2.157 -0.9989 -0.2644  1.0516
 1045SOL     OW14593   0.735   0.744   6.710  0.1579 -0.2065 -0.9308
 1045SOL    HW114594   0.828   0.723   6.720  0.3341  0.3859 -1.2977
 1045SOL    HW214595   0.717   0.788   6.793  0.1594  2.5180 -2.3771
 1046SOL     OW14596   0.929   4.460  16.498  1.2296  0.0073 -0.2053
 1046SOL    HW114597   1.023   4.461  16.516  0.9353 -0.1382  1.3037
 1046SOL    HW214598   0.896   4.528  16.557  2.3661 -0.1759  0.6379
 1047SOL     OW14599   1.235   2.878  15.393  0.1336  0.5350 -0.3349
 1047SOL    HW114600   1.161   2.921  15.351 -0.1295  0.2970 -0.1156
 1047SOL    HW214601   1.198   2.870  15.481 -0.3739 -0.3303 -0.6276
 1048SOL     OW14602   2.450   0.863   6.164  0.0003 -0.0965  0.3436
 1048SOL    HW114603   2.522   0.838   6.221 -0.2842  0.3807  0.9129
 1048SOL    HW214604   2.376   0.854   6.225 -1.5764  0.4938 -1.4818
 1049SOL     OW14605   4.647   2.930  13.645 -0.7331  0.5177  0.0170
 1049SOL    HW114606   4.571   2.923  13.703 -0.6883  1.2363  0.1717
 1049SOL    HW214607   4.663   3.024  13.652  3.3964 -0.1387 -0.4764
 1050SOL     OW14608   2.588   0.647   3.982 -0.5610 -0.0264  0.1288
 1050SOL    HW114609   2.513   0.596   3.951  1.4716 -2.5409 -0.6279
 1050SOL    HW214610   2.542   0.713   4.034 -0.1379 -0.3802  0.9456
 1051SOL     OW14611   3.962   0.772   6.481 -0.1692  0.4484  0.5809
 1051SOL    HW114612   4.057   0.766   6.487 -0.1723 -0.4809 -0.1936
 1051SOL    HW214613   3.948   0.701   6.418 -2.5310  1.1588  0.3114
 1052SOL     OW14614   4.570   3.118   8.246  0.5476  0.1096  0.3384
 1052SOL    HW114615   4.604   3.174   8.176 -0.7520  0.2001 -0.2173
 1052SOL    HW214616   4.571   3.041   8.189 -1.2216  2.3163 -2.6839
 1053SOL     OW14617   1.619   3.220  12.493 -0.5925  0.3347  0.1255
 1053SOL    HW114618   1.684   3.203  12.424 -0.8531  0.1499 -0.0745
 1053SOL    HW214619   1.674   3.237  12.570  0.1610 -0.8684 -0.1362
 1054SOL     OW14620   4.433   2.953   0.915 -0.4697  0.4086 -0.3376
 1054SOL    HW114621   4.461   3.039   0.946  0.1278 -0.7036  2.2251
 1054SOL    HW214622   4.338   2.964   0.915 -0.5192 -0.1187 -3.4405
 1055SOL     OW14623   2.674   0.430   4.699  0.2232 -0.7582  0.3797
 1055SOL    HW114624   2.589   0.473   4.698  1.0140  0.6957 -2.6509
 1055SOL    HW214625   2.679   0.406   4.792  0.2173 -2.7214 -0.1223
 1056SOL     OW14626   0.518   0.969   1.900 -0.0796 -0.1975 -0.0635
 1056SOL    HW114627   0.464   0.895   1.927  1.2728 -0.3310  2.2590
 1056SOL    HW214628   0.603   0.935   1.929  1.1830  3.1465  0.1244
 1057SOL     OW14629   2.870   2.722   0.433  1.0454 -0.0786  0.3191
 1057SOL    HW114630   2.793   2.729   0.489  0.6276 -1.6624 -0.0554
 1057SOL    HW214631   2.878   2.813   0.403 -0.6606  0.8939  2.7755
 1058SOL     OW14632   3.353   0.175  12.593 -0.2525 -0.4449  0.2359
 1058SOL    HW114633   3.373   0.125  12.673  1.7889 -0.8379 -0.5002
 1058SOL    HW214634   3.382   0.259  12.629  0.7982 -1.4543  1.7744
 1059SOL     OW14635   2.062   0.309   4.643 -0.5675  0.1337 -0.2182
 1059SOL    HW114636   2.007   0.366   4.588  0.4053  1.9463  0.6804
 1059SOL    HW214637   2.103   0.250   4.581 -0.4468 -0.2100  0.1932
 1060SOL     OW14638   1.766   0.717   6.274  0.0673 -0.8535 -0.2835
 1060SOL    HW114639   1.700   0.781   6.301 -0.3393 -1.2336 -0.3749
 1060SOL    HW214640   1.795   0.756   6.192 -0.9680 -1.1907 -0.8096
 1061SOL     OW14641   3.048   0.023   7.524 -0.0047  0.0863  1.2092
 1061SOL    HW114642   3.107   4.715   7.594  0.0450  0.1698  1.1997
 1061SOL    HW214643   3.066   0.117   7.529  1.9157 -0.1384 -1.3690
 1062SOL     OW14644   1.487   2.655   9.851 -0.3148 -0.3456  0.1141
 1062SOL    HW114645   1.463   2.747   9.862 -0.7218 -0.3627 -0.6348
 1062SOL    HW214646   1.432   2.619   9.920 -0.8283  2.7881  1.3679
 1063SOL     OW14647   4.531   2.217   1.904 -0.1924 -0.2942 -0.0014
 1063SOL    HW114648   4.519   2.239   1.812 -0.9458 -0.7164 -0.0059
 1063SOL    HW214649   4.450   2.248   1.943 -1.7607 -0.7040 -2.9521
 1064SOL     OW14650   1.010   3.357   5.215  0.5941  0.3525 -0.3148
 1064SOL    HW114651   1.001   3.291   5.283 -1.8013  1.2533  0.2506
 1064SOL    HW214652   1.014   3.440   5.262 -0.1370 -0.0425  0.4271
 1065SOL     OW14653   0.277   0.925   5.805 -0.5973  0.1025  0.4711
 1065SOL    HW114654   0.249   0.937   5.715 -0.0007  1.5675  0.4939
 1065SOL    HW214655   0.367   0.899   5.785 -0.5539 -1.4130  2.5472
 1066SOL     OW14656   2.320   0.170   0.548  0.0145  0.0341 -0.1626
 1066SOL    HW114657   2.241   0.150   0.598  0.0298  1.0718  0.2898
 1066SOL    HW214658   2.384   0.190   0.617 -0.1025  1.4372 -0.4578
 1067SOL     OW14659   3.369   1.425   5.687 -0.6161 -0.7070  0.1533
 1067SOL    HW114660   3.341   1.360   5.623 -0.1029 -0.8755  0.0982
 1067SOL    HW214661   3.361   1.369   5.764  0.5472 -0.3002  0.5802
 1068SOL     OW14662   3.452   0.818   7.954 -0.0114  0.0935  0.6716
 1068SOL    HW114663   3.462   0.880   7.881  0.9017  0.7082  1.3085
 1068SOL    HW214664   3.504   0.861   8.022  0.0069  0.6299  0.3239
 1069SOL     OW14665   1.881   2.635   2.942  0.5720 -0.0753 -0.1383
 1069SOL    HW114666   1.930   2.572   2.995  3.5899  1.4346 -1.1355
 1069SOL    HW214667   1.844   2.578   2.874 -0.5843  1.6669 -0.9671
 1070SOL     OW14668   4.670   1.597  11.312  0.0691 -0.0997 -0.4478
 1070SOL    HW114669   0.010   1.650  11.365  0.2684  0.4775 -1.2603
 1070SOL    HW214670   4.699   1.620  11.224  2.2301 -1.4113 -0.0652
 1071SOL     OW14671   0.939   0.187  13.166  0.4690  0.8538  0.2809
 1071SOL    HW114672   0.929   0.195  13.261 -1.5647 -1.6507  0.2774
 1071SOL    HW214673   0.922   0.094  13.155  1.6956  0.6027  0.5610
 1072SOL     OW14674   0.029   3.233   1.892 -0.4895 -0.1678  0.9414
 1072SOL    HW114675   0.021   3.328   1.884  1.7815  0.1656  2.4564
 1072SOL    HW214676   4.689   3.205   1.822  0.3134  0.9954 -0.2202
 1073SOL     OW14677   0.294   1.238   8.848 -0.1089  0.6011 -0.0884
 1073SOL    HW114678   0.221   1.232   8.787 -0.8303  0.3376  0.8091
 1073SOL    HW214679   0.357   1.281   8.790 -2.8581  1.1957 -2.6243
 1074SOL     OW14680   3.646   2.745  17.529  0.5484 -0.1313  0.2133
 1074SOL    HW114681   3.702   2.766  17.455 -0.0195 -0.2742 -0.2560
 1074SOL    HW214682   3.655   2.832  17.566 -2.2124  0.1124  0.3432
 1075SOL     OW14683   1.242   1.477   7.766  0.2581 -0.2800 -0.6684
 1075SOL    HW114684   1.208   1.443   7.849  1.8607  1.3008  0.6346
 1075SOL    HW214685   1.163   1.529   7.749 -1.1532 -1.7896  1.2005
 1076SOL     OW14686   1.575   0.122  14.086  0.8454  0.1280  0.6357
 1076SOL    HW114687   1.594   0.192  14.148  1.9916  1.4012 -1.1782
 1076SOL    HW214688   1.479   0.124  14.082  0.8686 -0.6699 -0.5257
 1077SOL     OW14689   4.038   3.368   8.466 -0.1445 -0.8493 -0.5920
 1077SOL    HW114690   4.006   3.284   8.500 -0.6877  0.0361  1.0523
 1077SOL    HW214691   4.022   3.368   8.371  0.7861 -0.2202 -0.7535
 1078SOL     OW14692   4.571   1.786   5.314 -0.0522  0.1310  0.1087
 1078SOL    HW114693   4.573   1.771   5.220  1.6305 -1.5782  0.4168
 1078SOL    HW214694   4.606   1.702   5.343  1.2680  0.5086 -0.3771
 1079SOL     OW14695   3.921   0.060   7.864  0.2054  0.2312  0.0108
 1079SOL    HW114696   4.008   0.093   7.885 -0.5118  1.8353  0.5110
 1079SOL    HW214697   3.935   4.687   7.846 -2.3046 -0.0441 -0.5636
 1080SOL     OW14698   1.437   2.256   9.976  0.4944 -0.3418 -0.0121
 1080SOL    HW114699   1.514   2.201   9.990  0.9384  0.3685  0.3793
 1080SOL    HW214700   1.395   2.221  10.055 -0.4623 -1.1194 -0.8664
 1081SOL     OW14701   0.259   1.682   7.540 -0.2140 -0.3156  0.6325
 1081SOL    HW114702   0.309   1.756   7.506 -0.3178 -1.5547 -2.2387
 1081SOL    HW214703   0.313   1.604   7.532 -1.3350 -0.9759 -0.5815
 1082SOL     OW14704   0.111   0.940   4.108 -0.1200 -0.0835  1.0387
 1082SOL    HW114705   0.035   0.995   4.090  0.2383  0.0881  0.0672
 1082SOL    HW214706   0.108   0.939   4.204 -0.7858  0.4173  1.0271
 1083SOL     OW14707   4.034   0.925  11.742 -0.0845  0.5829  0.0366
 1083SOL    HW114708   4.092   0.861  11.701 -0.1682  0.2605  0.4166
 1083SOL    HW214709   3.960   0.919  11.682  0.5498  1.6358 -0.8407
 1084SOL     OW14710   0.702   0.397   9.411  0.4155  0.0542  0.4717
 1084SOL    HW114711   0.623   0.423   9.458  0.3629 -0.8119  0.8589
 1084SOL    HW214712   0.679   0.422   9.322  0.9744  0.3353  0.4083
 1085SOL     OW14713   3.808   2.433   8.409  0.4108  0.2550  0.7551
 1085SOL    HW114714   3.747   2.369   8.373  1.4371  0.0114 -0.5455
 1085SOL    HW214715   3.789   2.409   8.500  0.9392  0.7161  0.9883
 1086SOL     OW14716   0.225   4.030   1.758  0.6420 -0.3945 -0.4023
 1086SOL    HW114717   0.168   4.091   1.804 -2.7988 -3.0363 -1.1426
 1086SOL    HW214718   0.172   4.006   1.682  0.6631 -0.3156 -0.4419
 1087SOL     OW14719   3.172   1.588  14.360  0.1749  0.7834 -0.2758
 1087SOL    HW114720   3.078   1.584  14.345  0.1841  1.1923 -0.4589
 1087SOL    HW214721   3.193   1.671  14.316 -0.1817 -0.1307 -2.1524
 1088SOL     OW14722   0.902   0.964   7.513  0.1044 -0.4848  0.7410
 1088SOL    HW114723   0.842   1.037   7.496  0.0429 -0.8715 -0.7210
 1088SOL    HW214724   0.843   0.889   7.507  0.3711 -0.6214 -0.1573
 1089SOL     OW14725   2.094   0.075   6.430  0.2148  0.4624 -0.1098
 1089SOL    HW114726   2.028   0.054   6.496 -1.2473 -0.8192 -1.9859
 1089SOL    HW214727   2.167   0.014   6.438 -0.7983 -0.4446  2.4340
 1090SOL     OW14728   0.511   3.219   3.117  0.0237  0.2376  0.3765
 1090SOL    HW114729   0.492   3.125   3.122 -3.0599  0.9378  1.4864
 1090SOL    HW214730   0.603   3.214   3.143 -0.5683 -1.8542  2.0636
 1091SOL     OW14731   1.809   2.717   4.842 -0.1150 -0.2848 -0.6949
 1091SOL    HW114732   1.744   2.738   4.909 -0.2949  0.9895 -1.2574
 1091SOL    HW214733   1.888   2.761   4.873 -0.7786  0.9288 -0.7267
 1092SOL     OW14734   1.139   2.817   4.797  0.3048 -0.3239  0.1294
 1092SOL    HW114735   1.228   2.841   4.770  0.2919 -1.5527 -0.9751
 1092SOL    HW214736   1.085   2.861   4.732 -1.5098  0.3132  2.0914
 1093SOL     OW14737   0.636   3.811   3.650 -0.3831  0.5424 -0.3953
 1093SOL    HW114738   0.542   3.798   3.667 -0.2640 -0.1725 -0.2876
 1093SOL    HW214739   0.632   3.819   3.555  0.6118  0.1072 -0.4687
 1094SOL     OW14740   4.298   0.976  10.999 -0.3342  0.3439  0.2531
 1094SOL    HW114741   4.291   0.928  11.082  0.8324  0.3943  0.3842
 1094SOL    HW214742   4.389   0.954  10.979 -0.9687 -1.2750 -0.8726
 1095SOL     OW14743   2.234   1.855   6.416  0.0894  0.0655  0.0298
 1095SOL    HW114744   2.308   1.884   6.362  0.0083 -2.7509 -1.5945
 1095SOL    HW214745   2.276   1.772   6.441  0.0740  0.0250 -0.0787
 1096SOL     OW14746   4.309   2.732   2.010  0.2265 -0.5881 -0.6742
 1096SOL    HW114747   4.393   2.744   1.966  0.7830  1.9001  1.0730
 1096SOL    HW214748   4.342   2.677   2.081  1.0530  0.5211 -0.2036
 1097SOL     OW14749   1.287   2.053  10.480 -0.1210 -0.7223 -0.6019
 1097SOL    HW114750   1.346   1.981  10.502  0.0067 -0.7449 -1.0242
 1097SOL    HW214751   1.203   2.011  10.462  0.1401 -1.3624 -0.3365
 1098SOL     OW14752   3.483   0.323  17.664  0.2134  0.2457 -0.4483
 1098SOL    HW114753   3.575   0.337   0.005  0.4969 -1.7011 -0.4082
 1098SOL    HW214754   3.452   0.272   0.058 -0.2537  1.5970  0.2727
 1099SOL     OW14755   3.486   0.589   5.735  0.2882 -0.4962 -0.1205
 1099SOL    HW114756   3.499   0.544   5.651  0.1935  2.3425 -1.6426
 1099SOL    HW214757   3.482   0.677   5.699 -0.6340 -0.4557  0.0619
 1100SOL     OW14758   3.086   3.940   7.909  0.0139  0.1819 -0.2905
 1100SOL    HW114759   3.082   4.010   7.974  0.1042  1.5759 -1.7854
 1100SOL    HW214760   3.003   3.897   7.927  1.1323 -1.6948  0.3879
 1101SOL     OW14761   2.048   2.754  15.194  0.0412  0.4813 -0.6173
 1101SOL    HW114762   2.059   2.804  15.113  0.3260  0.6390 -0.4820
 1101SOL    HW214763   2.139   2.743  15.223 -0.1352  0.0862 -0.2231
 1102SOL     OW14764   3.020   2.870   1.110 -0.0031  0.0255 -0.4185
 1102SOL    HW114765   3.079   2.943   1.128  1.9004 -1.8977  1.1222
 1102SOL    HW214766   2.975   2.910   1.035 -0.8194  0.6969  0.4288
 1103SOL     OW14767   1.569   3.291   4.438 -0.8838  0.4171 -0.0268
 1103SOL    HW114768   1.653   3.335   4.427 -1.4036  2.0363  2.5189
 1103SOL    HW214769   1.519   3.317   4.361  0.4144  0.5803 -0.8197
 1104SOL     OW14770   0.153   4.239   7.714  0.3376  0.2854 -0.6629
 1104SOL    HW114771   0.138   4.245   7.809 -0.0172  1.0876 -0.7706
 1104SOL    HW214772   0.066   4.217   7.682  0.5421 -0.5589 -0.6405
 1105SOL     OW14773   4.330   4.238   6.905  0.0829 -0.1266  0.0232
 1105SOL    HW114774   4.280   4.294   6.964 -1.2152 -0.8755 -0.3479
 1105SOL    HW214775   4.288   4.255   6.821  0.6582 -1.5175 -0.5518
 1106SOL     OW14776   1.126   3.060   8.243  0.0972 -0.3632 -0.6885
 1106SOL    HW114777   1.090   3.097   8.162 -0.1286  2.5616  0.7647
 1106SOL    HW214778   1.122   3.140   8.295  0.6497 -1.1388  0.5289
 1107SOL     OW14779   4.553   4.394  13.625 -0.4536  0.5600 -0.1105
 1107SOL    HW114780   4.538   4.455  13.696  1.7938 -1.8242  2.4177
 1107SOL    HW214781   4.507   4.319  13.663  1.7817 -1.4495 -1.3587
 1108SOL     OW14782   1.662   0.206  16.944 -0.0676  0.3460 -0.1861
 1108SOL    HW114783   1.609   0.193  17.022  0.2289 -0.5903 -0.1371
 1108SOL    HW214784   1.596   0.182  16.879  0.2756  0.2034 -0.4857
 1109SOL     OW14785   4.349   1.325   9.399  0.0076 -0.1270  0.0156
 1109SOL    HW114786   4.266   1.289   9.431 -0.9378  1.2485 -0.8933
 1109SOL    HW214787   4.350   1.411   9.442 -2.0299 -0.5419  0.8654
 1110SOL     OW14788   2.737   0.284   7.268  0.0376  0.1722  0.0029
 1110SOL    HW114789   2.712   0.261   7.178  0.5995 -1.5999  0.3208
 1110SOL    HW214790   2.752   0.204   7.317  1.1556 -0.5950 -1.6225
 1111SOL     OW14791   0.276   4.007   8.338 -0.0666  0.4072 -0.0813
 1111SOL    HW114792   0.353   3.970   8.380 -1.2282 -0.2539  1.4938
 1111SOL    HW214793   0.211   3.999   8.408  0.8473  0.5827  0.7867
 1112SOL     OW14794   0.425   4.403  12.706  0.1095  0.6562 -0.0910
 1112SOL    HW114795   0.477   4.367  12.634  0.3022 -2.4674  1.6384
 1112SOL    HW214796   0.479   4.376  12.780 -0.5155 -0.0570  0.0993
 1113SOL     OW14797   2.253   1.558   2.904  0.0182 -0.4024  0.3378
 1113SOL    HW114798   2.192   1.486   2.891 -0.6598  0.1437  0.4780
 1113SOL    HW214799   2.203   1.640   2.909  0.3907 -0.0072 -2.3743
 1114SOL     OW14800   1.616   0.798   3.852  0.0191 -0.1062  0.4301
 1114SOL    HW114801   1.635   0.785   3.945 -1.9833  1.0711  1.0186
 1114SOL    HW214802   1.686   0.856   3.823  0.2452 -1.1411 -1.1059
 1115SOL     OW14803   3.327   4.297  11.076 -0.0695  1.0871 -0.0535
 1115SOL    HW114804   3.328   4.243  10.996 -0.2281  0.5877  0.2860
 1115SOL    HW214805   3.297   4.235  11.143  0.3355 -0.0804 -0.9383
 1116SOL     OW14806   2.711   3.576   6.062 -0.2046  0.1303  0.2322
 1116SOL    HW114807   2.689   3.668   6.069  1.0293  0.5677 -1.4511
 1116SOL    HW214808   2.624   3.537   6.053 -1.3253  2.6238  0.3291
 1117SOL     OW14809   3.302   4.669  17.669 -0.3202  0.3650 -0.3340
 1117SOL    HW114810   3.254   4.633   0.063 -0.0585 -1.4251 -1.0299
 1117SOL    HW214811   3.364   0.009   0.031  1.2573 -2.1072  0.8732
 1118SOL     OW14812   0.437   2.367   8.222 -0.1474 -0.1901 -0.6951
 1118SOL    HW114813   0.473   2.379   8.134 -0.1930 -0.6696 -0.7792
 1118SOL    HW214814   0.499   2.305   8.260  0.2837  1.7966  1.8945
 1119SOL     OW14815   2.943   3.192   2.719  0.0495 -0.5255  0.5154
 1119SOL    HW114816   2.894   3.245   2.657  1.2828 -0.1434 -0.1160
 1119SOL    HW214817   3.021   3.245   2.734  1.3351 -2.5050  0.8274
 1120SOL     OW14818   0.561   4.646   4.894 -0.0915 -0.4006 -0.4617
 1120SOL    HW114819   0.554   4.570   4.835 -2.2736 -0.3279 -0.3117
 1120SOL    HW214820   0.652   4.640   4.920  0.1575 -0.6376 -1.3799
 1121SOL     OW14821   1.872   0.636   6.776 -0.2049  0.3590  0.1258
 1121SOL    HW114822   1.846   0.692   6.704 -1.7348 -1.2041 -0.5304
 1121SOL    HW214823   1.829   0.560   6.736  1.0480  0.2195 -0.9417
 1122SOL     OW14824   2.870   4.009   5.829 -0.0768  0.3999 -0.0241
 1122SOL    HW114825   2.781   4.022   5.863  1.0845  1.1309  2.7138
 1122SOL    HW214826   2.920   4.035   5.906  1.2281 -0.9372 -0.4192
 1123SOL     OW14827   2.325   4.531   7.111 -0.2569 -0.3365 -0.3987
 1123SOL    HW114828   2.330   4.436   7.105  0.8203 -0.2591 -0.7111
 1123SOL    HW214829   2.410   4.560   7.145 -0.9127  0.5077  0.5677
 1124SOL     OW14830   4.222   0.655   6.437 -0.5100 -0.8739 -0.0699
 1124SOL    HW114831   4.292   0.709   6.474  1.5500 -2.8434 -1.0782
 1124SOL    HW214832   4.267   0.571   6.443 -0.0444 -0.6022  0.2105
 1125SOL     OW14833   2.490   4.035   3.577  0.2578 -0.1910  0.9025
 1125SOL    HW114834   2.438   4.101   3.532  1.2716  0.2774  0.4109
 1125SOL    HW214835   2.443   3.956   3.552 -0.6153  0.7686 -0.4575
 1126SOL     OW14836   0.770   3.978   8.393 -0.1522  0.1641  0.0781
 1126SOL    HW114837   0.859   3.955   8.420 -1.3953 -3.7270  0.8726
 1126SOL    HW214838   0.792   3.982   8.300 -0.7217  1.0768 -0.0188
 1127SOL     OW14839   1.494   3.843   5.024 -0.2599  0.4763  0.3137
 1127SOL    HW114840   1.425   3.908   5.009  0.6187  2.3415  4.3358
 1127SOL    HW214841   1.546   3.870   4.948 -0.1121 -0.1742  0.1835
 1128SOL     OW14842   4.141   0.643  17.549  0.1458 -0.1154 -0.3174
 1128SOL    HW114843   4.237   0.648  17.543  0.1592  0.5078  0.3234
 1128SOL    HW214844   4.115   0.728  17.513 -1.0349  0.0608  0.9544
 1129SOL     OW14845   3.946   3.485   3.808 -0.0468 -0.2307  0.0029
 1129SOL    HW114846   3.878   3.552   3.814 -0.0247 -0.1917 -0.1773
 1129SOL    HW214847   3.955   3.465   3.715 -1.2927 -1.4891  0.1650
 1130SOL     OW14848   2.459   3.921   2.265 -0.3565  0.6395 -0.0937
 1130SOL    HW114849   2.531   3.886   2.316 -0.2439  1.2348  0.1569
 1130SOL    HW214850   2.388   3.903   2.327  1.8960 -1.7854  1.7558
 1131SOL     OW14851   3.432   0.519   5.465  0.2464  0.0504 -0.9363
 1131SOL    HW114852   3.403   0.443   5.414  0.1648 -0.4458 -0.1515
 1131SOL    HW214853   3.378   0.587   5.424 -0.6895 -0.3772 -0.4295
 1132SOL     OW14854   2.754   2.770  15.774  0.2731 -0.4899  0.3191
 1132SOL    HW114855   2.731   2.838  15.711 -1.1907 -1.2028  0.0839
 1132SOL    HW214856   2.667   2.733  15.791 -0.2066 -0.9256 -3.0755
 1133SOL     OW14857   1.200   4.032   1.387  0.2456 -0.2941  0.0560
 1133SOL    HW114858   1.167   3.961   1.331  0.9066 -0.1478 -0.5247
 1133SOL    HW214859   1.178   4.111   1.337  0.5338  0.1064  0.5753
 1134SOL     OW14860   2.250   2.814   7.880  0.3543 -0.3741 -0.0217
 1134SOL    HW114861   2.210   2.892   7.841  0.4193 -0.8854 -1.1040
 1134SOL    HW214862   2.170   2.761   7.881 -0.9171  1.5428 -0.8513
 1135SOL     OW14863   3.271   1.754   6.518 -0.0535  0.0718 -0.5187
 1135SOL    HW114864   3.212   1.828   6.509  0.6390  1.0153  2.7057
 1135SOL    HW214865   3.267   1.754   6.614  0.6921 -2.6152 -0.4739
 1136SOL     OW14866   0.251   1.389   6.036 -0.1378  0.0162 -0.2252
 1136SOL    HW114867   0.293   1.466   5.997  0.0489 -0.3016 -0.6430
 1136SOL    HW214868   0.322   1.333   6.067  0.4708  0.7565 -0.2494
 1137SOL     OW14869   2.984   1.406   7.204  0.0983 -0.1328  0.5836
 1137SOL    HW114870   2.954   1.496   7.194  0.1076 -0.2410 -0.4668
 1137SOL    HW214871   2.929   1.361   7.139  0.6831  1.0255 -0.7071
 1138SOL     OW14872   1.415   4.180  17.134 -0.2038  0.7690  0.4561
 1138SOL    HW114873   1.372   4.184  17.220  0.9378  2.3110  0.9566
 1138SOL    HW214874   1.406   4.268  17.100 -1.9274  0.0320 -1.0128
 1139SOL     OW14875   0.067   4.451   5.453 -0.1740  0.6160  0.4768
 1139SOL    HW114876   0.125   4.453   5.529 -0.8046 -2.3174  1.0076
 1139SOL    HW214877   4.701   4.469   5.491  0.2172  1.9665  0.7217
 1140SOL     OW14878   2.972   4.718   4.467 -0.3101 -0.6760 -0.2668
 1140SOL    HW114879   3.023   0.078   4.482 -1.8148  0.3811 -0.7713
 1140SOL    HW214880   3.030   4.676   4.403 -1.6007 -1.2724 -1.0438
 1141SOL     OW14881   1.275   2.433   7.512 -0.2548 -0.2948 -0.1353
 1141SOL    HW114882   1.268   2.339   7.530 -0.5300  0.2414  2.5342
 1141SOL    HW214883   1.199   2.453   7.458 -0.1507 -2.4936 -1.1153
 1142SOL     OW14884   1.126   2.593   5.472  0.5273  0.0985  0.0359
 1142SOL    HW114885   1.107   2.678   5.432 -2.0699 -0.3617  0.2768
 1142SOL    HW214886   1.039   2.561   5.493  0.8437  0.3653  1.7456
 1143SOL     OW14887   2.450   0.228   1.103  0.0388 -0.3185 -0.4820
 1143SOL    HW114888   2.409   0.185   1.177 -1.6419  3.5354  0.8326
 1143SOL    HW214889   2.530   0.175   1.094 -0.0442 -0.3987 -0.7576
 1144SOL     OW14890   2.218   0.653   1.481  0.2834 -0.9779 -0.2266
 1144SOL    HW114891   2.157   0.655   1.407  0.0835  1.1314 -0.0009
 1144SOL    HW214892   2.158   0.645   1.555 -0.0944  0.7550 -0.3646
 1145SOL     OW14893   3.630   2.763  14.200 -0.4175 -0.4162  0.1649
 1145SOL    HW114894   3.549   2.808  14.174 -1.8260 -2.5640  0.8119
 1145SOL    HW214895   3.694   2.820  14.158 -0.5071  0.1327  0.7685
 1146SOL     OW14896   3.461   3.017   4.499 -0.1151 -0.0885 -0.2630
 1146SOL    HW114897   3.551   3.047   4.497 -0.0163 -0.4054 -0.6026
 1146SOL    HW214898   3.481   2.932   4.460  1.7919  1.5227 -2.8086
 1147SOL     OW14899   0.632   1.416  12.279 -0.7520  0.1849 -0.1075
 1147SOL    HW114900   0.712   1.447  12.236 -0.7180  0.9684  0.5245
 1147SOL    HW214901   0.576   1.407  12.202  0.6746  0.0034 -1.1309
 1148SOL     OW14902   0.544   3.550   2.112 -0.1831 -0.0614  0.5406
 1148SOL    HW114903   0.460   3.513   2.086  0.4640 -1.5768  0.5452
 1148SOL    HW214904   0.613   3.508   2.059 -2.3808 -4.1318  0.8548
 1149SOL     OW14905   3.647   4.078   7.033 -0.3421  0.2218  0.1444
 1149SOL    HW114906   3.615   4.038   7.114 -1.0394  1.4478  0.4796
 1149SOL    HW214907   3.736   4.103   7.057 -1.2967  3.5419  0.1708
 1150SOL     OW14908   2.768   0.171   3.572 -0.3019  0.4152 -0.9730
 1150SOL    HW114909   2.707   0.109   3.612 -0.1080  0.0565 -1.2338
 1150SOL    HW214910   2.778   0.230   3.646 -0.1633 -2.4980  1.2980
 1151SOL     OW14911   3.121   2.231   5.231 -0.1413 -0.1008  0.1311
 1151SOL    HW114912   3.026   2.222   5.242 -0.1095 -0.9914 -0.2771
 1151SOL    HW214913   3.122   2.323   5.207 -1.2852 -0.1748 -0.2058
 1152SOL     OW14914   0.330   0.497   7.734 -0.1815 -0.2695 -0.2195
 1152SOL    HW114915   0.312   0.561   7.802  1.0919 -0.3136  0.1598
 1152SOL    HW214916   0.279   0.420   7.759 -1.6926  1.1455  1.0639
 1153SOL     OW14917   1.018   2.628   4.964 -0.4030 -0.8074 -0.2136
 1153SOL    HW114918   1.098   2.606   5.012 -1.3627 -0.3394  1.6257
 1153SOL    HW214919   1.056   2.666   4.885 -2.5651 -2.2104 -1.9176
 1154SOL     OW14920   3.924   4.642  11.866 -0.4356 -0.0885  0.3292
 1154SOL    HW114921   3.833   4.652  11.841  0.0756  3.3453 -0.1425
 1154SOL    HW214922   3.963   0.010  11.863 -1.4139  0.2465 -2.6194
 1155SOL     OW14923   1.375   3.639   8.001 -0.4805  0.1283 -0.0534
 1155SOL    HW114924   1.284   3.610   8.010 -1.0022  2.1449  1.3256
 1155SOL    HW214925   1.379   3.716   8.059  0.7753 -1.5377  2.0753
 1156SOL     OW14926   1.067   1.449  16.479  0.0560  0.9236 -0.1157
 1156SOL    HW114927   1.105   1.377  16.428 -0.3332  0.6213  0.0262
 1156SOL    HW214928   1.015   1.495  16.413  0.9999  2.3023  0.0946
 1157SOL     OW14929   1.181   3.959   9.294 -0.4607  0.2973 -0.0008
 1157SOL    HW114930   1.120   3.916   9.234  1.5536 -1.5368 -0.7464
 1157SOL    HW214931   1.221   3.881   9.332  2.0503  0.7382 -1.7283
 1158SOL     OW14932   4.157   2.975  17.018  0.5300  0.3744  0.3654
 1158SOL    HW114933   4.098   2.948  16.947  1.8176 -1.7598  0.1453
 1158SOL    HW214934   4.226   2.910  17.005 -1.4181 -1.8954  1.3190
 1159SOL     OW14935   1.773   3.199   3.613  0.2575 -0.6916 -0.5561
 1159SOL    HW114936   1.702   3.238   3.563  1.7345 -0.7184 -2.6825
 1159SOL    HW214937   1.843   3.263   3.597 -1.3520  1.5842  1.5640
 1160SOL     OW14938   0.729   0.641   4.494 -0.5800 -0.5375 -0.3748
 1160SOL    HW114939   0.669   0.712   4.517 -0.2637 -0.7917  1.2436
 1160SOL    HW214940   0.807   0.674   4.541  1.1851 -1.3247 -2.7521
 1161SOL     OW14941   2.963   1.863   3.685  0.8503 -0.5885 -0.6315
 1161SOL    HW114942   2.871   1.891   3.680  1.5013  1.1767 -2.4285
 1161SOL    HW214943   2.951   1.791   3.623  1.9582  0.3454 -1.9343
 1162SOL     OW14944   2.620   4.672   3.201  0.5133  0.0973 -0.0558
 1162SOL    HW114945   2.599   0.010   3.275 -2.7879 -0.0694 -0.8630
 1162SOL    HW214946   2.706   4.705   3.178  1.1343 -0.6586  1.2014
 1163SOL     OW14947   3.810   1.605  17.636  0.8235  0.2526  0.3477
 1163SOL    HW114948   3.727   1.559  17.647  1.1303 -0.4140 -0.1459
 1163SOL    HW214949   3.856   1.541  17.582 -0.0678  1.0156 -1.3522
 1164SOL     OW14950   3.117   4.047   4.691 -0.2728  0.1707 -0.2826
 1164SOL    HW114951   3.146   4.017   4.605  0.7871  1.5170 -0.4079
 1164SOL    HW214952   3.076   3.971   4.731 -2.5703  2.4206  1.6733
 1165SOL     OW14953   2.864   4.619  16.740  0.1166  0.2189 -0.2740
 1165SOL    HW114954   2.776   4.618  16.703 -0.2519 -2.3164  0.7025
 1165SOL    HW214955   2.897   4.538  16.701  0.8015  0.3451  0.0349
 1166SOL     OW14956   2.884   2.709   5.878 -0.6040 -0.8958  0.0515
 1166SOL    HW114957   2.834   2.689   5.957  0.8265 -0.4891  1.0467
 1166SOL    HW214958   2.886   2.804   5.878 -1.9955 -0.8528 -1.7400
 1167SOL     OW14959   3.545   3.737   6.964 -0.0693  0.2667  0.5850
 1167SOL    HW114960   3.480   3.668   6.979  0.4832 -0.7428 -1.6415
 1167SOL    HW214961   3.539   3.745   6.869  1.3402  1.0764  0.5691
 1168SOL     OW14962   2.234   1.682  13.552  0.4552  0.2252 -0.4774
 1168SOL    HW114963   2.209   1.721  13.469  0.6474  2.2008  0.3874
 1168SOL    HW214964   2.159   1.624  13.562 -0.3038  1.0582 -1.3951
 1169SOL     OW14965   3.517   2.430  10.486  0.3559  0.3627  0.5470
 1169SOL    HW114966   3.542   2.493  10.553 -0.1845  0.4244  0.6864
 1169SOL    HW214967   3.440   2.482  10.466 -0.0972  0.3032  2.1295
 1170SOL     OW14968   4.621   2.538   3.307  0.5911  0.6558 -0.0739
 1170SOL    HW114969   4.534   2.577   3.307  1.0680  1.7147  1.3546
 1170SOL    HW214970   4.616   2.470   3.375 -1.5209 -0.0107 -0.8942
 1171SOL     OW14971   2.483   2.338  12.654  0.9108 -0.1617  0.2631
 1171SOL    HW114972   2.557   2.363  12.710  0.4060  0.0865  0.8313
 1171SOL    HW214973   2.457   2.423  12.618 -0.0471 -1.3484 -1.8290
 1172SOL     OW14974   1.982   2.013   8.891 -0.6607  0.0649 -0.2347
 1172SOL    HW114975   1.922   1.938   8.888 -0.7491  0.1740 -1.1520
 1172SOL    HW214976   1.971   2.051   8.804 -0.6464  1.0266  0.1928
 1173SOL     OW14977   2.286   2.778   8.932  0.6624  0.4356  0.4461
 1173SOL    HW114978   2.242   2.826   9.002 -0.3841 -0.1360  0.1775
 1173SOL    HW214979   2.378   2.804   8.941  0.8975 -1.0119  2.1125
 1174SOL     OW14980   3.824   3.862   3.176 -0.2931 -0.2527 -0.1529
 1174SOL    HW114981   3.758   3.870   3.106 -1.3461  2.6434  1.1588
 1174SOL    HW214982   3.782   3.796   3.231 -2.3941 -1.0679 -2.7486
 1175SOL     OW14983   0.146   1.507   8.561 -0.1384  0.2377  0.4955
 1175SOL    HW114984   0.126   1.550   8.644  1.1490 -0.5854  1.2247
 1175SOL    HW214985   0.129   1.579   8.500 -0.4435  1.3917  1.9256
 1176SOL     OW14986   3.432   4.131   4.459  0.2820 -0.1022  0.4454
 1176SOL    HW114987   3.403   4.066   4.396  2.4307 -2.9808  2.4317
 1176SOL    HW214988   3.496   4.080   4.509  2.6302  0.9609 -1.4559
 1177SOL     OW14989   4.267   3.449   6.998 -0.1244 -0.0364 -0.1855
 1177SOL    HW114990   4.192   3.496   6.961  0.3130  0.5633 -0.3055
 1177SOL    HW214991   4.331   3.485   6.936 -0.0804  1.6955  0.8738
 1178SOL     OW14992   0.007   3.349   6.201  0.0729  0.2629 -0.3185
 1178SOL    HW114993   0.049   3.410   6.261  0.4765  0.2080 -0.5446
 1178SOL    HW214994   0.075   3.322   6.139  1.6806  0.1680  1.4729
 1179SOL     OW14995   0.030   2.252   8.495  0.0605  0.6759 -0.4320
 1179SOL    HW114996   4.663   2.293   8.494 -0.3525 -0.2349 -1.1006
 1179SOL    HW214997   0.062   2.276   8.408 -0.8183 -2.2256 -1.5376
 1180SOL     OW14998   2.825   3.429   8.871  0.5953  0.4555 -0.2564
 1180SOL    HW114999   2.914   3.428   8.907  0.1456  0.6915  0.8810
 1180SOL    HW215000   2.842   3.475   8.789  2.2763  0.2119 -0.0341
 1181SOL     OW15001   2.578   1.103   5.448  0.3564  0.5792  0.2772
 1181SOL    HW115002   2.531   1.186   5.449 -0.5362  0.0736 -0.1416
 1181SOL    HW215003   2.506   1.043   5.464  0.3395  0.3825 -0.5182
 1182SOL     OW15004   1.240   0.667   9.472 -0.2569  0.3018 -0.4671
 1182SOL    HW115005   1.151   0.681   9.440 -0.3592 -0.4391 -0.5204
 1182SOL    HW215006   1.279   0.754   9.470  0.6348 -0.1060 -1.1005
 1183SOL     OW15007   2.719   3.217   3.385  0.2239 -0.7296  0.0034
 1183SOL    HW115008   2.779   3.163   3.334  0.4333 -0.2136 -0.2998
 1183SOL    HW215009   2.688   3.276   3.316 -0.8718  0.5297  1.5564
 1184SOL     OW15010   0.863   2.135   1.856 -0.2491 -0.9322  0.8853
 1184SOL    HW115011   0.883   2.110   1.946  0.5530 -0.3676  0.8661
 1184SOL    HW215012   0.767   2.131   1.853 -0.3061  1.3331 -1.1779
 1185SOL     OW15013   1.104   2.250  15.086 -0.2220  0.5261 -0.1167
 1185SOL    HW115014   1.191   2.237  15.124 -1.0191  0.9915  1.8684
 1185SOL    HW215015   1.093   2.341  15.112  2.4910  0.3253  1.6793
 1186SOL     OW15016   2.533   4.249   6.450  0.2532 -0.2428  0.0453
 1186SOL    HW115017   2.498   4.316   6.391 -0.7185 -1.0744 -0.3204
 1186SOL    HW215018   2.465   4.184   6.433 -0.4185  0.5129 -0.1969
 1187SOL     OW15019   0.215   0.877   5.231  0.3164 -0.0164 -0.1483
 1187SOL    HW115020   0.290   0.901   5.176  0.6685 -1.1037 -0.1253
 1187SOL    HW215021   0.255   0.810   5.286  2.0626  0.6160 -0.6228
 1188SOL     OW15022   0.989   1.453   3.279  0.0053 -0.2372  0.3364
 1188SOL    HW115023   1.044   1.484   3.351  0.1601  0.4848 -0.0889
 1188SOL    HW215024   0.997   1.535   3.230  1.5050 -0.0425  0.9079
 1189SOL     OW15025   1.356   3.211   6.169 -0.2022 -0.3822  0.1510
 1189SOL    HW115026   1.378   3.138   6.111 -0.7460 -0.6094  0.2268
 1189SOL    HW215027   1.378   3.190   6.260  0.6597 -0.4611 -0.0758
 1190SOL     OW15028   2.299   2.614   6.474 -0.2483 -0.3066 -0.5123
 1190SOL    HW115029   2.243   2.564   6.414  1.3428 -3.0971  0.2981
 1190SOL    HW215030   2.343   2.679   6.421 -1.1216  1.5874  1.0946
 1191SOL     OW15031   4.713   3.296   4.084  0.2710 -0.3764 -0.0103
 1191SOL    HW115032   4.646   3.336   4.027  1.2935 -1.1953 -1.7965
 1191SOL    HW215033   4.680   3.208   4.096  0.2103 -0.3429  0.0629
 1192SOL     OW15034   2.408   1.379   5.490  0.3599  0.0219  0.2933
 1192SOL    HW115035   2.465   1.442   5.445  0.6925  0.9676  2.0106
 1192SOL    HW215036   2.425   1.409   5.579 -0.0534 -1.0749  0.7410
 1193SOL     OW15037   3.619   2.616   7.965  0.3776  0.4826 -0.3185
 1193SOL    HW115038   3.610   2.708   7.940 -0.7210  0.4333 -0.1273
 1193SOL    HW215039   3.666   2.614   8.048  1.5265  1.0531 -0.9625
 1194SOL     OW15040   3.698   2.313  17.063 -0.4706  0.1316  0.3664
 1194SOL    HW115041   3.772   2.298  17.004 -1.9206 -4.0413 -0.4207
 1194SOL    HW215042   3.649   2.382  17.019 -1.9965 -1.8457 -1.0066
 1195SOL     OW15043   0.095   1.678   4.755  0.0827  0.7481  0.3698
 1195SOL    HW115044   0.129   1.687   4.666 -0.6791  2.9860  0.2969
 1195SOL    HW215045   0.175   1.709   4.798  0.1210  0.0417  0.7918
 1196SOL     OW15046   0.528   1.466   7.092 -0.4060 -0.2011 -0.2494
 1196SOL    HW115047   0.433   1.475   7.098 -0.3816  0.0620 -0.2652
 1196SOL    HW215048   0.535   1.397   7.026 -0.9633 -0.1002 -0.4141
 1197SOL     OW15049   2.247   4.096   7.376  0.3759 -0.5938  0.3081
 1197SOL    HW115050   2.163   4.118   7.336  0.2657 -1.0943  0.2630
 1197SOL    HW215051   2.264   4.035   7.304  0.1616  0.2075 -0.4269
 1198SOL     OW15052   2.854   4.484  12.733 -0.3501 -0.1759 -0.2914
 1198SOL    HW115053   2.905   4.448  12.660  1.2783 -2.3726  1.8633
 1198SOL    HW215054   2.769   4.499  12.693  0.1910 -2.4808 -2.3462
 1199SOL     OW15055   4.508   2.304   5.078 -0.2243 -0.3129 -0.2661
 1199SOL    HW115056   4.587   2.290   5.131  1.1895  2.8477 -1.5591
 1199SOL    HW215057   4.525   2.394   5.051 -0.8502 -0.5485 -1.4579
 1200SOL     OW15058   3.954   4.019   9.277 -0.1241  0.3320 -0.4009
 1200SOL    HW115059   3.960   4.113   9.261  5.3152  0.4072  1.9944
 1200SOL    HW215060   4.042   3.983   9.271 -0.4600 -0.7984  1.3668
 1201SOL     OW15061   2.654   0.940  12.748 -0.3245  0.0600 -0.1763
 1201SOL    HW115062   2.724   0.886  12.712  0.0899 -1.1545  2.4642
 1201SOL    HW215063   2.699   0.957  12.831  1.0312 -2.6412 -0.3524
 1202SOL     OW15064   0.715   2.792   3.782  0.0631 -0.0907  0.2682
 1202SOL    HW115065   0.786   2.729   3.769  0.2783 -0.2510  2.2359
 1202SOL    HW215066   0.642   2.737   3.811 -1.0443  0.4637 -1.4430
 1203SOL     OW15067   3.793   0.900  10.511 -0.0366  0.7256  0.0936
 1203SOL    HW115068   3.834   0.872  10.429  1.2797  0.5622  0.7991
 1203SOL    HW215069   3.869   0.880  10.566 -0.9404 -1.1763  0.6545
 1204SOL     OW15070   3.835   3.210  11.023 -0.2929 -0.2627  0.0601
 1204SOL    HW115071   3.756   3.245  11.065 -0.4253 -0.4476 -0.0319
 1204SOL    HW215072   3.837   3.119  11.052 -1.8351 -0.3080  0.0356
 1205SOL     OW15073   4.390   2.498   0.013  0.5612  0.3960  0.0236
 1205SOL    HW115074   4.383   2.500   0.108  0.2568 -1.5433  0.0379
 1205SOL    HW215075   4.372   2.406  17.675  0.4724  0.7322 -1.5669
 1206SOL     OW15076   4.020   4.097  17.191  0.1076  0.5565 -0.2866
 1206SOL    HW115077   4.004   4.027  17.128 -1.6974  0.8810 -0.1796
 1206SOL    HW215078   4.110   4.072  17.211 -0.1446  1.0039  1.4270
 1207SOL     OW15079   1.297   4.501   4.232  0.1071 -0.0601 -0.2484
 1207SOL    HW115080   1.204   4.522   4.237  0.1518  0.3140 -0.9306
 1207SOL    HW215081   1.289   4.448   4.152  2.8815 -0.9808  0.0978
 1208SOL     OW15082   3.166   2.967  17.675 -0.2485  0.5876  0.2535
 1208SOL    HW115083   3.148   2.952   0.087 -2.1306 -0.1169 -0.2129
 1208SOL    HW215084   3.238   3.028   0.011 -2.3035  2.8931  0.6610
 1209SOL     OW15085   2.501   3.796  14.604 -0.5820 -0.0574 -0.3395
 1209SOL    HW115086   2.545   3.728  14.553 -0.3807 -1.0605  1.1508
 1209SOL    HW215087   2.541   3.879  14.577 -0.1009  0.4779  1.9878
 1210SOL     OW15088   2.011   2.026   5.616  0.5085 -0.9435  0.1972
 1210SOL    HW115089   2.062   1.945   5.623  0.4244 -1.0907 -0.9041
 1210SOL    HW215090   1.963   2.003   5.536  3.7874 -0.9020 -1.7812
 1211SOL     OW15091   3.364   0.510  13.462  0.6274 -0.1231  0.1280
 1211SOL    HW115092   3.340   0.424  13.427  2.8737 -0.5915 -0.2265
 1211SOL    HW215093   3.276   0.540  13.486 -0.8852 -3.3913 -1.2008
 1212SOL     OW15094   3.847   4.493   2.494 -0.4834 -0.4586  0.2542
 1212SOL    HW115095   3.865   4.490   2.400 -1.3795 -2.8547  0.1775
 1212SOL    HW215096   3.934   4.464   2.521  0.5125  1.8943 -0.3757
 1213SOL     OW15097   0.697   2.529   4.540  0.0164  0.8124  0.5276
 1213SOL    HW115098   0.755   2.604   4.522 -0.3667  0.6290 -1.5314
 1213SOL    HW215099   0.713   2.497   4.628  0.2686 -3.7017 -1.1714
 1214SOL     OW15100   3.862   4.512   6.135 -0.2470  0.2615 -0.8470
 1214SOL    HW115101   3.787   4.453   6.136  0.7386 -0.9542  0.2301
 1214SOL    HW215102   3.924   4.480   6.069  0.1344  0.0831 -0.3991
 1215SOL     OW15103   2.618   2.025   4.236 -0.1267 -0.6092 -0.3047
 1215SOL    HW115104   2.539   2.079   4.231 -1.4875 -2.7978 -3.0272
 1215SOL    HW215105   2.611   1.977   4.153  0.5316 -0.9417 -0.1687
 1216SOL     OW15106   0.334   4.623   6.292 -0.1288 -0.0012  0.2595
 1216SOL    HW115107   0.320   4.528   6.284 -0.3900 -0.2443  3.8938
 1216SOL    HW215108   0.345   4.635   6.386 -0.1641  0.2222  0.2338
 1217SOL     OW15109   3.392   3.699   5.451 -0.2787  0.5145  0.0087
 1217SOL    HW115110   3.417   3.700   5.358 -1.7544  0.6238 -0.3860
 1217SOL    HW215111   3.312   3.750   5.444 -0.2585  0.3255 -1.7565
 1218SOL     OW15112   2.492   3.294  17.323  0.4448 -0.5276 -0.2500
 1218SOL    HW115113   2.443   3.217  17.351  0.5321 -0.2668  0.6269
 1218SOL    HW215114   2.432   3.368  17.331 -0.8604 -1.9341  2.6894
 1219SOL     OW15115   1.381   3.867  17.312 -0.2463 -0.2037  0.2702
 1219SOL    HW115116   1.353   3.956  17.336  0.1976  0.3206 -1.1522
 1219SOL    HW215117   1.476   3.876  17.319 -0.1036 -0.2093 -1.6179
 1220SOL     OW15118   2.011   2.370   8.508 -0.1391 -0.2152 -0.4033
 1220SOL    HW115119   2.013   2.360   8.413 -1.0451 -0.2763 -0.4098
 1220SOL    HW215120   2.054   2.454   8.523  0.1199 -0.2619 -0.8856
 1221SOL     OW15121   2.651   0.816   1.114 -0.3715 -0.4822 -0.1238
 1221SOL    HW115122   2.723   0.870   1.145  0.4197 -0.5534 -1.8074
 1221SOL    HW215123   2.575   0.872   1.130 -1.1321 -1.3800 -0.5884
 1222SOL     OW15124   3.389   0.092   1.981  0.0510  0.1935 -0.0693
 1222SOL    HW115125   3.354   0.159   2.040  0.2434 -0.6627  1.0264
 1222SOL    HW215126   3.430   0.152   1.919 -0.4072  0.8628  0.2720
 1223SOL     OW15127   1.006   0.938   8.650 -0.3692  0.1220  0.2868
 1223SOL    HW115128   0.966   0.915   8.734  0.4712  0.4195  0.7706
 1223SOL    HW215129   1.018   0.846   8.624 -2.3726 -0.0053 -0.2092
 1224SOL     OW15130   2.316   0.304   6.581  0.0313 -0.0901  0.0639
 1224SOL    HW115131   2.258   0.238   6.542  1.8064 -1.9638  0.5772
 1224SOL    HW215132   2.384   0.242   6.609  0.3805 -0.3289 -1.2953
 1225SOL     OW15133   4.071   2.156   2.868  0.0417  0.0695 -0.2471
 1225SOL    HW115134   4.009   2.085   2.878  0.7662 -0.2914  1.7023
 1225SOL    HW215135   4.035   2.227   2.815  1.2238  0.2660 -0.7871
 1226SOL     OW15136   1.235   0.901  10.873 -0.1461  0.1229 -0.6927
 1226SOL    HW115137   1.310   0.960  10.881  1.8958 -2.2174 -2.5827
 1226SOL    HW215138   1.225   0.857  10.957 -2.9417  2.8492  0.4375
 1227SOL     OW15139   4.565   0.815   2.851 -0.2951 -0.5515 -0.1895
 1227SOL    HW115140   4.479   0.790   2.817 -0.1445 -0.3747 -0.7049
 1227SOL    HW215141   4.571   0.910   2.857 -1.6458 -0.4624 -0.3709
 1228SOL     OW15142   1.103   2.649  13.493 -0.6104 -0.1656 -0.0403
 1228SOL    HW115143   1.165   2.600  13.439  0.4482  1.9753 -0.7532
 1228SOL    HW215144   1.143   2.638  13.579 -0.3263  0.7328 -0.0672
 1229SOL     OW15145   1.903   0.231   6.701 -0.0005  0.1548  0.3712
 1229SOL    HW115146   1.972   0.269   6.756  0.0080 -1.0674  1.2178
 1229SOL    HW215147   1.866   0.302   6.649 -0.0929  0.7952  1.3039
 1230SOL     OW15148   1.143   3.268   6.934 -0.0104 -0.5124 -0.2168
 1230SOL    HW115149   1.212   3.220   6.980 -0.0735  1.2708  1.7630
 1230SOL    HW215150   1.142   3.219   6.852 -0.3777  2.9979 -2.2867
 1231SOL     OW15151   1.082   1.882  11.916  0.4721  0.3512  0.2351
 1231SOL    HW115152   1.085   1.978  11.916  0.4555  0.3531 -0.5132
 1231SOL    HW215153   1.143   1.859  11.845 -0.2949  0.3168 -0.4177
 1232SOL     OW15154   1.833   2.431   2.429 -0.3527  0.2040  0.0436
 1232SOL    HW115155   1.880   2.361   2.475 -1.7060  0.6886  2.1683
 1232SOL    HW215156   1.748   2.424   2.472 -1.1145 -1.0769 -1.7005
 1233SOL     OW15157   2.801   1.317   5.449 -0.0118 -0.6298 -0.2638
 1233SOL    HW115158   2.842   1.232   5.434 -0.4919 -1.2064  1.6872
 1233SOL    HW215159   2.732   1.329   5.383  2.4467 -2.2803 -3.1312
 1234SOL     OW15160   4.480   3.931   3.372  0.1818 -0.4172 -0.5349
 1234SOL    HW115161   4.538   4.001   3.342 -0.0553 -0.4848 -1.1353
 1234SOL    HW215162   4.546   3.870   3.405 -1.2295 -1.5905  0.1331
 1235SOL     OW15163   0.106   3.250   3.209  0.1092 -0.0133  0.4744
 1235SOL    HW115164   0.029   3.304   3.188 -0.0836  0.0703  1.4163
 1235SOL    HW215165   0.159   3.329   3.216  0.6093 -0.4624  1.6229
 1236SOL     OW15166   4.697   3.291  15.002  0.0917  0.0011 -0.1554
 1236SOL    HW115167   0.057   3.257  14.961  0.0279 -0.2747 -0.0523
 1236SOL    HW215168   4.695   3.228  15.074  0.3844 -1.3419 -1.3352
 1237SOL     OW15169   3.174   4.341  16.169 -0.2567 -0.2922  0.2979
 1237SOL    HW115170   3.089   4.384  16.157 -0.4914 -1.0348 -0.7161
 1237SOL    HW215171   3.231   4.418  16.156 -0.3870 -0.4739 -1.2961
 1238SOL     OW15172   1.693   3.911  12.837  0.1683 -0.0524  0.5079
 1238SOL    HW115173   1.675   3.821  12.865 -1.4740  0.1950  0.2023
 1238SOL    HW215174   1.612   3.942  12.798 -0.8112 -0.7785  1.9824
 1239SOL     OW15175   0.109   2.538   3.633  0.1045 -0.2098  0.0709
 1239SOL    HW115176   0.062   2.462   3.598 -0.0182 -0.6796  1.2445
 1239SOL    HW215177   0.030   2.587   3.656  0.7595  1.6037 -1.6401
 1240SOL     OW15178   2.234   3.454   3.297 -0.6757  0.0896 -0.2747
 1240SOL    HW115179   2.257   3.525   3.238 -2.6819 -0.7746 -2.1036
 1240SOL    HW215180   2.277   3.479   3.379 -0.3209  0.8822 -0.7085
 1241SOL     OW15181   3.921   3.794  14.810  0.2878  0.4934  0.3071
 1241SOL    HW115182   3.956   3.732  14.747  1.4366  1.9270 -0.4764
 1241SOL    HW215183   3.885   3.735  14.876 -1.5300  0.4023 -0.7680
 1242SOL     OW15184   0.757   0.390   2.832  0.0401 -0.6512 -0.7393
 1242SOL    HW115185   0.746   0.323   2.899 -0.1265 -0.4665 -0.5795
 1242SOL    HW215186   0.671   0.432   2.835 -0.0799 -0.9481 -0.0692
 1243SOL     OW15187   3.804   2.840   9.170  0.4095 -0.3995  0.1922
 1243SOL    HW115188   3.711   2.846   9.196  0.5764 -0.3558  0.7958
 1243SOL    HW215189   3.792   2.800   9.084  1.9886 -1.7067  0.5862
 1244SOL     OW15190   1.128   2.132   3.196 -0.0982  0.4631 -0.0828
 1244SOL    HW115191   1.045   2.180   3.202  0.8639  2.1279 -0.0757
 1244SOL    HW215192   1.158   2.151   3.107  0.1151 -1.6244 -0.4613
 1245SOL     OW15193   0.942   2.098  10.503  0.5427 -0.2860  0.1298
 1245SOL    HW115194   0.857   2.068  10.536  0.5477  2.7419  2.9638
 1245SOL    HW215195   0.964   2.142  10.585 -0.2471  1.3776 -0.5548
 1246SOL     OW15196   3.512   1.475   3.516  0.1878  0.3455  0.0146
 1246SOL    HW115197   3.482   1.390   3.484  0.8040 -0.8163  2.5113
 1246SOL    HW215198   3.600   1.472   3.479 -0.0802  1.3839 -0.6821
 1247SOL     OW15199   4.100   2.531   5.721 -0.0745 -0.4482 -0.5675
 1247SOL    HW115200   4.080   2.459   5.661 -2.1939 -0.0172 -0.3851
 1247SOL    HW215201   4.139   2.470   5.784 -0.8912 -0.7707 -0.3746
 1248SOL     OW15202   2.290   4.287  16.596  0.2033  0.1436 -0.2779
 1248SOL    HW115203   2.216   4.306  16.653  0.4158  1.2243 -0.3456
 1248SOL    HW215204   2.320   4.202  16.627 -1.5309 -0.7802 -1.1360
 1249SOL     OW15205   1.150   0.998   4.974 -0.3658 -0.4275 -0.1355
 1249SOL    HW115206   1.163   0.915   5.019 -1.8421 -0.2784  0.5808
 1249SOL    HW215207   1.227   1.043   5.009 -1.8168  1.3326  0.8221
 1250SOL     OW15208   2.942   2.494   7.415  0.1350  0.3713  0.0760
 1250SOL    HW115209   2.874   2.527   7.475 -2.0555 -0.0399 -2.2036
 1250SOL    HW215210   2.973   2.425   7.474 -0.7524 -2.3571 -2.6805
 1251SOL     OW15211   1.101   3.755   6.294 -0.3320  0.2619  0.0057
 1251SOL    HW115212   1.178   3.773   6.241 -0.6661 -1.2967 -1.0092
 1251SOL    HW215213   1.140   3.678   6.336  0.6893  0.4832 -0.5310
 1252SOL     OW15214   0.373   0.499  14.816 -0.2802  0.4779 -0.1811
 1252SOL    HW115215   0.439   0.494  14.885 -0.3044 -0.2905 -0.2193
 1252SOL    HW215216   0.335   0.583  14.843 -1.8010 -0.3159  0.0842
 1253SOL     OW15217   1.363   1.901  13.218  0.3672 -0.3149 -0.1343
 1253SOL    HW115218   1.420   1.978  13.217 -3.0882  2.2521 -1.3250
 1253SOL    HW215219   1.423   1.830  13.240 -2.3207 -2.2364  1.0408
 1254SOL     OW15220   1.989   2.690   7.028  0.1500  0.6804 -0.4716
 1254SOL    HW115221   1.984   2.759   7.095 -0.0235  0.6772 -0.4815
 1254SOL    HW215222   1.947   2.620   7.078 -2.2564  2.5644  0.1663
 1255SOL     OW15223   3.787   2.086   3.496  0.2730  0.1117  0.1902
 1255SOL    HW115224   3.870   2.058   3.457 -0.1676  0.2018 -0.8156
 1255SOL    HW215225   3.747   2.119   3.416 -0.9783 -1.0585  0.3256
 1256SOL     OW15226   4.700   0.613   5.789  0.9258  0.1652  0.1890
 1256SOL    HW115227   4.687   0.621   5.694  1.8109 -0.4675  0.0116
 1256SOL    HW215228   4.649   0.687   5.824 -1.6506 -1.5470  0.0071
 1257SOL     OW15229   4.159   0.027   8.555 -0.2915 -0.0499 -0.5707
 1257SOL    HW115230   4.214   4.697   8.494 -0.7501 -0.9269 -0.2744
 1257SOL    HW215231   4.213   4.717   8.629  0.5522  1.0786 -0.7391
 1258SOL     OW15232   4.042   0.322   4.008 -0.1118  0.4316  0.1499
 1258SOL    HW115233   3.957   0.286   4.035  0.2530 -1.0536 -0.6536
 1258SOL    HW215234   4.006   0.379   3.940 -0.8302 -1.3207 -0.9394
 1259SOL     OW15235   4.250   1.005   7.340 -0.3247  0.1182 -0.3706
 1259SOL    HW115236   4.227   1.070   7.407  1.5572 -2.1610  2.4605
 1259SOL    HW215237   4.340   1.034   7.328  0.6477 -1.9335  2.0448
 1260SOL     OW15238   3.783   1.125   3.981  0.1671 -0.1034  0.1387
 1260SOL    HW115239   3.804   1.170   3.900 -3.4785  2.3446  0.5740
 1260SOL    HW215240   3.873   1.111   4.013 -0.2787  0.7853  1.7731
 1261SOL     OW15241   0.400   3.882   5.069  0.3924 -0.2710  0.2342
 1261SOL    HW115242   0.381   3.843   4.984 -0.5582  2.2541 -0.6763
 1261SOL    HW215243   0.469   3.820   5.095  0.3870  0.7276  2.7096
 1262SOL     OW15244   1.187   3.718   2.049  0.7632 -0.9228  0.4169
 1262SOL    HW115245   1.222   3.744   1.964  1.3619 -0.9306  0.6599
 1262SOL    HW215246   1.210   3.625   2.057  0.2292 -1.1886 -1.1314
 1263SOL     OW15247   1.180   2.670  15.812  0.5183 -0.3980 -0.0044
 1263SOL    HW115248   1.244   2.698  15.876 -1.3007 -0.5123  1.8820
 1263SOL    HW215249   1.157   2.754  15.773  1.7053  0.7413  1.7787
 1264SOL     OW15250   3.205   0.783   4.680  0.0327 -0.5245  0.0051
 1264SOL    HW115251   3.138   0.843   4.645  2.3626  1.4955 -0.9849
 1264SOL    HW215252   3.168   0.757   4.765  1.1334  0.7785  0.8892
 1265SOL     OW15253   3.855   2.064   2.569  0.2757 -0.4947 -0.1880
 1265SOL    HW115254   3.792   2.001   2.535 -0.7094  0.8476 -0.7969
 1265SOL    HW215255   3.798   2.119   2.622 -0.9822 -0.2635 -1.8174
 1266SOL     OW15256   1.869   3.526   3.226 -0.4308 -0.0565 -0.1264
 1266SOL    HW115257   1.905   3.565   3.306 -0.0578 -1.3935  0.3526
 1266SOL    HW215258   1.949   3.537   3.174 -0.8818  1.0091 -0.5940
 1267SOL     OW15259   3.485   1.368   0.733  0.1115  0.4470  0.0415
 1267SOL    HW115260   3.463   1.452   0.694  3.7084  1.8971  1.1443
 1267SOL    HW215261   3.396   1.334   0.741  0.9482 -1.6165  0.7585
 1268SOL     OW15262   3.241   4.087   6.934 -0.4123 -0.0839 -0.4378
 1268SOL    HW115263   3.237   4.016   6.869  0.1212 -0.3147 -0.2173
 1268SOL    HW215264   3.320   4.134   6.909 -0.3261  0.5860  1.0705
 1269SOL     OW15265   1.621   2.157  10.789 -0.5778  0.0593  0.0001
 1269SOL    HW115266   1.655   2.246  10.799 -0.0619 -0.2814  1.3017
 1269SOL    HW215267   1.578   2.143  10.873 -1.4074  2.1981 -0.0543
 1270SOL     OW15268   2.468   1.734   1.799  0.3052  0.1438 -0.0227
 1270SOL    HW115269   2.454   1.795   1.871  1.1310  0.3835 -0.0694
 1270SOL    HW215270   2.454   1.655   1.852  0.2188 -1.5959 -2.6623
 1271SOL     OW15271   0.838   0.633   3.675  0.7985  0.3404 -0.3358
 1271SOL    HW115272   0.933   0.619   3.677  0.7489  0.0755  0.1133
 1271SOL    HW215273   0.824   0.635   3.580  1.8020  0.7492 -0.4745
 1272SOL     OW15274   3.355   0.484   6.264 -0.0643  0.1089 -0.2021
 1272SOL    HW115275   3.444   0.473   6.297 -0.0468 -0.0546 -0.3042
 1272SOL    HW215276   3.373   0.535   6.185  2.0843 -0.6810 -0.2198
 1273SOL     OW15277   3.433   1.018  14.710  0.1992 -0.2623  0.3031
 1273SOL    HW115278   3.357   0.962  14.694 -1.0620  1.8658 -1.2375
 1273SOL    HW215279   3.433   1.087  14.644  1.4817  0.4073  0.9988
 1274SOL     OW15280   3.758   1.338   0.743 -0.0767 -0.1821  0.6387
 1274SOL    HW115281   3.773   1.418   0.793  1.1462 -0.8466  1.3348
 1274SOL    HW215282   3.663   1.325   0.740 -0.5975  3.8612 -0.2867
 1275SOL     OW15283   0.768   0.146  16.962 -0.2838 -0.6041 -0.6478
 1275SOL    HW115284   0.759   0.221  16.903  0.2297 -2.5141 -3.1731
 1275SOL    HW215285   0.692   0.162  17.018  0.8456  2.0799  0.0823
 1276SOL     OW15286   2.982   2.332  12.884 -0.3225 -0.2141  0.4032
 1276SOL    HW115287   3.037   2.389  12.937 -1.1028  2.0618 -1.2042
 1276SOL    HW215288   3.028   2.249  12.896 -3.8336 -2.5477 -2.1117
 1277SOL     OW15289   3.585   2.356   0.376  0.1160  1.1691 -0.4697
 1277SOL    HW115290   3.654   2.365   0.311  1.1351 -0.8938  0.3396
 1277SOL    HW215291   3.588   2.442   0.419 -0.9584  0.1331  1.6621
 1278SOL     OW15292   3.870   3.321  15.442  0.4030 -0.0879  0.0043
 1278SOL    HW115293   3.942   3.341  15.503  1.7301 -1.3487 -1.1469
 1278SOL    HW215294   3.827   3.259  15.500 -0.4440 -0.5817 -1.1807
 1279SOL     OW15295   2.693   4.429  17.314  0.0211 -0.0853 -0.5505
 1279SOL    HW115296   2.672   4.502  17.372 -0.2710  0.5211 -1.4207
 1279SOL    HW215297   2.765   4.470  17.267 -0.2328 -1.5479 -2.2354
 1280SOL     OW15298   4.361   3.096   9.219 -0.2229 -0.0261  0.2016
 1280SOL    HW115299   4.403   3.016   9.248 -0.5847 -0.7220 -1.2033
 1280SOL    HW215300   4.276   3.069   9.185 -0.6436 -0.0325  1.2459
 1281SOL     OW15301   1.325   1.975   6.259  0.6488 -0.3859  0.2247
 1281SOL    HW115302   1.389   1.909   6.286  1.4113  0.4238  0.4065
 1281SOL    HW215303   1.316   1.961   6.165 -1.4826  0.1141  0.3648
 1282SOL     OW15304   0.995   1.426  11.666 -0.3914  0.2611  0.2520
 1282SOL    HW115305   1.022   1.517  11.679  0.1615  0.5002 -2.3845
 1282SOL    HW215306   1.018   1.389  11.751 -0.0813  0.6164  0.3192
 1283SOL     OW15307   0.229   4.115   2.223 -0.8634  0.0200 -0.0375
 1283SOL    HW115308   0.250   4.024   2.241  3.1402  1.1966  1.2461
 1283SOL    HW215309   0.163   4.106   2.155 -0.4808  0.3249 -0.4470
 1284SOL     OW15310   3.523   2.461   6.905  0.1936 -0.5992 -0.0561
 1284SOL    HW115311   3.607   2.498   6.879  0.8503 -0.1112  2.7571
 1284SOL    HW215312   3.493   2.516   6.977 -1.7873 -0.2601 -1.1371
 1285SOL     OW15313   3.158   0.234  14.350  1.2539 -0.4602 -0.2568
 1285SOL    HW115314   3.222   0.189  14.294 -0.2513 -1.2116 -1.3866
 1285SOL    HW215315   3.115   0.287  14.283  0.2729  0.4257  1.0774
 1286SOL     OW15316   4.335   4.171   8.013 -0.0471 -0.0632 -0.5835
 1286SOL    HW115317   4.367   4.188   7.924 -1.0676  0.9927 -0.7582
 1286SOL    HW215318   4.296   4.084   8.006 -0.7715  0.1693  0.6136
 1287SOL     OW15319   4.551   0.178   6.775  0.4107  0.5677 -0.5640
 1287SOL    HW115320   4.617   0.135   6.721  0.8523 -0.3654  0.7106
 1287SOL    HW215321   4.503   0.243   6.723  0.3740  1.2131  0.2704
 1288SOL     OW15322   3.290   1.110   0.450 -0.1020  0.3456 -0.3869
 1288SOL    HW115323   3.276   1.181   0.513 -2.6312 -0.9047  0.4434
 1288SOL    HW215324   3.233   1.047   0.493 -3.7631  1.9639 -2.8566
 1289SOL     OW15325   2.682   3.540  11.908 -0.0760  0.2676  0.0198
 1289SOL    HW115326   2.596   3.559  11.944 -0.2655 -1.9949  0.7830
 1289SOL    HW215327   2.695   3.453  11.946 -0.2986 -0.4894 -1.6161
 1290SOL     OW15328   1.514   3.992   9.311  0.3117  0.3739 -0.3457
 1290SOL    HW115329   1.438   3.970   9.366 -0.0560  1.9633 -0.2307
 1290SOL    HW215330   1.524   4.083   9.338 -2.3290  0.6713 -0.3076
 1291SOL     OW15331   0.296   0.942  15.876  0.0338  0.5453 -0.1169
 1291SOL    HW115332   0.314   0.945  15.782 -0.2164 -1.5001 -0.2354
 1291SOL    HW215333   0.368   0.999  15.904  1.8376 -0.6183 -2.3715
 1292SOL     OW15334   3.621   1.461  13.105 -0.0016 -0.0329 -0.0387
 1292SOL    HW115335   3.655   1.381  13.145 -0.4328 -0.5050 -0.6213
 1292SOL    HW215336   3.659   1.532  13.156 -1.0528  0.8043 -0.4083
 1293SOL     OW15337   1.413   3.622  12.779  0.0886 -0.7021  0.0990
 1293SOL    HW115338   1.341   3.638  12.839 -0.2486 -1.1590 -0.1856
 1293SOL    HW215339   1.393   3.678  12.704 -2.0446 -0.4608  0.8615
 1294SOL     OW15340   2.273   3.966  17.674 -0.7259  0.0806  0.3053
 1294SOL    HW115341   2.208   4.015   0.042 -1.0965  1.3224 -1.4348
 1294SOL    HW215342   2.357   4.011   0.005 -1.1051  0.8243  0.1332
 1295SOL     OW15343   4.032   2.074   0.026 -0.7606 -0.3901 -0.2010
 1295SOL    HW115344   4.098   2.030   0.080  0.5101 -1.1847 -2.3963
 1295SOL    HW215345   3.960   2.011   0.024 -0.6237 -0.5785  0.6589
 1296SOL     OW15346   0.982   0.992   6.333 -0.2237 -0.2468  0.2500
 1296SOL    HW115347   1.054   0.932   6.351  0.9187  1.2916  0.8131
 1296SOL    HW215348   0.987   1.045   6.413 -0.7386  2.1139 -1.2816
 1297SOL     OW15349   3.564   0.632   5.155 -0.1418  0.3082 -0.0364
 1297SOL    HW115350   3.632   0.576   5.119 -0.4258 -0.6939  0.9686
 1297SOL    HW215351   3.483   0.581   5.153 -0.1174  0.1697  1.9244
 1298SOL     OW15352   4.233   1.879   4.288  0.1648 -0.2450 -0.1454
 1298SOL    HW115353   4.228   1.888   4.193 -3.1216 -3.7834 -0.3003
 1298SOL    HW215354   4.217   1.972   4.306 -0.2406 -0.6420  1.5467
 1299SOL     OW15355   4.162   0.494   4.611 -0.4383 -0.5048  0.1665
 1299SOL    HW115356   4.109   0.462   4.684 -0.3855 -0.7121  0.1128
 1299SOL    HW215357   4.191   0.409   4.580 -0.3783  0.1628 -1.6023
 1300SOL     OW15358   2.998   0.190   2.906  0.0880  0.3293  0.5186
 1300SOL    HW115359   3.082   0.167   2.944  0.1628  1.5044  1.0395
 1300SOL    HW215360   3.024   0.263   2.850 -0.9403 -0.6311 -1.2194
 1301SOL     OW15361   2.357   0.531  13.705  0.3254 -0.6382 -0.3905
 1301SOL    HW115362   2.301   0.464  13.743  0.1174 -0.8723 -1.1243
 1301SOL    HW215363   2.412   0.489  13.639  0.6302 -1.7654  0.5864
 1302SOL     OW15364   0.331   3.477   4.298 -0.5316 -0.1613  0.7284
 1302SOL    HW115365   0.369   3.456   4.213 -3.5180 -1.2638 -0.3412
 1302SOL    HW215366   0.271   3.406   4.319 -0.6943 -0.6710 -1.5484
 1303SOL     OW15367   1.514   1.831  10.473  0.4686  0.5218 -0.5910
 1303SOL    HW115368   1.553   1.836  10.561  0.7451 -1.2317 -0.6008
 1303SOL    HW215369   1.538   1.743  10.443 -1.7001 -0.5936  0.8842
 1304SOL     OW15370   3.537   3.072   3.699 -0.0595 -0.3535 -0.6261
 1304SOL    HW115371   3.466   3.090   3.637 -0.2138 -0.2356 -0.4157
 1304SOL    HW215372   3.554   3.155   3.744  0.0841 -1.9898  2.3248
 1305SOL     OW15373   4.475   0.407   0.977  0.2160 -0.5859  0.7444
 1305SOL    HW115374   4.529   0.457   0.916 -0.8388 -1.1950 -0.6915
 1305SOL    HW215375   4.518   0.437   1.057  0.3035  0.8815  0.1453
 1306SOL     OW15376   3.567   0.733   3.791  1.0795 -0.6497  0.0662
 1306SOL    HW115377   3.642   0.757   3.846 -0.5336 -0.8518  2.3466
 1306SOL    HW215378   3.565   0.799   3.721 -1.3561  1.7462  2.3965
 1307SOL     OW15379   0.728   2.035   6.828 -0.4861  0.1944 -0.5256
 1307SOL    HW115380   0.669   2.097   6.784  0.1994 -0.5613 -2.4903
 1307SOL    HW215381   0.728   2.064   6.919  1.6236 -0.5305 -0.2989
 1308SOL     OW15382   3.267   4.218   9.181  0.7021  0.5802  0.1326
 1308SOL    HW115383   3.357   4.191   9.199  0.6254  0.6202  0.5819
 1308SOL    HW215384   3.234   4.132   9.206  0.4952  1.1975  2.0220
 1309SOL     OW15385   4.591   4.427   9.055  0.7265 -0.8249  0.1568
 1309SOL    HW115386   4.600   4.511   9.009 -1.5462 -2.1752 -2.7523
 1309SOL    HW215387   4.679   4.417   9.091  1.2672 -0.6555 -1.0866
 1310SOL     OW15388   4.648   3.560   7.162  0.1090 -0.2826  0.2049
 1310SOL    HW115389   4.556   3.539   7.179 -0.0571  2.0288  2.1363
 1310SOL    HW215390   4.667   3.636   7.217  0.4047 -0.2962  0.1217
 1311SOL     OW15391   2.203   0.484   8.795 -0.2308  0.0469 -0.4503
 1311SOL    HW115392   2.141   0.411   8.792 -0.3250  0.0603  1.0275
 1311SOL    HW215393   2.264   0.442   8.856  0.6821  3.0201  0.6665
 1312SOL     OW15394   3.597   2.476  15.321 -0.2234  0.1318 -0.2145
 1312SOL    HW115395   3.608   2.496  15.228  0.3421  0.5191 -0.0649
 1312SOL    HW215396   3.503   2.463  15.330 -0.0966 -0.6675 -0.0332
 1313SOL     OW15397   4.411   2.072   5.937 -0.5685 -0.1681 -0.4347
 1313SOL    HW115398   4.392   2.019   6.014 -0.6301  0.4777 -0.0070
 1313SOL    HW215399   4.331   2.044   5.891 -0.9103 -0.0596  0.0923
 1314SOL     OW15400   2.552   0.795   2.374  0.0107  0.4190  0.4137
 1314SOL    HW115401   2.617   0.787   2.444  2.2544 -0.2182 -1.7572
 1314SOL    HW215402   2.479   0.755   2.422  0.7412  0.9740  1.9998
 1315SOL     OW15403   0.569   2.517   9.150 -0.1246  0.1100 -0.2171
 1315SOL    HW115404   0.583   2.437   9.099  0.1237  0.2165 -0.3179
 1315SOL    HW215405   0.579   2.581   9.079  1.7001  0.9172  0.7769
 1316SOL     OW15406   1.189   2.769   6.366  0.1854 -0.1422 -0.1785
 1316SOL    HW115407   1.115   2.751   6.308  0.2561 -0.3101 -0.2162
 1316SOL    HW215408   1.236   2.686   6.372 -1.7852 -1.3540 -1.4139
 1317SOL     OW15409   1.020   2.526   8.241  0.0304 -0.6235  0.1442
 1317SOL    HW115410   1.063   2.588   8.300  0.5905 -2.2294  1.4274
 1317SOL    HW215411   0.939   2.509   8.289 -0.5225  0.9962 -0.2180
 1318SOL     OW15412   2.268   3.559  11.529 -0.5166  0.0079 -0.3998
 1318SOL    HW115413   2.249   3.492  11.463 -0.5680  1.7668 -2.1622
 1318SOL    HW215414   2.319   3.510  11.595  0.1452  0.2130 -0.7597
 1319SOL     OW15415   4.279   4.406  12.717  0.1384  0.2887  0.1209
 1319SOL    HW115416   4.305   4.466  12.787  4.8037 -1.4056 -0.1322
 1319SOL    HW215417   4.330   4.330  12.744 -1.1759 -0.4468  0.5351
 1320SOL     OW15418   0.859   3.559   1.651  0.1654 -0.1123 -0.2875
 1320SOL    HW115419   0.826   3.571   1.740  0.9075 -0.2865  0.0170
 1320SOL    HW215420   0.866   3.649   1.619  1.2929  0.2596  0.9864
 1321SOL     OW15421   4.217   4.565   1.912 -0.7626 -0.5128  0.1103
 1321SOL    HW115422   4.233   4.494   1.850  0.4080  0.6089 -0.8655
 1321SOL    HW215423   4.305   4.593   1.938 -0.9360  0.8384 -0.7685
 1322SOL     OW15424   1.659   1.037   5.395 -1.1195  0.5414  0.4834
 1322SOL    HW115425   1.584   1.070   5.345 -0.0433  2.3819  0.0789
 1322SOL    HW215426   1.703   0.969   5.344 -0.4346  0.4546  1.2057
 1323SOL     OW15427   4.426   0.798   6.537 -0.0328  0.3485 -0.1392
 1323SOL    HW115428   4.469   0.878   6.507  0.1751  1.5120  3.3470
 1323SOL    HW215429   4.499   0.737   6.539 -1.4339 -1.2642  1.2292
 1324SOL     OW15430   3.370   1.463   7.581 -0.5578  0.5519  0.7422
 1324SOL    HW115431   3.318   1.542   7.562 -0.5062  0.2968 -0.4822
 1324SOL    HW215432   3.421   1.451   7.501 -1.0158  2.4706  0.1561
 1325SOL     OW15433   4.634   0.261   5.172 -0.2656  0.1865  0.7147
 1325SOL    HW115434   4.661   0.187   5.118 -1.5948 -0.3794  0.8054
 1325SOL    HW215435   4.638   0.227   5.261  0.4083  0.0900  0.6404
 1326SOL     OW15436   2.514   3.624   6.302 -0.1204 -0.1670  0.1269
 1326SOL    HW115437   2.588   3.683   6.293 -1.0751  1.2829  1.7124
 1326SOL    HW215438   2.436   3.678   6.317 -0.6948 -1.3161  1.2677
 1327SOL     OW15439   1.852   4.361   6.423  0.0680 -0.2041  0.0246
 1327SOL    HW115440   1.824   4.452   6.414 -1.5575 -0.1886  5.2669
 1327SOL    HW215441   1.948   4.366   6.423  0.0518  0.0668  2.9514
 1328SOL     OW15442   0.860   3.963  15.448 -0.0920  0.3780 -0.2965
 1328SOL    HW115443   0.790   3.929  15.504 -1.0372 -0.0076 -1.7205
 1328SOL    HW215444   0.921   3.996  15.514  1.9966 -0.8120 -1.6286
 1329SOL     OW15445   4.447   1.022  13.055  0.5158  0.1805 -0.0068
 1329SOL    HW115446   4.501   0.986  12.986  1.3841  2.6266 -0.6074
 1329SOL    HW215447   4.381   0.953  13.065  1.3929 -0.5341  0.8463
 1330SOL     OW15448   0.186   3.642   6.180 -0.1772  0.0831  0.2638
 1330SOL    HW115449   0.271   3.684   6.196 -0.4189  1.0812 -1.0652
 1330SOL    HW215450   0.174   3.597   6.264 -0.2593 -0.6047 -0.1139
 1331SOL     OW15451   2.264   0.728   3.369 -0.2302  0.3099 -0.3549
 1331SOL    HW115452   2.344   0.776   3.389  0.1701 -0.7492  0.6032
 1331SOL    HW215453   2.289   0.637   3.384 -1.2800 -0.1409 -1.3851
 1332SOL     OW15454   4.544   4.175   4.857 -0.0627  0.3139  0.5705
 1332SOL    HW115455   4.585   4.187   4.772 -1.5766  2.5622  0.1731
 1332SOL    HW215456   4.502   4.257   4.880 -0.9060 -0.4896  1.9212
 1333SOL     OW15457   3.616   1.240   4.185  0.2214 -0.0173  0.2643
 1333SOL    HW115458   3.654   1.212   4.101  0.3008 -0.1459  0.3418
 1333SOL    HW215459   3.682   1.212   4.249  0.8771  2.4243  0.6398
 1334SOL     OW15460   1.099   2.018  13.214  0.2745 -0.5968  0.3762
 1334SOL    HW115461   1.111   2.100  13.261 -3.0224 -0.2864  0.6580
 1334SOL    HW215462   1.189   1.987  13.221 -0.4739 -3.3141 -1.9965
 1335SOL     OW15463   2.017   1.155   8.350 -0.3485 -0.0706  0.7255
 1335SOL    HW115464   1.995   1.148   8.257 -4.9579  2.4285  1.6336
 1335SOL    HW215465   1.944   1.205   8.384 -1.2931 -2.2903  1.9598
 1336SOL     OW15466   2.946   4.195   2.735 -0.3535  0.0834 -0.1786
 1336SOL    HW115467   2.989   4.227   2.814  0.2776 -0.3005 -0.3692
 1336SOL    HW215468   3.010   4.218   2.668 -0.1410  0.0680  0.0197
 1337SOL     OW15469   4.349   0.629   2.296  0.4035 -0.0855 -0.3706
 1337SOL    HW115470   4.395   0.552   2.329 -0.2814 -1.5766 -2.8378
 1337SOL    HW215471   4.366   0.697   2.360  1.4024  0.4391 -1.2052
 1338SOL     OW15472   1.385   3.709   8.960 -0.0928 -0.2329  0.2732
 1338SOL    HW115473   1.458   3.677   9.013 -1.0218 -1.6182  0.7179
 1338SOL    HW215474   1.404   3.801   8.977 -0.3151 -0.1225 -0.0727
 1339SOL     OW15475   3.615   4.216   6.463  0.4487 -0.1180 -0.9737
 1339SOL    HW115476   3.702   4.181   6.442  0.7658  1.2538 -2.0046
 1339SOL    HW215477   3.627   4.309   6.441 -0.4899  0.6871  1.8996
 1340SOL     OW15478   0.872   3.941   4.551 -0.1146 -0.0792 -0.1768
 1340SOL    HW115479   0.864   3.868   4.490  0.6561  1.3045 -1.9421
 1340SOL    HW215480   0.805   3.927   4.618 -0.4084  1.5768 -0.1140
 1341SOL     OW15481   4.372   1.433  11.563  0.5431  0.0429 -0.1089
 1341SOL    HW115482   4.449   1.401  11.611  1.6687  0.6322 -1.5144
 1341SOL    HW215483   4.398   1.410  11.474  2.2819 -1.4638  0.7842
 1342SOL     OW15484   3.026   2.839   6.932  0.4836 -0.3780 -0.1387
 1342SOL    HW115485   3.003   2.747   6.920 -1.2363 -0.0593  0.6075
 1342SOL    HW215486   2.946   2.884   6.961  0.7334 -0.0479  0.0425
 1343SOL     OW15487   0.007   1.523   4.158 -0.3224  0.9705 -0.0923
 1343SOL    HW115488   0.025   1.525   4.064  1.7485 -0.5618  0.2446
 1343SOL    HW215489   4.633   1.543   4.156 -0.4987  0.1254 -0.3046
 1344SOL     OW15490   1.330   1.949   7.942 -0.0873  0.1064 -0.1630
 1344SOL    HW115491   1.266   1.925   8.010 -1.7696  1.3683 -1.2954
 1344SOL    HW215492   1.295   2.032   7.910 -2.8470 -0.6367  0.9666
 1345SOL     OW15493   0.275   0.623   4.818 -0.4241  0.0364 -0.0387
 1345SOL    HW115494   0.281   0.661   4.731 -0.3544 -2.2230 -1.0204
 1345SOL    HW215495   0.361   0.652   4.848  0.5379 -1.9405 -0.8869
 1346SOL     OW15496   0.389   3.462   7.418  0.8845 -0.0556 -0.2641
 1346SOL    HW115497   0.467   3.457   7.363  0.2790 -0.5489 -1.0835
 1346SOL    HW215498   0.414   3.457   7.510  0.4250  0.5411 -0.1054
 1347SOL     OW15499   2.273   2.194   3.725  0.0168  0.4973  0.0605
 1347SOL    HW115500   2.232   2.229   3.804  0.8945  0.6735  0.4393
 1347SOL    HW215501   2.316   2.120   3.767 -0.2021  1.6359  2.2918
 1348SOL     OW15502   1.131   3.927  16.757  0.5380  0.1294 -0.1914
 1348SOL    HW115503   1.157   4.006  16.804  0.8316  0.3368 -0.6953
 1348SOL    HW215504   1.049   3.908  16.802 -1.1766  0.6148 -3.1424
 1349SOL     OW15505   0.671   1.198  11.119 -0.1666 -0.2623 -0.2852
 1349SOL    HW115506   0.684   1.170  11.209  1.5297  2.6323  0.3748
 1349SOL    HW215507   0.577   1.217  11.120 -0.0263  0.5078 -0.8401
 1350SOL     OW15508   1.136   3.689   8.865  0.1962  0.2279  0.6617
 1350SOL    HW115509   1.132   3.621   8.797 -1.3285 -0.8188  1.8009
 1350SOL    HW215510   1.226   3.678   8.897 -0.1144  0.2256  1.5178
 1351SOL     OW15511   4.435   3.890   2.361 -0.5420  0.7131 -0.8405
 1351SOL    HW115512   4.404   3.888   2.451 -2.3895 -0.5260 -1.4907
 1351SOL    HW215513   4.433   3.798   2.335 -1.0768  0.1271  1.2608
 1352SOL     OW15514   4.172   2.743   0.453 -0.1154 -0.0382 -0.1917
 1352SOL    HW115515   4.123   2.825   0.447 -1.1946 -0.5152  2.4150
 1352SOL    HW215516   4.199   2.750   0.545 -0.4250 -0.2908 -0.0849
 1353SOL     OW15517   1.386   3.643   2.793  0.7151 -0.0928  0.0660
 1353SOL    HW115518   1.296   3.630   2.825  0.8048 -0.9906 -0.0718
 1353SOL    HW215519   1.377   3.702   2.718  1.9821 -0.7083 -0.5582
 1354SOL     OW15520   4.445   2.435   0.482  0.3210  0.5851 -0.3896
 1354SOL    HW115521   4.356   2.410   0.509  0.7059  1.0260  1.3035
 1354SOL    HW215522   4.429   2.470   0.395  0.3687  0.7618 -0.3275
 1355SOL     OW15523   0.295   3.551   8.148  0.7852  0.5216  0.3472
 1355SOL    HW115524   0.379   3.550   8.194  0.1159 -2.4404  1.4925
 1355SOL    HW215525   0.289   3.469   8.098 -0.3629  1.4743 -1.0838
 1356SOL     OW15526   1.462   0.083   9.039 -0.5501  0.0989  0.0037
 1356SOL    HW115527   1.374   0.107   9.070  0.5240  3.1892  0.7021
 1356SOL    HW215528   1.455   4.709   9.021  0.0392 -0.0137  0.3806
 1357SOL     OW15529   4.106   0.134   2.435 -0.2528  0.1147 -0.1317
 1357SOL    HW115530   4.179   0.076   2.412  2.9502  3.0755  2.6666
 1357SOL    HW215531   4.094   0.168   2.346 -0.1851  0.1028 -0.1454
 1358SOL     OW15532   0.099   1.150   6.155  0.1240 -0.0657 -0.5940
 1358SOL    HW115533   0.137   1.237   6.140  0.1045 -0.0348 -0.4731
 1358SOL    HW215534   0.163   1.090   6.119  0.2331 -0.7668  0.7479
 1359SOL     OW15535   4.001   2.243   4.180 -0.5173  0.8404 -0.9759
 1359SOL    HW115536   3.941   2.202   4.118 -0.2729 -1.7131  0.4734
 1359SOL    HW215537   4.078   2.236   4.124 -0.4254 -0.7542 -0.6505
 1360SOL     OW15538   3.003   1.370   8.803 -0.2906  0.0505 -0.5634
 1360SOL    HW115539   3.071   1.424   8.845  1.6387 -0.2076 -3.3056
 1360SOL    HW215540   3.020   1.410   8.717  1.0258  0.0898 -0.2940
 1361SOL     OW15541   0.459   0.979  15.262 -0.6888 -0.0898 -0.4567
 1361SOL    HW115542   0.424   0.967  15.350  0.2436 -1.0972 -0.2201
 1361SOL    HW215543   0.406   0.915  15.214 -3.1783  2.0411 -0.5540
 1362SOL     OW15544   4.455   2.846   9.286  0.3747  0.2466 -0.1352
 1362SOL    HW115545   4.407   2.786   9.342  0.3686 -0.0329 -0.4403
 1362SOL    HW215546   4.546   2.818   9.294  0.5545  0.4559 -1.3915
 1363SOL     OW15547   0.502   2.377   2.027  0.5523  0.1749 -0.2138
 1363SOL    HW115548   0.534   2.302   1.978 -0.4070 -0.0019 -0.5772
 1363SOL    HW215549   0.460   2.346   2.107  1.7932  3.1422  1.5802
 1364SOL     OW15550   1.671   3.104   4.212 -0.1057 -0.5763  0.0380
 1364SOL    HW115551   1.700   3.021   4.249  1.3883  0.5852  1.4948
 1364SOL    HW215552   1.736   3.165   4.246 -2.4863  1.7736  0.4584
 1365SOL     OW15553   4.386   0.764   0.690  0.3299 -0.0886  0.1591
 1365SOL    HW115554   4.413   0.840   0.742 -2.6668  2.0378 -1.3794
 1365SOL    HW215555   4.468   0.716   0.699  0.7508  0.5785 -0.1130
 1366SOL     OW15556   3.120   0.525   4.132  0.0781  0.0062 -0.6779
 1366SOL    HW115557   3.084   0.441   4.162 -0.6961  1.2581  1.9325
 1366SOL    HW215558   3.115   0.580   4.210 -2.1340 -1.9094  0.5484
 1367SOL     OW15559   2.362   3.619   4.868  0.2113  0.1012  0.2108
 1367SOL    HW115560   2.321   3.661   4.944 -1.2053  2.5181 -1.8428
 1367SOL    HW215561   2.288   3.561   4.850 -0.8515  1.7265 -0.7632
 1368SOL     OW15562   0.434   2.714  10.632  0.2463  0.4192  0.4381
 1368SOL    HW115563   0.528   2.729  10.623  0.2827 -1.6490 -2.3562
 1368SOL    HW215564   0.420   2.630  10.590  0.0062  0.3827  0.5918
 1369SOL     OW15565   2.311   2.889   5.402 -0.1111  0.0097 -0.5224
 1369SOL    HW115566   2.348   2.964   5.448  0.6518 -0.5740 -0.1865
 1369SOL    HW215567   2.328   2.821   5.467  0.2735  0.6918  0.0827
 1370SOL     OW15568   3.424   0.761  16.544  0.5172  0.0002  0.9084
 1370SOL    HW115569   3.428   0.687  16.483  1.3251 -0.2421  1.2561
 1370SOL    HW215570   3.431   0.709  16.623 -1.0456 -0.6096  0.6430
 1371SOL     OW15571   0.820   1.171   5.527  0.3137 -0.1638  0.3396
 1371SOL    HW115572   0.810   1.076   5.514 -0.0633 -0.0956  0.1283
 1371SOL    HW215573   0.895   1.160   5.586 -0.1861 -4.3993  0.2393
 1372SOL     OW15574   2.317   4.067   2.101 -0.4035 -0.0306 -0.1409
 1372SOL    HW115575   2.333   4.010   2.025 -1.8791 -0.9953  0.2580
 1372SOL    HW215576   2.375   4.029   2.167  0.9370  0.8723 -0.8112
 1373SOL     OW15577   1.883   1.352   8.621 -0.7946 -0.0069  0.5626
 1373SOL    HW115578   1.844   1.265   8.625 -2.1703  0.5321 -0.9584
 1373SOL    HW215579   1.945   1.364   8.692  0.8848  1.6062 -1.1731
 1374SOL     OW15580   3.497   2.686   7.635 -0.5149 -0.0169 -0.0684
 1374SOL    HW115581   3.547   2.605   7.637 -0.2534  0.1898  1.4349
 1374SOL    HW215582   3.476   2.694   7.541  0.0195 -0.1699 -0.2002
 1375SOL     OW15583   0.586   0.363   5.374 -0.4827 -0.3021  0.1284
 1375SOL    HW115584   0.577   0.428   5.443 -0.1280  0.8053 -0.8698
 1375SOL    HW215585   0.680   0.367   5.359 -0.1480 -0.5111  2.2189
 1376SOL     OW15586   4.328   1.827  11.664 -0.3485 -0.3787 -0.1373
 1376SOL    HW115587   4.321   1.881  11.585  0.6670 -1.8408 -1.2028
 1376SOL    HW215588   4.279   1.878  11.729  3.2906  1.1399  1.4137
 1377SOL     OW15589   4.380   1.771  12.935 -0.0751  0.2962  0.1035
 1377SOL    HW115590   4.389   1.860  12.902  0.9053  0.7290  1.5272
 1377SOL    HW215591   4.401   1.720  12.856 -2.6045 -0.9095  0.1926
 1378SOL     OW15592   3.119   3.101   1.884 -0.5031  0.1080 -0.0131
 1378SOL    HW115593   3.207   3.139   1.882  0.2644 -1.7368 -1.6181
 1378SOL    HW215594   3.138   3.012   1.855  0.3125  0.3388 -0.1821
 1379SOL     OW15595   2.763   1.172   3.369 -0.0911  0.3315 -0.2265
 1379SOL    HW115596   2.678   1.192   3.331  0.2802  1.3673 -0.5033
 1379SOL    HW215597   2.761   1.077   3.373 -0.5303  0.3703  0.6607
 1380SOL     OW15598   0.815   2.334   8.323 -0.3334 -0.0379 -0.2690
 1380SOL    HW115599   0.895   2.281   8.324  1.1392  2.2074  1.1090
 1380SOL    HW215600   0.772   2.274   8.383 -2.6809  2.8598  0.9492
 1381SOL     OW15601   1.208   2.965   3.275 -0.2383  0.1793  0.0140
 1381SOL    HW115602   1.173   2.919   3.199 -1.9868 -0.8539  1.4349
 1381SOL    HW215603   1.303   2.974   3.268 -0.1111  0.1878  1.7714
 1382SOL     OW15604   3.347   4.588  14.766  0.4529 -0.6605 -0.0360
 1382SOL    HW115605   3.341   4.599  14.671 -0.4369  2.3424  0.3632
 1382SOL    HW215606   3.424   4.643  14.776 -0.2281  0.2402  0.2641
 1383SOL     OW15607   3.219   1.518   7.093 -0.2291 -0.0895  0.0896
 1383SOL    HW115608   3.178   1.486   7.013 -2.7364  0.2724  1.2194
 1383SOL    HW215609   3.170   1.599   7.109 -1.0783 -0.3907 -1.0350
 1384SOL     OW15610   2.419   1.546   4.829 -0.1618 -0.2035  0.2055
 1384SOL    HW115611   2.426   1.622   4.772  1.4210 -0.2545  0.3298
 1384SOL    HW215612   2.382   1.581   4.910  1.1662 -0.1086  0.7701
 1385SOL     OW15613   1.613   3.108   5.407  0.1742 -0.2196  0.1204
 1385SOL    HW115614   1.567   3.126   5.325  2.2915  0.0483 -0.9998
 1385SOL    HW215615   1.656   3.022   5.402  2.2513  0.7758  0.9631
 1386SOL     OW15616   1.967   4.466   8.836 -0.4146 -0.1151  0.4457
 1386SOL    HW115617   2.054   4.441   8.869  0.4926 -0.1981 -2.0159
 1386SOL    HW215618   1.924   4.451   8.920 -0.3520  0.5004  0.5922
 1387SOL     OW15619   1.827   4.551   4.935  0.6229 -0.2195 -0.6208
 1387SOL    HW115620   1.765   4.580   4.869 -2.0279  1.4201  2.5689
 1387SOL    HW215621   1.789   4.574   5.020  1.2048  0.6866 -0.6043
 1388SOL     OW15622   1.405   0.111  16.046 -0.1080  0.8031  0.1764
 1388SOL    HW115623   1.327   0.167  16.047 -0.6601  0.0291  0.8871
 1388SOL    HW215624   1.372   0.042  15.988 -1.9499  1.8842 -0.0630
 1389SOL     OW15625   0.697   4.395   4.218  0.8765 -0.1664  1.0154
 1389SOL    HW115626   0.742   4.477   4.237 -1.2922  1.0914  0.7643
 1389SOL    HW215627   0.647   4.389   4.299  0.2632 -1.5931  0.5220
 1390SOL     OW15628   1.122   4.295   8.304  0.3449  0.1198  0.1306
 1390SOL    HW115629   1.195   4.264   8.250 -1.2512  0.1911 -2.0672
 1390SOL    HW215630   1.064   4.219   8.304 -0.3129  0.6382  1.4403
 1391SOL     OW15631   1.212   1.226   6.437 -0.1867 -0.2402 -0.2943
 1391SOL    HW115632   1.131   1.218   6.487 -0.9584  0.0008 -1.5119
 1391SOL    HW215633   1.239   1.314   6.464  0.7978 -0.9327  0.9785
 1392SOL     OW15634   1.373   0.011  14.433 -0.4509  0.1483  0.2501
 1392SOL    HW115635   1.430   4.657  14.410 -0.6499 -0.4120  1.5388
 1392SOL    HW215636   1.304   0.022  14.367 -0.3070 -0.9929 -0.1074
 1393SOL     OW15637   1.031   1.670   1.736  1.0200  0.0463 -0.1937
 1393SOL    HW115638   1.019   1.765   1.732  1.3247  0.0558 -0.8570
 1393SOL    HW215639   0.949   1.636   1.701  0.4582  0.2805  0.8815
 1394SOL     OW15640   4.185   1.063   5.532 -0.1841  0.0079 -0.3446
 1394SOL    HW115641   4.118   1.012   5.578 -0.1690 -0.6439 -1.0614
 1394SOL    HW215642   4.221   0.990   5.483  0.9055  0.3966 -0.1061
 1395SOL     OW15643   0.932   2.234   7.522  0.4099  0.1633  0.2361
 1395SOL    HW115644   1.025   2.219   7.541  0.9430 -0.0573 -2.5915
 1395SOL    HW215645   0.925   2.156   7.467 -0.9806 -0.2741  1.0243
 1396SOL     OW15646   4.380   1.397   3.799  0.4201 -0.5054  0.3937
 1396SOL    HW115647   4.452   1.411   3.738 -1.5074  1.3499 -1.4858
 1396SOL    HW215648   4.303   1.441   3.761  0.5937  0.5782  1.3199
 1397SOL     OW15649   2.712   1.944   6.875 -0.3194  0.4932 -0.7711
 1397SOL    HW115650   2.661   1.863   6.867  1.1448 -0.4451 -0.6200
 1397SOL    HW215651   2.752   1.944   6.788 -0.7136 -0.1931 -0.9521
 1398SOL     OW15652   1.646   4.573  14.074  0.0411  0.1284  0.0610
 1398SOL    HW115653   1.742   4.574  14.078  0.1268 -1.1318 -1.6258
 1398SOL    HW215654   1.636   4.661  14.039  2.3034 -0.9426 -3.2065
 1399SOL     OW15655   0.811   4.697   2.735 -0.4756 -0.0637  0.2905
 1399SOL    HW115656   0.848   0.066   2.739 -0.5821  0.0460 -1.2233
 1399SOL    HW215657   0.860   4.649   2.801  0.0821  0.6632  0.4140
 1400SOL     OW15658   1.459   0.835   5.639  0.5047  0.4156  0.0351
 1400SOL    HW115659   1.456   0.815   5.546 -0.5929 -1.8861  0.5750
 1400SOL    HW215660   1.478   0.743   5.659 -0.7295  0.5740  1.9394
 1401SOL     OW15661   0.800   2.594   5.204 -0.3448  0.7645 -0.0554
 1401SOL    HW115662   0.798   2.528   5.273 -0.8342  0.3047 -0.5078
 1401SOL    HW215663   0.811   2.542   5.124  1.2345 -1.2284  1.4608
 1402SOL     OW15664   2.622   0.118  14.738  0.0206 -0.3096 -0.2559
 1402SOL    HW115665   2.587   0.206  14.753  0.4928 -0.1147 -0.3114
 1402SOL    HW215666   2.714   0.129  14.762 -0.8191  1.2379  2.3301
 1403SOL     OW15667   2.287   1.642   5.929 -0.2279  0.1261 -0.1499
 1403SOL    HW115668   2.319   1.721   5.971  1.0564 -0.7300  0.5016
 1403SOL    HW215669   2.282   1.578   6.001  1.5284  0.1571  0.0012
 1404SOL     OW15670   3.063   2.104  10.059 -0.2832 -0.4229  0.2965
 1404SOL    HW115671   3.079   2.017  10.024  0.6052  0.8970 -2.5538
 1404SOL    HW215672   2.969   2.110  10.043  0.0069  2.7345 -0.2223
 1405SOL     OW15673   1.855   3.259   5.481  0.3776  0.1416  0.0040
 1405SOL    HW115674   1.837   3.323   5.550  0.9001  2.0759 -1.6417
 1405SOL    HW215675   1.788   3.193   5.499  0.0634  0.9848  1.9405
 1406SOL     OW15676   1.486   0.322   5.322 -1.1156  0.1091 -0.4698
 1406SOL    HW115677   1.521   0.233   5.321 -1.3748  0.0055 -0.0453
 1406SOL    HW215678   1.530   0.352   5.243 -0.4876 -1.5212 -0.7259
 1407SOL     OW15679   4.488   1.282   9.138 -0.0237  0.0114  0.0057
 1407SOL    HW115680   4.532   1.362   9.166  0.4984  0.3463 -1.7897
 1407SOL    HW215681   4.409   1.298   9.189 -0.5834  2.4501 -1.6596
 1408SOL     OW15682   4.118   0.332   7.541  0.0097  0.6978  0.2797
 1408SOL    HW115683   4.183   0.291   7.598  0.6004  2.0244  0.5685
 1408SOL    HW215684   4.046   0.269   7.541  2.7821 -2.4968 -3.3510
 1409SOL     OW15685   3.628   2.787   4.476  0.3559 -0.7088 -0.2525
 1409SOL    HW115686   3.704   2.783   4.535 -1.8527  2.0533  2.7536
 1409SOL    HW215687   3.672   2.796   4.391 -0.3481 -0.3135 -0.5791
 1410SOL     OW15688   1.716   4.316   3.644  0.1592  0.0651  0.3754
 1410SOL    HW115689   1.811   4.303   3.634 -0.1223 -0.4521 -1.5323
 1410SOL    HW215690   1.702   4.302   3.738 -0.8148  2.0553  0.5245
 1411SOL     OW15691   4.386   1.091   4.267  0.1423  0.2430 -0.4326
 1411SOL    HW115692   4.479   1.097   4.292  0.1043 -0.4326 -0.1406
 1411SOL    HW215693   4.382   1.160   4.201 -0.2711  1.1206  0.5266
 1412SOL     OW15694   3.492   4.006   8.131 -0.5381 -0.2631  0.9731
 1412SOL    HW115695   3.549   3.945   8.084 -0.8096 -0.4530  0.8938
 1412SOL    HW215696   3.439   3.945   8.181  0.5031 -0.3048  2.0241
 1413SOL     OW15697   2.381   3.122   8.939  0.5361  0.4246 -0.0628
 1413SOL    HW115698   2.450   3.056   8.934  0.4283  0.4068 -1.5131
 1413SOL    HW215699   2.383   3.155   9.029 -1.4541 -3.0444  1.2434
 1414SOL     OW15700   1.855   3.740   7.970 -0.4196 -0.1373 -0.4803
 1414SOL    HW115701   1.790   3.807   7.991  0.0047  0.6077 -1.5250
 1414SOL    HW215702   1.916   3.782   7.910  0.3081 -1.5822 -0.7585
 1415SOL     OW15703   2.112   1.202   7.589 -0.6686  0.0914 -0.6185
 1415SOL    HW115704   2.021   1.199   7.617  0.0318  1.0554  1.7638
 1415SOL    HW215705   2.118   1.167   7.500  1.0300 -0.0591 -0.4498
 1416SOL     OW15706   0.492   2.403   6.241 -0.2523  0.3452  0.4994
 1416SOL    HW115707   0.428   2.448   6.297 -0.7029 -0.4971  0.6662
 1416SOL    HW215708   0.565   2.376   6.296  0.8845  2.5419  0.0863
 1417SOL     OW15709   0.849   4.166   0.546  0.0984  0.0417 -0.0617
 1417SOL    HW115710   0.794   4.245   0.546  0.5740  0.3856 -2.0132
 1417SOL    HW215711   0.782   4.105   0.576 -0.5870  0.2063 -1.2259
 1418SOL     OW15712   1.426   1.954   5.707 -0.3307 -0.4705  0.6609
 1418SOL    HW115713   1.434   1.859   5.710 -1.2560 -0.5495  0.6239
 1418SOL    HW215714   1.496   1.988   5.763 -2.5196  0.7884  2.6415
 1419SOL     OW15715   0.882   2.456   9.226 -0.1491 -0.4175  0.2666
 1419SOL    HW115716   0.793   2.470   9.257 -0.6553 -4.0013  0.3369
 1419SOL    HW215717   0.923   2.415   9.303  4.5330  1.8194 -1.0035
 1420SOL     OW15718   2.919   3.995   1.002  0.0513  0.0195 -0.7375
 1420SOL    HW115719   2.925   3.961   0.913 -0.4406  0.4867 -0.9437
 1420SOL    HW215720   2.980   3.929   1.035 -0.2076  0.4393  0.6057
 1421SOL     OW15721   3.883   0.687   4.916  0.2549 -0.4316  0.2495
 1421SOL    HW115722   3.963   0.725   4.951  0.4880 -0.1120 -0.6198
 1421SOL    HW215723   3.857   0.733   4.836 -0.2485 -0.5500  0.3426
 1422SOL     OW15724   2.633   1.857  12.916 -1.0264 -0.2576 -0.1114
 1422SOL    HW115725   2.580   1.822  12.844 -1.0542  0.6650 -0.5322
 1422SOL    HW215726   2.640   1.949  12.893  0.4851 -1.1047 -3.0351
 1423SOL     OW15727   0.693   2.716   2.606 -0.2312  0.0117  0.1418
 1423SOL    HW115728   0.620   2.735   2.666  0.4355  0.1594  0.9122
 1423SOL    HW215729   0.726   2.631   2.633  0.8777 -0.2532 -2.0483
 1424SOL     OW15730   2.742   2.728   3.594  0.0236  0.0855 -0.6382
 1424SOL    HW115731   2.814   2.780   3.559  1.2274 -0.2503  1.2963
 1424SOL    HW215732   2.700   2.713   3.510  1.3067  0.9179 -1.4247
 1425SOL     OW15733   1.778   3.645   7.427 -0.0976 -0.2335  0.2927
 1425SOL    HW115734   1.851   3.593   7.463 -1.5769 -0.8660  2.3834
 1425SOL    HW215735   1.754   3.701   7.500 -1.7840  0.1446 -0.5713
 1426SOL     OW15736   1.540   0.909   6.007  0.1481  0.0757  0.2687
 1426SOL    HW115737   1.454   0.897   6.047 -0.3857  1.2672 -0.5030
 1426SOL    HW215738   1.532   0.860   5.925  0.7479  2.9564 -1.5193
 1427SOL     OW15739   1.780   4.302  17.425  0.5605 -0.3453 -1.2082
 1427SOL    HW115740   1.715   4.341  17.367  1.3369  1.3974 -0.9212
 1427SOL    HW215741   1.786   4.221  17.375 -2.4405 -0.7572 -0.9366
 1428SOL     OW15742   3.715   0.502   5.513  0.8692  0.5202 -0.3691
 1428SOL    HW115743   3.626   0.502   5.479  0.4975 -1.5252  0.5962
 1428SOL    HW215744   3.747   0.412   5.507 -0.9095 -0.0227 -1.7569
 1429SOL     OW15745   4.025   0.743  11.152  0.2734  0.5085 -0.3405
 1429SOL    HW115746   3.953   0.681  11.162 -0.0901  1.2206  1.3215
 1429SOL    HW215747   3.979   0.826  11.144 -1.3445 -0.4620 -1.1287
 1430SOL     OW15748   4.636   3.299   8.043 -0.3626  0.0255 -0.2954
 1430SOL    HW115749   4.552   3.300   7.996  0.8895  0.7003 -2.4917
 1430SOL    HW215750   4.623   3.372   8.104  2.4090  0.3371 -0.1118
 1431SOL     OW15751   0.297   3.728   3.851  0.3681  0.0244 -0.8152
 1431SOL    HW115752   0.279   3.637   3.874  0.9720 -0.4054 -2.0445
 1431SOL    HW215753   0.387   3.728   3.886 -0.2422 -1.6863  0.7511
 1432SOL     OW15754   4.408   0.840   2.444  0.3404  0.4243 -0.3894
 1432SOL    HW115755   4.424   0.790   2.524  2.2139 -2.4394 -2.5095
 1432SOL    HW215756   4.417   0.930   2.473 -2.1291  0.7515 -0.5974
 1433SOL     OW15757   2.493   2.471  13.666 -0.5487  0.1671  0.1722
 1433SOL    HW115758   2.573   2.479  13.718 -2.1326 -0.5794  2.7199
 1433SOL    HW215759   2.521   2.518  13.587 -0.1804  2.0436  1.4081
 1434SOL     OW15760   2.492   0.252   3.108  0.4457  0.0783  0.7109
 1434SOL    HW115761   2.475   0.340   3.142 -1.4355 -0.0047 -0.0797
 1434SOL    HW215762   2.567   0.232   3.165  1.7312  0.1928 -0.9552
 1435SOL     OW15763   1.693   3.806   7.647  0.2245  0.1652  0.3365
 1435SOL    HW115764   1.700   3.869   7.719 -2.7751  0.7573  0.1200
 1435SOL    HW215765   1.613   3.759   7.674  0.6936 -0.4249  0.7040
 1436SOL     OW15766   3.535   1.086   7.022 -0.0968  0.0888  0.2581
 1436SOL    HW115767   3.623   1.059   7.049  0.2736  1.3468  0.3325
 1436SOL    HW215768   3.527   1.083   6.927  0.5448  1.1519  0.1663
 1437SOL     OW15769   3.145   4.710   5.952 -0.0042 -0.4386 -0.0078
 1437SOL    HW115770   3.199   0.047   5.896  1.5489 -0.5233  1.3986
 1437SOL    HW215771   3.148   0.026   6.041  2.8297  0.5993 -0.5192
 1438SOL     OW15772   2.188   4.628  17.591 -0.2545 -0.5214 -0.5164
 1438SOL    HW115773   2.222   4.540  17.573  1.1113 -0.0238 -0.4114
 1438SOL    HW215774   2.169   4.665  17.505 -2.8586 -2.6280 -0.8424
 1439SOL     OW15775   0.400   3.721  14.534 -0.1630  0.2368  0.1924
 1439SOL    HW115776   0.476   3.664  14.540  1.5022  2.4183 -0.1370
 1439SOL    HW215777   0.411   3.786  14.604 -0.2779  1.5174 -0.9813
 1440SOL     OW15778   1.161   1.152  17.362  0.3279 -0.0060  0.2287
 1440SOL    HW115779   1.068   1.164  17.340  0.4029  0.1850  0.0174
 1440SOL    HW215780   1.209   1.225  17.322  0.4778  0.2714  0.9145
 1441SOL     OW15781   2.936   3.022  12.162  0.3187 -0.4005 -0.1774
 1441SOL    HW115782   2.991   3.088  12.205  2.6901 -3.1221  0.9731
 1441SOL    HW215783   2.992   2.945  12.147  1.1370  0.6586 -2.4330
 1442SOL     OW15784   4.413   3.624   2.887  0.0118 -0.3631 -0.5189
 1442SOL    HW115785   4.337   3.664   2.844 -0.3745  0.8397  1.2948
 1442SOL    HW215786   4.452   3.699   2.932  1.4967 -1.4800  0.0286
 1443SOL     OW15787   3.793   1.391   4.362  0.2999 -0.2539  0.1831
 1443SOL    HW115788   3.810   1.300   4.384  1.1049 -0.1629 -0.0696
 1443SOL    HW215789   3.871   1.407   4.309  0.3924  1.1032  0.7319
 1444SOL     OW15790   1.740   2.008  16.896  0.4167 -0.0845  0.3323
 1444SOL    HW115791   1.739   2.059  16.814 -0.6292  0.5809  0.7489
 1444SOL    HW215792   1.648   2.002  16.921  0.5442 -1.7683  0.4149
 1445SOL     OW15793   0.120   1.895   5.264  0.0640 -0.3213  0.6108
 1445SOL    HW115794   0.138   1.827   5.329  1.3055 -1.1507 -0.5940
 1445SOL    HW215795   0.031   1.919   5.288 -0.3066  1.0373 -2.1411
 1446SOL     OW15796   1.826   4.067  13.015  0.6834  0.2949  0.2694
 1446SOL    HW115797   1.906   4.022  12.988  1.1607  1.0063  0.4676
 1446SOL    HW215798   1.768   4.015  12.960 -1.0261 -0.4900  2.7981
 1447SOL     OW15799   2.140   1.377   4.741  0.0813  0.4473  0.1522
 1447SOL    HW115800   2.071   1.370   4.674 -1.6165  0.1551  1.9496
 1447SOL    HW215801   2.106   1.449   4.794 -0.1932 -1.9119  3.1044
 1448SOL     OW15802   0.569   3.119  15.787 -0.4292 -0.1394 -0.0489
 1448SOL    HW115803   0.530   3.165  15.712 -0.7785 -0.0070  0.2176
 1448SOL    HW215804   0.635   3.063  15.746  0.2054  0.4324  0.2117
 1449SOL     OW15805   3.337   1.293   4.182 -0.3543  0.0645 -0.0508
 1449SOL    HW115806   3.338   1.326   4.272  1.8599  0.4112 -0.1821
 1449SOL    HW215807   3.427   1.260   4.183  0.1285  1.3872 -1.0226
 1450SOL     OW15808   2.433   2.630  13.955 -0.2041  0.5638 -0.3723
 1450SOL    HW115809   2.342   2.611  13.934 -1.2247  3.8694  1.0288
 1450SOL    HW215810   2.472   2.543  13.958  2.1327  1.5602 -1.1920
 1451SOL     OW15811   3.038   2.802   2.622  0.3975  0.2941  0.4777
 1451SOL    HW115812   3.057   2.875   2.563  0.3471  2.1098  2.6861
 1451SOL    HW215813   3.062   2.729   2.566 -0.4992  0.2025  0.2212
 1452SOL     OW15814   2.639   2.737   3.308  0.0294 -0.0885  0.9215
 1452SOL    HW115815   2.576   2.694   3.251  0.3269  0.4379  0.1857
 1452SOL    HW215816   2.667   2.810   3.252  0.0770 -1.1714 -0.4599
 1453SOL     OW15817   3.078   2.296   9.839  0.0469  0.1597  0.3592
 1453SOL    HW115818   3.103   2.217   9.887  0.3894  0.3523  0.4991
 1453SOL    HW215819   2.984   2.297   9.859  0.2178  1.8608  1.1317
 1454SOL     OW15820   1.311   3.380  15.182  0.1013  0.0797 -0.2612
 1454SOL    HW115821   1.217   3.369  15.164 -0.1432  3.0939 -0.7455
 1454SOL    HW215822   1.306   3.457  15.239  1.3158 -1.8053  2.4111
 1455SOL     OW15823   3.142   3.123   3.772  0.3550  0.4002  0.0292
 1455SOL    HW115824   3.164   3.041   3.728  0.3838 -0.7450  2.1503
 1455SOL    HW215825   3.176   3.185   3.708 -0.8573 -0.1290 -1.1042
 1456SOL     OW15826   0.506   0.444   4.013  0.0587 -0.0695 -0.3188
 1456SOL    HW115827   0.449   0.515   3.985 -0.0901 -0.0149  0.1326
 1456SOL    HW215828   0.584   0.466   3.961  0.9018 -1.5852  0.2952
 1457SOL     OW15829   3.313   4.445   8.823  0.0119 -0.8357  0.1653
 1457SOL    HW115830   3.379   4.378   8.806  1.6717  1.0239 -0.8017
 1457SOL    HW215831   3.264   4.403   8.894 -1.9746 -3.1853 -2.6234
 1458SOL     OW15832   0.922   1.037   9.878 -0.8730 -0.4403 -0.0060
 1458SOL    HW115833   0.970   0.959   9.852  0.6491  0.4578  0.0808
 1458SOL    HW215834   0.838   1.028   9.832 -0.9775  0.5118 -0.0074
 1459SOL     OW15835   4.244   4.046   3.271 -0.0909  0.4416  0.4818
 1459SOL    HW115836   4.288   4.131   3.276 -1.0496  0.9160  0.6978
 1459SOL    HW215837   4.310   3.995   3.318 -1.6737 -0.0739  2.1192
 1460SOL     OW15838   3.690   4.539   5.072 -0.0774  0.1015 -0.2140
 1460SOL    HW115839   3.691   4.456   5.120 -0.6767 -1.0886 -2.2513
 1460SOL    HW215840   3.779   4.533   5.038  1.1543  2.4136  2.6400
 1461SOL     OW15841   2.941   3.091   3.265 -0.1422 -0.3212  0.3977
 1461SOL    HW115842   3.017   3.088   3.207  0.2462  1.4490  0.7948
 1461SOL    HW215843   2.878   3.044   3.210 -0.4264 -0.0883  0.5187
 1462SOL     OW15844   0.933   1.840   7.291  0.9237  0.2684  0.4315
 1462SOL    HW115845   0.932   1.748   7.319  2.0153  0.0674 -0.2371
 1462SOL    HW215846   1.013   1.846   7.240  0.4416 -0.4720 -0.4158
 1463SOL     OW15847   0.757   0.351   1.522  0.0383  0.1835 -0.2677
 1463SOL    HW115848   0.749   0.429   1.577  0.4602  0.2602 -0.3142
 1463SOL    HW215849   0.687   0.366   1.458 -0.5357  0.9061  0.5425
 1464SOL     OW15850   3.649   0.620  14.481 -0.2809 -0.1420  0.5806
 1464SOL    HW115851   3.727   0.667  14.511 -0.8347 -0.3499  2.3705
 1464SOL    HW215852   3.635   0.658  14.395  1.4277  0.6438  0.6427
 1465SOL     OW15853   4.559   1.121  10.883 -0.2644  0.3179 -0.3481
 1465SOL    HW115854   4.539   1.168  10.802  1.0767 -0.2002 -0.9774
 1465SOL    HW215855   4.619   1.054  10.851  1.1217  0.9318  0.9144
 1466SOL     OW15856   4.572   1.939   1.886 -0.1180 -0.4409  0.7049
 1466SOL    HW115857   4.584   2.034   1.883  1.8147 -0.7246 -0.4666
 1466SOL    HW215858   4.499   1.927   1.825 -0.9235 -2.5708  2.0961
 1467SOL     OW15859   2.699   3.694   9.210  0.4315  0.4373  0.1954
 1467SOL    HW115860   2.662   3.745   9.282 -1.4113  0.2983 -0.6326
 1467SOL    HW215861   2.794   3.700   9.222  1.1013  0.5592 -4.8198
 1468SOL     OW15862   2.460   0.033   6.965 -0.0431  0.3478 -0.2586
 1468SOL    HW115863   2.434   0.043   7.057  2.1941  1.4040  0.2385
 1468SOL    HW215864   2.437   4.663   6.939 -1.8113  1.0356 -1.0970
 1469SOL     OW15865   4.300   0.150   8.319  0.3504 -0.0308  0.6732
 1469SOL    HW115866   4.389   0.168   8.289  0.5227 -0.9160  0.6386
 1469SOL    HW215867   4.275   0.231   8.363  1.4783  1.7446 -1.9514
 1470SOL     OW15868   4.469   3.575   1.386 -0.3572  0.2881  0.5552
 1470SOL    HW115869   4.509   3.639   1.446  0.0261  0.3769  0.1990
 1470SOL    HW215870   4.405   3.536   1.446  0.4490  0.3337  1.4602
 1471SOL     OW15871   4.418   0.182   4.745  0.2244 -0.3016 -0.0909
 1471SOL    HW115872   4.498   0.130   4.741 -0.8296 -1.9152  0.0563
 1471SOL    HW215873   4.448   0.247   4.808  0.6080 -1.2091  0.6606
 1472SOL     OW15874   1.090   3.314   3.939 -0.6577  0.5893  0.6325
 1472SOL    HW115875   1.076   3.393   3.886 -0.9311  0.3744  0.3813
 1472SOL    HW215876   1.109   3.254   3.867 -1.6421 -0.3563  1.1708
 1473SOL     OW15877   1.228   1.596   5.131  0.2107  0.0108 -0.4426
 1473SOL    HW115878   1.243   1.648   5.052  0.1754  2.1189  0.9368
 1473SOL    HW215879   1.150   1.544   5.111  0.0633 -0.2485  0.8098
 1474SOL     OW15880   3.400   1.271  15.914  0.3511  0.0794  0.1141
 1474SOL    HW115881   3.495   1.281  15.913  0.4754 -1.0745  0.4551
 1474SOL    HW215882   3.376   1.357  15.879  0.2074  0.1179  0.3099
 1475SOL     OW15883   3.939   3.420   6.392  0.5578  0.1951 -0.3806
 1475SOL    HW115884   3.973   3.331   6.401 -0.0393 -0.0368 -0.4481
 1475SOL    HW215885   3.857   3.405   6.345 -1.2188  0.0436  2.7517
 1476SOL     OW15886   1.622   1.754   8.161 -0.0657  0.5857 -0.0793
 1476SOL    HW115887   1.534   1.730   8.190  0.6215 -0.0181  1.5489
 1476SOL    HW215888   1.614   1.845   8.133  2.8051  1.5320  2.1287
 1477SOL     OW15889   3.651   2.984   8.861  0.3626  0.2404  0.5205
 1477SOL    HW115890   3.644   2.965   8.768 -2.2608  1.6258  0.4468
 1477SOL    HW215891   3.737   3.026   8.867  1.3173 -1.8301  1.2018
 1478SOL     OW15892   2.935   0.719   2.328 -0.4562  0.2432 -0.1021
 1478SOL    HW115893   2.952   0.721   2.234 -0.2427  0.7865 -0.0505
 1478SOL    HW215894   2.884   0.638   2.335  2.5481 -1.5717  0.9661
 1479SOL     OW15895   4.276   0.266   4.522 -0.0515  0.1622 -0.5202
 1479SOL    HW115896   4.308   0.276   4.432  0.9940 -0.0315 -0.1776
 1479SOL    HW215897   4.357   0.233   4.561  0.1692 -0.2008 -1.2833
 1480SOL     OW15898   1.638   4.231   9.413 -0.0513  0.2256  0.0506
 1480SOL    HW115899   1.644   4.312   9.464 -1.5319  0.6412 -0.4497
 1480SOL    HW215900   1.728   4.197   9.419  0.0855  0.9866  2.5124
 1481SOL     OW15901   4.056   3.399   7.695  0.2225  0.5967  0.3757
 1481SOL    HW115902   4.042   3.463   7.625  0.0827 -0.9624 -1.0277
 1481SOL    HW215903   3.985   3.417   7.757  0.5825  0.2442  0.8862
 1482SOL     OW15904   2.601   0.765   7.683 -0.3576  0.3203 -0.2248
 1482SOL    HW115905   2.633   0.686   7.725  0.6344 -0.0651 -1.7187
 1482SOL    HW215906   2.635   0.755   7.594  0.6820  0.8785  0.1134
 1483SOL     OW15907   4.067   3.284  14.487 -0.3374 -0.1972 -0.5560
 1483SOL    HW115908   4.097   3.312  14.573  0.1280 -2.9735  0.1944
 1483SOL    HW215909   4.024   3.202  14.509  2.6465 -2.1289 -1.9334
 1484SOL     OW15910   1.958   4.569   3.633 -0.2748 -0.2182 -0.6139
 1484SOL    HW115911   1.987   4.645   3.582  0.8365  1.2764  2.1961
 1484SOL    HW215912   1.938   4.603   3.721  0.5103 -0.5168 -0.3181
 1485SOL     OW15913   2.632   1.600   2.590 -0.2541  0.3090  0.5032
 1485SOL    HW115914   2.658   1.509   2.573  0.1749  0.2942  1.2487
 1485SOL    HW215915   2.537   1.594   2.582  0.1435 -1.2429 -3.1757
 1486SOL     OW15916   3.482   4.314  17.381 -0.1544 -0.0162  0.1003
 1486SOL    HW115917   3.564   4.361  17.397 -0.9983  1.2751  0.5986
 1486SOL    HW215918   3.424   4.389  17.375 -0.6309 -0.2483  1.8928
 1487SOL     OW15919   1.705   0.528   2.843 -0.0376  0.3914 -0.3546
 1487SOL    HW115920   1.761   0.452   2.858 -0.1942  0.3580  0.0537
 1487SOL    HW215921   1.630   0.488   2.797 -1.5770  1.1081  1.5336
 1488SOL     OW15922   1.606   2.820   8.897 -0.2987 -0.2911 -0.1327
 1488SOL    HW115923   1.637   2.802   8.985 -0.3387 -2.3219 -0.5269
 1488SOL    HW215924   1.551   2.744   8.878 -0.2909 -0.3672  0.1517
 1489SOL     OW15925   2.426   4.329   0.925 -0.5153 -0.6570 -0.0739
 1489SOL    HW115926   2.343   4.362   0.959 -1.1120 -0.2197 -1.9216
 1489SOL    HW215927   2.406   4.238   0.904 -1.3029 -0.2535 -1.0890
 1490SOL     OW15928   0.884   2.133   0.415  0.2545  0.0256  0.4329
 1490SOL    HW115929   0.795   2.157   0.439 -0.2317 -1.3357 -0.0307
 1490SOL    HW215930   0.883   2.156   0.322  2.2166  2.0087  0.8843
 1491SOL     OW15931   0.196   3.373   6.657  0.7147 -0.2443 -0.0573
 1491SOL    HW115932   0.137   3.419   6.717  3.2845  0.9096  1.5957
 1491SOL    HW215933   0.139   3.332   6.592 -0.7266 -0.0734  1.1039
 1492SOL     OW15934   2.692   1.252  15.271 -0.3461  0.1435  0.5351
 1492SOL    HW115935   2.761   1.187  15.280  3.5403  4.2678 -0.0203
 1492SOL    HW215936   2.680   1.297  15.355  0.4976  0.3765  0.5296
 1493SOL     OW15937   2.225   2.099   8.955  0.1384 -1.0076 -0.2556
 1493SOL    HW115938   2.310   2.060   8.934  0.8710  0.9614 -1.0014
 1493SOL    HW215939   2.162   2.042   8.912 -0.8135 -0.6988  0.7314
 1494SOL     OW15940   0.541   3.516   8.260  0.2675 -0.2708 -0.3800
 1494SOL    HW115941   0.544   3.424   8.236  1.1108 -0.1833 -0.6145
 1494SOL    HW215942   0.601   3.492   8.331  2.3373 -0.3367 -2.1231
 1495SOL     OW15943   4.686   3.236   3.639  0.1010 -0.4147  0.4747
 1495SOL    HW115944   0.030   3.308   3.630  0.4279 -0.6629  0.8171
 1495SOL    HW215945   4.611   3.285   3.606 -0.6875 -1.5786  0.5652
 1496SOL     OW15946   3.005   1.409   9.800 -0.6761  0.1374  0.6506
 1496SOL    HW115947   3.003   1.322   9.761  1.4735  0.2707  0.2457
 1496SOL    HW215948   2.917   1.439   9.778 -0.5596 -1.2318 -1.6458
 1497SOL     OW15949   1.130   1.939   9.020  0.4642  0.3814  0.5544
 1497SOL    HW115950   1.214   1.895   9.031 -0.0615 -1.1248 -1.3711
 1497SOL    HW215951   1.158   2.002   8.954 -0.8368  2.6910  2.2066
 1498SOL     OW15952   2.612   2.797   4.590  0.5777  0.5102 -0.4670
 1498SOL    HW115953   2.559   2.862   4.636  0.6609 -0.8593  1.5236
 1498SOL    HW215954   2.640   2.739   4.660  0.3035  0.6356 -0.2542
 1499SOL     OW15955   1.143   2.966   1.670 -0.2352 -0.2690 -0.2992
 1499SOL    HW115956   1.150   3.027   1.597 -1.3742  0.0248 -0.1585
 1499SOL    HW215957   1.200   3.017   1.729 -0.1777  0.3120 -0.8604
 1500SOL     OW15958   4.235   1.646  15.603  0.4294  0.7456  0.5800
 1500SOL    HW115959   4.264   1.563  15.640  0.7042  0.4950 -0.2014
 1500SOL    HW215960   4.144   1.625  15.582  0.6031 -3.0242  3.6254
 1501SOL     OW15961   0.518   0.964   5.168 -0.4502 -0.2490 -0.2848
 1501SOL    HW115962   0.527   1.025   5.241 -0.2256  0.1955 -0.6831
 1501SOL    HW215963   0.533   1.025   5.096  1.9264  1.0297  1.3177
 1502SOL     OW15964   3.039   2.708  15.682  0.5563 -0.0235 -0.3618
 1502SOL    HW115965   3.079   2.792  15.702  0.3894 -0.8499  3.5636
 1502SOL    HW215966   2.983   2.708  15.761  0.3574 -3.2325 -0.4720
 1503SOL     OW15967   2.838   2.128  10.630 -0.5287 -0.0245  0.0365
 1503SOL    HW115968   2.921   2.148  10.587  0.9625 -0.2684  2.7494
 1503SOL    HW215969   2.841   2.157  10.722 -2.2194  1.2406 -0.2899
 1504SOL     OW15970   4.336   4.376   4.916 -0.5809  0.3747 -0.4162
 1504SOL    HW115971   4.370   4.443   4.856  0.1939 -0.2608 -0.6750
 1504SOL    HW215972   4.307   4.430   4.989 -0.9196  0.4787 -0.6247
 1505SOL     OW15973   2.967   2.187   2.567  0.0386  0.4251 -0.0904
 1505SOL    HW115974   2.990   2.095   2.558  1.6065  0.9056 -1.0313
 1505SOL    HW215975   2.891   2.178   2.626 -0.1559  1.2246 -0.2131
 1506SOL     OW15976   4.657   0.927   0.544  0.2828  0.2193  0.0773
 1506SOL    HW115977   4.582   0.928   0.603 -0.5422  0.8221 -0.9869
 1506SOL    HW215978   4.716   0.987   0.589 -0.0712  0.2357  0.5163
 1507SOL     OW15979   2.325   3.631  17.089  0.3600 -0.0524 -0.6064
 1507SOL    HW115980   2.379   3.653  17.165 -0.0318 -0.1448 -0.3043
 1507SOL    HW215981   2.255   3.695  17.088 -0.2629 -0.7660 -3.0984
 1508SOL     OW15982   1.407   2.276   5.482  0.4606 -0.1635 -1.3083
 1508SOL    HW115983   1.350   2.203   5.460 -0.2119 -0.0104 -0.0604
 1508SOL    HW215984   1.488   2.226   5.487 -0.3056 -1.2919 -0.1086
 1509SOL     OW15985   1.639   3.939   4.837 -0.1212  0.9255 -0.2064
 1509SOL    HW115986   1.711   3.985   4.881  0.1478 -1.2586  1.6555
 1509SOL    HW215987   1.675   3.894   4.760 -2.3468 -1.8389  0.3788
 1510SOL     OW15988   3.211   2.510   8.614 -0.3445 -0.1367  0.4277
 1510SOL    HW115989   3.164   2.438   8.570  1.0887 -1.0497  0.3800
 1510SOL    HW215990   3.256   2.548   8.539  1.0155  0.6308  1.6263
 1511SOL     OW15991   1.933   4.282   4.557 -0.4000 -0.1713  0.0697
 1511SOL    HW115992   1.898   4.319   4.476 -2.2614 -0.8441  0.5712
 1511SOL    HW215993   1.882   4.324   4.627 -0.5019 -0.0075 -0.1012
 1512SOL     OW15994   3.937   3.593   3.297 -0.2146 -0.8268  0.1824
 1512SOL    HW115995   4.006   3.645   3.255 -0.0954 -2.2772 -1.4415
 1512SOL    HW215996   3.939   3.611   3.391  0.2904 -0.2925  0.0686
 1513SOL     OW15997   2.633   2.884   2.729 -0.4006 -0.3408  0.1748
 1513SOL    HW115998   2.570   2.919   2.666 -0.0029 -0.1969 -0.1405
 1513SOL    HW215999   2.712   2.938   2.719 -1.2916  0.9010 -0.2564
 1514SOL     OW16000   2.227   2.506  13.730  0.7129  0.0568  0.2514
 1514SOL    HW116001   2.316   2.494  13.695  0.1800 -1.8201 -0.4908
 1514SOL    HW216002   2.200   2.415  13.719 -0.2982  0.4956 -0.8198
 1515SOL     OW16003   1.569   2.854   1.558  0.3560 -0.0961  0.8851
 1515SOL    HW116004   1.663   2.869   1.547  0.1985  0.7978  0.7451
 1515SOL    HW216005   1.530   2.931   1.599 -0.8538 -0.2125 -0.0252
 1516SOL     OW16006   4.259   3.835   5.953  0.2102 -0.5022 -0.1841
 1516SOL    HW116007   4.326   3.781   5.997 -0.6952 -1.2627  0.2535
 1516SOL    HW216008   4.190   3.827   6.019  0.3833 -0.1227  0.0416
 1517SOL     OW16009   0.395   1.819   8.599 -0.0977 -0.1470 -0.4711
 1517SOL    HW116010   0.488   1.828   8.578  0.0503 -1.9127 -0.5540
 1517SOL    HW216011   0.349   1.810   8.515  2.2593 -0.6249 -1.7024
 1518SOL     OW16012   4.552   2.588   6.049  0.0609 -0.2583  0.1510
 1518SOL    HW116013   4.549   2.651   6.121 -0.2852 -0.7541  0.5740
 1518SOL    HW216014   4.571   2.640   5.972 -1.9609  1.9447  1.1605
 1519SOL     OW16015   2.269   3.371   8.832 -0.1453 -0.1786 -0.1261
 1519SOL    HW116016   2.277   3.363   8.737 -1.6309 -2.0940 -0.0950
 1519SOL    HW216017   2.285   3.282   8.862 -0.4902  0.1273  0.9882
 1520SOL     OW16018   3.528   1.113  17.337  0.0103 -0.0946  0.1719
 1520SOL    HW116019   3.460   1.077  17.280 -0.6400  0.6410  0.4942
 1520SOL    HW216020   3.611   1.097  17.290 -0.3813  0.8790 -0.8596
 1521SOL     OW16021   3.247   4.609  11.702  0.4158  0.4860  0.1277
 1521SOL    HW116022   3.303   4.684  11.683 -0.5540  0.3128 -3.3579
 1521SOL    HW216023   3.194   4.656  11.766 -0.4504 -0.7986  0.3362
 1522SOL     OW16024   0.101   0.380   4.599  0.4476 -0.0933  0.4465
 1522SOL    HW116025   0.050   0.448   4.556  3.2482  1.8147  0.0972
 1522SOL    HW216026   0.064   0.303   4.557 -0.6398 -0.6958  2.4793
 1523SOL     OW16027   1.737   3.181   0.746  0.3654  0.3461  0.3780
 1523SOL    HW116028   1.733   3.158   0.653  0.1620  1.1948  0.1830
 1523SOL    HW216029   1.675   3.251   0.764 -0.0165  0.7785 -2.5458
 1524SOL     OW16030   1.233   1.974  16.092  0.4220 -0.5731 -0.1915
 1524SOL    HW116031   1.166   1.960  16.025 -1.2410 -0.4562  1.4392
 1524SOL    HW216032   1.197   2.025  16.165  3.7113  1.2692  0.1185
 1525SOL     OW16033   4.344   1.799   7.711 -0.0774 -0.0307  0.2176
 1525SOL    HW116034   4.352   1.733   7.780 -0.7520 -1.1449 -0.7627
 1525SOL    HW216035   4.394   1.869   7.752  0.1948 -0.1531  0.1003
 1526SOL     OW16036   0.225   3.137   1.472 -0.2467 -0.3155  0.1275
 1526SOL    HW116037   0.190   3.074   1.410 -2.1023 -0.4334  1.3160
 1526SOL    HW216038   0.231   3.075   1.545  0.4975 -0.4837 -0.0697
 1527SOL     OW16039   2.407   1.981   7.056 -0.1637 -0.0102 -0.1894
 1527SOL    HW116040   2.423   2.017   6.969 -2.0433  1.6432  0.1548
 1527SOL    HW216041   2.346   2.044   7.095  0.8654  0.4782  0.6394
 1528SOL     OW16042   1.001   0.616  14.387 -0.2502  0.1706  0.4796
 1528SOL    HW116043   0.937   0.546  14.372  1.0513 -1.2730  1.6826
 1528SOL    HW216044   1.090   0.584  14.403  1.0682  3.5321 -0.1337
 1529SOL     OW16045   1.252   1.583   4.415 -0.0975 -0.3405 -0.4040
 1529SOL    HW116046   1.344   1.560   4.426  0.1009 -0.0574 -1.4060
 1529SOL    HW216047   1.274   1.648   4.347 -0.2035 -1.4693 -1.5174
 1530SOL     OW16048   1.581   0.279   2.838 -0.1969  0.5749  0.1840
 1530SOL    HW116049   1.581   0.191   2.802 -1.9127  0.9076 -0.6378
 1530SOL    HW216050   1.595   0.271   2.933 -3.5546 -1.5737  0.4928
 1531SOL     OW16051   0.968   0.233   3.205  0.3313 -0.5090  0.0255
 1531SOL    HW116052   1.002   0.286   3.278  0.1838 -1.6495  0.9281
 1531SOL    HW216053   1.017   0.258   3.127  0.3211  3.5029  1.3081
 1532SOL     OW16054   0.673   2.630  16.128 -0.4649 -0.1952  0.3252
 1532SOL    HW116055   0.734   2.653  16.057 -2.9149  1.4795 -1.2351
 1532SOL    HW216056   0.583   2.635  16.095 -0.4261 -0.4520  0.1775
 1533SOL     OW16057   1.769   1.128   4.871  0.1641  0.3083  0.1966
 1533SOL    HW116058   1.843   1.074   4.845  0.7308  0.8577  0.6915
 1533SOL    HW216059   1.817   1.200   4.912 -0.5405 -0.5598  2.5152
 1534SOL     OW16060   1.066   2.393  17.435 -0.2323 -0.6536 -0.4704
 1534SOL    HW116061   0.981   2.382  17.392 -0.4049 -0.0707 -0.2703
 1534SOL    HW216062   1.115   2.457  17.383  0.8624 -1.9571 -1.0591
 1535SOL     OW16063   1.891   0.625   1.058 -0.0334 -0.3894  0.0996
 1535SOL    HW116064   1.944   0.561   1.010 -1.2784  0.2061 -2.1004
 1535SOL    HW216065   1.882   0.692   0.989 -2.1118 -1.2617 -0.4823
 1536SOL     OW16066   4.539   0.373   7.275  0.4323 -0.2672  0.5186
 1536SOL    HW116067   4.607   0.426   7.316  0.4487  0.0054  0.1369
 1536SOL    HW216068   4.538   0.293   7.327  2.6306 -0.4658  0.2695
 1537SOL     OW16069   1.962   2.375   9.836  0.0518 -0.2608 -0.2424
 1537SOL    HW116070   1.956   2.312   9.907  1.0686  1.4530  1.3784
 1537SOL    HW216071   1.881   2.426   9.845  0.2850  0.2844 -1.2356
 1538SOL     OW16072   3.362   2.206   7.591 -0.3506  0.2551 -0.5161
 1538SOL    HW116073   3.365   2.191   7.685 -1.4887  1.2309 -0.3251
 1538SOL    HW216074   3.330   2.121   7.561  1.7082  0.1185 -2.3585
 1539SOL     OW16075   1.839   0.763   7.500 -0.1238 -0.3877 -0.5119
 1539SOL    HW116076   1.923   0.810   7.494  0.1838 -0.8915 -0.1195
 1539SOL    HW216077   1.862   0.686   7.552  0.5395 -0.1032 -0.3823
 1540SOL     OW16078   3.806   0.500  15.706 -0.0940 -0.0388  0.7364
 1540SOL    HW116079   3.809   0.550  15.625 -1.7262  0.2591  0.8719
 1540SOL    HW216080   3.713   0.517  15.718  0.2873  2.3525  0.1682
 1541SOL     OW16081   0.299   3.986   8.755  0.8269  0.0941 -0.8166
 1541SOL    HW116082   0.393   3.986   8.733  0.4814 -1.4388 -2.2622
 1541SOL    HW216083   0.300   3.925   8.828  0.4219  0.4877 -0.4813
 1542SOL     OW16084   2.552   3.489   9.092 -0.3520 -0.7271 -0.6565
 1542SOL    HW116085   2.503   3.539   9.027 -1.1345  0.1245  0.5885
 1542SOL    HW216086   2.604   3.556   9.137 -0.3029 -2.3914  1.7534
 1543SOL     OW16087   0.788   1.229  12.026 -1.0235  0.5437  0.2077
 1543SOL    HW116088   0.697   1.252  12.044 -1.5437 -1.2042 -0.1575
 1543SOL    HW216089   0.779   1.134  12.034  0.6173  0.5228  1.8282
 1544SOL     OW16090   1.238   2.024   1.192  0.5636  0.2203 -0.3112
 1544SOL    HW116091   1.243   1.929   1.196 -1.6562  0.0512 -1.6712
 1544SOL    HW216092   1.189   2.047   1.271 -1.4741  0.7414 -1.7254
 1545SOL     OW16093   3.446   2.306  14.621  0.1406  1.1339  0.4706
 1545SOL    HW116094   3.439   2.377  14.556 -3.8802  1.7659  1.5920
 1545SOL    HW216095   3.535   2.325  14.648  1.0606  0.1351 -1.8343
 1546SOL     OW16096   2.165   0.259   9.090 -0.7851 -0.2342  0.1700
 1546SOL    HW116097   2.235   0.294   9.145 -0.5965 -1.3446  0.6241
 1546SOL    HW216098   2.163   0.165   9.109  0.8833 -0.4072 -0.5190
 1547SOL     OW16099   1.670   0.258  15.573  0.3774 -0.7846 -0.5213
 1547SOL    HW116100   1.743   0.270  15.512  0.1266 -0.1970 -0.7099
 1547SOL    HW216101   1.716   0.228  15.651 -0.0475 -2.5347 -0.9486
 1548SOL     OW16102   1.284   1.501   2.082 -0.7929  0.0584 -0.2724
 1548SOL    HW116103   1.305   1.443   2.009  2.5751  1.4633 -0.4359
 1548SOL    HW216104   1.368   1.544   2.093 -1.0449  0.2264  0.9711
 1549SOL     OW16105   3.829   3.392   5.814  0.6513  0.4482  0.4885
 1549SOL    HW116106   3.759   3.454   5.792 -0.0953 -0.4329  0.4215
 1549SOL    HW216107   3.906   3.442   5.786  0.6377 -0.0812 -0.4736
 1550SOL     OW16108   4.416   3.717   1.856 -0.2997  0.6449 -0.2035
 1550SOL    HW116109   4.403   3.787   1.920  1.6383  0.0252  0.8531
 1550SOL    HW216110   4.330   3.707   1.815  0.2128  0.3756 -1.2163
 1551SOL     OW16111   1.165   1.232   3.193 -0.3486  0.5780 -0.7895
 1551SOL    HW116112   1.119   1.306   3.232  0.1309  0.7075 -0.4661
 1551SOL    HW216113   1.124   1.234   3.107  0.1857 -2.3443 -1.1122
 1552SOL     OW16114   3.508   1.943   8.357 -0.2319  0.1887 -0.6507
 1552SOL    HW116115   3.423   1.902   8.369 -0.7747  1.3060 -0.7121
 1552SOL    HW216116   3.518   1.974   8.447 -0.6563 -2.2624  0.2362
 1553SOL     OW16117   0.150   1.969   2.168  0.4937 -0.5384  0.2742
 1553SOL    HW116118   0.079   1.906   2.175 -0.2715  0.3918  0.7723
 1553SOL    HW216119   0.108   2.055   2.176 -0.9190 -1.1833 -0.2064
 1554SOL     OW16120   4.228   4.308   0.261  0.2203  0.0437 -0.2690
 1554SOL    HW116121   4.182   4.391   0.252  3.4159  2.1568  2.7639
 1554SOL    HW216122   4.186   4.267   0.336  2.2655 -0.5201  0.5767
 1555SOL     OW16123   3.366   0.801   0.744  0.5358  0.0434  0.1626
 1555SOL    HW116124   3.271   0.799   0.732  0.5201 -0.6369  0.4394
 1555SOL    HW216125   3.375   0.879   0.799  1.5205 -0.1652  0.2981
 1556SOL     OW16126   0.166   4.088   3.112  0.0227 -0.4235  0.0441
 1556SOL    HW116127   0.189   4.084   3.019  0.0226  1.8709 -0.0335
 1556SOL    HW216128   0.151   3.994   3.126 -3.8514 -0.0035 -1.3484
 1557SOL     OW16129   3.134   1.000   3.299 -1.0273  0.1119 -0.2936
 1557SOL    HW116130   3.188   0.941   3.246 -0.1878 -0.6242  1.3751
 1557SOL    HW216131   3.072   1.033   3.235  0.6598  3.1016 -0.3633
 1558SOL     OW16132   1.661   2.782   9.144  0.1887  0.1985  0.6759
 1558SOL    HW116133   1.616   2.862   9.170 -2.2408 -0.8831 -0.2757
 1558SOL    HW216134   1.633   2.723   9.213 -2.2302 -1.1007 -1.4242
 1559SOL     OW16135   1.211   1.401   2.590  0.6158 -0.2793  0.0741
 1559SOL    HW116136   1.210   1.308   2.568 -1.0583 -1.3397  4.6561
 1559SOL    HW216137   1.295   1.421   2.547 -0.5752  2.8518 -0.8368
 1560SOL     OW16138   3.528   1.251  12.728 -0.0315 -0.3822 -0.0007
 1560SOL    HW116139   3.510   1.181  12.792  0.4883 -0.6380 -0.1285
 1560SOL    HW216140   3.593   1.308  12.771  0.8988 -0.2935 -1.5222
 1561SOL     OW16141   2.698   3.217   5.884  0.1120  0.2548 -0.2391
 1561SOL    HW116142   2.726   3.256   5.802  1.9321 -2.7568 -1.0404
 1561SOL    HW216143   2.768   3.248   5.942 -0.2821 -0.1780  0.4637
 1562SOL     OW16144   1.998   4.061  14.377  0.1770 -0.1601 -0.2514
 1562SOL    HW116145   1.981   3.969  14.356  2.6191 -0.5920 -0.3492
 1562SOL    HW216146   2.094   4.054  14.377 -0.0400 -3.2788  4.4133
 1563SOL     OW16147   2.531   4.199  15.944  0.0993 -0.2118  1.1535
 1563SOL    HW116148   2.626   4.199  15.959 -0.0017 -0.9961  1.7851
 1563SOL    HW216149   2.519   4.283  15.899  1.3551 -1.2849 -1.2280
 1564SOL     OW16150   2.572   4.694   4.191  0.1405 -0.5062 -0.6419
 1564SOL    HW116151   2.511   4.704   4.118 -1.0681 -0.1858  0.3920
 1564SOL    HW216152   2.534   4.616   4.231  0.4138 -0.1388  0.3332
 1565SOL     OW16153   2.352   0.901   4.545 -0.4466  0.1250  0.0916
 1565SOL    HW116154   2.296   0.968   4.507 -0.9039  0.6289  1.6368
 1565SOL    HW216155   2.307   0.819   4.522  0.8637 -1.1235  1.9644
 1566SOL     OW16156   4.510   0.909   9.479  0.2168  0.1596  0.7666
 1566SOL    HW116157   4.455   0.878   9.408  0.1188  2.9679 -0.3676
 1566SOL    HW216158   4.480   0.997   9.500 -1.5957 -0.0656 -0.8403
 1567SOL     OW16159   2.185   4.168  11.704 -0.5075 -0.6767 -0.3160
 1567SOL    HW116160   2.258   4.226  11.679 -1.5602 -0.1369 -2.0452
 1567SOL    HW216161   2.118   4.213  11.653  0.9991  1.1689 -0.6889
 1568SOL     OW16162   3.354   3.902   4.254  0.2327 -0.3430 -0.2036
 1568SOL    HW116163   3.338   3.831   4.192 -2.1165  1.8244 -2.0243
 1568SOL    HW216164   3.431   3.946   4.218  1.1390 -1.9388 -0.2231
 1569SOL     OW16165   0.820   3.918   9.600 -0.3527 -0.2791  0.5675
 1569SOL    HW116166   0.849   3.869   9.523  0.2324  1.5942 -0.4281
 1569SOL    HW216167   0.727   3.925   9.581  0.0708 -0.9992 -1.8671
 1570SOL     OW16168   4.640   3.900   6.297  0.1673  0.1256  0.1167
 1570SOL    HW116169   4.584   3.822   6.290  2.2716 -1.3552 -0.2267
 1570SOL    HW216170   4.658   3.918   6.205  0.5630 -3.2335 -0.4668
 1571SOL     OW16171   2.853   1.660   8.617  0.5356  0.4809  0.3504
 1571SOL    HW116172   2.811   1.704   8.542 -0.0725 -1.5524 -0.4905
 1571SOL    HW216173   2.774   1.630   8.663  1.1136  0.5445  1.3816
 1572SOL     OW16174   0.404   3.415  17.589 -0.9588  0.2385 -0.0766
 1572SOL    HW116175   0.449   3.428  17.505  2.1371  0.4196  1.6160
 1572SOL    HW216176   0.345   3.491  17.586 -0.8234  0.3456 -0.0571
 1573SOL     OW16177   1.601   2.008   8.087  0.2807  0.2075  0.0089
 1573SOL    HW116178   1.661   2.073   8.052  2.0166 -0.3731  1.8982
 1573SOL    HW216179   1.527   2.014   8.027  0.7231  1.8790 -0.3669
 1574SOL     OW16180   3.744   3.068   2.093  0.5572  0.0162 -0.4272
 1574SOL    HW116181   3.666   3.108   2.053 -0.2653  0.2987  1.4295
 1574SOL    HW216182   3.694   2.999   2.136  2.1432  0.8059  2.6971
 1575SOL     OW16183   0.127   1.989   3.650 -0.2602  0.2313  0.1313
 1575SOL    HW116184   0.148   1.988   3.557 -1.7507 -0.1670 -0.1941
 1575SOL    HW216185   0.123   1.897   3.673 -1.0391 -0.1417 -1.4718
 1576SOL     OW16186   3.886   3.258   5.532 -0.2190  0.0707 -0.1304
 1576SOL    HW116187   3.886   3.206   5.613  0.6288  1.1373  0.5430
 1576SOL    HW216188   3.962   3.225   5.484 -0.4374 -1.4892  0.5642
 1577SOL     OW16189   2.465   3.560  10.470 -0.1485 -0.6345 -0.0529
 1577SOL    HW116190   2.505   3.495  10.528 -1.6735  0.4041  2.1487
 1577SOL    HW216191   2.523   3.567  10.393  1.7927  0.0821  1.4623
 1578SOL     OW16192   1.724   2.062  14.758 -0.1554 -0.0730  0.1001
 1578SOL    HW116193   1.647   2.016  14.792 -1.9616  0.3858 -3.3212
 1578SOL    HW216194   1.790   1.992  14.757  0.0693  0.1293  1.7088
 1579SOL     OW16195   3.492   3.385   6.756 -0.5137 -0.4134 -0.0764
 1579SOL    HW116196   3.453   3.375   6.842 -0.5514 -1.5562 -0.2305
 1579SOL    HW216197   3.466   3.303   6.715 -0.8451  0.2952 -1.2996
 1580SOL     OW16198   0.291   2.309   1.600  0.7901  0.0427 -0.5118
 1580SOL    HW116199   0.283   2.220   1.565  3.0665  0.3152 -1.7192
 1580SOL    HW216200   0.311   2.290   1.692  0.2549 -2.2322 -0.8545
 1581SOL     OW16201   3.992   0.588   7.478  0.6255  0.5473 -0.1700
 1581SOL    HW116202   4.028   0.506   7.510  1.1417  0.8766  0.1079
 1581SOL    HW216203   4.065   0.643   7.448  0.7783  0.4040 -0.0636
 1582SOL     OW16204   0.755   3.038   4.748  0.0498 -0.4636 -0.0766
 1582SOL    HW116205   0.817   3.014   4.679  2.9012  2.0683  1.5889
 1582SOL    HW216206   0.806   3.009   4.824 -0.7359  0.8851  0.9530
 1583SOL     OW16207   1.007   0.033   4.819 -0.1597 -0.3866  0.0072
 1583SOL    HW116208   1.063   0.063   4.890  1.4602 -0.9854 -1.0255
 1583SOL    HW216209   0.987   0.122   4.789 -0.5133 -0.4471  0.0583
 1584SOL     OW16210   0.988   2.843   6.174 -0.4807 -0.3255 -0.5252
 1584SOL    HW116211   1.023   2.890   6.098  0.1573  0.7842  0.4536
 1584SOL    HW216212   0.971   2.917   6.232 -0.3884  0.1955 -1.1599
 1585SOL     OW16213   3.321   0.447   4.367 -0.1510  0.2808 -0.2583
 1585SOL    HW116214   3.372   0.528   4.359  1.6406 -0.8232  0.1328
 1585SOL    HW216215   3.237   0.490   4.385 -0.4861 -1.6426  2.6807
 1586SOL     OW16216   1.711   4.339   3.916  0.2342  0.6518 -0.6221
 1586SOL    HW116217   1.637   4.378   3.963  1.0429 -0.7408  1.8076
 1586SOL    HW216218   1.785   4.340   3.977  0.1359 -1.3591 -0.4701
 1587SOL     OW16219   0.298   0.626   5.654 -0.2599  0.5964  0.0409
 1587SOL    HW116220   0.301   0.622   5.750  1.0076 -0.4947 -0.0352
 1587SOL    HW216221   0.209   0.660   5.645 -0.1974  0.8489  0.3848
 1588SOL     OW16222   2.435   1.930   9.390  0.2367 -0.6821  0.1956
 1588SOL    HW116223   2.497   1.899   9.325 -0.5994  1.2153 -1.5166
 1588SOL    HW216224   2.372   1.975   9.334  0.1442  0.9980  1.6547
 1589SOL     OW16225   4.238   4.607   0.686  0.0198  0.2024  0.4474
 1589SOL    HW116226   4.329   4.633   0.669 -0.3344 -0.2552 -2.1086
 1589SOL    HW216227   4.206   4.683   0.735  0.7161  1.4905 -1.1089
 1590SOL     OW16228   2.417   3.988   6.594 -0.3637  0.9299 -0.6073
 1590SOL    HW116229   2.390   3.897   6.583 -0.1059  0.5306  2.2841
 1590SOL    HW216230   2.510   3.983   6.573 -0.8356 -2.1310 -1.9593
 1591SOL     OW16231   1.045   1.195   8.716  0.5054 -0.3238 -0.6057
 1591SOL    HW116232   1.003   1.110   8.733 -0.6503  0.0728 -1.4261
 1591SOL    HW216233   0.966   1.244   8.695  0.1917 -0.2316  0.8101
 1592SOL     OW16234   0.001   1.307   8.822 -0.5870  0.3642  0.2034
 1592SOL    HW116235   4.636   1.290   8.863 -0.1187  0.4348  1.1898
 1592SOL    HW216236   0.010   1.402   8.815 -1.1626  0.5272  1.6595
 1593SOL     OW16237   1.799   2.263   0.644  0.0285 -0.4414 -1.0652
 1593SOL    HW116238   1.784   2.357   0.651  0.2260 -0.4347 -0.7354
 1593SOL    HW216239   1.784   2.257   0.549 -0.7864 -0.6191 -0.9240
 1594SOL     OW16240   1.819   2.371   6.890  0.0752 -0.0453 -0.0826
 1594SOL    HW116241   1.853   2.395   6.804  1.1770 -1.4644 -0.0465
 1594SOL    HW216242   1.779   2.455   6.913  1.7832  1.2883 -1.9053
 1595SOL     OW16243   0.705   0.138   1.253 -0.4999 -0.3624 -0.4132
 1595SOL    HW116244   0.719   0.057   1.204  0.6421 -0.6044  0.3292
 1595SOL    HW216245   0.619   0.136   1.295 -0.5413 -0.1848 -0.4922
 1596SOL     OW16246   3.810   0.507   4.506  0.0555  0.1483  0.5114
 1596SOL    HW116247   3.720   0.481   4.527  0.3802 -1.7425 -0.5162
 1596SOL    HW216248   3.842   0.551   4.585 -2.9286 -1.7424  2.7944
 1597SOL     OW16249   0.700   4.005   6.857 -0.0177 -0.6346  0.5098
 1597SOL    HW116250   0.640   4.073   6.826  0.4151  0.1910  1.4881
 1597SOL    HW216251   0.783   4.046   6.833  0.6011 -1.8961  0.4927
 1598SOL     OW16252   1.428   4.381  15.495 -0.2926 -0.0375  0.8228
 1598SOL    HW116253   1.424   4.414  15.405  2.9893 -0.7833  0.3944
 1598SOL    HW216254   1.517   4.407  15.518  0.7350 -2.8259  0.0063
 1599SOL     OW16255   1.861   3.036   9.080 -0.0465 -0.5871 -0.3983
 1599SOL    HW116256   1.845   2.942   9.090 -0.1129 -0.5001  0.3245
 1599SOL    HW216257   1.906   3.062   9.160  0.2447 -2.5620  0.0725
 1600SOL     OW16258   1.827   2.816   3.901 -0.1249 -0.6332 -0.4884
 1600SOL    HW116259   1.775   2.801   3.823  0.1620  0.4604 -0.8872
 1600SOL    HW216260   1.802   2.736   3.949 -0.5376 -1.1727 -1.6024
 1601SOL     OW16261   1.056   0.728   5.478  0.5973 -0.3129  0.2350
 1601SOL    HW116262   1.068   0.634   5.464  1.8358 -0.0151 -0.6895
 1601SOL    HW216263   1.075   0.733   5.572  0.2110 -1.6013  0.3853
 1602SOL     OW16264   4.393   3.187  15.989  0.2557  0.2107 -0.5820
 1602SOL    HW116265   4.438   3.131  16.053 -1.8740 -1.6322 -0.7041
 1602SOL    HW216266   4.340   3.123  15.941  1.0556  0.0050 -1.2012
 1603SOL     OW16267   2.778   4.195   6.521  0.0055 -0.2250 -0.2933
 1603SOL    HW116268   2.693   4.226   6.490 -0.9142  0.3684  2.8360
 1603SOL    HW216269   2.742   4.114   6.559  1.5727 -0.9055 -0.2294
 1604SOL     OW16270   1.427   2.074   7.655  0.0561  0.4416 -0.1500
 1604SOL    HW116271   1.396   2.093   7.743  3.1944 -0.3093  1.1261
 1604SOL    HW216272   1.522   2.082   7.665  0.1838 -0.5895 -0.6082
 1605SOL     OW16273   2.069   4.558   2.696 -0.0742 -0.4171 -0.1185
 1605SOL    HW116274   2.038   4.468   2.699  0.7010 -0.6871 -0.2600
 1605SOL    HW216275   2.052   4.586   2.786  0.2613  2.0209 -0.7956
 1606SOL     OW16276   4.052   3.813  12.183 -0.0550  0.5953 -0.3811
 1606SOL    HW116277   4.052   3.799  12.088 -1.3913 -1.6261 -0.0366
 1606SOL    HW216278   4.052   3.725  12.219 -0.9789 -0.4011 -2.7670
 1607SOL     OW16279   1.876   4.151   2.892  0.2743  0.5365 -0.1164
 1607SOL    HW116280   1.845   4.207   2.963  3.4477  1.0602  0.8980
 1607SOL    HW216281   1.805   4.155   2.828 -0.3335 -0.8305  0.4849
 1608SOL     OW16282   3.497   3.218   3.332 -0.8498 -0.2704 -0.5771
 1608SOL    HW116283   3.493   3.276   3.256  1.2248  0.5292 -0.0798
 1608SOL    HW216284   3.579   3.169   3.318 -0.4147  0.5640 -0.9400
 1609SOL     OW16285   1.503   2.533   7.624  0.4615  0.3486 -0.2389
 1609SOL    HW116286   1.458   2.537   7.708  1.1048 -2.1923  0.2184
 1609SOL    HW216287   1.425   2.511   7.573  0.9118 -0.6719 -0.4952
 1610SOL     OW16288   4.028   0.145   4.536 -0.0941  0.0676  0.0879
 1610SOL    HW116289   4.038   0.118   4.627 -1.8322 -2.6376 -0.4992
 1610SOL    HW216290   4.108   0.191   4.511  0.8138  0.5229  3.9029
 1611SOL     OW16291   1.111   3.665   2.531  0.2434 -0.1637  0.1747
 1611SOL    HW116292   1.060   3.721   2.590  1.7907  0.6363  0.7480
 1611SOL    HW216293   1.120   3.722   2.455  1.1843 -0.0505  0.3661
 1612SOL     OW16294   0.927   1.472   5.416 -0.5068  0.0599  0.3709
 1612SOL    HW116295   0.915   1.384   5.451  4.4592 -1.5109 -1.9146
 1612SOL    HW216296   0.874   1.457   5.338  0.9502 -1.5228 -0.3036
 1613SOL     OW16297   0.779   2.138  14.742 -0.0819 -0.1333  0.6075
 1613SOL    HW116298   0.813   2.049  14.748  0.0689 -0.1498 -0.5977
 1613SOL    HW216299   0.788   2.174  14.830 -2.0101  0.0637  0.7223
 1614SOL     OW16300   2.270   1.718   8.379 -0.2855  0.6216 -0.2846
 1614SOL    HW116301   2.238   1.794   8.427 -0.6174 -0.5904  1.4112
 1614SOL    HW216302   2.316   1.677   8.452 -1.9108  0.6159  0.7326
 1615SOL     OW16303   0.270   1.095   4.378 -0.4608 -0.2765  0.0045
 1615SOL    HW116304   0.341   1.155   4.355  1.0687 -1.3747  1.8076
 1615SOL    HW216305   0.230   1.140   4.452 -1.9572 -2.3941  0.4873
 1616SOL     OW16306   3.761   1.144   9.905 -0.5780  0.0463 -0.7351
 1616SOL    HW116307   3.771   1.159   9.999  2.4169 -0.0293 -1.0357
 1616SOL    HW216308   3.840   1.089   9.904 -0.0748  0.7746 -0.6717
 1617SOL     OW16309   2.023   1.379   4.130 -0.7492  0.4943  0.5285
 1617SOL    HW116310   2.058   1.386   4.041  1.1449 -1.9233  1.0937
 1617SOL    HW216311   2.102   1.375   4.185  0.7324 -1.0811 -1.7015
 1618SOL     OW16312   2.346   4.214   3.473  0.0067  0.1046  0.6274
 1618SOL    HW116313   2.406   4.226   3.400 -1.3484  1.0581 -0.3359
 1618SOL    HW216314   2.269   4.246   3.426 -0.9670 -0.9266  1.5029
 1619SOL     OW16315   2.168   1.677   2.301  0.3281  0.4209  0.6057
 1619SOL    HW116316   2.156   1.602   2.242 -0.3708 -1.1857  2.7908
 1619SOL    HW216317   2.131   1.745   2.243  1.0495  1.8757  1.8674
 1620SOL     OW16318   3.654   4.073   2.862  0.4566  0.2807  0.3730
 1620SOL    HW116319   3.578   4.109   2.817 -0.3578 -1.2639  0.5270
 1620SOL    HW216320   3.712   4.052   2.789 -0.3588 -0.7531  0.0277
 1621SOL     OW16321   4.555   2.741   1.896 -0.2618 -0.6913  0.5176
 1621SOL    HW116322   4.600   2.657   1.884  0.3506 -0.1549 -1.0117
 1621SOL    HW216323   4.611   2.795   1.840  0.6966 -1.5805  0.6146
 1622SOL     OW16324   4.698   4.473   6.178 -0.1207 -0.3371  0.3652
 1622SOL    HW116325   0.045   4.502   6.116 -1.8100  0.6527 -0.9901
 1622SOL    HW216326   4.625   4.471   6.117  1.2101 -0.4244 -1.2221
 1623SOL     OW16327   3.804   3.909   5.263 -0.5456  0.7089  0.0208
 1623SOL    HW116328   3.870   3.858   5.216 -0.2372  0.8584  0.2933
 1623SOL    HW216329   3.726   3.898   5.208 -0.5620 -0.2354  0.2479
 1624SOL     OW16330   3.860   1.824   7.044  0.0214 -0.4973  0.3053
 1624SOL    HW116331   3.767   1.844   7.053 -0.0957 -0.4500 -1.0213
 1624SOL    HW216332   3.886   1.895   6.984 -0.3173 -1.1858 -0.6417
 1625SOL     OW16333   3.740   1.590  14.928 -0.0648  0.1232  0.0402
 1625SOL    HW116334   3.756   1.500  14.899  1.3277  0.0521  0.9919
 1625SOL    HW216335   3.655   1.614  14.891  0.1806  1.2230  0.1939
 1626SOL     OW16336   3.447   4.637   7.836 -0.4002 -0.3934 -0.4827
 1626SOL    HW116337   3.487   4.599   7.914  0.1950 -0.2738 -0.7262
 1626SOL    HW216338   3.529   4.651   7.789  0.2804  4.4744  2.0983
 1627SOL     OW16339   2.560   3.869   5.619 -0.1958 -0.3314  0.4791
 1627SOL    HW116340   2.604   3.787   5.639 -1.1861 -0.9714  0.0522
 1627SOL    HW216341   2.473   3.834   5.603 -1.2742  1.8936  1.4659
 1628SOL     OW16342   3.028   2.640   7.669  0.0195 -0.1329  0.3732
 1628SOL    HW116343   3.100   2.577   7.665  1.4627  1.4105  1.8845
 1628SOL    HW216344   2.969   2.593   7.728  0.0517 -0.2873  0.2812
 1629SOL     OW16345   0.127   2.370   8.935 -0.0209 -0.0258  0.4975
 1629SOL    HW116346   0.159   2.288   8.972  0.7869  0.2945  0.4922
 1629SOL    HW216347   0.061   2.324   8.881 -0.9101  0.9569  0.7534
 1630SOL     OW16348   4.564   1.174   1.311 -0.2392 -0.2783 -0.2615
 1630SOL    HW116349   4.545   1.186   1.218  0.5146  0.1627 -0.3612
 1630SOL    HW216350   4.486   1.210   1.355 -0.3793 -1.3469  0.3602
 1631SOL     OW16351   1.005   0.322   8.574  0.0311 -0.2014 -0.3836
 1631SOL    HW116352   1.024   0.242   8.623  0.4374 -0.7712 -1.4952
 1631SOL    HW216353   0.978   0.373   8.651 -1.3196 -0.7463 -0.4992
 1632SOL     OW16354   3.448   2.879   0.196  0.4364 -0.0670  0.6925
 1632SOL    HW116355   3.423   2.967   0.166 -1.2152 -1.1656 -1.1398
 1632SOL    HW216356   3.424   2.900   0.286  4.0158 -3.0774  2.3306
 1633SOL     OW16357   1.006   4.648   9.482  0.2031  0.2739  0.3632
 1633SOL    HW116358   1.049   4.681   9.561  1.7593  0.7335 -0.6690
 1633SOL    HW216359   0.980   4.560   9.509  0.0700  0.4557  0.8287
 1634SOL     OW16360   0.698   2.256  10.000  0.3190 -0.5184 -0.0173
 1634SOL    HW116361   0.625   2.231  10.056 -1.1361  0.4552 -1.4616
 1634SOL    HW216362   0.738   2.171   9.978  1.7502  0.0485  0.3761
 1635SOL     OW16363   1.298   4.321   0.647  0.0113  0.0763 -0.1085
 1635SOL    HW116364   1.365   4.252   0.649  0.5770  0.6076 -0.6749
 1635SOL    HW216365   1.336   4.384   0.708  0.7021  0.4225 -0.8942
 1636SOL     OW16366   3.298   2.281   8.786 -1.1358 -0.3165 -0.0461
 1636SOL    HW116367   3.324   2.315   8.871  0.6500  1.4283 -1.3053
 1636SOL    HW216368   3.293   2.356   8.726  1.1445  0.4816  0.7627
 1637SOL     OW16369   1.422   2.383   1.966 -0.1896 -0.2065 -0.9870
 1637SOL    HW116370   1.346   2.412   2.017  0.2571 -0.2685 -0.2839
 1637SOL    HW216371   1.383   2.299   1.940  1.2752 -0.6650 -1.7045
 1638SOL     OW16372   2.779   0.231   4.509  0.0421 -0.3825  0.1855
 1638SOL    HW116373   2.754   0.321   4.486 -0.7584 -0.7933 -0.5518
 1638SOL    HW216374   2.794   0.193   4.423 -0.5341 -0.2682  0.0296
 1639SOL     OW16375   3.990   4.506   7.905  0.7468  0.0803  0.2631
 1639SOL    HW116376   4.077   4.499   7.944  0.8032  0.6520  0.2471
 1639SOL    HW216377   3.970   4.424   7.861 -0.5440  0.2487  0.5472
 1640SOL     OW16378   0.649   0.603   7.076  0.1425 -0.4958  0.3517
 1640SOL    HW116379   0.636   0.542   7.003  1.6453 -0.8270  0.3660
 1640SOL    HW216380   0.727   0.563   7.115  1.8046  2.2148 -0.1911
 1641SOL     OW16381   2.027   3.033   8.417  0.1546  0.1274 -0.0631
 1641SOL    HW116382   1.966   2.959   8.425  0.1039  0.2752  0.8398
 1641SOL    HW216383   2.004   3.095   8.486  2.3131 -0.1868  0.9338
 1642SOL     OW16384   4.626   4.593   8.006 -0.5387  0.1457 -0.7665
 1642SOL    HW116385   4.712   4.571   7.971 -0.8887  0.0577 -1.5999
 1642SOL    HW216386   4.622   4.528   8.076 -0.6306 -0.8884 -1.7112
 1643SOL     OW16387   0.286   2.032  15.539 -0.9961 -0.2762 -0.4921
 1643SOL    HW116388   0.253   1.976  15.609  3.1304 -0.5926  1.1985
 1643SOL    HW216389   0.340   1.971  15.489 -1.8281 -0.4466 -1.1831
 1644SOL     OW16390   3.107   2.600   2.470  0.0875 -0.0214 -0.0602
 1644SOL    HW116391   3.154   2.516   2.464 -3.0651 -2.0123  3.4845
 1644SOL    HW216392   3.026   2.560   2.437 -0.0798  1.7616 -1.8191
 1645SOL     OW16393   4.432   2.312   0.824  0.2497 -0.5858  0.6301
 1645SOL    HW116394   4.470   2.305   0.736 -0.7884 -2.0611  0.2952
 1645SOL    HW216395   4.359   2.372   0.809  0.5382 -0.4847 -0.3750
 1646SOL     OW16396   1.304   4.335   3.523  0.1057  0.1603  0.3584
 1646SOL    HW116397   1.293   4.252   3.476  1.5455  0.7105 -0.9393
 1646SOL    HW216398   1.353   4.385   3.458  1.2164 -0.8334  0.4323
 1647SOL     OW16399   3.150   2.307   3.630 -0.2200 -0.1860  0.1002
 1647SOL    HW116400   3.105   2.383   3.594  1.5130  0.1744 -1.3280
 1647SOL    HW216401   3.121   2.239   3.569 -2.4918  2.3363 -1.5997
 1648SOL     OW16402   4.195   1.554   0.549 -0.0948  0.1881 -0.2710
 1648SOL    HW116403   4.283   1.582   0.526 -0.3552  1.8565  0.7728
 1648SOL    HW216404   4.205   1.459   0.548  0.7775  0.2758  1.0110
 1649SOL     OW16405   2.728   1.967   3.589 -0.5266  0.1872  0.5503
 1649SOL    HW116406   2.681   2.036   3.637 -0.5584  0.0641  0.6978
 1649SOL    HW216407   2.669   1.972   3.514  0.5115 -0.5214 -0.3027
 1650SOL     OW16408   0.600   0.773   3.010 -0.0608 -0.0222 -0.2723
 1650SOL    HW116409   0.642   0.839   3.066 -0.1752 -0.6663  0.5737
 1650SOL    HW216410   0.613   0.812   2.924 -0.3078  3.7818  1.3868
 1651SOL     OW16411   2.603   0.949   5.964  0.7267  0.5392  0.1318
 1651SOL    HW116412   2.603   1.029   6.017 -0.7037  0.9690 -0.5180
 1651SOL    HW216413   2.535   0.900   6.009 -1.2217  0.3945 -2.9751
 1652SOL     OW16414   2.437   0.467   2.843 -0.0971 -0.1362 -0.4207
 1652SOL    HW116415   2.518   0.422   2.819 -0.6952 -1.0639 -0.6922
 1652SOL    HW216416   2.378   0.447   2.770 -0.0891 -0.4970 -0.3325
 1653SOL     OW16417   3.277   0.280  13.386 -0.0399  0.5860 -0.1057
 1653SOL    HW116418   3.296   0.221  13.313 -0.1396 -1.1517  1.2948
 1653SOL    HW216419   3.232   0.220  13.445  0.3313  0.5269  0.1149
 1654SOL     OW16420   3.503   3.412   3.093 -0.7316 -0.3949  0.2701
 1654SOL    HW116421   3.458   3.444   3.014  0.4793 -0.7937 -0.5878
 1654SOL    HW216422   3.533   3.489   3.141 -1.1375  0.5544 -0.9754
 1655SOL     OW16423   1.765   2.013   7.124 -0.4751 -0.0816 -0.4305
 1655SOL    HW116424   1.812   1.982   7.047  0.6849 -0.9672  0.6275
 1655SOL    HW216425   1.795   2.103   7.133  0.4650 -0.5807  1.3917
 1656SOL     OW16426   3.649   3.246   7.796 -0.5657 -0.7786 -0.0591
 1656SOL    HW116427   3.659   3.182   7.867 -0.5917 -0.3886  0.2977
 1656SOL    HW216428   3.570   3.210   7.755 -1.5467  1.0561  0.2455
 1657SOL     OW16429   0.280   2.905  17.595  0.9167  0.1651 -0.0612
 1657SOL    HW116430   0.224   2.983  17.598 -0.0890 -0.5653 -0.0468
 1657SOL    HW216431   0.357   2.926  17.647  1.1648 -0.4553 -0.1859
 1658SOL     OW16432   0.904   0.958   0.530 -0.2409 -0.6389  0.0583
 1658SOL    HW116433   0.850   1.036   0.541  1.1642  0.3383  0.0486
 1658SOL    HW216434   0.834   0.893   0.538 -0.0468 -1.0718 -1.8351
 1659SOL     OW16435   2.133   1.679   7.936 -0.2837 -0.1999 -0.1561
 1659SOL    HW116436   2.206   1.617   7.938  0.8156  1.0709 -1.6434
 1659SOL    HW216437   2.088   1.660   7.853 -1.0515  0.9313  0.0042
 1660SOL     OW16438   3.151   3.811   6.450 -0.5687 -0.2553  0.2494
 1660SOL    HW116439   3.222   3.747   6.457 -1.1592 -1.0152 -0.8257
 1660SOL    HW216440   3.206   3.881   6.486 -2.2682  0.2650  1.8441
 1661SOL     OW16441   4.469   2.275   1.646  0.5974 -0.6167  0.7699
 1661SOL    HW116442   4.550   2.264   1.596  0.6430  1.2978  0.4142
 1661SOL    HW216443   4.413   2.307   1.575  2.9310 -0.0074 -0.7742
 1662SOL     OW16444   4.628   0.989  11.528  0.3258  0.0308 -0.1066
 1662SOL    HW116445   4.674   0.947  11.600 -1.5748 -0.6406  0.7092
 1662SOL    HW216446   4.558   0.924  11.515  0.3622  0.5110 -2.8060
 1663SOL     OW16447   0.337   0.710   5.395 -0.0226 -0.0138  0.3207
 1663SOL    HW116448   0.396   0.642   5.361 -0.8664  0.3044 -1.7835
 1663SOL    HW216449   0.338   0.679   5.486 -0.7295  1.2741  0.7663
 1664SOL     OW16450   4.222   0.300   3.100  0.2152  0.1547 -0.4570
 1664SOL    HW116451   4.191   0.262   3.182 -1.4262  0.7406 -0.8159
 1664SOL    HW216452   4.311   0.264   3.095  0.7779  1.6448 -1.2967
 1665SOL     OW16453   0.815   2.037   7.113  0.3638 -0.0153  1.0660
 1665SOL    HW116454   0.833   1.980   7.188 -3.0958 -2.2018  0.2652
 1665SOL    HW216455   0.900   2.075   7.091  0.7755 -1.1623  0.6700
 1666SOL     OW16456   2.079   0.577   7.047 -0.0499 -0.7204  0.0131
 1666SOL    HW116457   2.141   0.504   7.040 -0.4769 -0.8174 -2.7138
 1666SOL    HW216458   2.062   0.575   7.141  3.4033  0.8767  0.6869
 1667SOL     OW16459   4.647   1.785  17.444 -0.0171 -0.4449 -0.6335
 1667SOL    HW116460   4.633   1.776  17.350 -0.5988  0.5388 -0.6403
 1667SOL    HW216461   4.556   1.777  17.475 -0.5106 -0.4216 -2.0733
 1668SOL     OW16462   0.502   1.389  14.007  0.0574  0.5666  1.0538
 1668SOL    HW116463   0.542   1.450  14.068  0.7870  1.2104 -0.0599
 1668SOL    HW216464   0.425   1.435  13.972  0.4805 -0.3261 -1.0676
 1669SOL     OW16465   2.586   0.797   4.625  0.3762  0.0046 -0.1910
 1669SOL    HW116466   2.529   0.730   4.665 -1.0272  0.0814 -2.0526
 1669SOL    HW216467   2.506   0.848   4.611  0.5675  0.0959 -0.9187
 1670SOL     OW16468   3.243   4.398   4.150 -0.0584  0.2942 -0.0370
 1670SOL    HW116469   3.316   4.373   4.206 -0.3414 -1.3183 -0.3901
 1670SOL    HW216470   3.267   4.369   4.062  0.8272  1.1572 -0.0889
 1671SOL     OW16471   3.303   0.805   5.478 -0.0173  0.3292 -0.3301
 1671SOL    HW116472   3.381   0.848   5.512 -0.5714 -0.1555  1.5402
 1671SOL    HW216473   3.313   0.819   5.384  1.9439  2.7969  0.2564
 1672SOL     OW16474   4.688   3.514   8.230 -0.8018  0.3856 -0.2384
 1672SOL    HW116475   0.045   3.571   8.231 -1.0702  0.7025  2.2624
 1672SOL    HW216476   4.661   3.539   8.318 -0.9669  0.4827 -0.3182
 1673SOL     OW16477   3.188   4.118  13.546 -0.3952 -0.0358  0.5681
 1673SOL    HW116478   3.119   4.180  13.524  0.2836  0.7537  0.6411
 1673SOL    HW216479   3.151   4.038  13.510  2.2867 -1.6543  1.3562
 1674SOL     OW16480   4.324   2.182   6.554 -0.1646  0.3029  0.2166
 1674SOL    HW116481   4.229   2.185   6.545 -0.2603  1.0403  1.4034
 1674SOL    HW216482   4.348   2.104   6.604  1.3398  1.4574  1.2817
 1675SOL     OW16483   0.846   2.287  15.376 -0.0854  0.6394  0.1310
 1675SOL    HW116484   0.828   2.341  15.299 -0.1157  0.4090 -0.0219
 1675SOL    HW216485   0.865   2.205  15.332  0.4179  0.3659  0.8634
 1676SOL     OW16486   2.911   1.590   6.269  0.8643  0.2152  0.5632
 1676SOL    HW116487   2.983   1.650   6.255  0.1394  0.9125 -0.1801
 1676SOL    HW216488   2.925   1.562   6.360  0.7788  1.1570  0.8649
 1677SOL     OW16489   3.754   1.778   7.599 -0.0929 -0.4234  0.0732
 1677SOL    HW116490   3.847   1.791   7.612 -0.2306  0.5479  0.0780
 1677SOL    HW216491   3.735   1.684   7.609 -0.6846 -0.4780 -1.5466
 1678SOL     OW16492   4.424   3.235  16.379 -0.1166  0.6810 -0.3949
 1678SOL    HW116493   4.437   3.175  16.305  2.0890  1.9965 -1.0597
 1678SOL    HW216494   4.328   3.229  16.383 -0.0937  0.0708 -0.8858
 1679SOL     OW16495   1.242   0.758   5.074  0.5622 -0.1156  0.0454
 1679SOL    HW116496   1.229   0.742   5.167  2.7663 -1.3748  0.1341
 1679SOL    HW216497   1.338   0.754   5.072  0.5008 -1.1357 -0.3995
 1680SOL     OW16498   1.686   2.387  16.793 -0.4404  0.0285  0.4599
 1680SOL    HW116499   1.670   2.442  16.716  0.9704 -0.5249 -0.2308
 1680SOL    HW216500   1.598   2.355  16.810  0.1046 -2.2810 -1.1256
 1681SOL     OW16501   2.156   1.311   5.609 -0.5020  0.1601  0.0237
 1681SOL    HW116502   2.249   1.306   5.589 -0.0905  2.4305  1.3211
 1681SOL    HW216503   2.116   1.265   5.535 -0.8637  0.0117  0.3118
 1682SOL     OW16504   3.811   1.066  12.853  0.3967 -0.6458  0.8836
 1682SOL    HW116505   3.887   1.071  12.912  0.6511  0.5327  0.4596
 1682SOL    HW216506   3.762   0.991  12.885 -0.6328 -0.0597  0.6850
 1683SOL     OW16507   4.595   0.848   3.927 -0.1514  0.0415  0.2536
 1683SOL    HW116508   4.617   0.928   3.880  0.2569 -1.6271 -2.4163
 1683SOL    HW216509   4.671   0.797   3.901 -1.2651 -0.2626 -2.4236
 1684SOL     OW16510   2.824   2.848   3.830 -0.0671 -0.6426  0.1980
 1684SOL    HW116511   2.781   2.810   3.753  2.0152  1.3472 -1.9565
 1684SOL    HW216512   2.751   2.897   3.868  0.8769  0.5619  0.4809
 1685SOL     OW16513   0.303   0.990   7.262 -0.0833 -0.0911  0.4017
 1685SOL    HW116514   0.260   0.966   7.180 -0.3634  0.3399  0.4265
 1685SOL    HW216515   0.229   1.005   7.321 -0.7052  0.7092 -0.6022
 1686SOL     OW16516   4.039   0.786   9.571  0.0945 -0.3116  0.1207
 1686SOL    HW116517   4.006   0.704   9.533  1.6659 -0.8094 -0.1562
 1686SOL    HW216518   3.998   0.772   9.657 -1.7843 -2.3392 -1.0952
 1687SOL     OW16519   3.099   0.429  16.838 -0.0692 -0.0858  0.3331
 1687SOL    HW116520   3.032   0.437  16.770  1.3770  0.4582 -1.0110
 1687SOL    HW216521   3.060   0.481  16.909 -1.3414 -0.9818  0.2944
 1688SOL     OW16522   0.524   3.425  14.261 -0.3947 -0.2324  0.4509
 1688SOL    HW116523   0.543   3.458  14.173 -0.6412 -1.4253 -0.0594
 1688SOL    HW216524   0.587   3.352  14.255 -0.7993 -0.3969 -1.9468
 1689SOL     OW16525   0.325   0.973  14.243  0.1657  0.1353  0.2143
 1689SOL    HW116526   0.388   1.024  14.192 -0.2779 -1.6826 -2.1695
 1689SOL    HW216527   0.289   1.048  14.291 -2.8172 -1.1313 -0.0473
 1690SOL     OW16528   3.361   2.638   8.442  0.5292 -0.7008 -0.0532
 1690SOL    HW116529   3.381   2.664   8.352  0.8873  2.9598  1.0714
 1690SOL    HW216530   3.447   2.625   8.483  0.1359  0.5019  1.1608
 1691SOL     OW16531   2.291   1.407   7.644 -0.1024 -0.0359  0.1330
 1691SOL    HW116532   2.227   1.338   7.627 -0.3552  0.7494 -2.0966
 1691SOL    HW216533   2.336   1.365   7.717  0.6930  0.1194 -0.2760
 1692SOL     OW16534   0.957   4.170  10.725  0.0453  0.7393  0.0017
 1692SOL    HW116535   1.031   4.196  10.669  0.2030  0.2508 -0.0179
 1692SOL    HW216536   0.886   4.196  10.666 -1.4690 -1.5876  0.8330
 1693SOL     OW16537   2.845   0.481  13.444 -0.4442 -0.2174  0.3309
 1693SOL    HW116538   2.780   0.519  13.386 -1.3845 -1.4154  0.6023
 1693SOL    HW216539   2.868   0.396  13.406 -0.1267 -0.0900  0.2376
 1694SOL     OW16540   2.313   4.131   6.005  0.0562 -0.0866 -0.2269
 1694SOL    HW116541   2.250   4.058   6.003 -0.6777  0.5124  0.6691
 1694SOL    HW216542   2.312   4.164   5.916 -0.2309 -0.0275 -0.2042
 1695SOL     OW16543   0.408   2.966   4.976 -0.1438  0.4605  0.1144
 1695SOL    HW116544   0.383   2.981   5.067  1.3626 -0.6733  0.7123
 1695SOL    HW216545   0.361   2.884   4.961 -0.6912  0.3192  2.6606
 1696SOL     OW16546   4.191   1.817  16.590 -0.2927 -0.3625 -0.6702
 1696SOL    HW116547   4.200   1.771  16.673  0.0901  1.1537  0.1336
 1696SOL    HW216548   4.105   1.859  16.592  0.1162  0.5001 -1.2597
 1697SOL     OW16549   2.440   3.258  16.735  0.5053  0.1714 -0.1104
 1697SOL    HW116550   2.363   3.314  16.723  0.0292  0.0565  2.3264
 1697SOL    HW216551   2.488   3.275  16.654  0.7616 -1.1776 -0.2317
 1698SOL     OW16552   0.842   0.617   5.016 -0.7400 -0.5290  0.1613
 1698SOL    HW116553   0.756   0.620   5.058 -0.7518  2.1893 -0.0427
 1698SOL    HW216554   0.850   0.706   4.983 -0.0374 -0.5606  0.2648
 1699SOL     OW16555   0.733   1.913   7.547 -0.1644 -0.1557 -0.1341
 1699SOL    HW116556   0.816   1.924   7.499  0.9261 -1.3759  1.4805
 1699SOL    HW216557   0.738   1.826   7.585  0.8562 -0.5221 -1.0864
 1700SOL     OW16558   0.439   3.314   6.692 -0.6022 -0.3484  0.0731
 1700SOL    HW116559   0.350   3.340   6.668 -1.1656 -0.2744  2.1916
 1700SOL    HW216560   0.450   3.238   6.635  1.8396  0.4505 -0.5258
 1701SOL     OW16561   2.068   0.254   9.822  0.7454  0.1581 -0.2397
 1701SOL    HW116562   2.069   0.312   9.898 -3.5853 -3.5452  2.6440
 1701SOL    HW216563   2.158   0.223   9.825 -0.0993 -2.2530  0.7475
 1702SOL     OW16564   0.724   2.882   2.940  0.0227  0.0646 -0.1544
 1702SOL    HW116565   0.755   2.914   3.025  0.5055  1.4515 -0.8584
 1702SOL    HW216566   0.744   2.959   2.888 -1.1682  1.0683  0.8621
 1703SOL     OW16567   0.302   3.425   2.166  0.4480  0.1013 -0.3353
 1703SOL    HW116568   0.279   3.347   2.116 -0.1663  0.3053 -0.3759
 1703SOL    HW216569   0.249   3.403   2.242 -1.1981  1.8195 -0.9927
 1704SOL     OW16570   3.942   0.106   3.178 -0.1187 -0.1109 -0.1867
 1704SOL    HW116571   3.954   0.032   3.117  0.8786 -0.7427  0.7808
 1704SOL    HW216572   3.961   0.070   3.264 -0.2672  0.3980  0.0567
 1705SOL     OW16573   0.533   4.205   8.119 -0.1663 -0.2654 -0.1309
 1705SOL    HW116574   0.626   4.198   8.138 -0.7937 -0.3852  2.8236
 1705SOL    HW216575   0.515   4.119   8.080  0.5549  0.2940 -1.6799
 1706SOL     OW16576   2.363   4.404   1.809  0.8546  0.0686  0.2560
 1706SOL    HW116577   2.388   4.497   1.807  0.1994  0.1998 -1.5138
 1706SOL    HW216578   2.330   4.391   1.721  0.8378  1.2453  0.0861
 1707SOL     OW16579   1.198   0.359  10.038  0.0331  0.0292 -0.2730
 1707SOL    HW116580   1.233   0.408   9.964  0.7741 -0.3565 -0.1743
 1707SOL    HW216581   1.192   0.268  10.007  0.8330 -0.5070  1.1453
 1708SOL     OW16582   0.000   2.905   1.451 -1.1857 -0.0955 -0.7614
 1708SOL    HW116583   0.056   2.918   1.374  1.0708  0.2906  0.9233
 1708SOL    HW216584   4.696   2.813   1.446  2.0800 -0.9841  0.3527
 1709SOL     OW16585   3.575   0.221   9.716  0.1543 -0.2170 -0.8675
 1709SOL    HW116586   3.590   0.165   9.640 -3.2528  0.1006 -1.7706
 1709SOL    HW216587   3.488   0.199   9.750  0.1482 -1.3798 -1.6214
 1710SOL     OW16588   0.337   0.657   3.186 -0.0035 -0.2645 -0.4240
 1710SOL    HW116589   0.271   0.719   3.219  1.4799  0.7214  0.6868
 1710SOL    HW216590   0.349   0.684   3.095  2.6020  0.3957  0.1092
 1711SOL     OW16591   4.569   1.865   3.887 -0.3414 -0.2588  0.3669
 1711SOL    HW116592   4.496   1.842   3.829  0.8948  2.4415 -2.2921
 1711SOL    HW216593   4.649   1.821   3.860 -0.4244  0.3155 -0.8370
 1712SOL     OW16594   1.554   4.690   4.564 -1.0207  0.4394 -0.4469
 1712SOL    HW116595   1.481   4.709   4.506 -1.8928  1.8008  1.0912
 1712SOL    HW216596   1.617   4.663   4.498 -0.3345 -0.6361  0.6475
 1713SOL     OW16597   3.415   0.089  11.667  0.2729 -0.4434 -0.0334
 1713SOL    HW116598   3.479   0.058  11.731 -0.8497  0.1536  1.3537
 1713SOL    HW216599   3.424   0.184  11.667  0.7585 -0.4947  0.5624
 1714SOL     OW16600   0.502   1.135  15.964 -0.0015 -0.5838  0.2585
 1714SOL    HW116601   0.427   1.182  15.998 -1.6628 -2.6880 -0.4745
 1714SOL    HW216602   0.579   1.161  16.015  1.1135 -0.1483 -1.6433
 1715SOL     OW16603   2.352   3.285   0.741 -0.1017  0.6760 -0.3245
 1715SOL    HW116604   2.334   3.206   0.792  2.2724  0.9655  0.9748
 1715SOL    HW216605   2.390   3.254   0.659  3.2815  2.0912  0.7088
 1716SOL     OW16606   4.108   3.993  11.349  0.4376  0.7001  0.3272
 1716SOL    HW116607   4.181   3.933  11.332  0.9565  1.3264  0.3449
 1716SOL    HW216608   4.116   4.068  11.290  1.3622 -0.1843 -0.6761
 1717SOL     OW16609   2.540   0.947   1.949 -0.1642 -0.0077  0.0468
 1717SOL    HW116610   2.482   0.882   1.911  0.7494  0.0056 -1.3502
 1717SOL    HW216611   2.631   0.926   1.927 -0.4551 -1.3978  0.1323
 1718SOL     OW16612   1.533   0.449  10.635  0.0382  0.7209 -0.1529
 1718SOL    HW116613   1.546   0.543  10.636  3.7278  0.2241 -0.2039
 1718SOL    HW216614   1.600   0.410  10.578 -0.3192 -0.5030  0.2619
 1719SOL     OW16615   2.879   4.499   4.645 -0.3514  0.0534 -0.8401
 1719SOL    HW116616   2.884   4.516   4.551 -3.1252 -2.4941 -1.4291
 1719SOL    HW216617   2.921   4.414   4.657  1.2604  0.6926 -2.0318
 1720SOL     OW16618   3.425   2.311   5.051  0.1236  0.2354 -0.0917
 1720SOL    HW116619   3.373   2.252   5.106  0.9610 -0.1924  0.2381
 1720SOL    HW216620   3.359   2.378   5.035 -1.3651 -1.2204 -0.1020
 1721SOL     OW16621   0.358   3.639   3.538  0.5455 -0.1292 -0.9437
 1721SOL    HW116622   0.378   3.658   3.447  0.9544  0.7995 -0.6538
 1721SOL    HW216623   0.289   3.698   3.567  2.3938  1.3897  0.3287
 1722SOL     OW16624   3.641   2.441   7.583 -0.5276  0.5341 -0.2319
 1722SOL    HW116625   3.716   2.441   7.524 -1.7701 -2.9378 -1.8096
 1722SOL    HW216626   3.585   2.372   7.547  0.3713 -1.1032  1.5324
 1723SOL     OW16627   0.789   3.307   3.196 -0.2593  0.4057 -0.3635
 1723SOL    HW116628   0.879   3.341   3.199  0.1735 -0.8060  0.3331
 1723SOL    HW216629   0.785   3.252   3.274  1.4365 -0.4125 -0.8565
 1724SOL     OW16630   2.466   3.020   8.380 -0.1264  0.0139 -0.1458
 1724SOL    HW116631   2.524   2.944   8.382  1.1809  1.0277  0.1169
 1724SOL    HW216632   2.494   3.069   8.457 -0.5244 -1.6350  1.0512
 1725SOL     OW16633   3.855   3.222   3.896 -0.5016  0.1382  0.3023
 1725SOL    HW116634   3.831   3.194   3.808  0.2119 -1.5955  0.6665
 1725SOL    HW216635   3.894   3.307   3.880 -1.4458  0.3978 -0.6399
 1726SOL     OW16636   1.479   3.959   4.383  0.2661 -0.2552 -0.1009
 1726SOL    HW116637   1.541   3.899   4.341  0.6137  1.1541 -1.5844
 1726SOL    HW216638   1.465   4.022   4.313  1.4396  0.4905  0.3383
 1727SOL     OW16639   0.538   0.886  11.441  0.6262  0.5325  0.5408
 1727SOL    HW116640   0.569   0.976  11.444  1.1163  0.4356 -1.6251
 1727SOL    HW216641   0.613   0.858  11.388 -1.8640  0.0860 -2.6960
 1728SOL     OW16642   2.066   1.937   6.618  0.7220 -0.7039  0.5031
 1728SOL    HW116643   2.098   2.026   6.610 -0.6283 -0.2609  0.0628
 1728SOL    HW216644   2.125   1.900   6.553 -1.1621 -1.1258 -0.9802
 1729SOL     OW16645   4.150   1.245  16.150 -0.2924  0.6354 -0.4334
 1729SOL    HW116646   4.204   1.311  16.193 -0.0547 -1.0148  1.7743
 1729SOL    HW216647   4.175   1.167  16.199 -0.2683  0.5777 -0.5370
 1730SOL     OW16648   2.011   0.569   1.323 -0.0901  0.1697 -0.4559
 1730SOL    HW116649   1.934   0.531   1.365 -0.6897  0.3608 -1.3743
 1730SOL    HW216650   1.984   0.582   1.232 -0.6960  1.2776 -0.1060
 1731SOL     OW16651   3.516   3.212  17.376  0.1739 -0.5256 -0.7317
 1731SOL    HW116652   3.475   3.259  17.304  0.5956 -0.6476 -1.0481
 1731SOL    HW216653   3.497   3.122  17.348  2.6771 -1.2290 -0.2192
 1732SOL     OW16654   2.364   1.204   3.910 -0.4423 -0.3151  0.5262
 1732SOL    HW116655   2.293   1.221   3.848  0.4580 -0.0793 -0.4336
 1732SOL    HW216656   2.421   1.280   3.897 -0.8447 -0.4148 -1.8928
 1733SOL     OW16657   0.295   4.345   9.108 -0.2421  0.1175 -0.1142
 1733SOL    HW116658   0.238   4.298   9.047 -0.0760 -1.3235  0.8456
 1733SOL    HW216659   0.238   4.352   9.185 -1.0554  2.2581 -0.8926
 1734SOL     OW16660   0.868   0.471   5.329 -0.6473 -0.8675 -0.2856
 1734SOL    HW116661   0.951   0.475   5.377 -0.5097  0.6082 -0.6587
 1734SOL    HW216662   0.904   0.435   5.248 -0.4320  0.5984 -0.8364
 1735SOL     OW16663   2.812   3.177   8.548  0.1160  0.2424 -0.0917
 1735SOL    HW116664   2.809   3.141   8.636  0.7129  3.5625  1.2753
 1735SOL    HW216665   2.907   3.184   8.541  0.2590 -0.4720  1.2661
 1736SOL     OW16666   3.833   0.362   7.712  0.1807  0.7137  0.0157
 1736SOL    HW116667   3.743   0.353   7.683  0.4740 -1.1058 -0.2992
 1736SOL    HW216668   3.878   0.290   7.668 -2.6041 -0.7357 -0.4234
 1737SOL     OW16669   4.520   3.942   4.576 -0.1383 -0.2667 -0.2448
 1737SOL    HW116670   4.477   4.027   4.582 -0.5914 -0.2790 -3.3771
 1737SOL    HW216671   4.448   3.887   4.609  0.2689 -0.8345 -0.2979
 1738SOL     OW16672   3.452   2.321  13.255  0.0470 -0.0827 -0.2350
 1738SOL    HW116673   3.505   2.368  13.319  1.2790 -1.4647 -0.2307
 1738SOL    HW216674   3.513   2.270  13.201 -0.8274  0.6726 -1.9315
 1739SOL     OW16675   3.236   2.145   3.180 -0.3088 -0.5949  0.4075
 1739SOL    HW116676   3.153   2.190   3.165  0.6012  0.4218 -1.5765
 1739SOL    HW216677   3.231   2.065   3.128 -0.5637 -0.8834  0.8700
 1740SOL     OW16678   2.263   4.390  11.504 -0.1510  0.4724 -0.4410
 1740SOL    HW116679   2.285   4.460  11.442 -0.6171  0.6814 -0.3745
 1740SOL    HW216680   2.185   4.436  11.537 -2.4251 -1.8836 -2.6191
 1741SOL     OW16681   0.526   3.233  16.026  0.1810  0.6463 -0.2335
 1741SOL    HW116682   0.619   3.229  16.049 -0.5810 -0.2874  2.7521
 1741SOL    HW216683   0.529   3.218  15.932  0.5507  4.0611 -0.7709
 1742SOL     OW16684   1.316   4.698  17.113  0.3635 -0.5421  0.4080
 1742SOL    HW116685   1.237   0.031  17.106 -0.8909 -2.1272  2.7098
 1742SOL    HW216686   1.383   0.046  17.115 -0.5850  0.5078 -2.7026
 1743SOL     OW16687   2.479   1.284  16.435  0.1886 -0.0784  0.1138
 1743SOL    HW116688   2.436   1.308  16.517 -2.2430  1.6812 -1.6865
 1743SOL    HW216689   2.543   1.355  16.428  0.6159 -0.4412  0.3423
 1744SOL     OW16690   1.527   3.433  13.234 -0.5980 -0.4012  0.2070
 1744SOL    HW116691   1.476   3.507  13.203  1.3056  0.7760 -0.1275
 1744SOL    HW216692   1.524   3.434  13.329  0.8345 -0.0074  0.2411
 1745SOL     OW16693   4.266   0.150   3.391 -0.0475 -0.1011 -0.2821
 1745SOL    HW116694   4.237   0.240   3.384 -0.2384 -0.2361 -1.2462
 1745SOL    HW216695   4.180   0.110   3.400 -0.0034  0.0537  0.7779
 1746SOL     OW16696   1.126   3.528   8.107  0.3528  0.9088 -0.2082
 1746SOL    HW116697   1.078   3.590   8.160  0.3328  0.5757  0.1611
 1746SOL    HW216698   1.062   3.512   8.037  1.2707 -0.0701 -0.8286
 1747SOL     OW16699   1.234   2.240   8.428  0.0992 -0.2360  0.3758
 1747SOL    HW116700   1.187   2.265   8.349 -0.6878 -2.2439  0.2188
 1747SOL    HW216701   1.308   2.193   8.390  0.3982 -1.7081  2.7842
 1748SOL     OW16702   0.440   2.345  16.254 -0.1405 -0.1983  0.1488
 1748SOL    HW116703   0.399   2.427  16.282 -0.2192 -0.8437  1.9211
 1748SOL    HW216704   0.411   2.334  16.164  1.3725 -1.9094 -0.1361
 1749SOL     OW16705   3.872   0.452   2.208 -0.0398 -0.2018  0.0572
 1749SOL    HW116706   3.824   0.455   2.291 -1.7555  0.1992 -0.9565
 1749SOL    HW216707   3.889   0.545   2.195 -0.0821 -0.2546 -0.3575
 1750SOL     OW16708   2.580   0.768  11.511 -0.1464  0.0128 -0.1412
 1750SOL    HW116709   2.659   0.750  11.562  1.0784  1.2125 -1.5721
 1750SOL    HW216710   2.571   0.863  11.523 -1.5476  0.0039 -1.1079
 1751SOL     OW16711   3.658   1.097   1.971 -0.3208 -0.1363  0.3633
 1751SOL    HW116712   3.607   1.028   1.928 -1.7245  3.1099 -3.1709
 1751SOL    HW216713   3.661   1.081   2.065 -0.7834  1.8237  0.7009
 1752SOL     OW16714   4.105   3.198   6.927 -0.4303 -0.1213  0.1614
 1752SOL    HW116715   4.160   3.267   6.964  1.7439 -1.2383 -0.9497
 1752SOL    HW216716   4.075   3.144   7.000 -0.5082 -0.2287  0.0510
 1753SOL     OW16717   3.693   2.896   7.685 -0.3288 -0.2126 -0.0523
 1753SOL    HW116718   3.723   2.910   7.596 -0.6491  4.1466  0.5312
 1753SOL    HW216719   3.629   2.827   7.666  1.0165 -1.6712  0.7702
 1754SOL     OW16720   0.392   0.268   5.609  0.1056  0.6474  0.9249
 1754SOL    HW116721   0.456   0.308   5.550 -1.4481  2.3508  0.4339
 1754SOL    HW216722   0.324   0.245   5.546  0.1603  4.5297 -0.5034
 1755SOL     OW16723   3.987   1.294   3.847  0.6017 -0.5341 -0.0829
 1755SOL    HW116724   3.920   1.355   3.817  0.1746 -0.5971  0.7360
 1755SOL    HW216725   3.998   1.239   3.770 -2.0507 -1.9150  0.5363
 1756SOL     OW16726   2.384   0.975   2.240  0.1272  0.1671  0.6860
 1756SOL    HW116727   2.325   0.927   2.181  0.4420 -1.0969  1.4198
 1756SOL    HW216728   2.458   0.915   2.246  1.0255  1.2527  0.5905
 1757SOL     OW16729   4.649   4.021   7.701  0.0564  0.5926  0.2865
 1757SOL    HW116730   4.621   4.077   7.629 -0.2860  1.4707  1.1063
 1757SOL    HW216731   4.576   3.967   7.732  0.8915 -1.5275 -1.4364
 1758SOL     OW16732   2.638   1.839   6.175  0.2648  0.4245 -0.3290
 1758SOL    HW116733   2.666   1.749   6.165  0.7038  0.7320 -1.8696
 1758SOL    HW216734   2.625   1.861   6.082 -0.2725 -2.7593 -0.9819
 1759SOL     OW16735   4.173   1.896   8.179  0.2441  0.4316 -0.1800
 1759SOL    HW116736   4.084   1.868   8.200 -0.2659  0.3051 -2.4609
 1759SOL    HW216737   4.179   1.890   8.084  0.9072 -2.8645  0.0602
 1760SOL     OW16738   2.340   3.107   9.379  0.6040  0.4434  0.8957
 1760SOL    HW116739   2.400   3.112   9.304 -0.9453  0.9438 -0.3147
 1760SOL    HW216740   2.357   3.189   9.424 -1.1046  1.4698 -0.3629
 1761SOL     OW16741   2.821   4.453   4.295  1.0372 -0.0361 -0.2138
 1761SOL    HW116742   2.763   4.379   4.278  0.7828 -0.1778  1.2594
 1761SOL    HW216743   2.786   4.514   4.230  0.1123  2.1111  2.2885
 1762SOL     OW16744   0.961   0.149   9.332  0.0821  0.2143 -0.0732
 1762SOL    HW116745   0.928   0.216   9.391 -1.4374  1.2253 -2.0552
 1762SOL    HW216746   0.973   0.076   9.393  1.6861  0.4567 -0.1140
 1763SOL     OW16747   3.922   0.044   6.797  0.0688 -0.3814 -0.1748
 1763SOL    HW116748   3.926   4.682   6.746  1.1571 -1.5851  1.8175
 1763SOL    HW216749   4.008   0.084   6.782 -0.2636 -0.7636 -3.0416
 1764SOL     OW16750   1.502   1.752   9.378 -0.0024  0.3733  0.0633
 1764SOL    HW116751   1.481   1.716   9.292  2.3370  1.2136 -0.8474
 1764SOL    HW216752   1.438   1.717   9.440  0.5483  2.2947  1.7442
 1765SOL     OW16753   0.450   4.357   4.087 -0.3120 -0.6295  0.2963
 1765SOL    HW116754   0.431   4.438   4.134  0.8646  1.5065 -2.9047
 1765SOL    HW216755   0.546   4.356   4.089 -0.3052  1.1782  1.2477
 1766SOL     OW16756   1.075   0.231  12.354 -0.5014  0.2729  0.6994
 1766SOL    HW116757   1.056   0.144  12.317  0.8791  1.1913 -2.1432
 1766SOL    HW216758   1.162   0.215  12.391  0.0924  1.7210 -0.0691
 1767SOL     OW16759   3.320   2.163  10.711  0.1080 -0.0585 -0.3637
 1767SOL    HW116760   3.245   2.185  10.766 -0.1351 -2.4075  0.2383
 1767SOL    HW216761   3.372   2.243  10.709 -0.4360  0.2977 -0.2397
 1768SOL     OW16762   0.194   2.116   9.011 -0.0601  0.0256  0.0840
 1768SOL    HW116763   0.268   2.071   9.054 -1.8352 -0.6961  2.3977
 1768SOL    HW216764   0.233   2.124   8.924  1.3230  0.9756  0.7839
 1769SOL     OW16765   3.077   1.406   7.469 -0.1264  0.1494 -0.6570
 1769SOL    HW116766   3.170   1.395   7.446  0.0773  1.5809 -0.5470
 1769SOL    HW216767   3.039   1.429   7.384 -1.2134 -0.0785 -0.2228
 1770SOL     OW16768   1.890   2.912   3.436  0.1737 -0.1563  0.1621
 1770SOL    HW116769   1.943   2.840   3.404  0.5985 -0.7437  2.2382
 1770SOL    HW216770   1.919   2.916   3.527  2.6064  1.6363 -0.6996
 1771SOL     OW16771   2.686   3.819   4.229 -0.3352 -0.0047  0.5600
 1771SOL    HW116772   2.682   3.847   4.320  1.1180 -0.7851  0.8835
 1771SOL    HW216773   2.665   3.726   4.236 -0.6271  0.0867  0.8579
 1772SOL     OW16774   0.342   3.628  10.368  0.6278  0.2164 -0.1280
 1772SOL    HW116775   0.259   3.603  10.408  0.0051 -0.9191 -2.1299
 1772SOL    HW216776   0.307   3.625  10.279 -0.2914  1.0122  0.2060
 1773SOL     OW16777   3.771   0.555  10.698  0.2815  0.0702 -0.3238
 1773SOL    HW116778   3.736   0.635  10.736  0.2128 -0.2959  0.3798
 1773SOL    HW216779   3.696   0.521  10.650  0.9499 -0.6681 -0.8543
 1774SOL     OW16780   4.677   4.208  12.316 -0.1846  0.3404 -0.1273
 1774SOL    HW116781   0.030   4.264  12.290 -0.1500  0.1205 -0.4986
 1774SOL    HW216782   4.707   4.183  12.403 -1.0810 -1.0108 -0.2067
 1775SOL     OW16783   4.429   3.014   7.815  0.3068 -0.0063  0.3060
 1775SOL    HW116784   4.393   2.935   7.855 -1.3528  0.7252  0.2344
 1775SOL    HW216785   4.352   3.066   7.793  0.1507 -0.4166 -0.1154
 1776SOL     OW16786   3.633   2.486  11.867  0.8281 -0.1475 -0.0437
 1776SOL    HW116787   3.699   2.491  11.936  0.2372 -0.6656  0.5598
 1776SOL    HW216788   3.557   2.464  11.922  1.0826  0.2705  0.4784
 1777SOL     OW16789   3.490   4.031   9.512  0.0496 -0.4917 -0.2990
 1777SOL    HW116790   3.524   3.954   9.556  0.1655 -0.8573 -1.0278
 1777SOL    HW216791   3.397   4.008   9.509 -0.3311  1.2775 -2.3419
 1778SOL     OW16792   4.058   3.994   5.672  0.0167 -0.2866  0.0148
 1778SOL    HW116793   4.039   4.018   5.581 -1.5281 -1.5559  0.0176
 1778SOL    HW216794   3.970   3.980   5.705  0.4930 -0.1191  1.3410
 1779SOL     OW16795   4.615   2.757   4.444  0.4864 -0.1956  0.1190
 1779SOL    HW116796   4.540   2.788   4.495  0.7259  0.5960 -0.0142
 1779SOL    HW216797   4.690   2.780   4.498 -0.2909 -0.5723  1.3530
 1780SOL     OW16798   0.093   0.199  17.114 -0.0784 -0.2642 -0.2351
 1780SOL    HW116799   0.188   0.194  17.103  0.0973  0.1530  1.0829
 1780SOL    HW216800   0.082   0.264  17.183 -1.8148 -0.4386 -0.3268
 1781SOL     OW16801   2.547   2.223   9.198 -0.1510  0.3283 -0.1682
 1781SOL    HW116802   2.617   2.223   9.264  1.0110 -0.0080 -1.3967
 1781SOL    HW216803   2.477   2.211   9.262  0.9159  0.4385  1.0408
 1782SOL     OW16804   1.845   0.837  13.610  0.6002  0.6316 -0.4848
 1782SOL    HW116805   1.900   0.908  13.643 -1.3017  1.5528  0.6886
 1782SOL    HW216806   1.777   0.838  13.677  1.4286 -0.9253  0.3678
 1783SOL     OW16807   2.964   0.593   6.067 -0.2592 -0.2086 -0.4272
 1783SOL    HW116808   2.996   0.585   6.156  0.0320 -0.6936 -0.5717
 1783SOL    HW216809   2.923   0.679   6.060 -0.7357 -0.2644  1.7586
 1784SOL     OW16810   4.398   4.202   4.562 -0.4203 -0.2274  0.3356
 1784SOL    HW116811   4.349   4.219   4.481  0.6180 -1.3606 -0.5319
 1784SOL    HW216812   4.323   4.166   4.610 -0.3603 -0.9875 -0.1453
 1785SOL     OW16813   1.740   0.863   6.897 -0.3133  0.3991  0.2881
 1785SOL    HW116814   1.736   0.916   6.818  3.4751 -0.1542 -0.2841
 1785SOL    HW216815   1.696   0.916   6.964  0.0042  0.6231  0.3197
 1786SOL     OW16816   1.887   1.789   0.331 -0.1461 -0.3414 -0.3831
 1786SOL    HW116817   1.871   1.882   0.347  0.9106 -0.2341  0.0802
 1786SOL    HW216818   1.821   1.763   0.394 -0.3521  1.2366  0.0391
 1787SOL     OW16819   4.314   1.778   5.540  0.5904 -0.0261 -0.2478
 1787SOL    HW116820   4.364   1.858   5.525  0.0524  0.3065 -0.2644
 1787SOL    HW216821   4.375   1.719   5.583  0.1503 -0.0108  0.3908
 1788SOL     OW16822   0.024   4.063   2.018  0.3277 -0.4571  0.6324
 1788SOL    HW116823   4.669   4.060   2.079 -1.0405  1.0212 -0.9860
 1788SOL    HW216824   0.026   3.976   1.978 -0.8045 -0.3330  0.2974
 1789SOL     OW16825   3.617   4.365   7.050  0.1068 -0.3541 -0.0051
 1789SOL    HW116826   3.685   4.302   7.077  1.5050  1.2331  0.1983
 1789SOL    HW216827   3.674   4.442   7.055  0.3886 -0.6318  1.0821
 1790SOL     OW16828   1.770   4.356   9.117  0.3599 -0.1197  0.3013
 1790SOL    HW116829   1.863   4.343   9.138  0.5498 -1.3987 -1.3621
 1790SOL    HW216830   1.749   4.426   9.178  0.4818 -0.0137  0.2216
 1791SOL     OW16831   1.298   1.054   8.595 -0.1350 -0.3938  0.0294
 1791SOL    HW116832   1.212   1.031   8.631 -0.8688  1.0687 -0.7943
 1791SOL    HW216833   1.352   0.989   8.640 -0.6525 -2.2002 -1.9179
 1792SOL     OW16834   3.281   4.056  10.040  0.0403 -0.3711 -0.1240
 1792SOL    HW116835   3.334   3.988   9.999 -0.0632 -0.9398  0.6766
 1792SOL    HW216836   3.347   4.125  10.028  2.0410 -1.8940  2.0713
 1793SOL     OW16837   2.138   3.821   8.830  0.4086  0.2582 -0.0599
 1793SOL    HW116838   2.121   3.761   8.756 -0.1075 -0.3691  0.5702
 1793SOL    HW216839   2.162   3.897   8.777  0.4864  0.8819  0.8929
 1794SOL     OW16840   2.518   1.649   9.185 -0.2280 -0.1020  0.3846
 1794SOL    HW116841   2.583   1.714   9.211  0.5919 -1.4267  1.6427
 1794SOL    HW216842   2.437   1.698   9.172 -0.5524 -1.0785 -1.1497
 1795SOL     OW16843   2.471   0.158   1.517  0.5296  0.1434  0.5834
 1795SOL    HW116844   2.393   0.206   1.488 -1.0959 -2.7368  0.1691
 1795SOL    HW216845   2.477   0.109   1.435 -1.9594 -0.6125  0.8342
 1796SOL     OW16846   2.487   0.442   4.333  0.0133 -0.1102  0.3931
 1796SOL    HW116847   2.496   0.443   4.237 -2.9809 -2.2865  0.0931
 1796SOL    HW216848   2.558   0.502   4.353  0.9132 -1.2101  0.5116
 1797SOL     OW16849   2.948   0.894   8.788 -0.6336 -0.2602 -0.0814
 1797SOL    HW116850   2.967   0.979   8.828  0.0166 -0.2125 -0.4945
 1797SOL    HW216851   2.996   0.908   8.707 -0.6234  0.3287  0.0249
 1798SOL     OW16852   4.517   1.831   4.678  0.4723 -0.3301 -0.5999
 1798SOL    HW116853   4.592   1.874   4.637  0.4353  1.2525  0.9959
 1798SOL    HW216854   4.464   1.830   4.599 -2.4572  0.2496  1.3499
 1799SOL     OW16855   4.606   4.710   2.454 -0.2872 -0.1726  0.0546
 1799SOL    HW116856   4.638   0.076   2.424  1.8704 -1.9063 -2.6033
 1799SOL    HW216857   4.681   4.684   2.506 -0.1554  2.5333  1.1957
 1800SOL     OW16858   2.425   1.125  11.742  0.9777 -0.1873 -0.3979
 1800SOL    HW116859   2.486   1.196  11.726  0.0891  0.8754  1.0125
 1800SOL    HW216860   2.424   1.087  11.654 -0.2137  2.2331 -1.4185
 1801SOL     OW16861   4.406   1.415   8.079  0.0399 -0.1167  0.3174
 1801SOL    HW116862   4.482   1.426   8.137  0.0034 -0.0774  0.3578
 1801SOL    HW216863   4.367   1.345   8.131 -0.7080  1.4172  1.8412
 1802SOL     OW16864   2.780   0.181  16.068 -0.2887 -0.0634 -0.0545
 1802SOL    HW116865   2.762   0.090  16.095 -1.1555  0.1748  0.1594
 1802SOL    HW216866   2.766   0.237  16.145  0.7532 -0.6508  0.5602
 1803SOL     OW16867   0.519   0.247   9.998 -0.0468  0.0465  0.2239
 1803SOL    HW116868   0.511   0.171  10.055 -1.0055  0.3661  0.5130
 1803SOL    HW216869   0.602   0.221   9.958  0.6984  0.4588  1.5058
 1804SOL     OW16870   0.684   2.115   5.353 -0.5407  0.0578 -0.6448
 1804SOL    HW116871   0.668   2.055   5.426 -0.9670 -0.6318 -1.3045
 1804SOL    HW216872   0.610   2.100   5.294  0.8579 -0.8560 -2.1839
 1805SOL     OW16873   3.766   4.340   4.040 -0.5022  0.1058 -0.0963
 1805SOL    HW116874   3.746   4.430   4.066  0.1812  0.0635  0.5830
 1805SOL    HW216875   3.755   4.359   3.947 -1.8364 -1.6158 -0.3024
 1806SOL     OW16876   2.939   2.870   6.238  0.4544 -0.4086  1.0303
 1806SOL    HW116877   2.904   2.810   6.304 -1.0033 -0.4006  0.2566
 1806SOL    HW216878   2.878   2.853   6.167  1.7801  1.3006 -0.4887
 1807SOL     OW16879   2.602   1.471  14.007  0.2220 -0.3411 -0.1729
 1807SOL    HW116880   2.554   1.420  14.072 -1.2207  2.6098  1.0898
 1807SOL    HW216881   2.532   1.534  13.988  0.7672  0.0999 -0.7321
 1808SOL     OW16882   1.961   1.347   5.801 -0.3363  0.4856 -0.6025
 1808SOL    HW116883   2.041   1.354   5.749  0.3241  0.7452  0.4577
 1808SOL    HW216884   1.937   1.255   5.804 -2.5359  1.0940  0.6121
 1809SOL     OW16885   3.771   1.151   6.299  0.3423 -0.1122  0.0284
 1809SOL    HW116886   3.842   1.211   6.276 -1.1171  1.7696  0.4290
 1809SOL    HW216887   3.814   1.106   6.372  2.7459  0.9781 -0.7170
 1810SOL     OW16888   1.315   3.746   6.137  0.3133  0.1516  0.3189
 1810SOL    HW116889   1.345   3.656   6.144  2.2659  0.5809 -2.3666
 1810SOL    HW216890   1.361   3.776   6.059  1.7305 -0.1307  1.0467
 1811SOL     OW16891   1.554   3.291   6.934 -0.3053  0.3641  0.0878
 1811SOL    HW116892   1.506   3.245   7.002 -0.8345  0.3281 -0.3083
 1811SOL    HW216893   1.639   3.247   6.938 -0.3651  0.6788  3.9404
 1812SOL     OW16894   0.155   2.267  15.456 -0.1305 -0.5960 -0.1852
 1812SOL    HW116895   0.186   2.248  15.367  1.2637 -2.4577  0.6974
 1812SOL    HW216896   0.216   2.204  15.496  0.6440  1.2731  1.5819
 1813SOL     OW16897   0.049   3.576   6.771  0.6211 -0.1181  0.1877
 1813SOL    HW116898   0.004   3.547   6.692 -0.1067  4.8006 -1.2008
 1813SOL    HW216899   4.707   3.632   6.818  1.3710 -0.4256  1.5525
 1814SOL     OW16900   3.417   1.622   5.107 -0.2628 -0.6367 -0.7667
 1814SOL    HW116901   3.363   1.652   5.181  1.3792  1.1806 -0.2992
 1814SOL    HW216902   3.428   1.530   5.131  0.8567 -0.4301 -0.5064
 1815SOL     OW16903   0.160   0.583   6.911  0.2377  0.5936  0.2709
 1815SOL    HW116904   0.101   0.507   6.910 -1.1886  1.7087 -0.1601
 1815SOL    HW216905   0.146   0.612   6.821 -0.8082  1.9350  0.8791
 1816SOL     OW16906   4.719   3.659  13.069 -0.6415  0.0850  0.2173
 1816SOL    HW116907   0.067   3.610  13.115 -1.3977 -0.3256  0.8822
 1816SOL    HW216908   4.719   3.620  12.981 -0.6960  0.5658  0.0019
 1817SOL     OW16909   2.927   3.340  12.054 -0.1921 -0.3675  0.4615
 1817SOL    HW116910   2.852   3.310  12.002  1.1350  0.4197 -1.8608
 1817SOL    HW216911   2.988   3.278  12.015  0.5282  0.2168  0.6759
 1818SOL     OW16912   0.409   4.168   7.002 -0.1318  0.1379 -0.0747
 1818SOL    HW116913   0.471   4.196   6.935  1.0266 -0.9313  0.5552
 1818SOL    HW216914   0.343   4.119   6.952 -0.0676  0.5068 -0.5245
 1819SOL     OW16915   3.511   4.355   4.629 -0.6622  0.5228 -0.1416
 1819SOL    HW116916   3.458   4.404   4.692 -2.6034  1.1970 -2.2692
 1819SOL    HW216917   3.464   4.273   4.613 -0.9962  0.9879 -1.5743
 1820SOL     OW16918   1.839   1.203  16.639 -0.1038 -0.1529 -0.0782
 1820SOL    HW116919   1.887   1.237  16.563 -3.0269 -1.8990 -2.6894
 1820SOL    HW216920   1.885   1.252  16.707  3.3571  0.6720 -3.0195
 1821SOL     OW16921   0.468   0.002  16.836  0.0972 -0.0621 -0.4031
 1821SOL    HW116922   0.541   4.675  16.879 -0.1636  0.1722  0.2981
 1821SOL    HW216923   0.470   4.698  16.744 -0.7469  1.1554 -0.7259
 1822SOL     OW16924   3.792   2.755   7.058  0.2243  0.4187 -0.1820
 1822SOL    HW116925   3.771   2.672   7.100 -1.2528  0.4109 -0.9334
 1822SOL    HW216926   3.713   2.780   7.009  0.3462  2.6254  0.7540
 1823SOL     OW16927   0.703   2.868   0.658 -0.0609  0.1863  0.0574
 1823SOL    HW116928   0.720   2.795   0.718 -0.8695  1.4964  1.8883
 1823SOL    HW216929   0.714   2.941   0.718  2.8379  1.1977 -1.7504
 1824SOL     OW16930   2.376   0.193   9.277  0.2058  0.4165 -0.1285
 1824SOL    HW116931   2.441   0.179   9.346  0.0361 -1.3687 -0.3060
 1824SOL    HW216932   2.294   0.170   9.322 -0.1880 -0.1084 -1.1139
 1825SOL     OW16933   0.081   2.230  17.612 -0.2613 -0.1942  0.1583
 1825SOL    HW116934   0.127   2.233   0.015 -0.3833  1.3869  0.1604
 1825SOL    HW216935   0.073   2.134  17.609  2.7275 -0.4414  0.4918
 1826SOL     OW16936   0.711   3.335   7.510  0.4935  0.0050 -0.3564
 1826SOL    HW116937   0.709   3.386   7.429  2.0153  1.1751  0.3534
 1826SOL    HW216938   0.788   3.372   7.554 -0.6726  0.8099  0.9927
 1827SOL     OW16939   2.626   2.007   0.547  0.8241  0.5714  0.9195
 1827SOL    HW116940   2.621   1.948   0.621  0.6604 -2.4311 -1.4840
 1827SOL    HW216941   2.687   1.959   0.491 -0.3919 -0.7313  0.7235
 1828SOL     OW16942   2.362   2.105  11.245  0.1294 -0.0757  0.3002
 1828SOL    HW116943   2.413   2.185  11.243  1.2635 -0.7986  0.5015
 1828SOL    HW216944   2.273   2.136  11.227  0.4355  0.2447 -0.6445
 1829SOL     OW16945   3.327   3.272  15.167 -0.1108 -0.7687 -0.0296
 1829SOL    HW116946   3.274   3.226  15.102 -1.0980 -2.6634  2.1089
 1829SOL    HW216947   3.408   3.281  15.117  0.1055 -0.6342  0.3396
 1830SOL     OW16948   0.792   1.840   5.424  0.3000  0.2002 -0.1718
 1830SOL    HW116949   0.843   1.879   5.352 -0.1771 -1.8199 -1.5914
 1830SOL    HW216950   0.726   1.782   5.387 -1.0489  1.0586  0.9120
 1831SOL     OW16951   1.363   3.708   4.019 -0.5720  0.4578 -0.3357
 1831SOL    HW116952   1.368   3.614   4.002  1.5657  1.1800 -3.5957
 1831SOL    HW216953   1.271   3.735   4.021 -0.9674 -0.9417  0.1968
 1832SOL     OW16954   1.596   0.814   3.370 -0.0419  0.2414  0.4817
 1832SOL    HW116955   1.557   0.817   3.282 -0.7603 -0.8279  0.7707
 1832SOL    HW216956   1.601   0.908   3.387  0.0308  0.4939 -0.9333
 1833SOL     OW16957   1.882   2.358   6.571  0.2077  0.1143 -0.6052
 1833SOL    HW116958   1.973   2.377   6.597 -0.1810  0.7512  0.2756
 1833SOL    HW216959   1.879   2.264   6.586 -0.1076  0.1048 -0.7387
 1834SOL     OW16960   1.122   1.420  13.761 -0.2942 -0.6388 -0.0763
 1834SOL    HW116961   1.064   1.465  13.700  0.8475 -1.3237 -1.6684
 1834SOL    HW216962   1.065   1.361  13.810  0.5656 -1.0883  0.3928
 1835SOL     OW16963   2.951   2.490   2.920  0.2999  0.5281 -0.0322
 1835SOL    HW116964   3.019   2.474   2.855 -0.2573 -2.1425  0.0609
 1835SOL    HW216965   3.007   2.531   2.987  0.9833 -1.4986  0.6265
 1836SOL     OW16966   1.585   0.434  11.844 -0.2321  0.2962  0.0933
 1836SOL    HW116967   1.620   0.478  11.767 -0.5009  1.4850  0.6481
 1836SOL    HW216968   1.531   0.506  11.878 -1.7293 -1.4781  1.4549
 1837SOL     OW16969   3.185   2.976  13.389 -0.1444 -0.3827 -0.5244
 1837SOL    HW116970   3.280   2.980  13.378 -0.0417 -0.3720  0.3780
 1837SOL    HW216971   3.178   2.934  13.474  0.0866  0.0838 -0.2751
 1838SOL     OW16972   3.190   3.015   7.060 -0.6870 -0.5378  0.0728
 1838SOL    HW116973   3.137   2.966   6.997  0.8453 -2.0906 -0.0070
 1838SOL    HW216974   3.178   3.101   7.019 -0.0324  0.2808  1.6274
 1839SOL     OW16975   0.934   0.498   8.779  0.0377 -0.1321  0.4302
 1839SOL    HW116976   0.987   0.498   8.858  2.4777  0.5923 -1.2225
 1839SOL    HW216977   0.853   0.466   8.820 -0.8191 -1.3148 -2.1195
 1840SOL     OW16978   2.665   1.715   8.428  0.8430  0.1057 -0.1733
 1840SOL    HW116979   2.646   1.739   8.337  2.7658 -1.1033 -0.8761
 1840SOL    HW216980   2.657   1.621   8.416  2.0507  0.1499 -1.3326
 1841SOL     OW16981   3.317   2.617  16.227 -0.4757  0.0848 -0.0593
 1841SOL    HW116982   3.249   2.682  16.246 -1.9212 -1.5115  0.1600
 1841SOL    HW216983   3.352   2.641  16.141  1.9494 -0.5590  0.7480
 1842SOL     OW16984   4.145   1.568   2.058  0.2394  0.2624  0.0407
 1842SOL    HW116985   4.125   1.591   1.967 -0.9274  3.2460  1.0530
 1842SOL    HW216986   4.240   1.562   2.053  0.1894  0.7764 -1.5396
 1843SOL     OW16987   0.558   1.966   4.753  0.0152  0.2199  0.7845
 1843SOL    HW116988   0.509   1.961   4.671  3.8231 -3.1776 -1.2775
 1843SOL    HW216989   0.626   1.903   4.729 -1.8721 -1.5565  0.1337
 1844SOL     OW16990   1.620   3.503  13.708 -0.3026 -0.6871 -0.0566
 1844SOL    HW116991   1.655   3.424  13.750  0.1716 -0.6883 -0.4588
 1844SOL    HW216992   1.665   3.498  13.624 -0.8609 -0.6934 -0.3545
 1845SOL     OW16993   3.243   1.528   8.978  0.2363 -0.2717 -0.2512
 1845SOL    HW116994   3.316   1.468   8.995  0.8940  0.6437  0.1883
 1845SOL    HW216995   3.206   1.538   9.065 -1.6135 -2.5052 -0.7844
 1846SOL     OW16996   4.715   4.681   9.556  0.3201  0.4843 -0.5296
 1846SOL    HW116997   4.637   4.637   9.523  0.4738 -0.4652  0.3684
 1846SOL    HW216998   4.696   0.055   9.546 -2.4635 -0.0166  0.2363
 1847SOL     OW16999   3.255   0.773   6.900  0.6299  0.3582  0.0727
 1847SOL    HW117000   3.345   0.805   6.903  0.4750  0.8145 -0.4222
 1847SOL    HW217001   3.260   0.685   6.940  0.3343  1.1099  1.7848
 1848SOL     OW17002   1.275   2.371  10.355  0.4605  0.5577  0.1635
 1848SOL    HW117003   1.246   2.292  10.400 -0.0477  0.2150 -0.7698
 1848SOL    HW217004   1.267   2.355  10.261  2.2429  0.1154  0.1038
 1849SOL     OW17005   0.868   2.546   5.545 -1.1080  0.2584 -0.2997
 1849SOL    HW117006   0.836   2.522   5.632 -2.2113  1.7723 -0.2699
 1849SOL    HW217007   0.806   2.486   5.503 -0.3906  0.6394 -1.8956
 1850SOL     OW17008   0.511   1.394   6.494  0.2944 -0.1753  0.3549
 1850SOL    HW117009   0.602   1.395   6.463 -1.0724 -0.7658 -3.6397
 1850SOL    HW217010   0.480   1.310   6.460  1.9356 -0.3624 -0.6559
 1851SOL     OW17011   1.762   3.057   8.830  0.0284 -0.3307  0.3248
 1851SOL    HW117012   1.709   2.978   8.839  1.3109 -1.3717 -1.3922
 1851SOL    HW217013   1.811   3.064   8.913  2.1347 -0.2430 -0.9259
 1852SOL     OW17014   0.117   1.543  15.381 -0.0828  0.4328 -0.4297
 1852SOL    HW117015   0.052   1.547  15.451 -0.0065  1.3960 -0.4139
 1852SOL    HW217016   0.058   1.558  15.307  0.2289 -2.0020 -1.1798
 1853SOL     OW17017   1.620   0.489   2.227  0.1283 -0.2374 -0.1542
 1853SOL    HW117018   1.715   0.502   2.226  0.1690 -0.5809 -1.4106
 1853SOL    HW217019   1.609   0.548   2.153  1.1483  0.8817  0.5951
 1854SOL     OW17020   3.374   2.773   2.867  0.3000 -0.0209  0.2475
 1854SOL    HW117021   3.367   2.769   2.962 -0.1572  4.1469  0.4059
 1854SOL    HW217022   3.337   2.862   2.861 -1.9679 -0.9505  0.2746
 1855SOL     OW17023   1.484   2.489   4.867  0.4538 -0.0130  0.5595
 1855SOL    HW117024   1.550   2.541   4.914 -0.3882 -0.3285  2.0799
 1855SOL    HW217025   1.503   2.403   4.904  0.8482  0.7775  2.1999
 1856SOL     OW17026   0.189   0.389   6.256  0.6776 -0.7333 -0.2944
 1856SOL    HW117027   0.184   0.324   6.186  0.7783 -0.4274 -0.5894
 1856SOL    HW217028   0.174   0.339   6.336 -0.0469  1.9599  1.2695
 1857SOL     OW17029   2.117   3.129  12.089  0.1147 -0.6219 -0.2212
 1857SOL    HW117030   2.164   3.106  12.169  1.6341 -0.9632 -1.1918
 1857SOL    HW217031   2.033   3.101  12.125 -1.5672  1.6770 -2.2904
 1858SOL     OW17032   0.239   2.503   8.644  0.4595 -0.6514  0.0626
 1858SOL    HW117033   0.265   2.573   8.585  0.8359 -1.4748 -0.7448
 1858SOL    HW217034   0.152   2.482   8.611  0.3514 -0.5969  0.3086
 1859SOL     OW17035   0.700   0.043   9.879  0.0914  0.3725 -0.2160
 1859SOL    HW117036   0.677   4.673   9.905 -0.1429  0.0353 -1.5909
 1859SOL    HW217037   0.636   0.057   9.809 -0.9902  1.2713  0.9624
 1860SOL     OW17038   1.941   3.331   2.386 -0.3671 -0.1049  0.1563
 1860SOL    HW117039   1.960   3.289   2.470 -2.5652  2.2416  1.8188
 1860SOL    HW217040   1.929   3.423   2.409 -1.9841  0.4105 -2.6817
 1861SOL     OW17041   1.046   2.687   8.580  0.1690  0.0776  0.9015
 1861SOL    HW117042   1.128   2.706   8.534 -1.5043  2.3720 -1.1781
 1861SOL    HW217043   1.074   2.652   8.664  0.4029 -1.4260  0.1976
 1862SOL     OW17044   3.613   4.287  10.949  0.0856  0.3998  0.2730
 1862SOL    HW117045   3.530   4.331  10.966 -1.0763 -2.0306  0.9408
 1862SOL    HW217046   3.582   4.216  10.894 -0.4383  1.3565 -0.6638
 1863SOL     OW17047   2.608   2.228  17.680  0.3978 -0.0472  0.6100
 1863SOL    HW117048   2.557   2.185   0.068 -1.5048 -1.8062 -1.8653
 1863SOL    HW217049   2.579   2.191  17.596  2.7016  0.6502 -0.4787
 1864SOL     OW17050   3.856   0.429   1.921 -0.0650  0.0326  0.1784
 1864SOL    HW117051   3.947   0.454   1.935 -0.1533  0.8244 -0.6211
 1864SOL    HW217052   3.837   0.429   2.014 -0.2988 -1.6380  0.1392
 1865SOL     OW17053   0.118   1.595  17.448  0.1639  0.3320  0.0074
 1865SOL    HW117054   0.081   1.519  17.493 -0.9295  1.0036  0.2348
 1865SOL    HW217055   0.053   1.664  17.460  1.8365  1.6043  1.7954
 1866SOL     OW17056   4.207   0.457   1.350 -0.2466 -0.3739 -0.3397
 1866SOL    HW117057   4.143   0.397   1.311  2.4537 -2.3071 -1.7903
 1866SOL    HW217058   4.193   0.543   1.309 -1.5245  0.2831  1.4526
 1867SOL     OW17059   2.393   0.200   3.532  0.2654  0.2836  0.4196
 1867SOL    HW117060   2.456   0.203   3.459  2.0258 -0.5013  1.9127
 1867SOL    HW217061   2.314   0.213   3.479 -0.8604 -1.1541  1.7576
 1868SOL     OW17062   2.636   0.719   6.383 -0.1403  0.7790  0.0694
 1868SOL    HW117063   2.567   0.671   6.429 -0.7504  0.4129 -1.2212
 1868SOL    HW217064   2.658   0.657   6.313  0.8608  0.9074  0.2703
 1869SOL     OW17065   1.149   4.455   4.546  0.1759 -0.0585 -0.2670
 1869SOL    HW117066   1.131   4.523   4.482 -3.0987  0.1028  0.8536
 1869SOL    HW217067   1.061   4.424   4.565 -0.6929  2.5412 -0.1282
 1870SOL     OW17068   3.247   3.542  13.299  0.3849 -0.0464 -0.4101
 1870SOL    HW117069   3.293   3.600  13.359 -2.0274  1.0689  0.3474
 1870SOL    HW217070   3.264   3.584  13.214  1.2004 -0.5350 -0.4859
 1871SOL     OW17071   4.589   4.232   8.824  0.3390 -0.3576 -0.3279
 1871SOL    HW117072   4.579   4.305   8.885 -1.9786 -0.6702 -0.3317
 1871SOL    HW217073   4.503   4.191   8.829 -0.8146  1.9717 -1.0155
 1872SOL     OW17074   2.761   1.862  11.310  0.1273 -0.0872  0.5280
 1872SOL    HW117075   2.782   1.776  11.273 -0.9255 -0.2354  0.2967
 1872SOL    HW217076   2.847   1.888  11.345 -0.0823  1.5929 -0.2100
 1873SOL     OW17077   1.901   2.922   4.252  0.7028  0.2121 -0.3453
 1873SOL    HW117078   1.884   2.840   4.205  2.1580  0.0848 -0.6457
 1873SOL    HW217079   1.907   2.889   4.342 -1.5044 -0.2410 -0.3764
 1874SOL     OW17080   1.155   2.675   7.993  0.4020  0.1085  0.1831
 1874SOL    HW117081   1.064   2.648   7.994  0.3516  0.2454 -0.6134
 1874SOL    HW217082   1.168   2.669   8.087  0.8151  1.6264  0.2282
 1875SOL     OW17083   3.594   4.186   5.328 -0.2063  0.2196 -0.4219
 1875SOL    HW117084   3.529   4.248   5.362  0.2294  0.6590 -0.3911
 1875SOL    HW217085   3.535   4.116   5.302  1.3341 -1.4230  0.5154
 1876SOL     OW17086   4.426   2.207   6.869 -0.5771  0.0377  0.2438
 1876SOL    HW117087   4.412   2.218   6.963  1.2686 -1.8519  0.7352
 1876SOL    HW217088   4.501   2.148   6.868  1.4636  2.6181 -1.5780
 1877SOL     OW17089   1.215   4.643   5.130 -0.0152 -0.2013 -0.1952
 1877SOL    HW117090   1.227   4.631   5.036 -1.1892 -1.6062 -0.1633
 1877SOL    HW217091   1.158   4.718   5.147  0.9509  0.8223 -1.5356
 1878SOL     OW17092   2.763   3.290  13.288 -0.3870  0.3142  0.5152
 1878SOL    HW117093   2.820   3.278  13.211  1.6330 -0.3564  2.1025
 1878SOL    HW217094   2.801   3.227  13.348  1.6894  0.2814 -0.8218
 1879SOL     OW17095   4.190   2.686  13.726  0.2827  0.4113  0.3804
 1879SOL    HW117096   4.115   2.732  13.765  0.5752  2.2044 -1.2060
 1879SOL    HW217097   4.147   2.632  13.659 -0.5737  0.6621  0.7270
 1880SOL     OW17098   0.626   2.630   1.615  0.2056  1.0040  0.4366
 1880SOL    HW117099   0.621   2.714   1.568 -0.2841 -0.1655 -1.6300
 1880SOL    HW217100   0.543   2.583   1.603 -0.1550  1.7871 -0.1762
 1881SOL     OW17101   1.224   3.699   4.993  0.6453 -0.1517 -0.2044
 1881SOL    HW117102   1.159   3.685   4.924 -0.4821 -1.0031  1.0204
 1881SOL    HW217103   1.299   3.741   4.953  1.8417  0.2580  2.4884
 1882SOL     OW17104   2.177   1.608  13.187 -0.5133 -0.2669  0.2547
 1882SOL    HW117105   2.137   1.678  13.239  1.2314  2.8736 -2.5673
 1882SOL    HW217106   2.106   1.546  13.167 -0.8608 -0.7420  3.0718
 1883SOL     OW17107   1.895   1.470   3.828 -0.0657 -0.0703  0.2931
 1883SOL    HW117108   1.838   1.471   3.751  0.2124 -0.9626  0.0758
 1883SOL    HW217109   1.897   1.374   3.835 -2.5171 -0.0387  1.3665
 1884SOL     OW17110   0.060   1.666   8.323 -0.3989  0.6487 -0.7777
 1884SOL    HW117111   4.687   1.682   8.341 -0.6926 -0.2613 -1.5136
 1884SOL    HW217112   0.058   1.592   8.263 -0.8256  0.0687 -0.0478
 1885SOL     OW17113   2.791   2.550   5.563  0.1715  0.4308 -0.0968
 1885SOL    HW117114   2.875   2.581   5.597 -0.9774  4.5116 -0.8891
 1885SOL    HW217115   2.726   2.614   5.593 -2.2166 -1.1288 -1.8973
 1886SOL     OW17116   3.765   0.920   2.510  0.0054  0.0379  0.3839
 1886SOL    HW117117   3.773   0.826   2.525 -4.8043 -0.3237  0.5378
 1886SOL    HW217118   3.804   0.960   2.588 -0.8412  1.4462  0.0917
 1887SOL     OW17119   2.565   1.165   7.485 -0.2327  0.0003  0.6506
 1887SOL    HW117120   2.520   1.085   7.514  1.3178 -1.6141 -1.3861
 1887SOL    HW217121   2.612   1.184   7.566  1.0461 -2.3885  0.4785
 1888SOL     OW17122   2.512   3.563  15.325  0.0385  0.0264  0.8798
 1888SOL    HW117123   2.441   3.560  15.389  0.0279  0.3035  0.8796
 1888SOL    HW217124   2.459   3.561  15.245  1.7517  0.4685 -0.2621
 1889SOL     OW17125   1.665   4.229  13.160 -0.3031 -0.0125 -0.2048
 1889SOL    HW117126   1.729   4.197  13.097  1.3776 -2.8462  2.9660
 1889SOL    HW217127   1.644   4.314  13.121 -0.8502 -0.0616 -0.0253
 1890SOL     OW17128   2.556   2.331   2.306 -0.0330  0.1437 -0.5056
 1890SOL    HW117129   2.504   2.405   2.275 -0.9273  0.2461  1.2172
 1890SOL    HW217130   2.604   2.376   2.376 -0.0377  1.6755 -1.4921
 1891SOL     OW17131   2.209   0.779   6.028 -0.1592  0.2884 -0.1596
 1891SOL    HW117132   2.211   0.686   6.049  0.7909  0.5243  0.8077
 1891SOL    HW217133   2.284   0.816   6.074 -0.1079  1.1029 -0.8941
 1892SOL     OW17134   4.215   4.441   7.355 -0.1937 -0.0832 -0.1264
 1892SOL    HW117135   4.304   4.470   7.374  0.2133 -0.6504 -1.1544
 1892SOL    HW217136   4.166   4.502   7.410 -0.1496  1.3648 -1.6730
 1893SOL     OW17137   1.552   4.619   5.844  0.0276  0.0467  0.0527
 1893SOL    HW117138   1.636   4.608   5.888  0.3900 -0.5450 -0.7957
 1893SOL    HW217139   1.559   4.562   5.768 -3.4504 -1.0797  0.5745
 1894SOL     OW17140   3.363   4.350   7.730 -0.5942 -0.2114 -0.4236
 1894SOL    HW117141   3.283   4.395   7.703 -1.5809 -1.6809  0.0273
 1894SOL    HW217142   3.345   4.263   7.693  3.6619 -1.2193 -0.0839
 1895SOL     OW17143   3.816   2.135  14.098  0.0478 -0.4388  0.4936
 1895SOL    HW117144   3.857   2.114  14.014  2.0544  0.6892  1.2023
 1895SOL    HW217145   3.851   2.066  14.154  0.7016 -0.9892 -0.5773
 1896SOL     OW17146   0.698   1.783   9.655 -0.3824 -0.3900  0.1990
 1896SOL    HW117147   0.680   1.790   9.749  3.1642 -1.3363  0.9542
 1896SOL    HW217148   0.628   1.720   9.639 -0.3660  0.1741 -2.0705
 1897SOL     OW17149   0.293   0.663   0.370 -0.7929 -0.2794 -0.2219
 1897SOL    HW117150   0.357   0.717   0.416  0.6356 -0.9056 -1.4608
 1897SOL    HW217151   0.326   0.575   0.389 -3.8573 -0.6777  3.2678
 1898SOL     OW17152   2.454   4.101   8.738 -0.1501 -0.1302 -0.4366
 1898SOL    HW117153   2.530   4.140   8.695 -0.2095  1.0363  0.5247
 1898SOL    HW217154   2.489   4.063   8.819 -0.3265 -0.5841 -0.5720
 1899SOL     OW17155   1.556   3.083   6.431  0.5654 -0.4029  0.0267
 1899SOL    HW117156   1.498   3.157   6.449 -0.0803 -0.5281 -1.5236
 1899SOL    HW217157   1.518   3.033   6.359 -0.7365  0.6494 -0.0177
 1900SOL     OW17158   3.261   1.461   3.758  0.3003  0.6853  0.3090
 1900SOL    HW117159   3.246   1.369   3.782  0.9967  1.1025  2.3385
 1900SOL    HW217160   3.333   1.452   3.696 -0.2335  3.0912 -0.6619
 1901SOL     OW17161   1.713   4.700   5.189 -0.0281 -0.1032 -0.3288
 1901SOL    HW117162   1.805   4.703   5.215 -0.4529  0.3425  1.1342
 1901SOL    HW217163   1.660   0.000   5.266 -0.9542 -1.0536 -0.7180
 1902SOL     OW17164   4.163   3.578  17.050  0.5743  0.2728  0.1239
 1902SOL    HW117165   4.247   3.615  17.023  0.3952 -0.4868 -1.4388
 1902SOL    HW217166   4.183   3.517  17.122  0.0807  0.3821  0.3554
 1903SOL     OW17167   2.554   3.258  14.744 -0.0454 -0.6090 -0.0531
 1903SOL    HW117168   2.611   3.258  14.821  1.4474  2.7633 -1.1713
 1903SOL    HW217169   2.619   3.244  14.675 -0.1290  1.5958 -0.5660
 1904SOL     OW17170   0.707   1.585   3.084  0.0699  0.0126 -0.3026
 1904SOL    HW117171   0.714   1.625   2.997  1.2584  1.0182  0.2537
 1904SOL    HW217172   0.624   1.539   3.071 -0.5753  1.0477  0.1459
 1905SOL     OW17173   2.456   2.433  14.584  0.8979 -0.0487  0.0131
 1905SOL    HW117174   2.458   2.501  14.651  1.1011  0.6592 -0.7125
 1905SOL    HW217175   2.469   2.361  14.646 -0.1536  1.2171  1.6963
 1906SOL     OW17176   2.160   0.458   3.593  0.2522 -0.4384  0.3484
 1906SOL    HW117177   2.238   0.462   3.537  0.8610 -0.0912  1.2173
 1906SOL    HW217178   2.154   0.374   3.639 -3.8183  0.7964  2.0127
 1907SOL     OW17179   4.330   3.205   2.109 -0.1051  0.7787 -0.1076
 1907SOL    HW117180   4.421   3.178   2.099 -0.8032 -1.7233  0.3805
 1907SOL    HW217181   4.301   3.247   2.029 -1.9458  2.3219  1.3638
 1908SOL     OW17182   3.281   4.003   2.550 -0.2533 -0.3403  0.0125
 1908SOL    HW117183   3.229   3.961   2.482 -0.6802  0.3886 -0.1067
 1908SOL    HW217184   3.309   4.085   2.508 -0.3779  0.2824  1.1477
 1909SOL     OW17185   2.990   0.461   7.691 -0.3994  0.4104 -0.6315
 1909SOL    HW117186   2.967   0.496   7.777  1.8609 -1.2343  0.6584
 1909SOL    HW217187   2.976   0.541   7.641  1.5044  0.2459 -1.4018
 1910SOL     OW17188   2.976   0.397  14.201  0.4477  0.3114 -0.4156
 1910SOL    HW117189   2.912   0.346  14.251  0.5993  0.9754  0.4456
 1910SOL    HW217190   2.989   0.466  14.265 -1.6717  0.1440  0.1949
 1911SOL     OW17191   0.478   4.394   6.067 -0.3402 -0.2854 -0.0627
 1911SOL    HW117192   0.434   4.389   5.982 -1.6951  1.8381  0.5074
 1911SOL    HW217193   0.453   4.321   6.123 -0.2178 -0.9119 -0.8195
 1912SOL     OW17194   3.413   1.607   0.605 -0.4948  0.5457 -1.2519
 1912SOL    HW117195   3.354   1.670   0.647  0.0555  0.8531 -0.9383
 1912SOL    HW217196   3.376   1.586   0.519 -2.1433  0.2195 -0.4647
 1913SOL     OW17197   0.687   3.834   3.350 -0.0811 -0.4568 -0.1395
 1913SOL    HW117198   0.693   3.746   3.313  1.0644 -0.3416 -0.2016
 1913SOL    HW217199   0.775   3.854   3.381 -0.0778 -2.1581  0.9556
 1914SOL     OW17200   3.762   0.181   7.303 -0.7239 -0.1163  0.3676
 1914SOL    HW117201   3.673   0.207   7.327 -0.2443  0.5143  1.4696
 1914SOL    HW217202   3.751   0.168   7.209  1.5209  1.1112 -0.0676
 1915SOL     OW17203   2.524   3.883   0.146 -0.1705 -0.0424 -0.2131
 1915SOL    HW117204   2.538   3.955   0.086  0.0894 -0.7224 -0.9614
 1915SOL    HW217205   2.467   3.935   0.203 -1.4660 -1.2721 -0.3703
 1916SOL     OW17206   1.221   4.243   7.563 -0.2157 -0.0473  0.4632
 1916SOL    HW117207   1.298   4.200   7.601 -1.4121 -2.5471  0.0473
 1916SOL    HW217208   1.208   4.187   7.487  0.3775 -0.2344  0.4977
 1917SOL     OW17209   0.072   2.784   5.036 -0.4975  0.0637 -0.0499
 1917SOL    HW117210   0.091   2.877   5.044  1.7738 -0.2422 -1.9853
 1917SOL    HW217211   0.055   2.769   4.943  2.6512  1.1444 -0.8007
 1918SOL     OW17212   1.690   1.065   9.905  0.6978 -0.6809  0.4912
 1918SOL    HW117213   1.778   1.089   9.933  1.3048 -2.5706  0.1786
 1918SOL    HW217214   1.682   0.974   9.933  0.3073 -0.3441  1.4724
 1919SOL     OW17215   0.712   0.707  12.706  0.2456  0.2000  0.0472
 1919SOL    HW117216   0.698   0.746  12.620 -0.1437  0.3003  0.1592
 1919SOL    HW217217   0.735   0.617  12.683 -0.4555 -0.3406  1.5108
 1920SOL     OW17218   3.685   1.154   9.048 -0.0745  0.1227  0.8689
 1920SOL    HW117219   3.747   1.191   8.986 -1.6992  1.1718 -0.1315
 1920SOL    HW217220   3.705   1.208   9.125 -1.3558 -0.1757  1.4141
 1921SOL     OW17221   1.474   3.129  11.869  0.5045 -0.1042  0.1323
 1921SOL    HW117222   1.521   3.117  11.952 -0.1608  2.2728  0.8386
 1921SOL    HW217223   1.455   3.222  11.871  1.0776  0.0183 -0.1591
 1922SOL     OW17224   2.926   1.146   9.406 -0.2368 -0.1262 -0.4634
 1922SOL    HW117225   2.832   1.135   9.421 -0.4574  0.5866 -1.3504
 1922SOL    HW217226   2.959   1.187   9.487  3.0763 -2.0215 -0.8355
 1923SOL     OW17227   4.116   1.149   8.212 -0.2579  0.8680  0.3533
 1923SOL    HW117228   4.194   1.104   8.181 -0.3402 -0.2255  1.7605
 1923SOL    HW217229   4.057   1.144   8.137  0.8607  0.8407 -0.5212
 1924SOL     OW17230   0.797   3.677  17.241  0.3443 -0.7606 -0.4058
 1924SOL    HW117231   0.811   3.709  17.330  2.4201 -0.1348 -0.9531
 1924SOL    HW217232   0.702   3.673  17.229  0.2968 -1.9501  0.3743
 1925SOL     OW17233   4.186   1.962   0.311 -0.0430 -0.4797  1.0047
 1925SOL    HW117234   4.127   1.888   0.327 -0.5310 -0.3916 -0.4355
 1925SOL    HW217235   4.159   2.013   0.388  0.3959  1.2471 -0.0071
 1926SOL     OW17236   2.447   1.396  14.225 -0.1051  0.1356  0.0259
 1926SOL    HW117237   2.487   1.313  14.252 -0.4445 -0.2189 -0.5647
 1926SOL    HW217238   2.446   1.446  14.306 -0.7724 -2.1996  1.4562
 1927SOL     OW17239   3.934   3.240   2.032  0.0826  0.4796 -0.1143
 1927SOL    HW117240   3.858   3.182   2.043  1.3151 -1.1180 -0.1004
 1927SOL    HW217241   4.009   3.186   2.058 -1.4942 -1.9210 -0.5210
 1928SOL     OW17242   4.406   4.582   8.259 -0.2466  0.1036 -0.5639
 1928SOL    HW117243   4.386   4.675   8.267  0.4185  0.1076  1.1274
 1928SOL    HW217244   4.408   4.563   8.165  1.6462  1.2120 -0.7601
 1929SOL     OW17245   2.824   0.481   4.337 -0.2483  0.3401 -0.0039
 1929SOL    HW117246   2.764   0.544   4.377 -1.3489 -0.8129  0.1940
 1929SOL    HW217247   2.798   0.487   4.245 -0.7253  1.4200  0.2011
 1930SOL     OW17248   2.186   1.115  10.616  0.7620 -0.1355  0.2678
 1930SOL    HW117249   2.274   1.150  10.600  1.3584 -0.5138  2.7208
 1930SOL    HW217250   2.198   1.096  10.709 -0.1460 -0.0372  0.4075
 1931SOL     OW17251   1.199   2.002   2.039  0.1532  0.5952 -0.0217
 1931SOL    HW117252   1.276   1.956   2.073 -0.5240  1.0538  2.0837
 1931SOL    HW217253   1.144   1.924   2.036 -0.4926  1.1486 -2.5887
 1932SOL     OW17254   0.384   1.055   6.213  0.2875  0.6721 -0.7189
 1932SOL    HW117255   0.397   1.088   6.302 -0.1683  0.0317 -0.4143
 1932SOL    HW217256   0.348   0.967   6.225  4.2825 -0.7904  0.4513
 1933SOL     OW17257   0.099   4.235  14.284  0.5281 -0.6029 -0.0332
 1933SOL    HW117258   0.147   4.276  14.356  1.2548  0.1416 -0.9537
 1933SOL    HW217259   0.007   4.246  14.308  0.6200 -0.3574  0.2097
 1934SOL     OW17260   1.874   3.232   4.367  0.3049  0.0476  0.2564
 1934SOL    HW117261   1.909   3.315   4.399  1.4664 -0.6898  0.9259
 1934SOL    HW217262   1.954   3.188   4.338 -0.1477 -0.4648 -0.2004
 1935SOL     OW17263   3.370   4.372  11.900  0.2735 -0.5584 -0.4468
 1935SOL    HW117264   3.348   4.306  11.834 -1.7140 -0.6625  0.3143
 1935SOL    HW217265   3.442   4.418  11.857  0.7472 -0.0189  0.9293
 1936SOL     OW17266   3.583   2.436   3.426  0.3218  0.1665 -0.5766
 1936SOL    HW117267   3.624   2.385   3.495  0.2575 -0.7565 -1.2221
 1936SOL    HW217268   3.526   2.373   3.381  0.6990 -0.5231 -0.0769
 1937SOL     OW17269   3.245   3.163   8.832  0.0075  0.2674 -0.4266
 1937SOL    HW117270   3.302   3.237   8.814  0.9645 -0.3083  0.1911
 1937SOL    HW217271   3.294   3.127   8.906 -1.2234 -0.1713  0.1711
 1938SOL     OW17272   4.632   1.904  13.121  0.1462  1.2319 -0.8405
 1938SOL    HW117273   4.648   1.961  13.196  0.9817 -1.9601  1.4126
 1938SOL    HW217274   4.623   1.963  13.046 -1.5632  1.5780 -0.3656
 1939SOL     OW17275   2.960   4.444   5.187  0.1275  1.0009 -0.0893
 1939SOL    HW117276   3.031   4.508   5.181  0.7337  0.3442  0.0457
 1939SOL    HW217277   2.881   4.493   5.212 -1.3485  0.7736 -4.3396
 1940SOL     OW17278   0.233   1.833  17.275 -0.6265 -0.0581 -0.2980
 1940SOL    HW117279   0.161   1.896  17.275  0.0974  0.7864  1.9576
 1940SOL    HW217280   0.180   1.754  17.280  1.7052 -1.6400 -0.4494
 1941SOL     OW17281   2.434   1.396  13.470  0.5748 -0.4950  0.4656
 1941SOL    HW117282   2.417   1.432  13.383 -0.9960 -1.5678  0.3300
 1941SOL    HW217283   2.465   1.307  13.456 -1.2059 -1.2155  1.0923
 1942SOL     OW17284   3.013   2.206   9.545 -0.0442  0.0548  0.4789
 1942SOL    HW117285   3.036   2.258   9.622 -1.9277 -0.2084  1.2286
 1942SOL    HW217286   3.081   2.215   9.478 -0.7889  1.0006 -0.1586
 1943SOL     OW17287   0.812   4.322   2.178 -0.2280 -0.4980  0.0316
 1943SOL    HW117288   0.895   4.279   2.198  0.5259  0.3180 -1.3797
 1943SOL    HW217289   0.840   4.379   2.107 -1.4140 -1.3202 -1.1096
 1944SOL     OW17290   2.287   2.324  12.340 -0.3390 -0.2587  0.2722
 1944SOL    HW117291   2.234   2.313  12.262  0.1115  1.0848 -0.2235
 1944SOL    HW217292   2.342   2.245  12.339  0.8115  0.5282  1.2525
 1945SOL     OW17293   0.960   0.144   9.033  0.1880 -0.5070 -0.5318
 1945SOL    HW117294   0.879   0.111   8.995 -0.7926  3.0129 -1.4945
 1945SOL    HW217295   0.956   0.134   9.128  0.2525 -0.1311 -0.4887
 1946SOL     OW17296   3.279   0.621   7.751 -0.3882  0.4114  0.0557
 1946SOL    HW117297   3.251   0.629   7.660 -1.9651  0.1392  0.5122
 1946SOL    HW217298   3.373   0.628   7.732 -0.5184 -2.3760 -1.4840
 1947SOL     OW17299   0.720   2.478   3.105  0.0303  0.4341  0.9731
 1947SOL    HW117300   0.647   2.502   3.049 -1.4661 -1.1403  2.2616
 1947SOL    HW217301   0.792   2.531   3.070 -0.2755  0.1954  0.0022
 1948SOL     OW17302   2.482   2.357   8.543 -0.6288 -0.3752 -0.5609
 1948SOL    HW117303   2.409   2.309   8.583  0.7313 -0.8590  1.3998
 1948SOL    HW217304   2.558   2.323   8.591 -1.8976 -1.8880  0.3763
 1949SOL     OW17305   4.058   1.051   7.690 -0.4302  0.2506  0.3870
 1949SOL    HW117306   4.127   1.078   7.630 -0.1640 -1.1723  0.0446
 1949SOL    HW217307   4.047   0.956   7.690 -0.6229  0.2667  1.6143
 1950SOL     OW17308   1.986   1.385   6.553  0.0535  0.3577  0.2107
 1950SOL    HW117309   1.891   1.396   6.550  0.0346  0.6240  1.6023
 1950SOL    HW217310   1.974   1.291   6.565 -1.9339  0.9446  2.9359
 1951SOL     OW17311   3.193   0.006   7.781 -0.1132 -0.4346  0.5320
 1951SOL    HW117312   3.279   4.708   7.819 -0.5495 -4.2407 -0.2148
 1951SOL    HW217313   3.150   0.035   7.862  0.8103  2.3768  0.0248
 1952SOL     OW17314   4.563   3.241   0.262  0.9407 -0.0236 -0.5750
 1952SOL    HW117315   4.530   3.188   0.189 -2.5443  2.5680 -0.8714
 1952SOL    HW217316   4.599   3.181   0.327  1.7056  1.3614  0.2809
 1953SOL     OW17317   0.361   0.271   9.596 -0.4627 -0.0704 -0.2888
 1953SOL    HW117318   0.408   0.213   9.536 -0.8648  0.9573 -1.5859
 1953SOL    HW217319   0.382   0.229   9.680 -0.5663  0.4338 -0.0109
 1954SOL     OW17320   4.122   3.276   9.286 -0.1101  0.1702  0.1806
 1954SOL    HW117321   4.075   3.198   9.257  0.2476  1.0017 -2.6845
 1954SOL    HW217322   4.086   3.294   9.373 -1.9671 -1.6446 -0.2214
 1955SOL     OW17323   1.905   3.369  13.019 -0.6767  0.4417 -0.3880
 1955SOL    HW117324   1.971   3.370  12.950  1.1115  1.2104  1.3565
 1955SOL    HW217325   1.953   3.360  13.101 -3.1214 -0.5524  0.9411
 1956SOL     OW17326   0.962   2.268   3.732  0.2662  0.1542  0.0242
 1956SOL    HW117327   1.044   2.280   3.683 -0.8275  0.9768 -1.6110
 1956SOL    HW217328   0.944   2.179   3.704  1.6523  0.3586 -1.5500
 1957SOL     OW17329   3.617   1.494   4.058  0.2964  0.7256 -0.3578
 1957SOL    HW117330   3.643   1.439   4.132  0.4671  0.8259 -0.3424
 1957SOL    HW217331   3.589   1.431   3.992  0.2404  0.2957  0.0800
 1958SOL     OW17332   2.725   0.636  14.495 -0.1444 -0.2093  0.0703
 1958SOL    HW117333   2.643   0.597  14.463 -0.0975  1.3627 -1.9006
 1958SOL    HW217334   2.690   0.717  14.533  0.3998  0.0650 -0.0265
 1959SOL     OW17335   0.600   2.044   8.723  0.7634  0.2944  0.1547
 1959SOL    HW117336   0.633   1.983   8.658 -0.8742  0.5298 -0.9050
 1959SOL    HW217337   0.615   2.007   8.810 -3.5318 -0.6675  0.5014
 1960SOL     OW17338   3.798   1.334  17.093 -0.0267  0.9088 -0.1829
 1960SOL    HW117339   3.773   1.348  17.185 -3.8760  0.7590 -1.1883
 1960SOL    HW217340   3.853   1.409  17.072 -0.4501  1.0861 -0.6561
 1961SOL     OW17341   3.597   0.238   6.221  0.1324 -0.3414 -0.4885
 1961SOL    HW117342   3.645   0.320   6.215  0.8793 -1.0293 -4.0931
 1961SOL    HW217343   3.660   0.167   6.232 -0.2287 -0.7859 -1.2713
 1962SOL     OW17344   0.935   0.766   8.853 -0.1418 -0.1868 -0.4655
 1962SOL    HW117345   0.982   0.693   8.812  0.2007 -0.7186  0.8570
 1962SOL    HW217346   0.851   0.727   8.875  0.3056 -0.5339  0.6339
 1963SOL     OW17347   4.195   1.424   0.896 -0.6580  0.4802  0.1284
 1963SOL    HW117348   4.139   1.363   0.849  0.6084 -1.1027  0.6719
 1963SOL    HW217349   4.156   1.507   0.868 -1.6937  0.2898  1.0285
 1964SOL     OW17350   3.029   3.225   9.137 -0.6234  0.2710  0.6305
 1964SOL    HW117351   3.043   3.293   9.071 -1.4679 -0.3423 -0.1733
 1964SOL    HW217352   2.982   3.263   9.211 -1.1229  1.5333 -0.3332
 1965SOL     OW17353   1.590   1.928   0.303 -0.0321 -0.6761 -0.7334
 1965SOL    HW117354   1.514   1.958   0.353  0.7272 -0.8174  0.5126
 1965SOL    HW217355   1.646   1.877   0.362 -0.1770 -2.4040 -2.0978
 1966SOL     OW17356   2.423   1.146  12.733 -0.2115  0.1465  0.2865
 1966SOL    HW117357   2.517   1.160  12.725 -0.1667 -0.3252  0.0016
 1966SOL    HW217358   2.392   1.236  12.728 -0.3756 -0.0161 -2.0025
 1967SOL     OW17359   1.654   1.390   8.918  0.2045 -0.3203  0.0434
 1967SOL    HW117360   1.746   1.371   8.932 -0.3024 -2.0416  0.9942
 1967SOL    HW217361   1.644   1.457   8.985  2.1163  0.1677 -0.1681
 1968SOL     OW17362   0.935   3.398   5.827  0.1852  0.3767 -0.8717
 1968SOL    HW117363   0.999   3.446   5.880 -0.5459  1.9220 -1.3765
 1968SOL    HW217364   0.858   3.418   5.880 -0.4630 -2.1786 -0.8623
 1969SOL     OW17365   0.066   4.337   9.313  0.2387 -0.4318 -0.2674
 1969SOL    HW117366   0.066   4.260   9.369  0.6722  0.4596  0.9623
 1969SOL    HW217367   0.073   4.404   9.382 -0.1546  0.4518 -1.0880
 1970SOL     OW17368   2.528   4.265   4.594  0.1363  0.0836 -0.1085
 1970SOL    HW117369   2.484   4.209   4.658 -0.2349  3.3001  2.4598
 1970SOL    HW217370   2.544   4.338   4.654  0.1816 -0.4263  0.4985
 1971SOL     OW17371   1.776   4.550   5.591  0.2126 -0.3823 -0.2055
 1971SOL    HW117372   1.685   4.580   5.590  0.3645  0.2036  2.3361
 1971SOL    HW217373   1.761   4.457   5.571  1.5491 -0.0533 -2.7452
 1972SOL     OW17374   3.270   0.144  17.480 -0.0674 -0.3550 -0.0600
 1972SOL    HW117375   3.261   0.073  17.544 -2.2441  0.1158  0.1399
 1972SOL    HW217376   3.263   0.097  17.397  2.7283 -1.2267  0.1964
 1973SOL     OW17377   2.789   0.747   8.427  0.3632  1.1888  0.3347
 1973SOL    HW117378   2.701   0.725   8.457  0.8205 -1.6944 -0.4762
 1973SOL    HW217379   2.795   0.839   8.454  3.1628  0.5435  1.9231
 1974SOL     OW17380   1.363   1.765   3.162 -0.7488  0.3115 -0.8016
 1974SOL    HW117381   1.430   1.808   3.108 -0.0874 -1.2342 -1.1987
 1974SOL    HW217382   1.320   1.718   3.090  1.0251 -0.3951 -1.3825
 1975SOL     OW17383   2.218   1.599  16.774  0.6036  0.5631  0.1065
 1975SOL    HW117384   2.234   1.583  16.867 -1.2933 -0.6221  0.2255
 1975SOL    HW217385   2.128   1.629  16.778  0.7829  0.9250  1.4159
 1976SOL     OW17386   2.347   1.856  17.236 -0.1520  0.2814 -0.3200
 1976SOL    HW117387   2.267   1.847  17.287 -0.4372  0.8308 -0.6644
 1976SOL    HW217388   2.314   1.880  17.149 -2.0803 -0.1919  0.3049
 1977SOL     OW17389   3.609   0.573   9.255 -0.7610  0.3912 -0.1827
 1977SOL    HW117390   3.578   0.570   9.165  0.4340 -1.1978 -0.5431
 1977SOL    HW217391   3.536   0.615   9.300 -1.0944  0.2891 -0.6372
 1978SOL     OW17392   4.549   1.028  17.075 -0.6127 -0.1986  0.2186
 1978SOL    HW117393   4.609   0.983  17.015 -1.1656  1.1953 -1.3498
 1978SOL    HW217394   4.460   1.011  17.046 -1.2175  0.5474  1.6423
 1979SOL     OW17395   3.981   2.718   7.977  0.0223 -0.3918  0.0273
 1979SOL    HW117396   3.953   2.669   7.901 -1.1896  0.3292  0.0148
 1979SOL    HW217397   3.937   2.802   7.967  1.6452  0.1558 -2.6297
 1980SOL     OW17398   3.692   1.328   2.953  0.8585  0.5864  0.6735
 1980SOL    HW117399   3.672   1.308   3.045  0.5524  1.1730  0.7385
 1980SOL    HW217400   3.780   1.296   2.937  0.0940 -1.3363  0.3544
 1981SOL     OW17401   0.177   4.159   0.837 -0.3357 -0.2409 -0.1861
 1981SOL    HW117402   0.199   4.229   0.775 -0.5169  0.9520  1.0881
 1981SOL    HW217403   0.088   4.190   0.854  0.1696  1.1766 -0.0999
 1982SOL     OW17404   1.044   2.768  15.606  0.3844  0.2602  0.1853
 1982SOL    HW117405   1.033   2.847  15.658 -1.4193  1.0039 -1.3477
 1982SOL    HW217406   0.950   2.760  15.591  0.5392  0.2348 -0.8027
 1983SOL     OW17407   0.529   2.058   9.430  0.5008 -0.4500 -0.2893
 1983SOL    HW117408   0.495   2.138   9.391  2.2343 -0.2734 -1.4465
 1983SOL    HW217409   0.580   2.093   9.503  0.8665  0.3451 -0.9222
 1984SOL     OW17410   1.894   2.536   7.228  0.0344  0.5211  0.4267
 1984SOL    HW117411   1.808   2.551   7.267  0.5003  0.0849  1.5978
 1984SOL    HW217412   1.928   2.468   7.285 -1.0869  0.8605  1.4995
 1985SOL     OW17413   0.968   1.827   4.214 -0.4517 -0.1442  0.0606
 1985SOL    HW117414   0.915   1.893   4.169 -2.6454 -1.0253  1.3344
 1985SOL    HW217415   1.008   1.896   4.266  1.0218 -0.1028 -1.1328
 1986SOL     OW17416   2.127   3.625  15.390 -0.2641 -0.1333 -0.2360
 1986SOL    HW117417   2.174   3.705  15.368 -0.1613 -0.1647 -0.1271
 1986SOL    HW217418   2.190   3.600  15.457 -0.0501 -1.7505 -1.0442
 1987SOL     OW17419   0.902   0.443   9.578 -0.1866  0.0920  0.0174
 1987SOL    HW117420   0.857   0.511   9.627 -2.1586 -0.5156 -0.9254
 1987SOL    HW217421   0.836   0.417   9.513  0.7862 -1.7163 -0.2602
 1988SOL     OW17422   4.714   1.459   2.085 -0.0833  0.1232 -0.4010
 1988SOL    HW117423   0.053   1.403   2.035  0.4753  0.0896  0.2835
 1988SOL    HW217424   0.043   1.536   2.115  0.8326 -1.6988  2.7884
 1989SOL     OW17425   0.118   2.513   6.099 -0.2588  0.1591  0.3353
 1989SOL    HW117426   0.023   2.497   6.098 -0.1080 -0.8872  2.1894
 1989SOL    HW217427   0.151   2.488   6.013  0.6655  0.2768  0.6627
 1990SOL     OW17428   2.726   2.444   4.302 -0.6076 -0.2461  0.1862
 1990SOL    HW117429   2.766   2.457   4.388  1.1601  0.7034 -0.7733
 1990SOL    HW217430   2.758   2.354   4.291 -0.3260  0.0693 -1.6536
 1991SOL     OW17431   0.720   1.547   6.250  0.4908 -0.1638  0.7997
 1991SOL    HW117432   0.628   1.562   6.226  0.5354 -2.0614 -0.4866
 1991SOL    HW217433   0.738   1.633   6.290 -1.9111  0.6421  0.1411
 1992SOL     OW17434   1.913   0.461   8.355 -0.5821 -0.1320 -0.1771
 1992SOL    HW117435   1.984   0.495   8.409 -1.3530 -1.0329  1.4168
 1992SOL    HW217436   1.910   0.379   8.403 -3.0234  0.2382  0.3573
 1993SOL     OW17437   4.040   0.870   5.645 -0.0258 -0.2578 -0.1599
 1993SOL    HW117438   4.025   0.844   5.736 -0.8518  0.7303 -0.0203
 1993SOL    HW217439   4.027   0.780   5.615  1.8076 -0.3337 -0.7798
 1994SOL     OW17440   0.581   1.804   8.013  0.2638  0.3592  0.1088
 1994SOL    HW117441   0.630   1.723   8.030  1.3938  1.3617  1.7054
 1994SOL    HW217442   0.565   1.840   8.101  0.7829 -0.0802  0.3879
 1995SOL     OW17443   1.621   4.294  14.087 -0.9100 -0.3264 -0.9168
 1995SOL    HW117444   1.587   4.383  14.097  1.0721  0.3884 -0.5885
 1995SOL    HW217445   1.675   4.313  14.011  0.3338 -0.7450 -0.1414
 1996SOL     OW17446   2.096   3.193   6.995 -0.0988 -0.2505 -0.4966
 1996SOL    HW117447   2.115   3.111   6.951 -1.1482 -0.8394  0.1485
 1996SOL    HW217448   2.119   3.255   6.926 -0.6441  0.8133  0.2617
 1997SOL     OW17449   0.072   3.781   6.529  0.1240  0.0896  0.2782
 1997SOL    HW117450   0.054   3.810   6.619 -1.9561  0.7017 -0.3175
 1997SOL    HW217451   0.020   3.848   6.484  0.4473  0.2597  0.1633
 1998SOL     OW17452   3.006   1.938   6.049  0.0876 -0.1674  0.0701
 1998SOL    HW117453   3.045   1.898   6.126 -0.4511  0.9110  0.9042
 1998SOL    HW217454   3.082   1.989   6.022 -0.0708 -0.5757 -1.1464
 1999SOL     OW17455   3.860   1.626  14.665 -0.3684 -0.1337  1.1616
 1999SOL    HW117456   3.814   1.653  14.745 -0.0459 -0.0705  1.3284
 1999SOL    HW217457   3.936   1.577  14.697  0.7943  0.8384 -0.1730
 2000SOL     OW17458   4.350   2.297   5.719  0.0828  0.1268 -0.1590
 2000SOL    HW117459   4.387   2.341   5.642 -1.0004 -0.0905 -0.7900
 2000SOL    HW217460   4.424   2.258   5.766  0.5551 -0.0520 -1.0400
 2001SOL     OW17461   4.303   3.417  11.057 -0.2293 -0.3062  0.0917
 2001SOL    HW117462   4.210   3.432  11.076  0.1162  0.4953  1.0870
 2001SOL    HW217463   4.337   3.442  11.142 -0.5249  0.6459 -0.0707
 2002SOL     OW17464   4.204   3.928   9.292  0.5729 -0.2626 -0.5327
 2002SOL    HW117465   4.247   3.914   9.376 -2.4360  0.8793  1.1877
 2002SOL    HW217466   4.243   3.857   9.242  2.4000 -0.6815  1.4694
 2003SOL     OW17467   4.343   2.362   6.070  0.2995 -0.3754  0.5412
 2003SOL    HW117468   4.425   2.406   6.047  0.7949 -1.3831  0.3765
 2003SOL    HW217469   4.360   2.282   6.020 -0.3397 -0.3067  0.2179
 2004SOL     OW17470   0.438   1.885   2.683 -0.2975 -0.1737  0.6122
 2004SOL    HW117471   0.413   1.910   2.772  0.3996  0.5965  0.5931
 2004SOL    HW217472   0.482   1.966   2.655  0.6113 -0.1022  2.1998
 2005SOL     OW17473   3.151   3.425   7.200  0.5952 -0.1881 -0.3982
 2005SOL    HW117474   3.188   3.348   7.156  1.8927  1.1631 -1.6984
 2005SOL    HW217475   3.220   3.472   7.248 -0.3777 -0.9746  1.7752
 2006SOL     OW17476   3.012   2.555   3.596  1.0616  0.7378 -0.4606
 2006SOL    HW117477   3.009   2.624   3.662  0.1087 -1.7077  2.0484
 2006SOL    HW217478   2.920   2.562   3.572  0.3321 -2.9016  1.3606
 2007SOL     OW17479   0.827   2.475  10.161 -0.3009 -0.3402  0.0950
 2007SOL    HW117480   0.847   2.567  10.173  0.6892 -0.5494  0.0363
 2007SOL    HW217481   0.807   2.470  10.067  3.1280 -1.9347 -0.5477
 2008SOL     OW17482   2.442   4.269   5.554 -0.1148  0.1744  0.2479
 2008SOL    HW117483   2.533   4.240   5.555  1.0583  3.7145 -1.4443
 2008SOL    HW217484   2.456   4.357   5.520 -0.4869  0.9685  2.1936
 2009SOL     OW17485   4.067   2.374   9.093  0.0860  0.6253  0.1941
 2009SOL    HW117486   4.116   2.452   9.066 -0.9069  1.5120  0.9793
 2009SOL    HW217487   3.980   2.409   9.111 -0.0905  0.6413 -0.6969
 2010SOL     OW17488   3.472   2.150   7.057 -0.0900 -0.2966 -0.1568
 2010SOL    HW117489   3.449   2.118   7.144  1.5559  2.1474  1.2041
 2010SOL    HW217490   3.400   2.211   7.042  0.1903 -0.4179 -2.0153
 2011SOL     OW17491   0.825   3.496   4.484  0.2851 -0.3975  0.6158
 2011SOL    HW117492   0.872   3.419   4.516  2.2285 -0.5446 -2.5519
 2011SOL    HW217493   0.767   3.462   4.415 -0.9271 -1.6192  2.2492
 2012SOL     OW17494   0.674   4.582   9.455 -0.0717 -0.2098 -0.8012
 2012SOL    HW117495   0.610   4.517   9.484  0.7842 -0.6998 -0.0254
 2012SOL    HW217496   0.755   4.536   9.476 -0.5367 -0.6987 -0.0487
 2013SOL     OW17497   0.314   2.700   4.291  0.0358 -0.0150  0.8287
 2013SOL    HW117498   0.261   2.691   4.370  0.1425 -2.0213  0.6585
 2013SOL    HW217499   0.403   2.720   4.320  0.1664 -0.6428  0.8687
 2014SOL     OW17500   3.359   0.196   0.879 -0.1226  0.7179  0.0629
 2014SOL    HW117501   3.278   0.147   0.861 -0.2797  1.0511 -0.1403
 2014SOL    HW217502   3.405   0.136   0.938  1.8284  2.2628  0.1023
 2015SOL     OW17503   1.689   3.811   5.923  0.1742  0.0659 -0.1143
 2015SOL    HW117504   1.597   3.818   5.898 -0.4728 -0.8119  1.9870
 2015SOL    HW217505   1.678   3.844   6.012 -1.6588 -1.4881  0.2330
 2016SOL     OW17506   2.931   2.373   1.151  0.4119  0.2022  0.0281
 2016SOL    HW117507   2.964   2.446   1.203  2.1437 -0.1084 -0.6165
 2016SOL    HW217508   2.870   2.337   1.216  1.4858 -0.1141  0.8660
 2017SOL     OW17509   2.632   3.697   6.640  0.5579 -0.3371  0.1781
 2017SOL    HW117510   2.698   3.648   6.590  1.7693  2.4745 -0.9950
 2017SOL    HW217511   2.577   3.626   6.671  0.0961 -1.3509 -2.9734
 2018SOL     OW17512   3.669   4.252   2.463  0.3643  0.2983  0.0849
 2018SOL    HW117513   3.725   4.267   2.387 -0.9246  0.6670 -0.7944
 2018SOL    HW217514   3.691   4.330   2.514  1.5443 -0.8483  1.3329
 2019SOL     OW17515   2.920   2.036  15.780 -0.4550  0.3553  0.1366
 2019SOL    HW117516   2.894   2.124  15.808 -0.3093  0.1214  0.9851
 2019SOL    HW217517   2.923   1.994  15.865  0.5990  0.8232  0.3332
 2020SOL     OW17518   3.206   2.933   9.518  0.4075  0.0672  0.0670
 2020SOL    HW117519   3.264   2.936   9.441  0.2492 -1.4890 -0.1021
 2020SOL    HW217520   3.272   2.923   9.586  1.6607 -0.3220 -1.2080
 2021SOL     OW17521   0.327   0.745   8.505  0.0931  0.1382 -0.0662
 2021SOL    HW117522   0.296   0.749   8.595 -0.2931 -0.0269 -0.1948
 2021SOL    HW217523   0.414   0.710   8.526 -0.2433 -1.3168 -1.1091
 2022SOL     OW17524   3.193   2.892   3.317 -0.0045 -0.7253  0.3490
 2022SOL    HW117525   3.194   2.957   3.247 -0.8276  1.4439  2.3714
 2022SOL    HW217526   3.213   2.816   3.262  0.9905 -0.1500 -0.0778
 2023SOL     OW17527   2.755   2.292  14.410  0.7572  0.0528  0.1107
 2023SOL    HW117528   2.818   2.300  14.482  0.1903 -1.8593  0.8139
 2023SOL    HW217529   2.718   2.380  14.401  0.4172 -0.2040 -1.0569
 2024SOL     OW17530   0.303   1.553   9.023  0.7699  0.1842 -0.5520
 2024SOL    HW117531   0.291   1.641   9.057 -0.0008 -0.4427  0.8228
 2024SOL    HW217532   0.398   1.549   9.034  0.7054 -0.4955 -0.2341
 2025SOL     OW17533   1.949   2.623   3.408  0.3286  0.5157 -0.0263
 2025SOL    HW117534   1.886   2.557   3.437 -0.4401  0.6623 -1.3537
 2025SOL    HW217535   2.009   2.558   3.372 -0.8314 -0.6021  0.0731
 2026SOL     OW17536   3.510   1.940   2.039  0.6255 -0.4930  0.3679
 2026SOL    HW117537   3.548   1.880   2.104 -0.6658 -1.4208  0.2703
 2026SOL    HW217538   3.446   1.878   2.004 -0.8641  1.6019 -0.5922
 2027SOL     OW17539   0.544   2.744  11.907 -0.3833  0.2576  0.5702
 2027SOL    HW117540   0.626   2.750  11.956 -1.2835  0.6362  2.0303
 2027SOL    HW217541   0.570   2.661  11.867 -0.8963  0.0417  0.6800
 2028SOL     OW17542   0.734   0.092   8.195  0.2819  0.5552  0.1145
 2028SOL    HW117543   0.695   0.005   8.195 -0.2209  0.7698  1.0899
 2028SOL    HW217544   0.802   0.079   8.261 -0.8908  0.7796  1.3681
 2029SOL     OW17545   2.387   1.303   8.630  0.9383  0.6608  0.0357
 2029SOL    HW117546   2.325   1.298   8.702  0.7038  1.9772 -0.0804
 2029SOL    HW217547   2.383   1.397   8.612  0.8209  0.5795 -0.3702
 2030SOL     OW17548   1.542   4.682   8.066  0.3580  0.0355 -0.0088
 2030SOL    HW117549   1.459   4.709   8.106  0.6939 -0.4189  1.0100
 2030SOL    HW217550   1.580   0.046   8.040 -0.2829  0.4715  0.4372
 2031SOL     OW17551   3.563   4.084   4.203 -0.9272 -0.0041 -0.0586
 2031SOL    HW117552   3.520   4.126   4.129  1.4253  0.1919 -1.3043
 2031SOL    HW217553   3.583   4.162   4.255  3.4170 -0.8606 -0.4731
 2032SOL     OW17554   0.696   1.378  13.814 -0.5787  0.3507 -0.1853
 2032SOL    HW117555   0.626   1.359  13.877  0.1838  0.5914  0.7339
 2032SOL    HW217556   0.688   1.473  13.807 -0.8243  0.1811 -2.2831
 2033SOL     OW17557   0.587   0.891  15.538 -0.2791 -0.3042  0.5532
 2033SOL    HW117558   0.588   0.942  15.619 -0.2296  0.8482 -0.1613
 2033SOL    HW217559   0.662   0.924  15.487  0.2442 -1.5385  0.5387
 2034SOL     OW17560   3.572   4.078  11.188 -0.0593  0.0630 -0.2407
 2034SOL    HW117561   3.663   4.086  11.217 -0.4626  1.5756  0.5817
 2034SOL    HW217562   3.588   4.101  11.097 -1.8576  3.2717  0.2698
 2035SOL     OW17563   2.439   3.304  16.444 -0.3699  0.1053  0.2554
 2035SOL    HW117564   2.378   3.234  16.468  0.0464 -1.0923 -2.1598
 2035SOL    HW217565   2.509   3.263  16.394 -0.5255 -2.1159  1.8906
 2036SOL     OW17566   2.177   2.580   5.773 -0.2891  0.5036  0.3091
 2036SOL    HW117567   2.105   2.575   5.836  1.4103 -0.4203  2.2074
 2036SOL    HW217568   2.210   2.490   5.778 -2.2119 -0.1729  0.5715
 2037SOL     OW17569   2.394   3.160   0.488  0.0301 -0.1357  0.0799
 2037SOL    HW117570   2.488   3.159   0.471  0.6027  0.5885  3.1734
 2037SOL    HW217571   2.376   3.069   0.466  0.3898 -0.2155  0.1018
 2038SOL     OW17572   0.809   4.700   4.999 -0.3424  0.3346  0.0006
 2038SOL    HW117573   0.875   4.710   4.930 -0.8860  0.4027 -0.5170
 2038SOL    HW217574   0.750   0.054   4.982  2.4579  2.6917  0.3145
 2039SOL     OW17575   1.074   0.295   4.554  0.1479 -0.0497  0.4002
 2039SOL    HW117576   1.153   0.259   4.594  1.5395  1.8530 -0.6212
 2039SOL    HW217577   1.114   0.372   4.513  0.5441 -0.1282  0.6375
 2040SOL     OW17578   3.472   1.736   1.833  0.3958  0.2647 -0.5173
 2040SOL    HW117579   3.408   1.805   1.814 -1.3740 -1.6093 -1.3261
 2040SOL    HW217580   3.553   1.767   1.793  1.4410 -0.5899  0.9393
 2041SOL     OW17581   3.859   2.705   9.394 -0.0316  0.0556  0.4030
 2041SOL    HW117582   3.812   2.622   9.391  0.6999 -0.4572  2.6870
 2041SOL    HW217583   3.848   2.748   9.310 -2.2394  0.6380  1.0007
 2042SOL     OW17584   4.647   3.467   0.419  0.1686 -0.0148 -0.4787
 2042SOL    HW117585   4.580   3.484   0.485  0.7128  0.1422  0.0375
 2042SOL    HW217586   4.609   3.400   0.362 -1.1930 -0.0291  0.4541
 2043SOL     OW17587   2.273   2.846   2.675  0.0399 -0.3002 -0.3153
 2043SOL    HW117588   2.318   2.850   2.759  0.9327  0.8797 -0.8626
 2043SOL    HW217589   2.196   2.792   2.693  0.5838 -0.9863 -0.0453
 2044SOL     OW17590   4.402   1.144   2.625 -0.2339  0.0848 -0.1731
 2044SOL    HW117591   4.467   1.213   2.637 -2.6028  2.6909 -2.3522
 2044SOL    HW217592   4.359   1.148   2.710 -1.0850  1.9372 -0.6887
 2045SOL     OW17593   3.674   1.638   7.284  0.3969 -0.2027  0.1584
 2045SOL    HW117594   3.633   1.581   7.350  2.0587  0.9006  2.1543
 2045SOL    HW217595   3.659   1.587   7.204 -0.0074 -1.2740  0.9110
 2046SOL     OW17596   0.772   2.059   2.523  0.5590 -0.9510 -0.2636
 2046SOL    HW117597   0.798   2.135   2.472 -0.3766 -0.7904 -0.5118
 2046SOL    HW217598   0.813   1.981   2.486  0.7336 -1.1823  0.4111
 2047SOL     OW17599   0.578   3.602   9.361 -0.6144  0.4759 -0.4991
 2047SOL    HW117600   0.609   3.523   9.317  0.1929  2.1802 -2.9383
 2047SOL    HW217601   0.492   3.577   9.395 -1.8657  0.4495 -3.6781
 2048SOL     OW17602   1.032   3.808   9.107 -0.4912  0.6420 -0.0709
 2048SOL    HW117603   0.953   3.790   9.056 -1.4073  2.1253  0.8066
 2048SOL    HW217604   1.095   3.794   9.036 -1.8524  0.5007 -1.2447
 2049SOL     OW17605   3.166   4.692   1.420  0.3604 -0.3425 -0.6724
 2049SOL    HW117606   3.236   0.002   1.478 -0.0565  3.2041 -1.9021
 2049SOL    HW217607   3.157   4.598   1.434  0.3863 -0.3097 -0.4430
 2050SOL     OW17608   3.554   2.890  13.564  0.4042  0.1361 -0.1656
 2050SOL    HW117609   3.561   2.967  13.508  1.0144 -1.2008 -1.8973
 2050SOL    HW217610   3.535   2.822  13.500 -0.8333  0.1335  0.1974
 2051SOL     OW17611   1.518   4.531   3.004  0.0418 -0.0341  0.1695
 2051SOL    HW117612   1.481   4.553   2.919 -2.2717  0.3534  1.2874
 2051SOL    HW217613   1.446   4.483   3.045  2.0461 -1.5032  1.9986
 2052SOL     OW17614   1.779   1.081   7.814  0.2700 -0.1511 -0.3588
 2052SOL    HW117615   1.721   1.081   7.738  0.7931 -1.0617 -0.7463
 2052SOL    HW217616   1.759   1.167   7.852  0.1150 -0.6787  0.7648
 2053SOL     OW17617   0.199   0.074   9.705  0.1485  0.4245  0.1590
 2053SOL    HW117618   0.140   4.718   9.696 -0.8681  1.1575  0.5596
 2053SOL    HW217619   0.197   0.106   9.615  0.7779  0.9441  0.3329
 2054SOL     OW17620   0.094   4.276   6.851 -0.0369  0.3189 -0.3545
 2054SOL    HW117621   0.023   4.227   6.808 -0.0706 -0.4250  0.5635
 2054SOL    HW217622   0.088   4.250   6.943 -1.9188  0.8163 -0.3185
 2055SOL     OW17623   4.114   4.366  17.087  0.2097  0.3050  0.0449
 2055SOL    HW117624   4.194   4.358  17.140  1.7700  1.6305 -2.0949
 2055SOL    HW217625   4.072   4.283  17.109 -0.9268  1.0065  0.4914
 2056SOL     OW17626   0.863   4.274   4.459 -0.5685 -0.5779 -0.2715
 2056SOL    HW117627   0.832   4.274   4.369 -1.7377 -0.3111  0.1329
 2056SOL    HW217628   0.926   4.202   4.460 -0.0994 -0.1653  0.0272
 2057SOL     OW17629   3.514   3.685   3.208 -0.2204  0.1444  0.3223
 2057SOL    HW117630   3.542   3.754   3.147 -1.9636  0.0022 -0.6526
 2057SOL    HW217631   3.529   3.732   3.290  2.1930  0.7697 -0.4670
 2058SOL     OW17632   3.583   4.449   2.171 -0.0283 -0.1466 -0.3865
 2058SOL    HW117633   3.538   4.492   2.098 -0.2428  1.0633  0.4694
 2058SOL    HW217634   3.539   4.498   2.240  1.5402 -0.0022  0.5107
 2059SOL     OW17635   1.993   2.528   3.785  0.4136 -0.4472  0.1504
 2059SOL    HW117636   2.038   2.475   3.720 -0.2127 -1.9793  0.9676
 2059SOL    HW217637   2.033   2.610   3.757  2.3591 -1.1659  0.8354
 2060SOL     OW17638   0.838   0.579   5.818 -0.5552  0.2718  0.0391
 2060SOL    HW117639   0.906   0.511   5.819 -0.7538  0.1252  3.7546
 2060SOL    HW217640   0.890   0.658   5.808  1.2093 -1.3245 -3.6990
 2061SOL     OW17641   3.714   0.579   4.226  0.2820 -0.7378  0.1150
 2061SOL    HW117642   3.695   0.496   4.182  0.7291 -1.5870  1.5224
 2061SOL    HW217643   3.803   0.597   4.196  0.5665 -1.7449  0.3292
 2062SOL     OW17644   1.513   4.180   5.036 -0.3737  0.7171 -0.3410
 2062SOL    HW117645   1.560   4.175   4.952  1.2866  2.2100  0.4855
 2062SOL    HW217646   1.426   4.155   5.006 -0.3066  2.7510 -2.2550
 2063SOL     OW17647   3.495   2.621   2.516 -0.2364  0.3108  0.0761
 2063SOL    HW117648   3.564   2.660   2.569 -0.9193  2.0080 -0.2931
 2063SOL    HW217649   3.428   2.689   2.515 -1.2330 -0.6670  1.8120
 2064SOL     OW17650   0.799   0.406  14.373 -0.3504  0.4844 -0.0874
 2064SOL    HW117651   0.737   0.467  14.333 -0.5855 -1.0380 -2.0611
 2064SOL    HW217652   0.756   0.324  14.348  2.4012 -0.6439 -1.0213
 2065SOL     OW17653   2.554   0.489   6.983 -0.2645 -0.2539 -0.0714
 2065SOL    HW117654   2.606   0.427   6.933 -0.1525  1.0554 -1.5643
 2065SOL    HW217655   2.484   0.495   6.918 -0.3525  1.0704  0.1585
 2066SOL     OW17656   4.549   3.954  13.688  0.4244  0.6196 -0.1478
 2066SOL    HW117657   4.596   3.975  13.606  1.2270 -1.2869 -0.1758
 2066SOL    HW217658   4.486   4.025  13.676  0.5946  0.7023 -0.5653
 2067SOL     OW17659   2.895   0.381   3.094  0.0386 -0.0095  0.0008
 2067SOL    HW117660   2.937   0.385   3.181 -0.7186  0.6985  0.3355
 2067SOL    HW217661   2.970   0.406   3.041  0.3339  0.8783  0.8401
 2068SOL     OW17662   1.598   2.912   0.854 -0.6438 -0.4109  0.1349
 2068SOL    HW117663   1.688   2.944   0.851 -0.4325 -1.2026 -1.7358
 2068SOL    HW217664   1.585   2.910   0.949 -1.3111  1.5888  0.0946
 2069SOL     OW17665   0.199   1.203  14.789 -0.4751  0.4688 -0.8605
 2069SOL    HW117666   0.113   1.172  14.759  0.4714 -1.7134 -1.3707
 2069SOL    HW217667   0.189   1.297  14.797  1.5537  0.6918 -0.9153
 2070SOL     OW17668   0.063   4.516  15.848  0.7260  0.0766  0.0127
 2070SOL    HW117669   0.134   4.560  15.800  0.5996  0.8580  0.5498
 2070SOL    HW217670   0.017   4.474  15.776 -1.2388  1.4930  0.4539
 2071SOL     OW17671   1.474   3.409   9.991  0.2100  0.0405  0.3091
 2071SOL    HW117672   1.480   3.491  10.040 -1.6342  0.7464 -0.6732
 2071SOL    HW217673   1.490   3.342  10.059 -2.1745 -0.9488 -0.1354
 2072SOL     OW17674   3.163   1.779   5.399  0.5387  0.4241  0.1067
 2072SOL    HW117675   3.181   1.692   5.435  0.4013 -0.0696 -1.0098
 2072SOL    HW217676   3.100   1.756   5.331 -1.7125  1.6048  1.7803
 2073SOL     OW17677   0.297   0.531   8.156  0.0296 -0.3635 -0.0939
 2073SOL    HW117678   0.365   0.583   8.113 -0.5842  1.2570  0.9159
 2073SOL    HW217679   0.245   0.602   8.193 -2.2365 -1.6431 -0.8448
 2074SOL     OW17680   3.889   3.949   7.907  0.5124 -0.1933 -0.7358
 2074SOL    HW117681   3.912   3.891   7.834 -1.3832 -1.2882 -0.4455
 2074SOL    HW217682   3.818   3.899   7.947  0.0005 -0.8589 -2.4750
 2075SOL     OW17683   0.173   0.633  16.188 -0.2555 -0.7641 -0.0917
 2075SOL    HW117684   0.118   0.558  16.209 -1.0243 -0.3829 -0.7522
 2075SOL    HW217685   0.251   0.582  16.166  0.6525  0.6820 -0.2385
 2076SOL     OW17686   1.010   0.727   4.314 -0.1292  0.6090  0.4110
 2076SOL    HW117687   0.918   0.739   4.339 -0.2471  0.2580  0.1477
 2076SOL    HW217688   1.007   0.677   4.232 -0.2131 -0.2367  0.9234
 2077SOL     OW17689   2.095   1.615   6.565  0.4169 -0.0323 -0.0246
 2077SOL    HW117690   2.066   1.650   6.480  0.6852 -0.7385 -0.4026
 2077SOL    HW217691   2.063   1.525   6.560  2.3980 -0.7787  0.5773
 2078SOL     OW17692   1.937   2.535  11.212  0.4379 -0.1747 -0.0262
 2078SOL    HW117693   1.853   2.535  11.257 -0.4796 -0.4463 -1.7306
 2078SOL    HW217694   1.927   2.611  11.155 -1.2387  0.2898  0.9117
 2079SOL     OW17695   0.751   2.812  14.436 -0.8927  0.0829  0.2011
 2079SOL    HW117696   0.747   2.813  14.340 -2.5625 -0.7717  0.2666
 2079SOL    HW217697   0.757   2.717  14.446 -0.1358  0.1925  0.8176
 2080SOL     OW17698   0.857   0.752  17.246 -0.3655  0.2959  0.1883
 2080SOL    HW117699   0.815   0.685  17.192 -0.6230  2.3533 -2.2041
 2080SOL    HW217700   0.782   0.810  17.260 -1.3398 -1.0747  0.6739
 2081SOL     OW17701   1.047   3.802  17.209  0.2915 -0.5495 -0.3184
 2081SOL    HW117702   1.031   3.897  17.205 -1.9360 -0.9343 -0.6630
 2081SOL    HW217703   0.964   3.757  17.226 -0.4225  0.3393 -1.4493
 2082SOL     OW17704   1.204   3.549   6.931  0.2456  0.3065  0.3589
 2082SOL    HW117705   1.217   3.543   7.026 -0.0955  0.6993  0.4262
 2082SOL    HW217706   1.177   3.458   6.919  1.8385 -0.2222  0.7825
 2083SOL     OW17707   4.071   4.301   4.815 -0.8443 -0.1533 -0.0451
 2083SOL    HW117708   4.164   4.323   4.813 -0.8160 -0.2744 -0.0556
 2083SOL    HW217709   4.061   4.290   4.910 -3.9091  2.1643 -0.0783
 2084SOL     OW17710   3.933   4.246   5.696  0.1172  0.1221  0.3324
 2084SOL    HW117711   3.877   4.177   5.660 -0.1919  1.5821 -2.0037
 2084SOL    HW217712   4.021   4.216   5.673 -0.3237  1.4195 -3.0792
 2085SOL     OW17713   1.365   0.028   4.368  0.1829  0.0205  0.0036
 2085SOL    HW117714   1.281   0.065   4.396 -0.8133 -0.2095 -2.6550
 2085SOL    HW217715   1.335   4.663   4.335 -0.6535 -0.3271  1.6726
 2086SOL     OW17716   4.174   3.940  10.150  0.3334 -0.0143 -0.1293
 2086SOL    HW117717   4.133   3.985  10.225  1.0246 -1.0018  0.8418
 2086SOL    HW217718   4.255   3.915  10.195  1.4968  3.5028 -0.2656
 2087SOL     OW17719   0.994   0.802  12.308 -0.0611  1.0196  0.2360
 2087SOL    HW117720   0.933   0.876  12.318 -0.3088  0.6617  1.3292
 2087SOL    HW217721   1.023   0.791  12.398  0.4794 -0.2511 -0.0937
 2088SOL     OW17722   1.848   2.496   6.342  0.3552  0.4784  0.2101
 2088SOL    HW117723   1.848   2.425   6.406  0.3057  0.3910  0.1131
 2088SOL    HW217724   1.816   2.465   6.257 -1.1372  0.0254  0.9346
 2089SOL     OW17725   4.185   0.440   5.079  0.0232  0.3591 -0.4514
 2089SOL    HW117726   4.188   0.485   4.994  0.5014 -0.6230 -0.9596
 2089SOL    HW217727   4.278   0.420   5.088 -0.1834  0.0671  1.0184
 2090SOL     OW17728   4.046   3.628   7.549  0.0578 -0.2874 -0.2054
 2090SOL    HW117729   3.958   3.620   7.514  0.4695 -2.8292 -0.7051
 2090SOL    HW217730   4.078   3.691   7.485  0.4065 -0.5689 -0.3138
 2091SOL     OW17731   0.106   2.994   7.412  0.1751 -0.0588 -0.3599
 2091SOL    HW117732   0.122   2.900   7.406  0.3823  0.0242 -1.1466
 2091SOL    HW217733   0.018   2.997   7.374 -0.0543  0.4800  0.2218
 2092SOL     OW17734   0.535   1.374   4.135  0.3102  0.1375 -0.5554
 2092SOL    HW117735   0.594   1.322   4.079 -0.9555 -1.3474 -0.5216
 2092SOL    HW217736   0.532   1.325   4.218  0.1106 -1.0145 -1.2380
 2093SOL     OW17737   2.192   1.523  11.645  0.0197  0.2755 -0.4635
 2093SOL    HW117738   2.273   1.573  11.641 -1.1553  2.3011  0.8948
 2093SOL    HW217739   2.223   1.448  11.594 -0.3675 -0.2975  0.1289
 2094SOL     OW17740   1.839   4.660   7.998  0.1249 -0.0562 -0.1868
 2094SOL    HW117741   1.762   4.646   7.943  0.0792 -2.4354  0.4644
 2094SOL    HW217742   1.879   4.574   7.983  0.3077  0.0893 -0.5286
 2095SOL     OW17743   1.599   2.515   5.352 -0.5291 -0.3841  0.0672
 2095SOL    HW117744   1.505   2.507   5.339 -0.4166 -0.6071 -0.5940
 2095SOL    HW217745   1.620   2.422   5.342 -0.8863 -0.4329 -0.2034
 2096SOL     OW17746   1.670   1.469   4.813 -0.5220 -0.4064 -0.6195
 2096SOL    HW117747   1.581   1.505   4.810  0.3948  2.0245  1.0585
 2096SOL    HW217748   1.652   1.429   4.898 -1.8836  0.5087 -0.4571
 2097SOL     OW17749   4.512   4.140   7.108 -0.4690 -0.3322  0.0798
 2097SOL    HW117750   4.543   4.081   7.039  4.4925 -1.1051  2.9782
 2097SOL    HW217751   4.442   4.185   7.061 -0.7171 -0.5586  0.2405
 2098SOL     OW17752   1.151   1.600   6.109 -0.1115 -0.7295 -0.1669
 2098SOL    HW117753   1.173   1.688   6.140  0.4450 -1.4827  1.5726
 2098SOL    HW217754   1.224   1.600   6.047  0.8293 -4.2568  0.9891
 2099SOL     OW17755   3.807   1.988   8.666 -0.1476  0.1920  0.0660
 2099SOL    HW117756   3.883   1.983   8.608  0.3008  1.5310  0.5462
 2099SOL    HW217757   3.828   1.917   8.727 -1.3167  1.0303  1.4309
 2100SOL     OW17758   2.830   2.649  16.783 -0.1396  0.0115  0.0158
 2100SOL    HW117759   2.784   2.565  16.780  2.4517 -1.4112  0.0908
 2100SOL    HW217760   2.785   2.691  16.711 -1.4936  2.2427  2.2001
 2101SOL     OW17761   3.797   3.779  11.857 -0.0831 -0.7009  0.2794
 2101SOL    HW117762   3.875   3.723  11.865 -0.6137 -1.4716  0.0554
 2101SOL    HW217763   3.812   3.810  11.768  0.9090 -1.0240  0.3378
 2102SOL     OW17764   2.261   1.126   4.824  0.8032  0.8132 -0.0500
 2102SOL    HW117765   2.335   1.124   4.884 -0.5705 -2.0472  1.5397
 2102SOL    HW217766   2.236   1.219   4.822  1.6751  1.0311 -1.0549
 2103SOL     OW17767   1.022   4.517   4.196  0.2894 -0.2820  0.3649
 2103SOL    HW117768   0.948   4.571   4.223 -0.8019 -0.9479 -1.2306
 2103SOL    HW217769   1.039   4.568   4.116  2.1907 -0.1608  0.8403
 2104SOL     OW17770   0.818   1.018  15.843 -0.0548 -0.8063 -0.3598
 2104SOL    HW117771   0.883   1.027  15.773  1.8361 -1.5060  1.3023
 2104SOL    HW217772   0.787   0.928  15.835 -0.8095 -0.8588  3.3602
 2105SOL     OW17773   3.520   1.401   1.002  0.1785  0.0342  0.1366
 2105SOL    HW117774   3.586   1.334   1.014  1.3286  1.2927  0.7892
 2105SOL    HW217775   3.514   1.379   0.909  1.0018  0.3240  0.0137
 2106SOL     OW17776   2.361   4.313   4.336 -0.1542  0.3512 -0.0195
 2106SOL    HW117777   2.449   4.323   4.300 -0.6308  2.3374 -0.6810
 2106SOL    HW217778   2.376   4.298   4.429 -0.5800 -1.1693 -0.2068
 2107SOL     OW17779   4.703   3.669  13.976  0.2962  0.5259 -0.2187
 2107SOL    HW117780   4.634   3.638  14.035 -0.3421  1.9631 -0.1793
 2107SOL    HW217781   0.062   3.650  14.027 -1.7997 -0.4220  2.6303
 2108SOL     OW17782   3.888   4.212  10.837  0.1520 -0.4692 -0.3061
 2108SOL    HW117783   3.795   4.205  10.858  0.2017 -0.5530 -0.1132
 2108SOL    HW217784   3.916   4.261  10.914 -0.0434  0.9393 -1.1439
 2109SOL     OW17785   4.275   4.351   8.382  0.0393  0.4661 -0.6577
 2109SOL    HW117786   4.186   4.384   8.380 -0.0827  0.4010  2.9009
 2109SOL    HW217787   4.307   4.424   8.328  1.0710  0.5351  0.0418
 2110SOL     OW17788   1.395   3.148  12.660  0.2270 -0.7162  0.1065
 2110SOL    HW117789   1.449   3.070  12.673  1.4597  0.2545  0.7980
 2110SOL    HW217790   1.444   3.218  12.703 -0.2923 -1.0044  1.1595
 2111SOL     OW17791   0.084   2.069   4.950  0.1870 -0.0556 -0.3300
 2111SOL    HW117792   0.063   2.102   5.038 -0.8400  0.5456 -0.7952
 2111SOL    HW217793   0.044   1.982   4.951  0.7811 -0.3352 -1.0646
 2112SOL     OW17794   2.966   2.091   9.076 -0.3078  0.6687  0.3695
 2112SOL    HW117795   2.930   2.058   9.158  2.2281 -0.0903  1.1729
 2112SOL    HW217796   2.901   2.158   9.054 -1.0420  0.1101  0.8408
 2113SOL     OW17797   4.559   0.952   0.829  0.1971  0.8200  0.3867
 2113SOL    HW117798   4.621   0.895   0.874  0.2780  0.0219 -0.7359
 2113SOL    HW217799   4.485   0.930   0.886  0.6217 -2.2393 -0.2278
 2114SOL     OW17800   4.175   0.752   5.063  0.4227 -0.7805  0.3789
 2114SOL    HW117801   4.256   0.702   5.071  0.2139 -1.2878 -0.7082
 2114SOL    HW217802   4.197   0.816   4.995 -0.1639  1.1696  2.0217
 2115SOL     OW17803   3.769   4.601   4.168  0.0684 -0.3745 -0.4067
 2115SOL    HW117804   3.714   4.654   4.226  0.9244 -0.1068  0.1737
 2115SOL    HW217805   3.858   4.603   4.204 -0.0196  0.3675 -0.2392
 2116SOL     OW17806   1.607   4.492  11.671  0.3561 -0.2764  0.3485
 2116SOL    HW117807   1.604   4.558  11.740 -2.6080 -0.6267  0.5822
 2116SOL    HW217808   1.690   4.447  11.686 -0.8788 -1.9456  2.1390
 2117SOL     OW17809   2.853   1.966   7.128  0.3298 -0.0458 -0.2831
 2117SOL    HW117810   2.792   1.943   7.198  2.3313 -1.7803  0.8990
 2117SOL    HW217811   2.801   1.969   7.048  0.7726 -0.9295 -0.6063
 2118SOL     OW17812   4.440   1.993  10.828  0.0153  0.1223 -0.3663
 2118SOL    HW117813   4.367   2.039  10.786 -2.0259 -1.7471  1.1245
 2118SOL    HW217814   4.405   1.904  10.826  0.0729  0.0904 -0.0445
 2119SOL     OW17815   3.762   1.600   0.868  0.3038 -0.5102  0.3082
 2119SOL    HW117816   3.688   1.605   0.928  0.2207 -2.0158  0.3351
 2119SOL    HW217817   3.830   1.642   0.920  1.5399 -2.1802  0.0381
 2120SOL     OW17818   1.640   3.575   8.359  0.2944  1.1334 -0.1624
 2120SOL    HW117819   1.669   3.665   8.374  0.5406  0.5829  2.6427
 2120SOL    HW217820   1.695   3.543   8.287 -1.3411  1.0930 -1.3765
 2121SOL     OW17821   1.634   4.056  11.130  0.0502  0.0563 -0.3609
 2121SOL    HW117822   1.614   4.147  11.154  0.0777 -0.6930  2.4325
 2121SOL    HW217823   1.605   4.060  11.039 -1.4279  1.1834  0.1525
 2122SOL     OW17824   0.429   1.987   9.132 -0.2147 -0.4528  0.6261
 2122SOL    HW117825   0.512   1.943   9.114 -0.2647 -0.9275  1.5308
 2122SOL    HW217826   0.395   1.930   9.201  0.1277 -2.1648 -0.6356
 2123SOL     OW17827   1.086   0.408  11.071  0.0142  0.0979 -0.7236
 2123SOL    HW117828   0.990   0.408  11.073  0.0695 -1.0291  1.2805
 2123SOL    HW217829   1.111   0.330  11.120 -1.6415 -1.5921 -2.5139
 2124SOL     OW17830   3.957   1.491   4.140  0.2002 -0.2464 -0.4270
 2124SOL    HW117831   3.939   1.584   4.154 -0.3074 -0.2658 -0.9271
 2124SOL    HW217832   3.918   1.484   4.053 -0.0586  0.9171 -0.3991
 2125SOL     OW17833   2.612   3.972   8.062 -0.0188 -0.4227  0.6843
 2125SOL    HW117834   2.552   3.898   8.066 -0.4672 -0.1535 -0.8789
 2125SOL    HW217835   2.587   4.011   7.978  1.1290  0.5696  0.8102
 2126SOL     OW17836   3.576   2.637   0.457 -0.2933 -0.7197  0.3146
 2126SOL    HW117837   3.671   2.632   0.462 -0.3526 -1.7062  0.6187
 2126SOL    HW217838   3.556   2.719   0.501  4.1253  1.8496 -2.4951
 2127SOL     OW17839   2.789   2.166  16.225 -0.2151  0.2762 -0.3467
 2127SOL    HW117840   2.714   2.205  16.270 -1.3878 -2.0431 -0.2579
 2127SOL    HW217841   2.867   2.203  16.266 -0.1211 -0.8982  0.5330
 2128SOL     OW17842   0.467   2.113   7.289 -0.2026  0.2944  0.2543
 2128SOL    HW117843   0.543   2.153   7.332  0.0257  0.0046  0.1179
 2128SOL    HW217844   0.459   2.180   7.222  0.2094  1.2732  1.1799
 2129SOL     OW17845   2.464   2.474   9.089 -0.4950 -0.5708 -0.2384
 2129SOL    HW117846   2.491   2.422   9.164  0.2930 -1.9322 -1.4781
 2129SOL    HW217847   2.498   2.560   9.117 -0.0087 -0.5579 -0.8582
 2130SOL     OW17848   1.324   2.481  15.228  0.4007  0.6880  0.2132
 2130SOL    HW117849   1.407   2.454  15.189 -0.9634 -1.4938 -1.1201
 2130SOL    HW217850   1.313   2.559  15.174 -0.2242 -0.6682 -1.5775
 2131SOL     OW17851   3.746   0.813   3.994  0.4451  0.1180 -0.2948
 2131SOL    HW117852   3.804   0.780   4.062  1.1588 -0.9943 -1.4404
 2131SOL    HW217853   3.752   0.906   4.015 -0.6825  0.1771 -0.2254
 2132SOL     OW17854   0.548   4.103   6.475 -0.3908 -0.1300  0.0102
 2132SOL    HW117855   0.544   4.147   6.560  1.6697  0.1774 -0.0660
 2132SOL    HW217856   0.456   4.090   6.449 -0.2053 -0.6624 -0.3861
 2133SOL     OW17857   4.504   1.730  12.034 -0.2333 -0.7035 -0.0201
 2133SOL    HW117858   4.429   1.676  12.008 -0.9816 -0.1870  1.0840
 2133SOL    HW217859   4.524   1.769  11.948  1.3544  0.3141  0.8052
 2134SOL     OW17860   1.110   1.071   7.992  0.6561  0.9448 -0.4608
 2134SOL    HW117861   1.206   1.073   8.000  0.4210 -1.3390  2.8575
 2134SOL    HW217862   1.116   1.109   7.904  1.4328  0.9231 -0.4230
 2135SOL     OW17863   0.882   3.963   0.930  0.1989 -0.4731 -0.2862
 2135SOL    HW117864   0.861   3.899   0.862 -0.6490  1.2073 -1.6170
 2135SOL    HW217865   0.849   3.917   1.007  1.0649 -0.2022  0.2560
 2136SOL     OW17866   4.267   3.230   1.838 -0.3731 -0.1774  0.0769
 2136SOL    HW117867   4.266   3.141   1.872 -0.2210 -0.1623  0.1233
 2136SOL    HW217868   4.353   3.238   1.797 -1.1654  2.5921 -1.0557
 2137SOL     OW17869   4.457   2.011   5.477 -0.3578  0.0510  0.2656
 2137SOL    HW117870   4.501   2.088   5.442  0.5724 -0.2004  0.8818
 2137SOL    HW217871   4.499   1.945   5.421 -1.9232 -0.6400 -0.0742
 2138SOL     OW17872   1.224   2.214   2.956 -0.3390 -0.0546  0.0301
 2138SOL    HW117873   1.220   2.150   2.885  2.0520 -0.6293  0.4070
 2138SOL    HW217874   1.307   2.258   2.936  0.8802 -2.7727 -0.9110
 2139SOL     OW17875   3.655   2.157  10.071  0.2743 -0.1873 -0.2374
 2139SOL    HW117876   3.695   2.088  10.123 -0.9625 -0.4729  0.3497
 2139SOL    HW217877   3.630   2.227  10.132  0.6171 -1.0080  0.8398
 2140SOL     OW17878   4.103   3.699   5.384  0.2087  0.3972 -0.6095
 2140SOL    HW117879   4.161   3.657   5.447 -1.3291 -2.8700 -1.3970
 2140SOL    HW217880   4.050   3.628   5.348 -0.3571  1.1341 -1.2561
 2141SOL     OW17881   2.279   3.823   6.979 -0.9117  0.0669 -0.2759
 2141SOL    HW117882   2.237   3.886   6.920 -0.7551  0.4952  0.0703
 2141SOL    HW217883   2.310   3.753   6.921  1.6401  1.0798 -0.0967
 2142SOL     OW17884   2.188   2.825   4.097  0.4743 -0.2187  0.1125
 2142SOL    HW117885   2.101   2.796   4.124  0.2971  1.4377  1.3596
 2142SOL    HW217886   2.200   2.759   4.029  2.1798 -0.3964  0.5865
 2143SOL     OW17887   0.644   4.568   3.176 -0.0218 -0.5340  0.1795
 2143SOL    HW117888   0.691   4.613   3.246  0.5726  0.5799 -0.9460
 2143SOL    HW217889   0.713   4.567   3.109 -0.6817 -1.0731 -0.5059
 2144SOL     OW17890   1.242   3.318   5.095  0.0394  0.1931 -0.2748
 2144SOL    HW117891   1.155   3.331   5.131 -0.9731 -0.4361 -2.4979
 2144SOL    HW217892   1.275   3.408   5.091 -0.9920  0.6039  0.4862
 2145SOL     OW17893   3.372   4.539   6.052 -0.2176  0.0215 -0.2242
 2145SOL    HW117894   3.448   4.498   6.011 -0.4855  1.3634 -2.0829
 2145SOL    HW217895   3.298   4.520   5.994 -0.6779 -0.7789  0.6290
 2146SOL     OW17896   3.255   3.872  13.210  0.1881  0.0445 -0.4314
 2146SOL    HW117897   3.192   3.884  13.139  1.7991 -0.0238 -1.8963
 2146SOL    HW217898   3.284   3.961  13.231 -2.8178  1.2146 -1.2451
 2147SOL     OW17899   0.171   3.338   7.573  0.1921 -0.0056 -0.2490
 2147SOL    HW117900   0.231   3.264   7.565  1.3529  1.1856 -2.4805
 2147SOL    HW217901   0.195   3.396   7.502  3.3111 -1.3093 -0.2506
 2148SOL     OW17902   0.575   1.246   3.575 -0.1843 -0.5711 -0.2615
 2148SOL    HW117903   0.581   1.184   3.648 -0.4185 -0.3925 -0.0913
 2148SOL    HW217904   0.658   1.293   3.583 -0.0113 -0.9321  0.0424
 2149SOL     OW17905   4.385   2.256   1.327 -0.3419  0.1617  0.7347
 2149SOL    HW117906   4.434   2.275   1.247  2.1533 -2.0947  1.7385
 2149SOL    HW217907   4.313   2.318   1.312  1.8293  2.2595 -0.9085
 2150SOL     OW17908   1.550   3.051  13.031 -0.0504  0.0807 -0.0908
 2150SOL    HW117909   1.565   3.145  13.021 -1.3303  0.3732  0.7669
 2150SOL    HW217910   1.570   3.025  12.941 -2.7197 -0.0844 -0.6284
 2151SOL     OW17911   1.537   3.585   7.285 -0.3408  0.2171 -0.2342
 2151SOL    HW117912   1.629   3.593   7.310 -0.2037 -0.9110 -0.3874
 2151SOL    HW217913   1.518   3.675   7.259 -0.5900  0.2258 -0.0230
 2152SOL     OW17914   2.936   3.343  16.990 -0.0001 -0.5053 -0.4868
 2152SOL    HW117915   2.880   3.327  17.066 -2.0651  1.9575 -1.5094
 2152SOL    HW217916   2.998   3.408  17.025 -0.4880 -0.7997  0.9324
 2153SOL     OW17917   1.933   4.698   6.652 -0.3127  0.4541  0.0789
 2153SOL    HW117918   1.925   0.070   6.678 -3.9572 -0.1694  1.2546
 2153SOL    HW217919   2.021   4.681   6.686 -0.3526  2.0311  0.9548
 2154SOL     OW17920   3.849   2.658   0.520 -0.3468  0.4347  0.8268
 2154SOL    HW117921   3.918   2.614   0.470 -0.2237 -0.8944  2.1596
 2154SOL    HW217922   3.901   2.685   0.596  1.5714 -0.1760 -0.2690
 2155SOL     OW17923   1.957   0.256   2.803  0.2221 -0.5961 -0.0138
 2155SOL    HW117924   2.042   0.266   2.760  0.8081 -0.4771  1.1591
 2155SOL    HW217925   1.934   0.200   2.729 -1.4293 -0.2776  0.2600
 2156SOL     OW17926   1.534   3.563   4.776  0.2311  0.1756 -0.5063
 2156SOL    HW117927   1.510   3.476   4.745  0.0464 -0.2986  0.9598
 2156SOL    HW217928   1.499   3.617   4.705 -1.1475  1.1639  0.9236
 2157SOL     OW17929   2.697   3.880   8.312  0.5398 -0.0242 -0.4862
 2157SOL    HW117930   2.725   3.876   8.220 -0.9749 -0.2413 -0.9411
 2157SOL    HW217931   2.772   3.925   8.350 -0.7968 -0.0752  2.2124
 2158SOL     OW17932   3.659   1.282  14.331 -0.6809  0.3087 -0.3737
 2158SOL    HW117933   3.748   1.301  14.363 -0.3778  2.2209 -2.3613
 2158SOL    HW217934   3.611   1.339  14.391 -1.1529  1.1757 -1.5806
 2159SOL     OW17935   1.086   3.638   4.322 -0.2069  0.1108 -0.1168
 2159SOL    HW117936   1.131   3.705   4.374  0.6338 -1.1184  0.7460
 2159SOL    HW217937   0.996   3.646   4.353  0.3510  0.4634  1.4014
 2160SOL     OW17938   4.373   2.106  12.018 -0.1362  0.0154 -0.3848
 2160SOL    HW117939   4.439   2.122  11.950  0.9019 -1.2606  0.3114
 2160SOL    HW217940   4.299   2.089  11.960  0.5060  3.0880 -2.1086
 2161SOL     OW17941   3.279   4.063   1.021  0.0790  0.6426  0.0542
 2161SOL    HW117942   3.224   3.992   1.055 -1.0647  1.6148  0.2465
 2161SOL    HW217943   3.359   4.015   1.002  0.7221  0.3746  3.3357
 2162SOL     OW17944   4.696   3.796   7.298  0.1010  0.6219 -0.2753
 2162SOL    HW117945   4.622   3.853   7.319  0.6336  0.8947  0.8295
 2162SOL    HW217946   0.023   3.792   7.381 -0.3554  1.1569  0.0011
 2163SOL     OW17947   4.200   1.637   3.997  0.2671 -0.0154 -0.2235
 2163SOL    HW117948   4.164   1.675   3.917  1.0714  1.1539 -0.0270
 2163SOL    HW217949   4.132   1.575   4.025  0.4127  0.5864  1.5007
 2164SOL     OW17950   0.447   3.742   1.507  0.1802 -0.0326 -0.1262
 2164SOL    HW117951   0.448   3.753   1.602  4.1126 -1.8770  0.0676
 2164SOL    HW217952   0.381   3.674   1.506  0.8017 -0.6080 -2.0962
 2165SOL     OW17953   4.565   1.210   9.501 -0.4099  0.1539 -0.1145
 2165SOL    HW117954   4.524   1.275   9.443 -2.7371  0.0743  1.4239
 2165SOL    HW217955   4.484   1.174   9.538  0.0867 -1.1819 -0.3337
 2166SOL     OW17956   3.050   0.888  12.998 -0.4315  0.1902  0.3590
 2166SOL    HW117957   3.005   0.972  13.008 -2.8440 -1.0943  0.1660
 2166SOL    HW217958   3.067   0.892  12.904  0.4712 -0.4503  0.4931
 2167SOL     OW17959   3.981   0.300   1.316 -0.4815 -0.4535  0.0812
 2167SOL    HW117960   3.955   0.218   1.357  0.5048  0.4970  2.5714
 2167SOL    HW217961   3.897   0.344   1.310  0.0915  1.1960  4.5102
 2168SOL     OW17962   3.654   0.879   7.412  0.0129  0.0469 -0.4949
 2168SOL    HW117963   3.558   0.874   7.408 -0.0137  0.2456 -0.1016
 2168SOL    HW217964   3.669   0.950   7.350  0.4479 -0.5220 -1.0452
 2169SOL     OW17965   2.250   4.287   2.795  0.5168 -0.4846  0.1041
 2169SOL    HW117966   2.170   4.305   2.746  0.7944  3.2647  1.0063
 2169SOL    HW217967   2.308   4.354   2.758  0.8842 -1.1142 -0.4753
 2170SOL     OW17968   3.624   1.862   8.110 -0.1391  0.1754  0.1076
 2170SOL    HW117969   3.586   1.892   8.193  1.9930  2.4013  0.2572
 2170SOL    HW217970   3.585   1.775   8.096  1.1634 -0.2678 -0.7888
 2171SOL     OW17971   2.815   2.820   9.169  0.2508  0.0505 -0.4496
 2171SOL    HW117972   2.840   2.838   9.260 -4.1338  1.5667  0.4174
 2171SOL    HW217973   2.882   2.875   9.129 -0.4966  1.3652  0.0963
 2172SOL     OW17974   3.345   2.076   5.191 -0.0808 -0.0090 -0.5877
 2172SOL    HW117975   3.270   2.121   5.229 -0.3686 -2.3055  1.5762
 2172SOL    HW217976   3.353   1.996   5.242 -0.0535  0.6839  0.4920
 2173SOL     OW17977   0.756   1.306  15.521  0.1663  0.0876 -0.0510
 2173SOL    HW117978   0.672   1.321  15.566  0.4898  0.1234  0.5392
 2173SOL    HW217979   0.732   1.262  15.439  0.3520  1.5963 -0.9168
 2174SOL     OW17980   3.944   0.615   3.237 -0.3141  0.5432  0.1615
 2174SOL    HW117981   3.993   0.601   3.157 -0.4299 -0.1493  0.2125
 2174SOL    HW217982   3.884   0.542   3.250  0.3397  0.1144  0.7980
 2175SOL     OW17983   0.646   0.013   3.414  0.3341 -0.0549 -0.2084
 2175SOL    HW117984   0.628   4.716   3.507  1.5490 -1.3824 -0.1914
 2175SOL    HW217985   0.612   0.102   3.416  0.9423  0.1357  2.0824
 2176SOL     OW17986   3.798   1.101   4.394  0.1277  0.4250 -0.2383
 2176SOL    HW117987   3.855   1.048   4.338  1.9418  0.1418  1.8703
 2176SOL    HW217988   3.823   1.070   4.481  2.9748  0.3728 -1.0604
 2177SOL     OW17989   2.321   3.440   4.347 -0.1781 -0.5777  0.4686
 2177SOL    HW117990   2.267   3.509   4.385  1.5119  2.0043 -1.8493
 2177SOL    HW217991   2.356   3.398   4.426  0.4815 -0.8781  0.0225
 2178SOL     OW17992   2.546   1.679  17.535  0.4968  0.1235 -0.4338
 2178SOL    HW117993   2.629   1.725  17.539 -1.0619  3.0850 -1.6515
 2178SOL    HW217994   2.485   1.737  17.581  0.6971 -0.0412  0.0356
 2179SOL     OW17995   0.968   3.846   8.545 -0.4000  0.1308  0.0411
 2179SOL    HW117996   1.011   3.789   8.609 -0.7169  0.4168  0.5063
 2179SOL    HW217997   0.987   3.931   8.584  0.6805  0.7032 -1.7285
 2180SOL     OW17998   0.595   2.139   7.583 -0.3778  0.1205 -0.5125
 2180SOL    HW117999   0.648   2.059   7.590 -0.9144 -0.2492 -0.7186
 2180SOL    HW218000   0.515   2.114   7.629 -1.3862  2.8055 -0.8118
 2181SOL     OW18001   2.238   1.405   5.227 -0.3593  0.4041  0.2714
 2181SOL    HW118002   2.278   1.399   5.313  0.8496 -1.3453 -0.4002
 2181SOL    HW218003   2.209   1.315   5.212  2.6849 -0.6971  1.0304
 2182SOL     OW18004   0.568   1.759   6.718 -0.2220 -0.2237  0.1444
 2182SOL    HW118005   0.597   1.805   6.797  0.7308  1.2540 -1.0555
 2182SOL    HW218006   0.625   1.797   6.650 -0.4221  1.8399  1.1129
 2183SOL     OW18007   1.537   2.577  15.027  0.6371 -0.2531  0.2157
 2183SOL    HW118008   1.469   2.551  14.964  0.1338 -1.0300  1.0724
 2183SOL    HW218009   1.570   2.493  15.060 -0.1084 -1.8963 -3.1769
 2184SOL     OW18010   0.570   3.637  17.423  0.0848 -0.3877 -0.1258
 2184SOL    HW118011   0.573   3.716  17.369  0.3556  1.2856  2.3478
 2184SOL    HW218012   0.525   3.681  17.495 -0.7603 -0.9123 -0.3294
 2185SOL     OW18013   0.242   3.423  14.646  0.3785 -0.0938 -0.1909
 2185SOL    HW118014   0.237   3.410  14.552 -1.7097 -0.5548 -0.0184
 2185SOL    HW218015   0.256   3.518  14.648 -0.9101  0.0487  2.5338
 2186SOL     OW18016   0.803   3.098   8.573 -0.1020  0.0384  0.5568
 2186SOL    HW118017   0.773   3.074   8.486  0.3176 -0.2169  0.4801
 2186SOL    HW218018   0.794   3.012   8.614  0.1349  0.1376  0.8153
 2187SOL     OW18019   2.016   1.227  14.941  0.4371  0.1034 -0.1159
 2187SOL    HW118020   1.981   1.316  14.945  1.5550  0.5190  0.2185
 2187SOL    HW218021   2.102   1.251  14.908  1.2759 -0.7033  1.4458
 2188SOL     OW18022   3.110   3.891   5.988 -0.5472 -0.6777 -0.6491
 2188SOL    HW118023   3.064   3.890   6.072  0.1646  0.0512 -0.2522
 2188SOL    HW218024   3.099   3.806   5.945  1.3613 -0.2731 -1.9550
 2189SOL     OW18025   4.625   1.329   4.765  0.1939 -0.2568 -0.6195
 2189SOL    HW118026   4.537   1.306   4.738 -0.1742  1.6639 -1.0289
 2189SOL    HW218027   4.606   1.411   4.810 -1.3036 -1.0865  0.2514
 2190SOL     OW18028   0.051   2.310  16.769 -0.2109 -0.2430 -0.2147
 2190SOL    HW118029   0.075   2.278  16.682  0.2267  0.7059 -0.4478
 2190SOL    HW218030   4.675   2.299  16.774 -0.1728 -1.8363 -3.1670
 2191SOL     OW18031   2.173   2.497   0.271  0.0085 -0.0493  0.2705
 2191SOL    HW118032   2.232   2.433   0.311 -0.0823  0.3416  1.0266
 2191SOL    HW218033   2.232   2.568   0.245  0.2264 -0.9252 -1.6155
 2192SOL     OW18034   4.388   4.487   6.548 -0.4562 -0.1220  0.4684
 2192SOL    HW118035   4.433   4.513   6.629  0.0906  0.6564 -0.0903
 2192SOL    HW218036   4.458   4.448   6.496  0.3920  0.5890  1.0880
 2193SOL     OW18037   1.379   3.120   2.571 -0.6827  0.2504 -0.2925
 2193SOL    HW118038   1.451   3.128   2.508  0.9327  1.2358  1.6928
 2193SOL    HW218039   1.413   3.174   2.642 -0.9166  1.6864 -1.2761
 2194SOL     OW18040   2.335   1.225   8.115  0.1305 -0.0700  0.0608
 2194SOL    HW118041   2.393   1.166   8.162 -0.5326 -0.6848  0.1023
 2194SOL    HW218042   2.327   1.304   8.170 -1.2774 -0.5409  0.5150
 2195SOL     OW18043   2.388   3.547  15.087  0.3697  0.6401 -0.2310
 2195SOL    HW118044   2.463   3.494  15.058 -1.2084 -0.8348 -1.6056
 2195SOL    HW218045   2.326   3.528  15.017  2.9690 -1.6677 -1.9224
 2196SOL     OW18046   1.751   1.265   2.895 -0.5071  0.0653  0.5387
 2196SOL    HW118047   1.774   1.185   2.941  0.7684 -1.0014 -1.9336
 2196SOL    HW218048   1.714   1.221   2.818 -0.2007 -2.3323  1.7681
 2197SOL     OW18049   2.946   1.752   8.846 -0.7568 -0.0673 -0.1839
 2197SOL    HW118050   2.906   1.741   8.760  1.0546 -3.2196 -0.6163
 2197SOL    HW218051   2.872   1.733   8.905  0.2455  0.0749  1.1115
 2198SOL     OW18052   4.041   1.289   6.193  0.2836  0.0110  0.5405
 2198SOL    HW118053   4.027   1.380   6.168 -2.2071  0.2381  2.7504
 2198SOL    HW218054   4.082   1.307   6.277  0.0145  0.8871  0.4781
 2199SOL     OW18055   1.330   4.032   5.708  0.4743  0.1669  0.5266
 2199SOL    HW118056   1.408   3.989   5.672 -0.6928 -0.0335 -1.7948
 2199SOL    HW218057   1.269   3.970   5.667  0.7365  1.0013 -1.1203
 2200SOL     OW18058   3.777   0.113   7.027 -0.0715 -0.6186 -0.6907
 2200SOL    HW118059   3.801   0.098   6.936  0.3791  0.3086 -0.7165
 2200SOL    HW218060   3.708   0.179   7.021  0.1994 -0.2098  0.5590
 2201SOL     OW18061   0.085   0.551   8.640 -0.5519 -0.1769  0.2434
 2201SOL    HW118062   0.158   0.595   8.683  0.2258  0.6661 -1.8913
 2201SOL    HW218063   0.008   0.599   8.671  0.1090 -0.7405  2.6774
 2202SOL     OW18064   2.537   4.322   5.842  0.5475 -0.0789 -0.1856
 2202SOL    HW118065   2.539   4.408   5.884  0.0001 -0.6758  1.0743
 2202SOL    HW218066   2.493   4.340   5.759 -0.8076  0.5091  0.6545
 2203SOL     OW18067   0.612   2.398   7.497  0.6409  0.8182  0.2922
 2203SOL    HW118068   0.606   2.307   7.527 -1.6915  0.5949 -0.8313
 2203SOL    HW218069   0.691   2.424   7.544 -0.2584  3.0835  0.5247
 2204SOL     OW18070   3.746   1.932   7.871 -0.3341 -0.0719  0.3381
 2204SOL    HW118071   3.691   1.918   7.949  1.0663 -3.3107  0.7469
 2204SOL    HW218072   3.698   1.883   7.804  1.3508 -1.9095  0.4544
 2205SOL     OW18073   2.344   3.508  15.526 -0.2819  0.4294 -0.0252
 2205SOL    HW118074   2.356   3.511  15.621  1.0570 -1.4815 -0.1325
 2205SOL    HW218075   2.284   3.434  15.533  0.9255 -0.7767 -2.2936
 2206SOL     OW18076   4.680   3.489   2.111 -0.0524 -0.6848  0.2184
 2206SOL    HW118077   4.675   3.468   2.204  1.0167  0.6874  0.5872
 2206SOL    HW218078   0.042   3.539   2.115 -0.5463  0.0441  1.1977
 2207SOL     OW18079   1.781   4.013   7.141 -0.8071 -0.1194  0.0022
 2207SOL    HW118080   1.765   3.983   7.230 -1.5547 -0.1777 -0.1472
 2207SOL    HW218081   1.743   3.944   7.086 -0.0535 -1.4817  1.2040
 2208SOL     OW18082   0.057   1.307  11.434  0.2043  0.8404  0.6668
 2208SOL    HW118083   4.706   1.265  11.385 -0.4029  2.8729 -0.2101
 2208SOL    HW218084   0.083   1.387  11.389  0.1769  0.6249  0.2692
 2209SOL     OW18085   2.084   3.172   0.871 -0.5372  0.0934 -0.1874
 2209SOL    HW118086   2.170   3.149   0.906 -1.2347 -0.2321  1.3164
 2209SOL    HW218087   2.102   3.168   0.777  1.8054 -1.6099  0.3189
 2210SOL     OW18088   4.635   1.161   5.896 -0.0760  0.2039  0.3967
 2210SOL    HW118089   4.697   1.171   5.969  0.3523  2.4825 -0.2749
 2210SOL    HW218090   4.698   1.131   5.831  0.5131  1.0197  0.5764
 2211SOL     OW18091   1.084   2.170  11.819  0.0813  0.4970 -0.5250
 2211SOL    HW118092   1.038   2.153  11.737 -0.4751 -0.7774  0.0392
 2211SOL    HW218093   1.175   2.143  11.811  0.8343  2.2075  2.2000
 2212SOL     OW18094   3.682   3.194   0.730 -0.1758  0.2991 -0.0961
 2212SOL    HW118095   3.601   3.200   0.680  0.2876 -0.0865 -0.8745
 2212SOL    HW218096   3.726   3.124   0.683  0.9181  1.5012 -0.8379
 2213SOL     OW18097   0.741   2.540  14.451  0.1724  0.2380  0.8338
 2213SOL    HW118098   0.723   2.496  14.535 -1.0421 -1.3804 -0.2855
 2213SOL    HW218099   0.678   2.505  14.389 -0.0343  0.9550  0.6347
 2214SOL     OW18100   4.234   1.137   3.462  0.1047 -0.3223 -0.1684
 2214SOL    HW118101   4.285   1.218   3.453 -2.4865  1.1911 -1.3419
 2214SOL    HW218102   4.272   1.079   3.397 -0.4629  0.0478 -0.8363
 2215SOL     OW18103   3.220   4.398   2.649 -0.0043  0.3044  0.0683
 2215SOL    HW118104   3.163   4.359   2.582  1.1937  2.3833 -2.1456
 2215SOL    HW218105   3.308   4.370   2.625 -0.4906 -0.0229 -1.3720
 2216SOL     OW18106   4.564   1.884   0.050 -0.6280 -0.1868 -0.4875
 2216SOL    HW118107   4.624   1.870   0.123  0.0727 -0.3901 -1.0977
 2216SOL    HW218108   4.559   1.979   0.054  2.4824  0.0067 -1.3980
 2217SOL     OW18109   4.483   1.006   8.513  0.2713  0.4447  0.0891
 2217SOL    HW118110   4.541   0.986   8.586  1.2385 -0.7680 -1.0209
 2217SOL    HW218111   4.442   1.084   8.551  0.8669 -0.4445  2.5258
 2218SOL     OW18112   3.345   1.124   8.897 -0.1380  0.3349  0.2307
 2218SOL    HW118113   3.252   1.106   8.909 -0.3935  0.8744 -1.0221
 2218SOL    HW218114   3.369   1.152   8.986 -0.5684  0.3696  0.3362
 2219SOL     OW18115   0.325   2.820   8.129  0.3297  0.3179 -0.0678
 2219SOL    HW118116   0.377   2.830   8.208 -0.7540 -0.5088  0.7617
 2219SOL    HW218117   0.367   2.746   8.084  0.9423  0.2098  0.6961
 2220SOL     OW18118   3.225   1.264  14.288 -0.2409  0.2465  0.0393
 2220SOL    HW118119   3.242   1.188  14.232 -1.5002 -1.0596  1.4186
 2220SOL    HW218120   3.138   1.282  14.253 -1.2792 -0.0221  2.5011
 2221SOL     OW18121   3.734   1.420   9.251  0.3602  0.0522  0.4166
 2221SOL    HW118122   3.741   1.356   9.321  2.2627  0.8627  0.9781
 2221SOL    HW218123   3.670   1.478   9.292 -1.8316 -2.2065  0.1579
 2222SOL     OW18124   0.987   2.037  17.407  0.4002 -0.6421 -0.6476
 2222SOL    HW118125   1.012   1.946  17.422 -0.5094 -0.8496 -0.4206
 2222SOL    HW218126   0.983   2.070  17.496 -1.3000 -0.1342 -0.9233
 2223SOL     OW18127   0.755   4.441   5.076 -0.1499 -0.4903 -0.4595
 2223SOL    HW118128   0.777   4.533   5.061 -1.3150 -0.0903  0.3020
 2223SOL    HW218129   0.830   4.399   5.117 -3.0909 -2.5042  2.7761
 2224SOL     OW18130   2.470   1.165   4.510 -0.1827  0.1869  0.1456
 2224SOL    HW118131   2.418   1.110   4.568 -0.2661 -1.9256 -1.9604
 2224SOL    HW218132   2.441   1.243   4.557  0.9055  0.1884  0.8162
 2225SOL     OW18133   2.995   4.665  12.885  0.3215  0.6458 -0.8568
 2225SOL    HW118134   2.959   4.600  12.824  0.1987  0.8974 -1.0545
 2225SOL    HW218135   2.967   4.634  12.971 -0.6868 -2.2359 -2.2012
 2226SOL     OW18136   0.712   3.130   3.399 -0.2788 -0.0298  0.0510
 2226SOL    HW118137   0.749   3.061   3.345 -2.4764 -0.0181 -1.4557
 2226SOL    HW218138   0.685   3.081   3.476  1.7541  0.0504  0.8069
 2227SOL     OW18139   3.506   3.569   4.322  0.0176  0.1303 -0.6494
 2227SOL    HW118140   3.528   3.624   4.247  2.3227  0.1849  0.0643
 2227SOL    HW218141   3.490   3.486   4.278  0.4316  0.9241 -2.2931
 2228SOL     OW18142   2.612   1.210   8.989 -0.2414 -1.0094 -0.2267
 2228SOL    HW118143   2.563   1.286   9.021  0.0723 -0.7906 -0.2684
 2228SOL    HW218144   2.698   1.227   9.028 -0.2528 -2.1741  0.3153
 2229SOL     OW18145   0.386   1.452   1.501  0.8655 -0.0050 -0.5596
 2229SOL    HW118146   0.388   1.435   1.407 -1.5954  1.6774 -0.9004
 2229SOL    HW218147   0.317   1.393   1.531  0.5706  1.1756  1.0208
 2230SOL     OW18148   4.597   0.626   3.176 -0.0040 -0.1707 -0.0324
 2230SOL    HW118149   4.503   0.644   3.171 -0.2335 -1.4375 -0.5198
 2230SOL    HW218150   4.627   0.669   3.096 -0.1254 -0.9565 -0.5096
 2231SOL     OW18151   4.538   2.024   1.323  0.0462 -0.1240  0.5725
 2231SOL    HW118152   4.508   2.114   1.337  0.5547 -0.0573  1.2432
 2231SOL    HW218153   4.608   2.011   1.386 -1.0851 -0.2658  1.7907
 2232SOL     OW18154   0.134   3.859  17.362  0.0685  0.4955 -0.1353
 2232SOL    HW118155   0.163   3.911  17.437  2.4424 -1.6786  0.4602
 2232SOL    HW218156   0.045   3.843  17.393  0.0162  0.4548 -0.3086
 2233SOL     OW18157   2.173   3.842   9.104 -0.4681 -0.0673  0.0086
 2233SOL    HW118158   2.268   3.839   9.109 -0.4734 -2.4563 -1.0820
 2233SOL    HW218159   2.168   3.849   9.008  2.0645 -0.8404 -0.1705
 2234SOL     OW18160   4.440   0.648   9.471  0.2835 -0.5609 -0.3450
 2234SOL    HW118161   4.396   0.597   9.403  2.3086 -1.1775 -1.1807
 2234SOL    HW218162   4.508   0.588   9.501 -0.4890 -1.3598 -0.1943
 2235SOL     OW18163   4.528   4.634   8.543 -0.1224 -0.0930 -0.4920
 2235SOL    HW118164   4.518   4.622   8.449  0.3710 -0.7589 -0.4620
 2235SOL    HW218165   4.582   4.559   8.569  0.4028  1.0433  1.6864
 2236SOL     OW18166   4.527   2.380   8.407  0.2198 -0.1165 -0.0232
 2236SOL    HW118167   4.517   2.377   8.312  0.3166  0.9586 -0.0640
 2236SOL    HW218168   4.435   2.391   8.432  0.3623  0.5611  0.1885
 2237SOL     OW18169   1.074   0.250  11.427  0.2321  0.1095  0.0181
 2237SOL    HW118170   1.086   0.231  11.334  2.9424 -0.2654  0.4449
 2237SOL    HW218171   1.144   0.310  11.455  1.2847 -1.4500  0.7590
 2238SOL     OW18172   4.326   1.462   1.179 -0.0531  0.1840 -0.4382
 2238SOL    HW118173   4.309   1.549   1.215 -2.2618  0.0809 -1.2018
 2238SOL    HW218174   4.266   1.468   1.104 -2.2885 -4.3335  0.9923
 2239SOL     OW18175   3.173   0.565  12.718 -0.2303  0.5947  0.1912
 2239SOL    HW118176   3.248   0.507  12.703  1.3708  3.0932 -1.5720
 2239SOL    HW218177   3.206   0.655  12.713 -0.0234  0.3904 -2.0979
 2240SOL     OW18178   0.608   4.301  12.856  0.2654  0.1638  0.0257
 2240SOL    HW118179   0.672   4.241  12.819 -0.6871 -2.5314  2.7207
 2240SOL    HW218180   0.575   4.258  12.935  0.9301 -2.7890 -1.3094
 2241SOL     OW18181   3.754   2.007   9.708  0.3679 -0.1060  0.4608
 2241SOL    HW118182   3.780   1.918   9.730  1.7216  0.8082  2.5685
 2241SOL    HW218183   3.718   1.990   9.621  1.2005  1.2223 -0.1487
 2242SOL     OW18184   3.428   1.721   3.309 -0.3622  0.0466 -0.1714
 2242SOL    HW118185   3.395   1.654   3.369  1.4170 -0.5137  0.1685
 2242SOL    HW218186   3.353   1.739   3.251 -0.5025  1.2044  0.3531
 2243SOL     OW18187   2.644   4.086   6.187  0.4291 -0.7346 -0.3464
 2243SOL    HW118188   2.601   4.147   6.247  0.4594  0.0484 -1.1247
 2243SOL    HW218189   2.568   4.060   6.135  0.4340 -1.9991  0.2764
 2244SOL     OW18190   3.866   3.706   7.349  0.0271  0.4985  0.3160
 2244SOL    HW118191   3.785   3.716   7.299  1.9106  0.8173 -2.6937
 2244SOL    HW218192   3.927   3.663   7.288 -1.0027 -1.6935  0.8338
 2245SOL     OW18193   3.674   3.935   0.376  0.4511 -0.0369 -0.4697
 2245SOL    HW118194   3.696   3.845   0.403 -1.1106 -0.0447  0.7464
 2245SOL    HW218195   3.611   3.944   0.448 -0.0869 -0.8684 -0.8345
 2246SOL     OW18196   3.319   3.266   8.188 -0.1043  0.2505 -0.1126
 2246SOL    HW118197   3.270   3.269   8.106 -1.1318 -0.7105  0.4568
 2246SOL    HW218198   3.250   3.238   8.248  0.1428 -1.6752 -0.7257
 2247SOL     OW18199   4.587   2.579   5.106 -0.1486  0.4487  0.7463
 2247SOL    HW118200   4.521   2.631   5.150 -2.0410 -2.9111  1.8343
 2247SOL    HW218201   4.661   2.640   5.101 -0.0983  0.5842  3.3077
 2248SOL     OW18202   3.356   1.786   7.633 -0.1453 -0.2834  0.5534
 2248SOL    HW118203   3.445   1.799   7.665 -0.3157  0.6571  0.6448
 2248SOL    HW218204   3.347   1.865   7.580  0.3292  0.9703  2.3571
 2249SOL     OW18205   2.645   2.294   5.556  0.6079 -0.2370 -0.3215
 2249SOL    HW118206   2.666   2.372   5.506 -0.5326  0.0268 -0.3754
 2249SOL    HW218207   2.676   2.333   5.638  0.7186 -2.0358  0.5054
 2250SOL     OW18208   3.019   4.671   9.632  0.1577  0.1778  0.0448
 2250SOL    HW118209   2.933   4.711   9.646 -0.0151 -0.1051 -0.2206
 2250SOL    HW218210   3.029   4.634   9.719 -0.2047 -0.4424 -0.1787
 2251SOL     OW18211   3.740   0.407  16.148  0.5868 -0.5672 -0.3864
 2251SOL    HW118212   3.725   0.362  16.065 -0.4194 -1.8565  0.4821
 2251SOL    HW218213   3.697   0.492  16.142 -1.0488 -1.1041  3.3482
 2252SOL     OW18214   3.777   1.487   9.553  0.2344  0.0709  0.5156
 2252SOL    HW118215   3.754   1.396   9.536 -0.2127  0.1753  0.5640
 2252SOL    HW218216   3.699   1.527   9.516  0.1132  0.7428  1.5011
 2253SOL     OW18217   4.665   0.723  10.271 -0.7694  0.0344 -0.5223
 2253SOL    HW118218   0.010   0.657  10.249  1.9512  1.5034  2.9796
 2253SOL    HW218219   4.588   0.667  10.280 -0.1006 -0.6774  0.8350
 2254SOL     OW18220   2.253   3.728  12.004 -0.1938 -0.5063 -0.0242
 2254SOL    HW118221   2.236   3.701  11.914  1.1367  0.8468 -0.6929
 2254SOL    HW218222   2.185   3.682  12.053  0.1674 -1.6738 -0.6356
 2255SOL     OW18223   3.553   1.290   1.791 -0.1901  0.1941  0.6729
 2255SOL    HW118224   3.621   1.348   1.826  2.2307 -1.7428 -0.7800
 2255SOL    HW218225   3.589   1.206   1.820  0.5239  0.3796  0.3362
 2256SOL     OW18226   1.247   0.329  12.553 -0.3328 -0.8305 -0.2430
 2256SOL    HW118227   1.212   0.365  12.634  0.3313 -3.0808  1.0667
 2256SOL    HW218228   1.265   0.416  12.519 -1.0133 -0.6740 -0.1979
 2257SOL     OW18229   0.633   0.381  16.883  0.5403 -0.3034 -0.1273
 2257SOL    HW118230   0.594   0.364  16.797  0.0170 -1.3864  0.3165
 2257SOL    HW218231   0.565   0.343  16.939  1.1088 -0.6689  0.3083
 2258SOL     OW18232   1.785   2.472  13.188  0.3561 -0.2403 -0.4827
 2258SOL    HW118233   1.810   2.554  13.232 -0.7392 -0.5445  0.7090
 2258SOL    HW218234   1.846   2.462  13.115  1.5799 -0.2846  0.5242
 2259SOL     OW18235   1.268   1.165   5.467 -0.2425 -0.2812 -0.0297
 2259SOL    HW118236   1.314   1.164   5.383  0.2032  1.6654  0.1965
 2259SOL    HW218237   1.183   1.188   5.431  0.5016  1.9120 -0.3703
 2260SOL     OW18238   3.308   3.152   4.700 -0.0754  0.4721  0.2157
 2260SOL    HW118239   3.371   3.215   4.734  0.6409 -0.0503 -0.1304
 2260SOL    HW218240   3.351   3.125   4.619 -0.7075 -1.8797  0.6505
 2261SOL     OW18241   2.607   1.753   7.175 -0.0659 -0.2653 -0.1700
 2261SOL    HW118242   2.536   1.763   7.239 -0.4370  1.9257 -0.9199
 2261SOL    HW218243   2.572   1.810   7.106 -3.0482  0.8620  2.2475
 2262SOL     OW18244   3.517   1.776   3.002  0.5172  0.8975 -0.1018
 2262SOL    HW118245   3.431   1.778   2.960  0.5257  1.9600 -0.0693
 2262SOL    HW218246   3.555   1.696   2.967 -0.0758  0.5241  0.1167
 2263SOL     OW18247   0.014   3.978   4.939  0.2097  0.6113  0.2485
 2263SOL    HW118248   0.080   4.047   4.929  0.1444  0.8208  1.3022
 2263SOL    HW218249   4.654   4.028   4.920 -0.6385 -0.6387  0.5253
 2264SOL     OW18250   2.603   0.369   1.329  0.2007  0.4763 -0.4109
 2264SOL    HW118251   2.520   0.354   1.373  0.8221 -0.2875  0.4874
 2264SOL    HW218252   2.662   0.361   1.404 -1.7828 -0.5330  1.0454
 2265SOL     OW18253   2.154   1.797   5.600  0.0495 -0.3549 -0.3157
 2265SOL    HW118254   2.145   1.783   5.695 -2.0422  2.5317 -0.0840
 2265SOL    HW218255   2.113   1.713   5.578  0.9789 -1.0415  0.5609
 2266SOL     OW18256   2.454   2.805   6.297  0.1418  0.1096  0.1838
 2266SOL    HW118257   2.541   2.823   6.334  0.4374 -0.5839 -0.1614
 2266SOL    HW218258   2.398   2.881   6.312 -1.7147 -1.2324 -0.0884
 2267SOL     OW18259   1.122   3.270   8.398 -0.8155  0.4363  0.7635
 2267SOL    HW118260   1.167   3.352   8.377  2.4204 -1.6800 -0.5892
 2267SOL    HW218261   1.165   3.246   8.480  1.2683  1.5888  0.0041
 2268SOL     OW18262   2.808   3.528   6.505 -0.4538 -0.0349 -0.1758
 2268SOL    HW118263   2.902   3.515   6.512 -0.2592  0.9685 -0.9208
 2268SOL    HW218264   2.789   3.440   6.471 -1.4608  1.2731 -2.9861
 2269SOL     OW18265   3.600   3.284  11.123  0.1667 -0.2593 -0.8336
 2269SOL    HW118266   3.509   3.260  11.139 -0.1896  1.9059  0.4297
 2269SOL    HW218267   3.594   3.372  11.084  1.2420  0.4914  0.6645
 2270SOL     OW18268   1.358   1.712  16.846  0.4907  0.4754  0.0657
 2270SOL    HW118269   1.381   1.687  16.756 -2.3027 -0.0458 -0.5190
 2270SOL    HW218270   1.287   1.774  16.828  1.0055  0.8503 -0.6343
 2271SOL     OW18271   3.598   4.699  10.062 -0.1274 -0.0057  0.5003
 2271SOL    HW118272   3.541   4.690  10.138 -0.1344 -0.7594  0.4025
 2271SOL    HW218273   3.685   4.708  10.101  0.0126  0.0642  0.1767
 2272SOL     OW18274   2.094   0.189   9.373  0.6762  0.0671  0.2334
 2272SOL    HW118275   2.009   0.163   9.339  0.0853  3.0630 -0.5369
 2272SOL    HW218276   2.073   0.153   9.459  2.2081  0.3826  0.7461
 2273SOL     OW18277   3.433   1.740  12.639 -0.1417  0.4231 -0.2044
 2273SOL    HW118278   3.388   1.799  12.700 -1.6872 -1.9848  1.0098
 2273SOL    HW218279   3.396   1.657  12.671  2.4091 -0.2961  0.8479
 2274SOL     OW18280   1.555   4.592  16.887 -0.0110 -0.2070 -0.1682
 2274SOL    HW118281   1.629   4.621  16.940 -0.3649  0.4075 -0.0288
 2274SOL    HW218282   1.512   4.533  16.949  0.8137  0.3344  0.9162
 2275SOL     OW18283   1.116   1.735   1.992 -0.4663 -0.1061 -0.1895
 2275SOL    HW118284   1.092   1.713   1.902  1.1005 -1.5326 -0.2491
 2275SOL    HW218285   1.173   1.662   2.017 -0.8305  0.0515  1.0991
 2276SOL     OW18286   3.220   2.381   7.115 -0.1674  0.2084 -0.1694
 2276SOL    HW118287   3.142   2.326   7.116 -0.9670  1.4074  2.1694
 2276SOL    HW218288   3.196   2.450   7.052  1.7893  1.8223  0.8513
 2277SOL     OW18289   3.398   4.400   3.624  0.3920  0.5850 -0.5663
 2277SOL    HW118290   3.400   4.458   3.548 -1.1210  1.9121  0.3984
 2277SOL    HW218291   3.481   4.428   3.664 -0.1233 -1.3914  1.8623
 2278SOL     OW18292   2.551   4.358   3.640  0.1605  0.5734 -0.4927
 2278SOL    HW118293   2.513   4.380   3.725  1.0502  0.7027 -0.1387
 2278SOL    HW218294   2.482   4.304   3.601  0.1611  1.3054 -1.4864
 2279SOL     OW18295   0.362   1.161  16.759 -0.1138 -0.0668  0.1032
 2279SOL    HW118296   0.389   1.070  16.772  1.0032  0.0768 -1.1907
 2279SOL    HW218297   0.449   1.190  16.731 -0.5712  0.4467 -0.8123
 2280SOL     OW18298   1.399   3.045  11.630  0.2689 -0.3030  0.1952
 2280SOL    HW118299   1.407   3.092  11.713  1.9772  0.7202 -0.5634
 2280SOL    HW218300   1.416   2.954  11.656 -1.4411 -0.5546  0.4002
 2281SOL     OW18301   0.222   3.620  17.203 -0.3400 -0.3030 -0.1521
 2281SOL    HW118302   0.130   3.603  17.223 -0.2965 -0.1581  0.1744
 2281SOL    HW218303   0.230   3.707  17.243 -0.6870 -0.8326  1.0886
 2282SOL     OW18304   0.324   3.001   0.250 -0.1275 -0.3140 -0.6759
 2282SOL    HW118305   0.359   3.057   0.181 -1.2182  0.9886 -0.1725
 2282SOL    HW218306   0.306   3.063   0.321 -1.6822 -3.6127  1.7925
 2283SOL     OW18307   3.375   4.396   7.142  0.2418 -0.5884  0.0216
 2283SOL    HW118308   3.456   4.402   7.092 -1.4903 -2.0494 -2.9666
 2283SOL    HW218309   3.403   4.391   7.234 -0.9451  0.4737  0.4479
 2284SOL     OW18310   0.477   1.093   5.424 -0.1849  0.0438  0.1941
 2284SOL    HW118311   0.512   1.012   5.461 -1.9967 -0.4263  0.8671
 2284SOL    HW218312   0.539   1.155   5.463 -0.0096 -0.1446  0.2134
 2285SOL     OW18313   4.524   1.755   2.820  0.6526  0.0500 -0.2057
 2285SOL    HW118314   4.522   1.847   2.845  0.8520 -0.3955  1.4644
 2285SOL    HW218315   4.565   1.767   2.734 -0.9470 -0.2844 -1.0243
 2286SOL     OW18316   2.990   2.993   9.011  0.0118 -0.0349 -0.3814
 2286SOL    HW118317   3.008   3.085   9.034 -0.3262 -0.0270 -0.1444
 2286SOL    HW218318   3.080   2.962   9.000 -0.2869 -0.9033 -0.3573
 2287SOL     OW18319   2.707   1.318   4.189  0.0238 -0.1712 -0.3745
 2287SOL    HW118320   2.743   1.400   4.222 -0.7041 -0.1390  0.3137
 2287SOL    HW218321   2.651   1.348   4.118 -0.7963 -0.3237  0.2147
 2288SOL     OW18322   0.121   3.075   5.074  0.4516 -0.9266  0.2687
 2288SOL    HW118323   0.082   3.149   5.121  0.0884  0.7374 -2.6428
 2288SOL    HW218324   0.187   3.038   5.132 -0.6090 -1.5361  1.1022
 2289SOL     OW18325   0.278   4.003   6.809 -0.2100 -0.2628 -0.0454
 2289SOL    HW118326   0.330   3.954   6.745 -2.2562 -1.2180 -0.9808
 2289SOL    HW218327   0.186   3.990   6.790  0.1452 -0.9104 -1.3133
 2290SOL     OW18328   1.606   1.142   6.857 -1.1195  0.1084  0.0255
 2290SOL    HW118329   1.633   1.148   6.766 -2.4935  1.8281 -0.2771
 2290SOL    HW218330   1.532   1.203   6.866 -0.7081  0.4615  1.0381
 2291SOL     OW18331   3.747   4.326   4.343 -0.0747 -0.3420  0.1277
 2291SOL    HW118332   3.769   4.350   4.253  1.1811  3.7310  1.5200
 2291SOL    HW218333   3.671   4.378   4.369  0.5276  0.2078  0.7754
 2292SOL     OW18334   3.887   3.226   6.728  0.2211 -0.3517 -0.2506
 2292SOL    HW118335   3.961   3.223   6.789  0.0655  1.2315  0.0008
 2292SOL    HW218336   3.834   3.295   6.767 -1.1930 -0.2604 -2.3484
 2293SOL     OW18337   2.353   0.996   7.270 -0.0073  0.1612  0.1565
 2293SOL    HW118338   2.358   0.904   7.245 -0.0280  0.4813 -1.0318
 2293SOL    HW218339   2.370   0.979   7.362 -2.9781  1.3524  0.9164
 2294SOL     OW18340   1.624   0.519  15.458 -0.6564  0.2934  0.6904
 2294SOL    HW118341   1.631   0.483  15.547  0.2442  0.1901  0.5832
 2294SOL    HW218342   1.654   0.607  15.483  0.3758  0.6072 -1.6334
 2295SOL     OW18343   3.123   0.872   6.282  0.5252  0.5089 -0.4052
 2295SOL    HW118344   3.174   0.935   6.333  0.0039 -0.1204  0.8862
 2295SOL    HW218345   3.139   0.904   6.193  0.8342  1.2999 -0.0642
 2296SOL     OW18346   2.995   3.702   3.833 -0.0278 -0.2189 -0.4329
 2296SOL    HW118347   2.957   3.651   3.904  0.5948  0.2244  0.2194
 2296SOL    HW218348   3.026   3.630   3.778  0.2143 -0.4142 -0.0433
 2297SOL     OW18349   1.244   0.610   3.333  0.4102  0.9617  0.0509
 2297SOL    HW118350   1.281   0.597   3.421  2.3810  1.8726 -0.6392
 2297SOL    HW218351   1.306   0.552   3.288  0.4676  0.3561  0.8938
 2298SOL     OW18352   0.627   0.936   2.758 -0.6200  0.5983 -0.2090
 2298SOL    HW118353   0.594   1.026   2.765  0.9510  1.1942 -0.5460
 2298SOL    HW218354   0.579   0.916   2.677 -0.3530 -3.8175  0.7439
 2299SOL     OW18355   4.303   1.332  13.867  0.2059  0.7887 -0.3152
 2299SOL    HW118356   4.210   1.310  13.865  1.1472 -3.3428  0.5263
 2299SOL    HW218357   4.334   1.248  13.901 -2.4905 -0.2092 -0.2729
 2300SOL     OW18358   3.877   4.267   9.454 -0.0683 -0.1426  0.3334
 2300SOL    HW118359   3.897   4.351   9.495  0.2091 -0.9106  1.8084
 2300SOL    HW218360   3.948   4.217   9.496 -0.0384  0.2041  0.7003
 2301SOL     OW18361   0.118   3.682  10.484 -0.1743 -0.0555  0.2094
 2301SOL    HW118362   0.074   3.738  10.420 -1.7472 -2.7312 -0.9913
 2301SOL    HW218363   0.065   3.604  10.472  0.1554 -0.7546  3.2396
 2302SOL     OW18364   4.167   4.126  12.936  0.3296 -0.2499 -0.0803
 2302SOL    HW118365   4.210   4.048  12.971  1.3896  0.1726 -0.4414
 2302SOL    HW218366   4.243   4.162  12.891  0.0457  1.1168  0.5180
 2303SOL     OW18367   2.094   1.345  10.514 -0.0608 -0.5169 -0.1399
 2303SOL    HW118368   2.048   1.325  10.433 -1.0978 -0.4720  0.4426
 2303SOL    HW218369   2.106   1.254  10.541 -0.8031 -1.0126 -1.4692
 2304SOL     OW18370   4.078   4.198  11.141  0.1792 -0.2362 -0.5813
 2304SOL    HW118371   4.170   4.216  11.125 -0.2965  1.1388 -1.7865
 2304SOL    HW218372   4.031   4.272  11.102 -0.9696 -1.0545 -0.7593
 2305SOL     OW18373   3.360   3.523   2.894 -0.7694  0.1022  0.6755
 2305SOL    HW118374   3.345   3.515   2.800 -3.0796 -0.2591  1.0618
 2305SOL    HW218375   3.301   3.597   2.908 -1.0166 -0.0023  0.2145
 2306SOL     OW18376   1.059   1.640  13.959 -0.0875  0.2117 -0.5113
 2306SOL    HW118377   0.964   1.626  13.960 -0.0714  0.0488 -1.4035
 2306SOL    HW218378   1.092   1.566  13.906  2.5671 -0.3515  1.9024
 2307SOL     OW18379   0.302   1.819  10.393 -0.0119 -0.1027  0.1737
 2307SOL    HW118380   0.333   1.908  10.379  1.5679 -1.2929 -3.9286
 2307SOL    HW218381   0.357   1.790  10.466  1.1403 -1.2850 -1.1657
 2308SOL     OW18382   2.611   3.784   3.886  0.2339 -0.1384  0.9441
 2308SOL    HW118383   2.602   3.689   3.889 -0.3568 -0.0369  2.6206
 2308SOL    HW218384   2.652   3.794   3.972  0.0609 -2.1672  1.2661
 2309SOL     OW18385   2.699   1.686  14.325  0.4072  0.7405  0.0743
 2309SOL    HW118386   2.665   1.774  14.337  0.2880  0.9270 -1.5966
 2309SOL    HW218387   2.641   1.634  14.382 -1.3437  2.2618 -0.3207
 2310SOL     OW18388   2.187   3.850   5.836  0.0314  0.5059 -0.1019
 2310SOL    HW118389   2.135   3.817   5.763  1.0812 -1.2254 -0.0781
 2310SOL    HW218390   2.214   3.767   5.875  1.2001  0.4280 -1.0694
 2311SOL     OW18391   4.258   1.701   1.324 -0.2745  0.3276 -0.2024
 2311SOL    HW118392   4.265   1.745   1.409 -3.1148 -0.7165  0.5836
 2311SOL    HW218393   4.276   1.768   1.259  1.0373 -0.9025 -1.0950
 2312SOL     OW18394   1.611   2.467   6.596 -0.2476  0.5737  1.0935
 2312SOL    HW118395   1.697   2.425   6.587 -1.5540 -1.7417 -0.5220
 2312SOL    HW218396   1.589   2.501   6.509  3.1758 -0.3331 -0.1358
 2313SOL     OW18397   2.679   1.209   6.498 -0.3440 -0.5226 -0.1155
 2313SOL    HW118398   2.743   1.187   6.431 -0.3062  1.1697 -0.6326
 2313SOL    HW218399   2.612   1.254   6.447  1.9996 -0.4414 -3.1202
 2314SOL     OW18400   3.441   2.939  14.128  0.1801 -0.2659 -0.5820
 2314SOL    HW118401   3.468   3.014  14.076 -1.8606  1.4725  0.8535
 2314SOL    HW218402   3.366   2.905  14.079  1.5218 -1.8722 -1.4889
 2315SOL     OW18403   2.784   0.526  12.916  0.0344 -0.1360  0.2801
 2315SOL    HW118404   2.798   0.563  13.003 -1.2739  2.5113 -0.6387
 2315SOL    HW218405   2.705   0.478  12.939 -0.8510  0.6124 -1.1878
 2316SOL     OW18406   1.827   0.514   1.839 -0.1789  0.5401 -0.4895
 2316SOL    HW118407   1.761   0.471   1.894 -2.6321  1.2698 -2.8957
 2316SOL    HW218408   1.799   0.605   1.835 -2.6006 -0.1358  1.0806
 2317SOL     OW18409   3.802   0.351   8.489  0.4153 -0.0279  0.3011
 2317SOL    HW118410   3.804   0.442   8.460 -0.5998 -0.5164 -1.3402
 2317SOL    HW218411   3.893   0.334   8.513  0.7696  1.3087 -0.0960
 2318SOL     OW18412   1.712   1.727   4.585 -1.1762  0.3898 -0.0420
 2318SOL    HW118413   1.757   1.713   4.668 -0.3575  1.4428 -0.3183
 2318SOL    HW218414   1.621   1.727   4.614 -0.9953 -2.2253  0.5292
 2319SOL     OW18415   2.931   2.510   7.921 -0.2236  0.3490  0.2989
 2319SOL    HW118416   2.954   2.442   7.983  1.7174 -1.2217 -2.1675
 2319SOL    HW218417   2.883   2.454   7.860  0.0579  0.7395 -0.2864
 2320SOL     OW18418   4.141   0.183   5.254 -0.4737 -0.0847  0.6184
 2320SOL    HW118419   4.193   0.252   5.213 -0.6943 -0.3855 -0.1855
 2320SOL    HW218420   4.095   0.139   5.182 -1.6858 -0.0727  1.3948
 2321SOL     OW18421   0.779   3.766  16.584 -0.3760 -0.1280 -0.0493
 2321SOL    HW118422   0.804   3.842  16.532  0.9013 -1.4359 -1.3717
 2321SOL    HW218423   0.685   3.771  16.565 -0.4487 -2.8627 -0.4779
 2322SOL     OW18424   4.018   0.058   5.040 -0.4471  0.1882  0.5908
 2322SOL    HW118425   4.074   0.069   4.963 -0.9688 -1.6207 -0.0406
 2322SOL    HW218426   3.971   4.699   5.012 -0.6178 -0.2914  2.2190
 2323SOL     OW18427   1.081   0.565   7.734 -0.4303 -0.1204 -0.4991
 2323SOL    HW118428   1.144   0.637   7.739 -0.7693  0.4158 -4.0553
 2323SOL    HW218429   1.106   0.527   7.819 -0.3888 -0.6654 -0.7530
 2324SOL     OW18430   4.705   0.006   7.605  0.4274 -0.3558  0.0685
 2324SOL    HW118431   4.671   0.067   7.540 -0.2038 -2.3427 -1.4425
 2324SOL    HW218432   0.072   4.704   7.570 -0.3148 -0.5771 -1.6340
 2325SOL     OW18433   1.935   0.829   8.584  0.0049 -0.2226 -0.0959
 2325SOL    HW118434   1.898   0.767   8.520 -0.5145 -0.4144  0.3917
 2325SOL    HW218435   2.011   0.778   8.612  0.7003  0.0558 -1.4811
 2326SOL     OW18436   4.417   4.697   3.222  0.0344  0.3313  0.0106
 2326SOL    HW118437   4.431   0.037   3.148  1.1175 -0.0704 -0.1050
 2326SOL    HW218438   4.380   0.040   3.284 -0.7431  0.7393 -0.8781
 2327SOL     OW18439   1.263   0.648  16.262  0.8648 -0.1712 -0.4176
 2327SOL    HW118440   1.339   0.590  16.267  1.3717  0.5550  0.3281
 2327SOL    HW218441   1.206   0.601  16.324  1.5902 -0.2924  0.1522
 2328SOL     OW18442   3.151   1.504   7.952 -0.4522 -0.1274  0.5736
 2328SOL    HW118443   3.112   1.490   7.866  0.0521  0.8107  0.1930
 2328SOL    HW218444   3.210   1.429   7.949 -0.0427  0.1417  1.8410
 2329SOL     OW18445   3.531   2.646   9.644  0.6671  0.1306  0.2691
 2329SOL    HW118446   3.546   2.631   9.550  1.5719 -0.2069  0.4683
 2329SOL    HW218447   3.611   2.605   9.677  0.5102  0.7104  1.3655
 2330SOL     OW18448   4.587   2.543   9.037  0.2199 -0.1941  0.3495
 2330SOL    HW118449   4.606   2.479   9.105 -0.3317 -1.0597 -0.3165
 2330SOL    HW218450   4.492   2.531   9.042  0.1746  0.1841  0.3942
 2331SOL     OW18451   3.392   3.347   6.108 -0.2273 -0.0521 -0.6073
 2331SOL    HW118452   3.473   3.367   6.061  0.9912  0.0059  1.5011
 2331SOL    HW218453   3.359   3.436   6.122 -0.5890 -0.4425  1.0601
 2332SOL     OW18454   4.440   3.790   7.103 -0.0282 -0.3410 -0.2186
 2332SOL    HW118455   4.442   3.817   7.195  1.7238  3.1428 -1.2961
 2332SOL    HW218456   4.357   3.830   7.076  0.2818  0.7929  0.5198
 2333SOL     OW18457   1.472   1.353   7.969  0.0677 -0.4537  0.3162
 2333SOL    HW118458   1.459   1.384   7.879 -1.0728 -0.2275  0.5532
 2333SOL    HW218459   1.404   1.402   8.015  1.3045  2.2865 -0.7224
 2334SOL     OW18460   0.110   1.257   4.587  0.4378  0.5184 -0.6083
 2334SOL    HW118461   0.042   1.281   4.650  1.6403  1.1997  0.4227
 2334SOL    HW218462   0.174   1.326   4.608  1.4888 -0.7946  0.4753
 2335SOL     OW18463   2.935   1.820   3.071 -0.1901 -0.4495 -0.4079
 2335SOL    HW118464   2.923   1.906   3.112 -1.8692 -0.3432 -1.1280
 2335SOL    HW218465   2.845   1.791   3.086 -0.8498  1.9990  0.3476
 2336SOL     OW18466   0.940   3.655  11.780  0.1735  0.3427  0.3842
 2336SOL    HW118467   0.973   3.601  11.709  1.0477 -0.4865  1.4139
 2336SOL    HW218468   0.894   3.588  11.830  1.9567  0.1093  1.6977
 2337SOL     OW18469   1.085   2.302  13.333  0.5787  0.3876  0.0984
 2337SOL    HW118470   1.065   2.250  13.411 -2.2972 -0.5489 -1.2637
 2337SOL    HW218471   1.168   2.338  13.364  0.9171 -0.7827  0.5718
 2338SOL     OW18472   2.103   2.217  11.228  0.5398  0.1845 -0.0665
 2338SOL    HW118473   2.050   2.246  11.302  0.8521  2.1575 -0.5963
 2338SOL    HW218474   2.047   2.252  11.159 -0.0220 -0.0885  0.2567
 2339SOL     OW18475   2.096   1.963   0.976  0.2853  0.5427  0.3572
 2339SOL    HW118476   2.004   1.938   0.988  0.3878  0.7760  1.6396
 2339SOL    HW218477   2.104   2.003   0.890 -1.4765  1.9744  0.8585
 2340SOL     OW18478   3.982   4.513   2.086  0.0384 -0.3144 -0.1223
 2340SOL    HW118479   4.042   4.491   2.016  0.2914 -1.0226  0.3129
 2340SOL    HW218480   4.040   4.545   2.155  0.0132  2.2252 -1.3142
 2341SOL     OW18481   3.424   4.178   8.839 -0.4424 -0.1250  0.3304
 2341SOL    HW118482   3.432   4.118   8.913  0.6089  2.2030  2.0894
 2341SOL    HW218483   3.511   4.171   8.798 -1.5674 -0.1927 -2.0368
 2342SOL     OW18484   2.277   2.515  16.533  0.7786 -0.1869  0.1104
 2342SOL    HW118485   2.310   2.583  16.592  1.0712  1.4881 -1.9722
 2342SOL    HW218486   2.195   2.553  16.503  0.0966 -2.0626 -0.4338
 2343SOL     OW18487   2.216   2.317   8.044  0.4249  0.5436  0.1959
 2343SOL    HW118488   2.150   2.313   8.113  0.3214 -1.3534 -0.0144
 2343SOL    HW218489   2.286   2.368   8.087  0.8691 -0.7263  1.0072
 2344SOL     OW18490   1.314   2.044   6.995  0.5264  0.2263  0.4188
 2344SOL    HW118491   1.384   1.979   6.992 -0.2863 -0.7080  1.5537
 2344SOL    HW218492   1.305   2.058   6.900  2.3365  0.1456  0.2316
 2345SOL     OW18493   3.997   3.902   6.523 -0.2119 -0.5908 -0.1254
 2345SOL    HW118494   4.019   3.809   6.517  1.0153 -0.2564 -1.0227
 2345SOL    HW218495   4.043   3.913   6.606  1.5749 -0.4809 -1.1096
 2346SOL     OW18496   4.515   2.395  14.598 -0.3655 -0.5922  0.0975
 2346SOL    HW118497   4.529   2.301  14.584  0.9041 -0.5195  0.8057
 2346SOL    HW218498   4.526   2.427  14.508  0.9521 -2.4257 -0.4118
 2347SOL     OW18499   0.779   1.212   7.497 -0.2399  0.8516 -0.3173
 2347SOL    HW118500   0.852   1.273   7.506 -0.1563  0.6652  0.2896
 2347SOL    HW218501   0.714   1.265   7.450  0.1458  0.9401 -0.7534
 2348SOL     OW18502   0.550   0.195  17.098  0.9390  0.1219  0.9029
 2348SOL    HW118503   0.471   0.142  17.087  0.0681  1.7343 -0.6790
 2348SOL    HW218504   0.520   0.251  17.169 -1.2345 -0.5809  0.5356
 2349SOL     OW18505   1.491   1.742   7.884  0.0580 -0.6184 -0.2862
 2349SOL    HW118506   1.447   1.698   7.956  1.2764 -0.9634  0.2420
 2349SOL    HW218507   1.441   1.823   7.892  0.9712  0.0564 -1.3255
 2350SOL     OW18508   2.369   1.590   7.027  0.2431 -0.2589 -0.1881
 2350SOL    HW118509   2.302   1.645   7.068  0.0868 -1.2144  0.8244
 2350SOL    HW218510   2.314   1.548   6.960 -0.7779  0.7928 -0.0041
 2351SOL     OW18511   4.109   1.635   5.653  0.4852  0.2955 -0.1767
 2351SOL    HW118512   4.120   1.562   5.592  0.0661  0.8088 -0.8632
 2351SOL    HW218513   4.160   1.705   5.611 -0.2304 -0.1487 -1.7807
 2352SOL     OW18514   0.980   0.554  13.521  0.4908  0.2629  0.1425
 2352SOL    HW118515   0.988   0.545  13.616  1.4330  1.1695  0.1446
 2352SOL    HW218516   0.890   0.523  13.512  0.5040 -0.2585  1.7670
 2353SOL     OW18517   2.780   3.229   8.270 -0.2141 -0.7145  0.4699
 2353SOL    HW118518   2.727   3.163   8.225  1.4162 -1.5248 -0.2519
 2353SOL    HW218519   2.740   3.240   8.356 -0.5947 -1.0622  0.3377
 2354SOL     OW18520   0.147   3.757  10.771 -0.4105  0.3612 -0.2331
 2354SOL    HW118521   0.140   3.742  10.676  0.2366 -0.8872 -0.0828
 2354SOL    HW218522   0.237   3.729  10.787 -0.1079  1.0234 -0.7849
 2355SOL     OW18523   0.068   2.902  11.474  0.5594  0.5248 -0.1333
 2355SOL    HW118524   0.110   2.956  11.407 -1.5633  2.9591  0.5393
 2355SOL    HW218525   0.090   2.953  11.551 -0.2782 -1.7292  1.5919
 2356SOL     OW18526   4.280   4.366   8.650 -1.0714 -0.0883  0.7037
 2356SOL    HW118527   4.275   4.361   8.555 -0.0901  0.2663  0.6360
 2356SOL    HW218528   4.263   4.276   8.678 -0.5605  0.4290  2.7429
 2357SOL     OW18529   0.926   0.438   0.510  0.0599  0.0326 -0.6219
 2357SOL    HW118530   0.910   0.369   0.574  0.2233  2.5679  2.1883
 2357SOL    HW218531   0.921   0.388   0.429  0.0169 -0.2363 -0.4529
 2358SOL     OW18532   1.182   3.056  11.482 -0.1965  0.1386 -0.3569
 2358SOL    HW118533   1.192   3.129  11.421  2.0563 -0.2499 -0.4303
 2358SOL    HW218534   1.267   3.039  11.522  0.7043  0.8901 -1.9871
 2359SOL     OW18535   3.349   2.936   7.484 -0.1111  0.5012  0.6574
 2359SOL    HW118536   3.270   2.883   7.473 -0.5863  1.2506  0.4378
 2359SOL    HW218537   3.353   2.965   7.575  1.1836  1.9081  0.1456
 2360SOL     OW18538   2.244   0.207   8.403 -0.3938 -0.5357  0.0090
 2360SOL    HW118539   2.162   0.201   8.453  0.1105  2.6510  1.1650
 2360SOL    HW218540   2.255   0.112   8.400 -0.1019 -0.4820 -0.4845
 2361SOL     OW18541   1.319   1.931   5.984 -0.3653 -0.0673 -0.5519
 2361SOL    HW118542   1.405   1.968   5.964 -1.4419  1.7662 -1.7119
 2361SOL    HW218543   1.273   1.945   5.902  1.5554 -1.4285 -1.8663
 2362SOL     OW18544   3.103   2.378   0.943  0.5131 -0.0467 -0.0082
 2362SOL    HW118545   3.054   2.404   1.021 -1.9594  0.7557 -1.8322
 2362SOL    HW218546   3.171   2.445   0.941  1.0588 -0.6287 -0.7464
 2363SOL     OW18547   0.656   2.620   9.395 -0.2965  0.4054  0.1336
 2363SOL    HW118548   0.609   2.620   9.478 -1.2153 -0.0647 -0.3845
 2363SOL    HW218549   0.593   2.578   9.336 -0.3414 -0.7292  0.9857
 2364SOL     OW18550   4.577   3.769   6.868  0.2647 -0.2283 -0.4829
 2364SOL    HW118551   4.566   3.775   6.963  1.3560  0.5891 -0.4109
 2364SOL    HW218552   4.488   3.754   6.834 -0.5300  2.3762  0.4855
 2365SOL     OW18553   1.706   0.894  15.797 -0.7939 -0.1137 -0.2746
 2365SOL    HW118554   1.768   0.967  15.797 -1.9653  0.8852  0.5919
 2365SOL    HW218555   1.645   0.919  15.866 -0.8021 -0.8211 -0.0274
 2366SOL     OW18556   0.424   2.117   4.324  0.4439 -0.7003 -0.5334
 2366SOL    HW118557   0.453   2.168   4.249  0.1252 -0.3902 -0.4473
 2366SOL    HW218558   0.329   2.127   4.322  0.3924 -1.1092 -0.1187
 2367SOL     OW18559   4.318   1.687   3.457 -0.7477 -0.1166 -0.3094
 2367SOL    HW118560   4.317   1.677   3.361 -1.7836 -0.7676 -0.2390
 2367SOL    HW218561   4.288   1.599   3.477  1.6106 -0.4725  1.5825
 2368SOL     OW18562   3.579   2.178  12.150 -0.1260 -0.4227 -0.1796
 2368SOL    HW118563   3.614   2.161  12.063  2.4342 -0.0778  0.7807
 2368SOL    HW218564   3.497   2.129  12.153 -0.5010  0.2729  1.2521
 2369SOL     OW18565   0.367   4.249   2.646 -0.2663 -0.2384  0.5359
 2369SOL    HW118566   0.357   4.340   2.674  0.2622  0.0718 -0.2781
 2369SOL    HW218567   0.388   4.259   2.553  2.1371  0.9431  1.2022
 2370SOL     OW18568   3.157   4.115   1.941  0.0205 -0.1149 -0.2835
 2370SOL    HW118569   3.226   4.156   1.992 -0.6758 -1.5991  1.8390
 2370SOL    HW218570   3.124   4.189   1.889 -0.1030  0.4096  0.5450
 2371SOL     OW18571   4.555   1.925   4.188 -0.5675  0.3142 -0.1946
 2371SOL    HW118572   4.498   1.923   4.111 -0.4495 -2.1856 -0.2099
 2371SOL    HW218573   4.622   1.878   4.139  0.7034  0.1776  1.6973
 2372SOL     OW18574   2.737   3.520   7.010 -0.1956  0.6087  0.1462
 2372SOL    HW118575   2.691   3.440   7.036 -0.7704  1.1739  0.8788
 2372SOL    HW218576   2.667   3.568   6.966 -0.7226 -1.0462 -0.8393
 2373SOL     OW18577   3.097   2.252   8.509 -0.5788  0.0722  0.2485
 2373SOL    HW118578   3.074   2.202   8.587 -0.1035 -0.7871 -0.1581
 2373SOL    HW218579   3.031   2.219   8.449  0.7082  0.5731 -1.4247
 2374SOL     OW18580   2.332   4.120   0.524 -0.2826  0.5494 -0.3869
 2374SOL    HW118581   2.289   4.128   0.609  0.5827  1.8575 -0.0754
 2374SOL    HW218582   2.422   4.124   0.556 -0.5227  1.1164  0.2098
 2375SOL     OW18583   3.530   0.827  13.768  0.2400 -0.2442  0.6759
 2375SOL    HW118584   3.613   0.829  13.721  0.4479 -1.8950  0.9855
 2375SOL    HW218585   3.514   0.734  13.757 -1.5098  0.3987 -2.0848
 2376SOL     OW18586   4.192   2.849   7.016  0.4346 -0.3238 -0.8639
 2376SOL    HW118587   4.226   2.766   6.983  1.7173 -0.1469  0.0149
 2376SOL    HW218588   4.275   2.893   7.034 -0.3549  1.1394 -0.7684
 2377SOL     OW18589   0.256   0.354   8.544 -0.4659 -0.3091  0.3252
 2377SOL    HW118590   0.201   0.416   8.592  2.5199 -0.0306  3.3482
 2377SOL    HW218591   0.193   0.324   8.478  0.2869 -1.2995  0.0524
 2378SOL     OW18592   2.895   0.240   5.591 -0.3961  0.1757  0.8189
 2378SOL    HW118593   2.895   0.332   5.565 -2.7380 -0.7394 -2.5229
 2378SOL    HW218594   2.985   0.241   5.623 -0.9186  0.9113  2.2357
 2379SOL     OW18595   4.347   3.394  12.086  0.1982 -0.0936  0.0758
 2379SOL    HW118596   4.313   3.325  12.143  1.1804 -1.7056 -1.2921
 2379SOL    HW218597   4.432   3.419  12.124  0.8531 -2.2245  0.0035
 2380SOL     OW18598   3.084   4.236   8.045 -0.9277  1.1590  0.3020
 2380SOL    HW118599   3.157   4.208   8.101 -0.2404  0.3475 -0.9994
 2380SOL    HW218600   3.120   4.307   7.992 -0.5758 -1.0162 -2.3927
 2381SOL     OW18601   0.070   1.333   1.072  0.3885  0.1040 -0.0652
 2381SOL    HW118602   0.117   1.287   1.141 -0.3215  2.9361  2.3192
 2381SOL    HW218603   4.712   1.356   1.124  1.1080  2.7093 -0.1234
 2382SOL     OW18604   3.003   1.175   5.230  0.2970 -0.0028 -0.0389
 2382SOL    HW118605   2.987   1.269   5.244  2.1606  0.2601  0.3740
 2382SOL    HW218606   3.096   1.157   5.220 -0.0911 -1.9447 -0.0720
 2383SOL     OW18607   0.181   3.950   4.141  0.1241  0.1660  0.1518
 2383SOL    HW118608   0.119   3.911   4.203  0.4399 -1.1072 -0.3330
 2383SOL    HW218609   0.269   3.943   4.178 -0.0644 -0.9586  0.3990
 2384SOL     OW18610   3.811   0.071   4.804  0.1639  0.2132  0.1064
 2384SOL    HW118611   3.798   4.718   4.743 -0.6879  0.5362 -0.1055
 2384SOL    HW218612   3.763   0.146   4.768 -2.1734 -0.5682  1.5730
 2385SOL     OW18613   1.161   0.708   2.831  0.0749  0.2419  0.2967
 2385SOL    HW118614   1.202   0.782   2.785  2.0105 -0.1773  1.3211
 2385SOL    HW218615   1.073   0.741   2.847 -0.0601  0.9752 -1.9695
 2386SOL     OW18616   1.967   4.206   7.965  0.4075 -0.3303  0.3600
 2386SOL    HW118617   1.885   4.250   7.986  1.2905  0.9785  1.0200
 2386SOL    HW218618   1.984   4.236   7.875  0.2510  3.9417  1.7942
 2387SOL     OW18619   1.846   1.287  11.728 -0.3615 -0.9002 -0.1812
 2387SOL    HW118620   1.922   1.252  11.683  0.8167  1.3776  0.0467
 2387SOL    HW218621   1.902   1.308  11.802  0.7653 -1.2795 -0.9414
 2388SOL     OW18622   0.632   1.246   7.737 -0.6862 -0.3339 -0.3231
 2388SOL    HW118623   0.641   1.168   7.791 -0.1156  1.0606  1.6061
 2388SOL    HW218624   0.674   1.217   7.656 -0.0397  1.5206 -0.6670
 2389SOL     OW18625   4.170   3.161   7.750 -0.0988 -0.5701  0.3053
 2389SOL    HW118626   4.158   3.102   7.676 -0.4416 -1.6023  1.1838
 2389SOL    HW218627   4.130   3.245   7.726 -1.2289 -1.9251 -2.5302
 2390SOL     OW18628   0.552   1.317   7.331  0.4020 -0.1576  0.5290
 2390SOL    HW118629   0.555   1.377   7.256  0.0832 -1.5678 -0.5989
 2390SOL    HW218630   0.543   1.231   7.291  2.7116 -0.7878  1.3628
 2391SOL     OW18631   4.233   2.765   4.939 -0.4090  0.2881 -0.1013
 2391SOL    HW118632   4.221   2.818   4.860  1.2169  0.3739 -0.2926
 2391SOL    HW218633   4.169   2.698   4.918 -1.1129  0.9561 -0.0669
 2392SOL     OW18634   3.971   4.717   7.268  0.1383  0.4235  0.3024
 2392SOL    HW118635   4.054   0.043   7.257  0.4540 -0.4070 -0.7589
 2392SOL    HW218636   3.906   0.068   7.275 -1.1620 -0.7444  0.2041
 2393SOL     OW18637   4.063   3.874   8.375 -0.4222  0.3210 -0.4863
 2393SOL    HW118638   4.110   3.878   8.292  0.1863 -0.6068 -0.1881
 2393SOL    HW218639   4.030   3.785   8.364  2.2037 -0.8832  1.2656
 2394SOL     OW18640   0.247   1.520  13.926 -0.3844 -0.2852  1.2943
 2394SOL    HW118641   0.219   1.595  13.978  2.0142  1.4902  0.0373
 2394SOL    HW218642   0.164   1.474  13.937 -1.1784  0.5775 -1.2983
 2395SOL     OW18643   4.270   3.298   5.304  0.5867 -0.0232 -0.1153
 2395SOL    HW118644   4.361   3.272   5.318  1.0611  1.3163 -0.8218
 2395SOL    HW218645   4.257   3.376   5.358 -2.5309  2.3183 -4.3224
 2396SOL     OW18646   0.002   3.559  17.333 -0.5236 -0.3323 -0.1999
 2396SOL    HW118647   4.631   3.529  17.345  0.2820 -2.0674  1.4028
 2396SOL    HW218648   4.713   3.655  17.333 -0.9709 -0.3725 -0.9200
 2397SOL     OW18649   1.454   4.120   4.157  0.4336 -0.3183 -0.0723
 2397SOL    HW118650   1.504   4.190   4.200  0.2795  0.1384 -0.6199
 2397SOL    HW218651   1.383   4.170   4.116 -0.0130 -1.2312 -0.3975
 2398SOL     OW18652   1.579   3.803   2.938  0.1913 -0.2659  0.3659
 2398SOL    HW118653   1.671   3.821   2.955  0.3475 -0.8370  0.1222
 2398SOL    HW218654   1.573   3.819   2.844 -1.3398  0.0964  0.5291
 2399SOL     OW18655   1.659   1.146   0.069  0.0658  0.3556 -0.2708
 2399SOL    HW118656   1.566   1.129   0.084  0.4509  0.7199  2.5638
 2399SOL    HW218657   1.707   1.129   0.150  1.8862 -0.9659 -1.6445
 2400SOL     OW18658   4.138   0.462   1.656 -0.1357 -0.3023  0.3657
 2400SOL    HW118659   4.204   0.503   1.600 -0.9372 -1.6690 -1.5569
 2400SOL    HW218660   4.146   0.371   1.628  0.8440  0.4337 -1.7182
 2401SOL     OW18661   0.259   1.349   4.010 -0.7196  0.3096  0.4230
 2401SOL    HW118662   0.348   1.347   4.043 -1.6275 -1.0610  2.7578
 2401SOL    HW218663   0.260   1.262   3.969  1.2494  0.3867  0.3278
 2402SOL     OW18664   3.778   1.358   2.166 -0.2692  0.0578  0.3539
 2402SOL    HW118665   3.686   1.353   2.193 -0.2371 -2.9443 -0.0424
 2402SOL    HW218666   3.817   1.286   2.216 -1.8579 -0.0298  1.4706
 2403SOL     OW18667   0.325   2.102   8.747  0.1155  0.4247 -0.0718
 2403SOL    HW118668   0.413   2.065   8.741 -0.2400 -0.2245 -1.2240
 2403SOL    HW218669   0.324   2.166   8.676  2.0400  1.3703  0.7553
 2404SOL     OW18670   4.642   1.971   0.801 -0.3455 -0.4247 -0.4332
 2404SOL    HW118671   4.593   2.031   0.745 -0.0772  0.3421  0.1625
 2404SOL    HW218672   4.643   2.024   0.880  0.5759  0.2649 -0.9128
 2405SOL     OW18673   3.022   4.323   6.303 -0.5529 -0.2389 -1.0289
 2405SOL    HW118674   3.043   4.258   6.370 -2.7288  0.5695  0.4155
 2405SOL    HW218675   3.001   4.262   6.233  0.8344 -2.2571  0.3104
 2406SOL     OW18676   2.533   3.896  14.867  0.0346  0.3013  0.1682
 2406SOL    HW118677   2.495   3.846  14.794  2.7617 -0.9923 -0.3601
 2406SOL    HW218678   2.534   3.986  14.834  0.4313  0.5584  0.8942
 2407SOL     OW18679   2.828   2.537   3.219  0.5997 -0.1885 -0.2485
 2407SOL    HW118680   2.778   2.618   3.225 -1.4409 -1.4861  0.1976
 2407SOL    HW218681   2.886   2.563   3.147  1.4923 -1.7635 -0.0936
 2408SOL     OW18682   0.326   1.240   3.234  0.9232  0.3035  0.4736
 2408SOL    HW118683   0.340   1.334   3.248  0.0683  1.0010 -3.2903
 2408SOL    HW218684   0.314   1.219   3.326 -2.7446 -0.7263 -0.2252
 2409SOL     OW18685   1.401   1.196   3.102 -0.4521  0.0236  0.2744
 2409SOL    HW118686   1.382   1.183   3.009  0.9120  0.8870 -0.1399
 2409SOL    HW218687   1.317   1.216   3.143 -1.1680  2.1690 -2.2775
 2410SOL     OW18688   3.803   1.834   2.709  0.4262 -0.8035 -0.2429
 2410SOL    HW118689   3.736   1.787   2.759  1.0297 -0.8207  0.5502
 2410SOL    HW218690   3.816   1.916   2.756  0.7842 -0.2400 -1.3520
 2411SOL     OW18691   2.326   0.247   3.828  1.0077 -0.0761 -0.4067
 2411SOL    HW118692   2.231   0.252   3.828  0.9294 -1.5497  0.1602
 2411SOL    HW218693   2.341   0.250   3.734  0.0961 -2.4628 -0.6062
 2412SOL     OW18694   1.237   1.215   8.387  0.3972 -0.1132  0.0293
 2412SOL    HW118695   1.267   1.190   8.474 -0.6988  0.8074  0.6662
 2412SOL    HW218696   1.161   1.156   8.379  0.8950 -0.7087 -0.3078
 2413SOL     OW18697   3.952   3.294   6.047  0.4591 -0.3067  0.3830
 2413SOL    HW118698   3.909   3.318   5.964 -1.6121 -0.0872  1.5066
 2413SOL    HW218699   4.001   3.217   6.020  1.2615  1.2067 -2.5267
 2414SOL     OW18700   3.635   2.220  10.601 -0.0206  0.0183  0.1338
 2414SOL    HW118701   3.663   2.269  10.678 -2.2420 -1.6505  1.9914
 2414SOL    HW218702   3.589   2.293  10.558 -0.0013 -0.8974 -1.4358
 2415SOL     OW18703   1.504   4.148   4.589  0.1602  0.3215 -0.3207
 2415SOL    HW118704   1.505   4.072   4.531  1.3668  0.0145  0.1061
 2415SOL    HW218705   1.455   4.207   4.532  0.2637 -0.9397 -1.7289
 2416SOL     OW18706   3.963   1.215   9.154  0.3186 -0.2607  0.2346
 2416SOL    HW118707   3.983   1.297   9.200 -0.6964 -0.6813  1.4496
 2416SOL    HW218708   3.932   1.243   9.068  0.1865 -3.5631 -0.7895
 2417SOL     OW18709   3.103   4.345   2.897  0.8115  0.4927  0.0563
 2417SOL    HW118710   3.162   4.307   2.962  0.4022  1.2621  0.8781
 2417SOL    HW218711   3.162   4.376   2.828  1.7200 -0.8542  0.2211
 2418SOL     OW18712   2.849   0.805   6.604  0.4826 -0.2838  0.8416
 2418SOL    HW118713   2.944   0.815   6.603  0.4703 -0.3091 -0.1589
 2418SOL    HW218714   2.841   0.763   6.518 -0.1808 -2.7364  2.1061
 2419SOL     OW18715   0.606   4.009   4.247 -0.2245  0.8394 -0.0063
 2419SOL    HW118716   0.608   4.089   4.196 -1.9176  1.8457  1.5204
 2419SOL    HW218717   0.696   3.976   4.242 -0.3235  0.4713  0.5629
 2420SOL     OW18718   2.598   3.215   1.166 -0.1899  0.1074 -0.2484
 2420SOL    HW118719   2.553   3.256   1.240  0.9014  1.9614 -0.6121
 2420SOL    HW218720   2.684   3.198   1.203 -0.7620 -2.0480  0.0712
 2421SOL     OW18721   4.262   1.713   0.976  0.6022  0.6713  0.3765
 2421SOL    HW118722   4.323   1.699   0.903 -0.2171 -1.8359  0.1953
 2421SOL    HW218723   4.326   1.753   1.036  1.0369 -0.6116  0.7656
 2422SOL     OW18724   0.846   4.411   6.162  0.2706  0.4053  0.5898
 2422SOL    HW118725   0.784   4.437   6.231 -0.4109  2.4378 -0.7908
 2422SOL    HW218726   0.807   4.458   6.088 -0.8602 -2.6346 -0.7520
 2423SOL     OW18727   3.432   3.789   9.016  0.1467 -0.6974 -0.3771
 2423SOL    HW118728   3.520   3.773   8.982  0.8606  0.0266  1.1081
 2423SOL    HW218729   3.444   3.774   9.110 -0.4314  2.9270  0.2936
 2424SOL     OW18730   0.162   2.332   8.262 -0.1584  0.0845 -0.3364
 2424SOL    HW118731   0.135   2.377   8.183 -0.8426  0.1964 -0.0380
 2424SOL    HW218732   0.256   2.352   8.266  0.4985 -3.2034  0.7464
 2425SOL     OW18733   2.464   3.167   4.209  0.5032 -0.1507 -0.3326
 2425SOL    HW118734   2.557   3.150   4.190  0.5699  0.4939 -0.5937
 2425SOL    HW218735   2.467   3.263   4.209  1.1181 -0.1713  0.4988
 2426SOL     OW18736   2.483   1.571  11.584  0.9283  0.2487 -0.1384
 2426SOL    HW118737   2.509   1.569  11.492  0.7612  0.8828 -0.1974
 2426SOL    HW218738   2.514   1.653  11.622  2.1075 -0.8975  1.4499
 2427SOL     OW18739   1.325   0.409   3.818 -0.0804  0.0454 -0.0936
 2427SOL    HW118740   1.300   0.321   3.847 -1.7206  0.1194 -1.2547
 2427SOL    HW218741   1.352   0.443   3.903 -1.5924 -2.0791  1.2391
 2428SOL     OW18742   0.876   3.873   4.052 -0.0448 -0.1662  0.4082
 2428SOL    HW118743   0.954   3.820   4.033 -0.6225 -1.3328  1.3325
 2428SOL    HW218744   0.887   3.954   4.001  1.4290 -0.8010 -0.2944
 2429SOL     OW18745   3.196   2.839   9.904  0.1271 -0.0250  0.4287
 2429SOL    HW118746   3.233   2.758   9.940  1.1541  0.0791 -0.4025
 2429SOL    HW218747   3.253   2.858   9.830 -0.6957 -0.9203 -0.4428
 2430SOL     OW18748   1.874   2.023   1.462 -0.0804 -0.2584 -0.5617
 2430SOL    HW118749   1.893   2.113   1.487  0.1989 -0.4824  0.0325
 2430SOL    HW218750   1.889   2.021   1.368  1.1626 -0.7630 -0.3571
 2431SOL     OW18751   3.017   3.155  13.178 -0.4200  0.1624 -0.3643
 2431SOL    HW118752   3.100   3.126  13.216 -1.5033 -2.0860  0.2747
 2431SOL    HW218753   3.045   3.239  13.140  1.2615 -0.5935 -0.7997
 2432SOL     OW18754   2.153   3.828  14.299 -0.7454  1.1216  0.4996
 2432SOL    HW118755   2.248   3.841  14.295 -0.7182  0.2678 -1.6878
 2432SOL    HW218756   2.144   3.772  14.376  0.0872  0.2435 -0.0419
 2433SOL     OW18757   2.250   0.716  13.521 -0.7016  0.3017 -0.6339
 2433SOL    HW118758   2.302   0.648  13.565 -0.4754 -0.5951 -2.2917
 2433SOL    HW218759   2.198   0.746  13.595  1.7296 -2.3966  2.1470
 2434SOL     OW18760   3.237   2.682  11.105 -0.5163 -0.1081 -0.1587
 2434SOL    HW118761   3.197   2.700  11.019  3.5145  2.5694 -1.4764
 2434SOL    HW218762   3.274   2.597  11.080  0.9615  0.3869  0.3334
 2435SOL     OW18763   1.334   2.304   1.163  0.1220 -0.1189 -0.1256
 2435SOL    HW118764   1.399   2.240   1.135 -0.9254 -1.8393  1.3731
 2435SOL    HW218765   1.259   2.247   1.176 -1.2390  1.8503  0.7070
 2436SOL     OW18766   1.533   1.547   4.350  0.6899 -0.2975  0.3841
 2436SOL    HW118767   1.608   1.533   4.292 -1.0274  4.3674 -2.9310
 2436SOL    HW218768   1.550   1.498   4.431  2.0454  0.8889  0.7998
 2437SOL     OW18769   1.849   1.943   9.286 -0.3075  0.0751  0.2194
 2437SOL    HW118770   1.761   1.981   9.286  0.5054  1.9849  0.0356
 2437SOL    HW218771   1.904   2.015   9.318 -0.1285 -0.0204  0.1269
 2438SOL     OW18772   1.831   0.744   5.804 -0.0523 -0.4615 -0.4353
 2438SOL    HW118773   1.909   0.703   5.768 -0.7587 -0.4447 -2.0140
 2438SOL    HW218774   1.798   0.806   5.739 -0.2951 -1.0961 -0.9234
 2439SOL     OW18775   4.669   2.841   6.841 -0.2396 -0.3021  0.2424
 2439SOL    HW118776   4.654   2.747   6.840 -0.7996 -0.2352  1.4739
 2439SOL    HW218777   4.594   2.874   6.891 -1.9971 -1.2099 -1.7953
 2440SOL     OW18778   0.996   4.275  11.542 -0.2146  0.3887  0.1923
 2440SOL    HW118779   1.035   4.270  11.630 -0.8382 -0.5884  0.4143
 2440SOL    HW218780   1.076   4.268  11.490 -1.0758  2.0099 -1.3196
 2441SOL     OW18781   1.982   1.075   3.575 -0.0363 -0.4848  0.2547
 2441SOL    HW118782   1.944   0.987   3.577 -0.7309 -0.1769  0.5876
 2441SOL    HW218783   2.048   1.065   3.506 -0.3322  1.0228 -0.2588
 2442SOL     OW18784   4.644   0.701  17.198 -0.1659 -0.6300  0.2851
 2442SOL    HW118785   4.633   0.673  17.289 -1.3935  1.2013  0.7163
 2442SOL    HW218786   4.636   0.620  17.148 -0.0622 -0.5776  0.1857
 2443SOL     OW18787   3.096   1.520   2.471  0.0763  0.6592  0.2697
 2443SOL    HW118788   3.070   1.542   2.382 -1.0809 -0.5758  0.2984
 2443SOL    HW218789   3.026   1.560   2.522 -0.5923  1.3881 -1.2282
 2444SOL     OW18790   4.320   1.137   2.941 -0.1333 -0.4981  0.5041
 2444SOL    HW118791   4.296   1.045   2.931  3.7049 -1.3546 -0.5581
 2444SOL    HW218792   4.370   1.130   3.022  0.3108  0.6190  0.3257
 2445SOL     OW18793   3.457   2.122   3.766 -0.0750  0.0266 -0.1842
 2445SOL    HW118794   3.512   2.047   3.745 -0.3982 -0.4767  0.7278
 2445SOL    HW218795   3.374   2.091   3.728 -0.0452 -1.9376  1.2920
 2446SOL     OW18796   0.682   1.249   9.055  0.3247  0.2835 -0.5066
 2446SOL    HW118797   0.603   1.199   9.078  1.5293 -1.2543  0.2434
 2446SOL    HW218798   0.669   1.279   8.965  1.0913  2.3686  0.0772
 2447SOL     OW18799   1.185   2.324   9.237 -0.4466  0.0519 -0.3057
 2447SOL    HW118800   1.183   2.364   9.324  0.4684  0.3685 -0.4350
 2447SOL    HW218801   1.103   2.354   9.197 -1.4848 -0.4790  1.3994
 2448SOL     OW18802   4.261   1.586   0.091  0.1417  0.2989 -0.1931
 2448SOL    HW118803   4.220   1.546   0.014 -1.1876  2.1995 -0.4645
 2448SOL    HW218804   4.192   1.632   0.138  0.1482  0.0137  0.1039
 2449SOL     OW18805   0.325   3.427   3.223  0.2632 -0.2895 -0.4565
 2449SOL    HW118806   0.374   3.345   3.217  0.4386 -0.5056  3.8329
 2449SOL    HW218807   0.377   3.479   3.161  0.3968 -1.0871 -1.0147
 2450SOL     OW18808   2.841   1.893   5.813  0.1848 -0.2940 -0.0451
 2450SOL    HW118809   2.879   1.848   5.888 -1.1198  0.6308  1.1813
 2450SOL    HW218810   2.925   1.925   5.780 -0.1032  0.8753  0.3385
 2451SOL     OW18811   0.334   2.069   8.332 -0.4728  0.3890 -0.0635
 2451SOL    HW118812   0.340   2.136   8.400 -1.1196 -2.9994  3.2909
 2451SOL    HW218813   0.284   2.122   8.269  0.8161 -0.0376 -1.4430
 2452SOL     OW18814   0.423   1.361  14.970  0.2313 -0.7352  0.3551
 2452SOL    HW118815   0.403   1.279  14.926  1.0852  0.0847 -1.5713
 2452SOL    HW218816   0.373   1.429  14.924 -1.0844 -0.5352  2.1059
 2453SOL     OW18817   3.176   3.019  10.628  0.2095  0.3718 -0.1148
 2453SOL    HW118818   3.171   3.114  10.623  0.4083  0.3660 -0.4152
 2453SOL    HW218819   3.208   3.000  10.716 -1.8061 -2.8603 -0.0932
 2454SOL     OW18820   3.636   0.790   5.373  0.2582 -0.0857 -0.3675
 2454SOL    HW118821   3.584   0.758   5.299  0.5902  0.5345 -0.8714
 2454SOL    HW218822   3.698   0.720   5.394 -0.6994 -1.3303 -1.6916
 2455SOL     OW18823   1.302   2.765   8.485  0.4029 -0.3689 -0.2505
 2455SOL    HW118824   1.331   2.674   8.493  1.7503  0.0683 -0.0306
 2455SOL    HW218825   1.384   2.814   8.490 -0.3332  0.7011  1.0776
 2456SOL     OW18826   0.648   0.922   3.458  0.9815 -0.2617 -0.3527
 2456SOL    HW118827   0.678   1.012   3.450 -0.8757  0.0946 -3.2041
 2456SOL    HW218828   0.660   0.894   3.367  0.4298 -2.0082  0.1157
 2457SOL     OW18829   3.050   0.556   5.371 -0.0430 -0.1971 -0.4966
 2457SOL    HW118830   2.984   0.544   5.439 -1.8999 -0.1285 -2.2778
 2457SOL    HW218831   3.130   0.534   5.418 -0.6455  0.5853  0.8988
 2458SOL     OW18832   4.026   0.276   5.737 -0.4418 -0.0023 -0.1203
 2458SOL    HW118833   3.948   0.320   5.770 -0.4919 -0.5120  0.4542
 2458SOL    HW218834   3.988   0.237   5.658  0.0213 -0.2175 -0.2361
 2459SOL     OW18835   1.740   3.331   6.579  0.1914  0.1013 -0.0736
 2459SOL    HW118836   1.694   3.361   6.501 -1.9106 -1.8844  0.4004
 2459SOL    HW218837   1.774   3.247   6.549  3.4335  1.2430  0.3569
 2460SOL     OW18838   0.371   4.369   8.777  0.2957 -0.2671  0.3923
 2460SOL    HW118839   0.311   4.315   8.828 -0.7502 -0.2273 -0.7975
 2460SOL    HW218840   0.449   4.372   8.833 -0.0144  0.0820  0.7977
 2461SOL     OW18841   0.997   0.752  12.566  0.3168  0.1126 -0.4478
 2461SOL    HW118842   1.024   0.827  12.620  0.6651 -0.9314  0.8270
 2461SOL    HW218843   0.984   0.691  12.638  3.5154 -1.7810 -1.4933
 2462SOL     OW18844   0.305   4.415   7.114  0.5039  0.6774  0.4067
 2462SOL    HW118845   0.307   4.399   7.208  1.1342 -2.0883 -0.0963
 2462SOL    HW218846   0.318   4.328   7.077  0.5400  1.4210 -1.3389
 2463SOL     OW18847   2.849   0.269   2.582 -0.3771  0.3122 -0.0669
 2463SOL    HW118848   2.923   0.323   2.609  1.3086 -1.7465 -0.5860
 2463SOL    HW218849   2.787   0.282   2.655  0.1191  0.8107  0.2598
 2464SOL     OW18850   2.200   0.838   3.773 -0.2423 -0.1375  1.0350
 2464SOL    HW118851   2.278   0.884   3.743  0.6047 -1.1446  1.7178
 2464SOL    HW218852   2.181   0.770   3.709 -0.1936  2.4866 -1.7592
 2465SOL     OW18853   3.406   2.902   6.193  0.1165  0.0529  0.2431
 2465SOL    HW118854   3.435   2.849   6.119  0.8793 -0.5059  0.9379
 2465SOL    HW218855   3.337   2.844   6.225 -0.2733 -0.5374 -1.6817
 2466SOL     OW18856   2.193   2.395   6.055  0.1326 -0.3701 -0.0311
 2466SOL    HW118857   2.125   2.417   5.992 -0.9238  0.9830  1.5935
 2466SOL    HW218858   2.278   2.421   6.019 -0.0187 -1.5849 -1.2655
 2467SOL     OW18859   4.385   1.278  16.543 -0.1956  0.1848 -0.5951
 2467SOL    HW118860   4.476   1.286  16.574  0.1172 -1.5695 -1.0602
 2467SOL    HW218861   4.354   1.269  16.633 -0.9860 -1.8056 -1.0654
 2468SOL     OW18862   4.391   2.315   9.076 -0.7725  0.7221 -0.4526
 2468SOL    HW118863   4.345   2.249   9.026  0.6387  0.0444 -0.8653
 2468SOL    HW218864   4.424   2.250   9.138 -1.7184  0.3477 -0.3387
 2469SOL     OW18865   2.660   3.203   8.826  0.1759 -0.2384  0.1325
 2469SOL    HW118866   2.702   3.277   8.872 -0.5682  1.0677 -1.3038
 2469SOL    HW218867   2.622   3.154   8.899 -0.0267 -1.2417 -0.6515
 2470SOL     OW18868   3.694   1.493   7.680 -0.0829 -0.2281 -0.2286
 2470SOL    HW118869   3.642   1.463   7.606  0.1891 -1.1658 -0.0451
 2470SOL    HW218870   3.763   1.428   7.694  1.7802  1.7090 -0.4607
 2471SOL     OW18871   0.820   3.432   5.015 -0.4307  0.1647  0.1512
 2471SOL    HW118872   0.776   3.481   5.085  2.4772  2.0188  0.6913
 2471SOL    HW218873   0.874   3.380   5.075  1.0082  0.3532 -0.9961
 2472SOL     OW18874   0.195   2.328   3.265  0.0617  0.8550  0.2723
 2472SOL    HW118875   0.223   2.354   3.177  0.2982  2.8990  0.9664
 2472SOL    HW218876   0.107   2.300   3.239  0.8972 -2.0008  0.4371
 2473SOL     OW18877   3.974   0.165   1.779  0.3197  0.3165 -0.3565
 2473SOL    HW118878   4.065   0.163   1.749  0.5344 -1.2381  0.4071
 2473SOL    HW218879   3.970   0.232   1.848 -1.0769  0.7154 -0.8146
 2474SOL     OW18880   4.571   0.308  12.755 -0.8520  0.2400 -0.0696
 2474SOL    HW118881   4.524   0.373  12.702 -0.2259 -0.9510 -2.0835
 2474SOL    HW218882   4.625   0.263  12.690  1.4237  0.5154  1.5912
 2475SOL     OW18883   2.810   3.048  11.026  0.0438  0.1726 -0.0972
 2475SOL    HW118884   2.824   3.029  11.119 -1.2704  0.6422  0.1942
 2475SOL    HW218885   2.813   2.958  10.993 -1.8545 -0.7137  2.1141
 2476SOL     OW18886   3.473   1.860  13.248 -0.0390  0.0681  0.4542
 2476SOL    HW118887   3.418   1.785  13.226  1.1417 -0.3299 -1.1372
 2476SOL    HW218888   3.483   1.888  13.157 -0.6987  2.9086  1.2548
 2477SOL     OW18889   2.364   0.048   5.093  0.0494  0.8561  0.2210
 2477SOL    HW118890   2.272   0.057   5.118  0.4991 -0.8404  2.4636
 2477SOL    HW218891   2.377   0.135   5.057  1.2260  1.9359  3.2224
 2478SOL     OW18892   0.616   3.737   7.222 -0.2082 -0.3848 -0.2535
 2478SOL    HW118893   0.654   3.729   7.135 -0.1938  1.3767 -0.3949
 2478SOL    HW218894   0.524   3.719   7.203 -0.5585  0.5943  0.5569
 2479SOL     OW18895   0.063   3.248   1.216 -0.0659 -0.0637  0.1873
 2479SOL    HW118896   0.021   3.274   1.134  2.1689 -1.4208 -1.3789
 2479SOL    HW218897   0.093   3.332   1.249  1.4093 -0.0763 -1.1127
 2480SOL     OW18898   0.414   3.935  10.581 -0.7809 -0.6700 -0.3175
 2480SOL    HW118899   0.409   3.849  10.622 -1.7828 -0.5699 -0.2314
 2480SOL    HW218900   0.399   4.002  10.647 -0.3645 -0.1781 -0.7283
 2481SOL     OW18901   3.124   3.296  10.680  0.4718 -0.3623  0.2876
 2481SOL    HW118902   3.048   3.247  10.710 -0.7654  0.5027 -1.4844
 2481SOL    HW218903   3.122   3.365  10.747  1.3288  0.1417 -0.2007
 2482SOL     OW18904   2.341   3.367  14.616 -0.7522  0.6063  0.0047
 2482SOL    HW118905   2.400   3.324  14.678 -0.5398  1.6746  0.5431
 2482SOL    HW218906   2.340   3.456  14.651  0.5544  0.1914  1.1066
 2483SOL     OW18907   4.234   2.038   1.436 -0.7370  0.4212  0.2871
 2483SOL    HW118908   4.166   2.058   1.372  0.0592 -0.0959 -0.7223
 2483SOL    HW218909   4.302   2.097   1.406  0.0964 -2.2876 -3.1777
 2484SOL     OW18910   2.406   0.203   4.369  0.3510 -0.2909  0.2387
 2484SOL    HW118911   2.438   0.292   4.355 -1.4615  0.4650  0.8901
 2484SOL    HW218912   2.469   0.152   4.318  0.2372 -0.5363  0.3493
 2485SOL     OW18913   2.785   1.236   2.238 -0.8311  0.3260  0.3783
 2485SOL    HW118914   2.810   1.149   2.267  0.0134  0.8351  1.1665
 2485SOL    HW218915   2.836   1.243   2.157 -3.0378 -1.2890 -1.1611
 2486SOL     OW18916   3.851   0.410  14.727 -0.6045 -0.4432 -0.1229
 2486SOL    HW118917   3.781   0.392  14.664  0.7572 -2.3811 -1.0677
 2486SOL    HW218918   3.928   0.374  14.684 -0.2750  2.7275 -2.2148
 2487SOL     OW18919   0.693   2.931   2.380 -1.2170  0.9575 -0.4891
 2487SOL    HW118920   0.683   2.853   2.434 -1.5191  0.4050 -1.3471
 2487SOL    HW218921   0.620   2.990   2.404 -0.0262  1.0573  2.9756
 2488SOL     OW18922   3.257   2.887   9.038 -0.1959 -0.2587  0.1126
 2488SOL    HW118923   3.267   2.889   9.133 -1.6177 -0.8236  0.2848
 2488SOL    HW218924   3.317   2.958   9.014 -1.0975  0.1867 -0.8316
 2489SOL     OW18925   4.382   1.410   0.277  0.1925  0.6104 -0.4304
 2489SOL    HW118926   4.458   1.430   0.222  2.1372 -1.1555  1.5910
 2489SOL    HW218927   4.317   1.454   0.223  1.0548 -0.0366 -1.9844
 2490SOL     OW18928   4.366   3.380   6.006  0.4135 -0.0667  0.5777
 2490SOL    HW118929   4.282   3.405   6.044  0.8801  2.0837  0.2168
 2490SOL    HW218930   4.399   3.312   6.064  1.3905 -1.2634 -1.3932
 2491SOL     OW18931   2.170   0.083  14.954  0.1400  1.1936 -0.6079
 2491SOL    HW118932   2.246   0.053  14.905 -0.3801  0.5620 -1.0160
 2491SOL    HW218933   2.174   0.032  15.035 -1.1376 -0.0116 -1.3133
 2492SOL     OW18934   2.066   4.547  11.577  0.1992  0.2984  0.1240
 2492SOL    HW118935   2.038   4.608  11.509 -3.6753 -1.1688  0.4203
 2492SOL    HW218936   2.097   4.602  11.648 -1.0922  0.1274  0.8115
 2493SOL     OW18937   0.603   2.931  16.073  0.5351 -0.2323  0.1144
 2493SOL    HW118938   0.604   2.993  16.000 -1.9143 -0.0847  0.2144
 2493SOL    HW218939   0.530   2.876  16.045  1.5841 -0.8337 -1.4695
 2494SOL     OW18940   0.490   2.795   5.719  0.0960  0.1094  0.0641
 2494SOL    HW118941   0.518   2.811   5.629  0.8124 -0.5270  0.1709
 2494SOL    HW218942   0.569   2.779   5.770  0.9444 -0.5158 -1.4158
 2495SOL     OW18943   3.179   3.255   0.353 -0.2426  0.4595 -0.2732
 2495SOL    HW118944   3.200   3.291   0.439  0.5703  0.0672 -0.3137
 2495SOL    HW218945   3.120   3.325   0.322  0.4957  0.2946 -2.0726
 2496SOL     OW18946   2.315   0.697   8.488  0.0818  0.6612 -0.0152
 2496SOL    HW118947   2.253   0.769   8.479  0.1124  0.4975 -1.5949
 2496SOL    HW218948   2.363   0.725   8.566  0.7792  0.0356 -0.2237
 2497SOL     OW18949   0.704   1.040   6.462  0.1771 -0.3761  0.5317
 2497SOL    HW118950   0.748   1.110   6.413  0.5179 -0.2844  0.9693
 2497SOL    HW218951   0.677   1.078   6.545  0.9340 -0.1007  0.6601
 2498SOL     OW18952   3.004   2.303   3.149  0.0266 -0.2675  0.0143
 2498SOL    HW118953   2.966   2.323   3.064  0.3503  0.5257  0.0478
 2498SOL    HW218954   2.969   2.368   3.210 -1.9733 -1.1548 -0.2204
 2499SOL     OW18955   3.278   1.990   6.062 -0.7451 -0.0038 -0.3666
 2499SOL    HW118956   3.268   2.007   6.156  0.9686  1.6147 -0.4852
 2499SOL    HW218957   3.291   2.075   6.021 -0.1784  0.3647  0.5793
 2500SOL     OW18958   4.458   1.632   5.709  0.2083 -0.0086 -0.5620
 2500SOL    HW118959   4.441   1.661   5.798  3.2976 -1.4865  0.5208
 2500SOL    HW218960   4.551   1.610   5.722  0.4395  0.4193 -1.4837
 2501SOL     OW18961   1.181   0.169   7.481 -0.2480  0.7040  0.1679
 2501SOL    HW118962   1.209   0.155   7.391 -1.3959  1.3735 -0.2983
 2501SOL    HW218963   1.086   0.175   7.470 -0.1493 -1.3769 -1.6565
 2502SOL     OW18964   0.282   1.978  10.674 -0.4834  0.7792 -0.6729
 2502SOL    HW118965   0.195   2.009  10.700 -1.0099 -0.7232 -0.6598
 2502SOL    HW218966   0.293   2.032  10.595  3.5130  1.3954  0.2920
 2503SOL     OW18967   1.133   1.821   7.118 -0.4388 -0.3333 -0.0366
 2503SOL    HW118968   1.192   1.893   7.095 -2.2871  1.1561 -0.0512
 2503SOL    HW218969   1.129   1.765   7.040  0.0553 -0.3495 -0.0502
 2504SOL     OW18970   0.990   2.893   6.957  0.0117  0.2799 -0.6243
 2504SOL    HW118971   0.900   2.861   6.960  0.4770 -1.2009 -2.8846
 2504SOL    HW218972   0.980   2.976   7.004 -0.2623  0.0420 -0.2594
 2505SOL     OW18973   3.585   4.607   2.961  0.1936 -0.2124 -0.1703
 2505SOL    HW118974   3.560   4.637   2.874  2.4153  0.3602 -0.6181
 2505SOL    HW218975   3.596   4.513   2.948  1.5118  0.0096 -0.6682
 2506SOL     OW18976   0.539   4.699   2.781  0.4025  0.2214  0.4441
 2506SOL    HW118977   0.540   4.630   2.714 -1.2222  0.7364 -0.1052
 2506SOL    HW218978   0.626   0.010   2.754 -0.6133  3.1567  0.5032
 2507SOL     OW18979   0.461   2.139   2.813 -0.1360 -0.1267 -0.0993
 2507SOL    HW118980   0.413   2.213   2.778 -0.6363 -0.7309 -0.6886
 2507SOL    HW218981   0.400   2.112   2.882  1.4036  0.0168  1.3199
 2508SOL     OW18982   2.582   3.983  16.257  0.1288 -0.4293 -0.1104
 2508SOL    HW118983   2.525   4.043  16.305  1.2449 -1.6697  2.7328
 2508SOL    HW218984   2.585   3.918  16.327  2.8875 -1.1713 -0.9102
 2509SOL     OW18985   3.406   4.390   4.364 -0.5223  0.4289 -0.2337
 2509SOL    HW118986   3.430   4.327   4.433 -0.4326  0.8299  0.1005
 2509SOL    HW218987   3.437   4.470   4.407  0.0469  0.7385 -1.2246
 2510SOL     OW18988   1.308   2.622   2.977 -0.3863  0.2162  0.0950
 2510SOL    HW118989   1.315   2.633   2.882  0.8319  3.6643  0.6113
 2510SOL    HW218990   1.387   2.663   3.011  0.2643 -0.8238 -0.1551
 2511SOL     OW18991   2.353   3.606  14.761  0.3265 -0.4971  0.4807
 2511SOL    HW118992   2.427   3.606  14.820  1.1710 -2.1826 -0.5638
 2511SOL    HW218993   2.352   3.685  14.707 -0.8996 -0.9053 -0.1111
 2512SOL     OW18994   2.532   3.873  11.280  0.0380 -0.6144  0.4091
 2512SOL    HW118995   2.507   3.966  11.281 -0.9386 -0.8968  2.0016
 2512SOL    HW218996   2.466   3.848  11.345 -0.0436  0.8038  0.8898
 2513SOL     OW18997   4.630   2.236   3.198 -0.2175  0.2673  0.0218
 2513SOL    HW118998   4.538   2.242   3.224 -0.3781 -1.6410 -0.1149
 2513SOL    HW218999   4.621   2.303   3.130 -1.7565  1.2660  1.2274
 2514SOL     OW19000   0.691   3.865   2.383 -1.2886  0.3631 -0.2802
 2514SOL    HW119001   0.618   3.863   2.446 -1.3893 -1.4666 -0.4688
 2514SOL    HW219002   0.729   3.781   2.409  0.3003  0.8243 -1.1795
 2515SOL     OW19003   2.256   2.442   8.363 -1.0023 -0.0848 -0.0590
 2515SOL    HW119004   2.274   2.358   8.406  0.6566  0.2973 -0.0142
 2515SOL    HW219005   2.234   2.504   8.433 -1.8418 -0.1490 -0.2624
 2516SOL     OW19006   1.084   1.915  15.865  0.1795 -0.3480 -0.1216
 2516SOL    HW119007   0.992   1.895  15.848 -0.4898  0.1852  2.8364
 2516SOL    HW219008   1.119   1.828  15.880  1.1137 -0.0975 -0.8175
 2517SOL     OW19009   2.807   3.666  11.042  0.1356 -0.2393  0.3317
 2517SOL    HW119010   2.874   3.684  10.976 -1.0026  0.8887 -0.5214
 2517SOL    HW219011   2.822   3.575  11.066  1.8769 -0.6833 -2.4929
 2518SOL     OW19012   1.192   3.407   4.416  0.2346  0.3836 -0.2374
 2518SOL    HW119013   1.148   3.485   4.382  0.6070 -0.4614 -2.6085
 2518SOL    HW219014   1.189   3.365   4.330 -0.5623 -0.6203  0.2739
 2519SOL     OW19015   2.758   4.200   2.228  0.0726 -0.4761 -0.0690
 2519SOL    HW119016   2.773   4.292   2.205  0.5172 -0.3547  0.7200
 2519SOL    HW219017   2.676   4.208   2.277  1.0256  2.1442  1.0957
 2520SOL     OW19018   4.378   1.112  16.000  0.1177 -0.2003  0.1549
 2520SOL    HW119019   4.449   1.054  16.029  0.8416 -0.4351 -2.1195
 2520SOL    HW219020   4.403   1.181  16.062  2.1577  1.0349 -2.0690
 2521SOL     OW19021   1.767   2.751  16.414  0.0712  0.0102 -0.2412
 2521SOL    HW119022   1.800   2.825  16.464  1.4553 -0.0455 -1.0578
 2521SOL    HW219023   1.683   2.794  16.396  0.9987  0.6839 -2.9430
 2522SOL     OW19024   1.231   3.302   7.255 -0.6126  0.0174  0.4860
 2522SOL    HW119025   1.282   3.248   7.194  0.3168  0.8139  0.5758
 2522SOL    HW219026   1.203   3.240   7.323  0.9697 -0.5488  0.6074
 2523SOL     OW19027   3.133   3.168  11.086  0.0459  0.2294  0.0953
 2523SOL    HW119028   3.090   3.102  11.140 -0.6816 -0.1501 -0.9580
 2523SOL    HW219029   3.101   3.154  10.997  2.7384 -0.3538 -0.7593
 2524SOL     OW19030   2.393   0.047   3.982  0.4821 -0.3814 -0.1116
 2524SOL    HW119031   2.427   4.714   3.909 -1.8715 -1.3870 -0.4740
 2524SOL    HW219032   2.371   0.133   3.945 -3.0408 -1.7998 -1.2397
 2525SOL     OW19033   1.760   3.238  13.292  0.7002 -0.0443  0.1267
 2525SOL    HW119034   1.687   3.275  13.341  2.0814  1.1367  1.3226
 2525SOL    HW219035   1.816   3.313  13.271  1.7952 -0.8340  0.2247
 2526SOL     OW19036   4.638   0.851  10.037  0.2386 -0.3981 -0.3290
 2526SOL    HW119037   4.653   0.790  10.109 -0.1427  0.7645  0.7321
 2526SOL    HW219038   4.546   0.870  10.057  0.0288 -0.5275 -1.1772
 2527SOL     OW19039   3.850   1.559  10.125 -0.3834 -0.5206  0.2309
 2527SOL    HW119040   3.785   1.502  10.166 -0.2392 -0.4553  0.5534
 2527SOL    HW219041   3.927   1.543  10.179 -0.2021  1.2957  0.5019
 2528SOL     OW19042   3.392   2.745  15.986  0.1892  0.5416  0.0778
 2528SOL    HW119043   3.411   2.839  15.992  0.8242  0.3159  1.5270
 2528SOL    HW219044   3.452   2.717  15.916  0.3280 -0.4290  0.5869
 2529SOL     OW19045   4.272   2.242  11.020  0.1555 -0.3802 -0.3652
 2529SOL    HW119046   4.230   2.309  10.966 -1.0261 -1.2983 -0.5708
 2529SOL    HW219047   4.206   2.174  11.030 -1.3698  1.1679  0.0618
 2530SOL     OW19048   0.201   0.054   4.707 -0.2021  0.0942  0.6376
 2530SOL    HW119049   0.216   4.687   4.746 -1.2718 -0.3169  0.1162
 2530SOL    HW219050   0.290   0.088   4.692 -0.9860  1.3053 -1.1857
 2531SOL     OW19051   4.513   3.946   8.405 -0.1720  0.2190 -0.2016
 2531SOL    HW119052   4.521   3.872   8.345 -0.5697  1.9879 -2.4462
 2531SOL    HW219053   4.452   3.998   8.352 -1.4193 -0.9190  0.1190
 2532SOL     OW19054   0.519   2.176   6.697 -0.3513 -0.3767  0.4258
 2532SOL    HW119055   0.442   2.175   6.754  0.3726 -1.1023  1.3988
 2532SOL    HW219056   0.546   2.263   6.727 -2.5526  0.3497  0.3211
 2533SOL     OW19057   1.003   3.747   7.027  0.0284 -0.0388 -0.7155
 2533SOL    HW119058   1.057   3.674   6.996 -0.0751 -0.4071 -0.0398
 2533SOL    HW219059   1.068   3.816   7.036 -1.0236  0.9432 -0.7442
 2534SOL     OW19060   3.822   0.018   2.214 -0.4935 -0.1062 -0.5023
 2534SOL    HW119061   3.894   0.080   2.217 -3.3915  3.1299  1.5522
 2534SOL    HW219062   3.849   4.674   2.148 -0.3592 -0.4847 -0.0828
 2535SOL     OW19063   1.925   3.966   6.015 -0.3465  0.8661 -0.2111
 2535SOL    HW119064   1.905   3.952   5.923 -1.4035  1.0323 -0.0066
 2535SOL    HW219065   1.888   4.051   6.038 -1.3227  0.3971 -0.0776
 2536SOL     OW19066   4.472   2.005   3.275  0.2577  0.0225  0.1654
 2536SOL    HW119067   4.563   2.013   3.245  0.1240 -2.1315 -0.8255
 2536SOL    HW219068   4.413   1.986   3.202  0.1653  1.6767 -0.1716
 2537SOL     OW19069   3.527   0.857   5.665  0.4365 -0.2719  0.3938
 2537SOL    HW119070   3.614   0.835   5.631  1.3422 -0.1377  2.6309
 2537SOL    HW219071   3.537   0.904   5.748 -0.6438  1.8010 -0.6401
 2538SOL     OW19072   0.131   2.139   4.284  0.0749 -0.0592 -0.6356
 2538SOL    HW119073   0.081   2.058   4.275  0.6320 -0.5048  0.3582
 2538SOL    HW219074   0.114   2.192   4.206  2.2481 -0.6992 -1.5363
 2539SOL     OW19075   2.787   1.291   7.053  0.0980 -0.0692 -0.4329
 2539SOL    HW119076   2.722   1.223   7.070 -2.3629  2.1965 -0.7184
 2539SOL    HW219077   2.739   1.372   7.074  2.2306  1.3385 -0.9943
 2540SOL     OW19078   1.670   3.661  12.839 -0.3018  0.0494  0.0347
 2540SOL    HW119079   1.582   3.643  12.806  0.4463  0.0139 -1.9396
 2540SOL    HW219080   1.715   3.579  12.857  0.1518  0.4666  0.7985
 2541SOL     OW19081   0.042   0.234  13.449  0.0781 -0.8143  0.4785
 2541SOL    HW119082   0.049   0.248  13.355 -1.2740 -0.4214  0.4391
 2541SOL    HW219083   4.704   0.308  13.465  0.6550 -0.2051 -0.2965
 2542SOL     OW19084   0.659   1.900   4.086 -0.1737  0.0350 -0.4224
 2542SOL    HW119085   0.741   1.949   4.093 -0.6245  0.7186  0.1581
 2542SOL    HW219086   0.640   1.925   3.996  0.3886 -0.7457 -0.7553
 2543SOL     OW19087   3.468   1.080  13.767  0.1429 -0.1324 -0.2675
 2543SOL    HW119088   3.504   0.991  13.764 -1.0587 -0.6235  0.0999
 2543SOL    HW219089   3.495   1.100  13.857 -1.8972 -0.8166  0.4932
 2544SOL     OW19090   1.290   4.586   9.320 -0.2747  0.4249  0.3946
 2544SOL    HW119091   1.195   4.580   9.307 -0.3462  0.2888  0.9764
 2544SOL    HW219092   1.330   4.502   9.300 -1.2386  0.3796 -1.3545
 2545SOL     OW19093   0.533   0.493  11.414  0.2662 -0.0648  0.4272
 2545SOL    HW119094   0.628   0.481  11.406  0.0539 -0.7288 -1.2381
 2545SOL    HW219095   0.499   0.433  11.481 -1.4585  1.9630  1.3583
 2546SOL     OW19096   2.333   3.800   0.847 -0.3589  0.5577  0.1273
 2546SOL    HW119097   2.237   3.806   0.849 -0.3227  1.1509  0.0204
 2546SOL    HW219098   2.352   3.706   0.845  4.0593  1.4222  1.6267
 2547SOL     OW19099   0.304   4.590   3.234  0.2410 -0.1102  0.5400
 2547SOL    HW119100   0.379   4.599   3.175  0.3708 -1.4537  0.4924
 2547SOL    HW219101   0.297   4.495   3.242 -0.8341  0.1883  3.0315
 2548SOL     OW19102   2.456   0.647   1.908  1.0677 -0.2935 -0.1060
 2548SOL    HW119103   2.478   0.554   1.901 -0.6415 -0.8605  2.1583
 2548SOL    HW219104   2.491   0.658   1.996  0.7179 -1.1629  0.1417
 2549SOL     OW19105   0.250   4.027   6.444  0.0406 -0.6610  0.2838
 2549SOL    HW119106   0.226   4.013   6.353  0.5479  0.8500 -0.0790
 2549SOL    HW219107   0.207   3.953   6.487 -0.2911 -0.6855 -0.0952
 2550SOL     OW19108   1.052   2.520  15.178 -0.2333  0.0148 -0.2852
 2550SOL    HW119109   1.126   2.579  15.165  1.1994 -1.7903 -0.3746
 2550SOL    HW219110   0.978   2.575  15.153 -0.7038  0.2598  1.6974
 2551SOL     OW19111   1.534   1.761   5.200  0.0422  0.6105 -0.1866
 2551SOL    HW119112   1.515   1.782   5.109  0.7673 -2.2838 -0.9947
 2551SOL    HW219113   1.447   1.753   5.239  0.9144 -0.3973  1.5967
 2552SOL     OW19114   3.946   2.824   8.685 -0.5793 -0.9325  0.0188
 2552SOL    HW119115   3.942   2.760   8.615  2.4584 -2.2062  1.0169
 2552SOL    HW219116   3.965   2.770   8.762  2.2258  1.0662  0.7075
 2553SOL     OW19117   4.264   0.716   3.477  0.0454 -0.3658  0.2151
 2553SOL    HW119118   4.337   0.655   3.467  2.0666  2.0164  0.1610
 2553SOL    HW219119   4.260   0.730   3.571 -0.0016  0.6267  0.0670
 2554SOL     OW19120   2.224   2.157   7.649 -0.9204 -0.2326  0.0909
 2554SOL    HW119121   2.236   2.109   7.731 -1.1434 -0.7061 -0.1570
 2554SOL    HW219122   2.218   2.248   7.679 -0.2430 -0.1669  0.0355
 2555SOL     OW19123   1.204   0.988   4.052  0.0917 -0.8468  0.3357
 2555SOL    HW119124   1.250   1.064   4.017 -0.3384 -0.9689 -0.4870
 2555SOL    HW219125   1.230   0.910   4.004  0.7074  0.6352 -1.7129
 2556SOL     OW19126   0.930   1.102  10.950  0.2153 -0.0065 -0.2625
 2556SOL    HW119127   0.877   1.070  10.877  2.1851 -1.1028 -1.2530
 2556SOL    HW219128   0.859   1.131  11.006 -0.1098 -2.9247  0.8158
 2557SOL     OW19129   1.403   1.840   2.696 -0.1678 -0.2028  0.3527
 2557SOL    HW119130   1.488   1.862   2.735  0.8826 -1.7576 -1.0294
 2557SOL    HW219131   1.438   1.802   2.615 -0.9652  0.2905 -0.2290
 2558SOL     OW19132   2.534   3.931   5.332  0.5597 -0.3184 -0.4113
 2558SOL    HW119133   2.556   3.850   5.285 -1.5366 -1.0831 -0.0996
 2558SOL    HW219134   2.528   3.902   5.423  2.3481  0.5546 -0.0162
 2559SOL     OW19135   4.518   0.186  12.988 -0.0508 -0.0222  0.5538
 2559SOL    HW119136   4.432   0.162  12.953 -0.2209 -0.9118  1.6069
 2559SOL    HW219137   4.543   0.252  12.923 -1.3590  0.1942  0.2702
 2560SOL     OW19138   2.301   3.809   6.282 -0.2735 -0.5334 -0.2803
 2560SOL    HW119139   2.272   3.799   6.373 -0.6122 -2.2285 -0.5789
 2560SOL    HW219140   2.243   3.880   6.255  0.0416 -0.3706 -0.5213
 2561SOL     OW19141   2.442   2.312   5.940  0.1868  0.1134  0.0768
 2561SOL    HW119142   2.519   2.326   5.885 -0.0499 -0.0104 -0.2832
 2561SOL    HW219143   2.372   2.317   5.875  0.6058 -2.2103 -0.5643
 2562SOL     OW19144   0.441   0.120   8.015  0.0352  0.6983  0.4597
 2562SOL    HW119145   0.386   0.161   8.081 -1.0013 -0.5346  0.3856
 2562SOL    HW219146   0.369   0.101   7.954  0.0920  0.5143  0.4495
 2563SOL     OW19147   2.664   1.086  16.503  0.1459  0.6981 -0.3637
 2563SOL    HW119148   2.708   1.145  16.564  1.1827  0.4117 -0.8156
 2563SOL    HW219149   2.601   1.150  16.468 -0.8176 -0.2483 -0.3371
 2564SOL     OW19150   4.040   4.231   7.364 -0.1824 -0.5922 -0.5109
 2564SOL    HW119151   4.118   4.286   7.367  0.2458 -1.1207 -1.9713
 2564SOL    HW219152   4.065   4.171   7.434  1.7844  1.6303  0.6679
 2565SOL     OW19153   3.119   1.777   7.098 -0.3978  0.1092 -0.3556
 2565SOL    HW119154   3.063   1.843   7.138  0.6221  0.5123  0.4218
 2565SOL    HW219155   3.201   1.801   7.141 -0.2244  1.1519 -1.2753
 2566SOL     OW19156   1.205   2.316   2.538  0.1621  0.1458  0.0530
 2566SOL    HW119157   1.160   2.341   2.458  0.7404  2.6355  0.5207
 2566SOL    HW219158   1.251   2.241   2.501 -0.0809 -0.5518  1.1718
 2567SOL     OW19159   1.978   3.492   6.170 -0.2686 -0.0120 -0.1330
 2567SOL    HW119160   1.939   3.527   6.090  0.9070 -0.1035 -0.7487
 2567SOL    HW219161   2.072   3.494   6.152 -0.0976  0.2698  0.8266
 2568SOL     OW19162   3.433   1.190   6.359 -0.1978 -0.3992 -0.0110
 2568SOL    HW119163   3.361   1.143   6.400  0.1575 -0.2262  0.8084
 2568SOL    HW219164   3.491   1.115   6.344 -1.1631 -1.1358 -0.0435
 2569SOL     OW19165   1.487   1.260  10.283 -0.4571 -0.3245 -0.2644
 2569SOL    HW119166   1.539   1.257  10.203 -0.5918 -0.8331 -0.3314
 2569SOL    HW219167   1.423   1.326  10.254  1.3130  0.9952 -1.1757
 2570SOL     OW19168   1.857   4.434  11.748 -0.3063 -0.0084 -0.4576
 2570SOL    HW119169   1.914   4.406  11.677 -1.3974 -1.6452 -0.6888
 2570SOL    HW219170   1.914   4.493  11.798  1.0632 -0.3366 -1.6337
 2571SOL     OW19171   3.213   2.474   2.773 -0.3682  0.6619 -0.1251
 2571SOL    HW119172   3.283   2.538   2.786 -0.3566  0.7950 -0.8578
 2571SOL    HW219173   3.221   2.461   2.678 -1.3405  0.8028 -0.2264
 2572SOL     OW19174   0.352   1.430   2.541  0.0585  0.0281 -0.1614
 2572SOL    HW119175   0.371   1.337   2.548 -0.2197 -0.0717 -0.7042
 2572SOL    HW219176   0.364   1.456   2.632 -0.7124 -2.6775  0.7132
 2573SOL     OW19177   0.718   1.660   5.737  0.2711 -0.5405 -0.5469
 2573SOL    HW119178   0.716   1.726   5.667  1.2695 -0.0855 -0.1483
 2573SOL    HW219179   0.739   1.585   5.683  1.3218 -1.4717  1.1490
 2574SOL     OW19180   3.402   0.257  13.694 -0.1455  0.2389 -0.0837
 2574SOL    HW119181   3.426   0.271  13.602  0.3648 -0.1701 -0.0132
 2574SOL    HW219182   3.320   0.308  13.690 -1.9194 -2.4682  2.1927
 2575SOL     OW19183   4.337   1.057  13.877 -0.0422 -0.0338 -0.0575
 2575SOL    HW119184   4.403   1.032  13.812 -0.1675 -1.4223  0.3706
 2575SOL    HW219185   4.264   1.001  13.851 -2.4941  3.2861 -0.3768
 2576SOL     OW19186   2.366   0.738   2.835  0.3616  0.0201 -0.0453
 2576SOL    HW119187   2.293   0.712   2.778  0.2832  1.6233 -0.6875
 2576SOL    HW219188   2.389   0.653   2.870  2.8219 -0.1993 -2.1628
 2577SOL     OW19189   3.450   3.538  11.782 -0.3261 -0.0524 -0.2152
 2577SOL    HW119190   3.506   3.575  11.714  1.9821 -1.0638  1.1146
 2577SOL    HW219191   3.402   3.617  11.806 -0.8816 -0.5398  0.2931
 2578SOL     OW19192   2.985   2.551   6.871  0.4935  0.5705  0.5296
 2578SOL    HW119193   3.058   2.496   6.898 -0.8562 -1.5349 -0.0761
 2578SOL    HW219194   2.928   2.487   6.828  0.1953  0.9671  0.3310
 2579SOL     OW19195   4.004   1.456   6.651 -0.2416  0.0913 -0.4059
 2579SOL    HW119196   4.067   1.527   6.665 -0.9121  0.8081 -0.9874
 2579SOL    HW219197   4.001   1.410   6.735 -0.2855  3.2715  1.3208
 2580SOL     OW19198   3.510   0.595   8.988 -0.1439  0.3977 -0.2715
 2580SOL    HW119199   3.564   0.557   8.919 -0.1639  2.2270 -1.3097
 2580SOL    HW219200   3.426   0.567   8.952 -0.1035 -0.0806  0.0167
 2581SOL     OW19201   1.796   2.182   7.969 -0.2638  0.0248  0.0693
 2581SOL    HW119202   1.820   2.124   7.896 -0.0584 -0.9751  0.9390
 2581SOL    HW219203   1.857   2.252   7.943  0.4229 -0.6951 -0.2570
 2582SOL     OW19204   1.505   1.633   8.794  0.2435 -0.1487 -0.0909
 2582SOL    HW119205   1.506   1.564   8.861 -0.1087 -1.1535 -1.1261
 2582SOL    HW219206   1.557   1.605   8.719 -0.5178 -1.8901  0.0076
 2583SOL     OW19207   4.071   1.260   4.222 -0.3931  0.3821  0.0601
 2583SOL    HW119208   4.039   1.348   4.204 -0.1992  0.2594 -0.9255
 2583SOL    HW219209   4.143   1.244   4.160 -0.2959 -0.4081  0.3757
 2584SOL     OW19210   1.003   3.975   6.776  0.0596 -0.2078 -0.5538
 2584SOL    HW119211   1.051   4.016   6.705  0.0392  0.4982 -0.1558
 2584SOL    HW219212   1.040   3.886   6.772 -0.0716 -0.1937 -2.0268
 2585SOL     OW19213   1.388   4.592   2.745 -0.6377 -0.8340 -0.0855
 2585SOL    HW119214   1.396   4.687   2.757 -0.4865 -1.0171  1.3119
 2585SOL    HW219215   1.348   4.590   2.658  1.5553  0.3016 -1.1165
 2586SOL     OW19216   4.389   3.733  16.810 -0.4765  0.3207 -0.2690
 2586SOL    HW119217   4.351   3.808  16.765  1.0007 -0.2385 -2.4414
 2586SOL    HW219218   4.326   3.667  16.783  2.2850 -2.8950  1.1394
 2587SOL     OW19219   0.627   3.111  10.501  0.2386  0.3493 -0.0300
 2587SOL    HW119220   0.708   3.127  10.453  1.6704 -1.7861  1.6521
 2587SOL    HW219221   0.616   3.197  10.541 -3.4271  0.1653 -0.6812
 2588SOL     OW19222   1.915   0.903   3.200  0.6120  0.1096  0.0012
 2588SOL    HW119223   1.832   0.936   3.165 -0.1657 -0.2765  1.4534
 2588SOL    HW219224   1.972   0.978   3.185  0.5112  0.6171  2.1123
 2589SOL     OW19225   1.603   2.779  11.426  0.3939  0.2366  0.1548
 2589SOL    HW119226   1.643   2.746  11.346 -2.4890 -0.6274 -0.9423
 2589SOL    HW219227   1.675   2.806  11.482  0.6805  0.0906 -0.1441
 2590SOL     OW19228   1.907   2.031   7.779 -0.1816 -0.4311  0.0781
 2590SOL    HW119229   1.994   2.049   7.815 -0.7954  1.7447  0.4756
 2590SOL    HW219230   1.892   1.939   7.803  1.4872 -1.2766 -2.1143
 2591SOL     OW19231   0.642   3.827   5.967  0.0532 -0.1744  0.1112
 2591SOL    HW119232   0.727   3.814   6.010 -0.6073 -2.6788  0.6523
 2591SOL    HW219233   0.665   3.870   5.884  2.0431 -0.3504  0.5809
 2592SOL     OW19234   3.808   1.522   5.638 -0.0474  0.6085  0.0934
 2592SOL    HW119235   3.892   1.499   5.598  0.3782 -0.5302  1.6543
 2592SOL    HW219236   3.830   1.496   5.727  0.2298  1.5590  0.3007
 2593SOL     OW19237   3.043   3.433   1.833  0.2638 -0.3774  0.5351
 2593SOL    HW119238   3.101   3.497   1.792 -1.3650 -0.3582 -1.7732
 2593SOL    HW219239   3.083   3.435   1.919 -0.5850 -0.5822  0.9349
 2594SOL     OW19240   2.862   0.703  11.305  0.3417  0.3978 -0.4527
 2594SOL    HW119241   2.852   0.788  11.263 -0.4292 -0.4987 -2.1050
 2594SOL    HW219242   2.783   0.653  11.281  1.3588 -0.9194 -1.0524
 2595SOL     OW19243   0.071   0.898  12.298  0.7334  0.1594  0.0288
 2595SOL    HW119244   0.142   0.961  12.286  0.9100  0.3096  1.8701
 2595SOL    HW219245   0.010   0.938  12.360 -0.1627 -1.2202  0.0378
 2596SOL     OW19246   3.421   2.526  14.253 -0.1320 -0.0633  0.7017
 2596SOL    HW119247   3.443   2.528  14.347  0.0022  0.0416  0.6679
 2596SOL    HW219248   3.489   2.588  14.228 -0.6699 -0.5174 -1.8952
 2597SOL     OW19249   3.378   4.160   3.518 -0.1245  0.2628 -0.0269
 2597SOL    HW119250   3.450   4.108   3.555 -0.6790  0.0594  0.7477
 2597SOL    HW219251   3.385   4.245   3.560  0.7361  0.8385 -1.3391
 2598SOL     OW19252   4.683   3.928   8.908 -0.2499  0.1288 -0.3311
 2598SOL    HW119253   4.659   3.955   8.819 -0.7641 -2.2710 -0.9136
 2598SOL    HW219254   4.637   3.844   8.907  2.6521 -1.4482  0.9064
 2599SOL     OW19255   3.434   3.955   7.191  0.2984 -0.2395 -0.1409
 2599SOL    HW119256   3.350   3.933   7.231  1.0401  0.4951  1.8105
 2599SOL    HW219257   3.396   3.969   7.104  0.5585 -2.3683 -0.5883
 2600SOL     OW19258   4.524   3.220  12.333 -0.6729  0.0945  0.3950
 2600SOL    HW119259   4.552   3.310  12.350 -1.4053  0.4703 -0.4206
 2600SOL    HW219260   4.533   3.183  12.421 -0.7889  0.5160  0.5831
 2601SOL     OW19261   2.549   3.703   8.025 -0.4274  0.4071  0.0405
 2601SOL    HW119262   2.586   3.615   8.024 -1.1791  0.0991 -0.1120
 2601SOL    HW219263   2.471   3.698   8.079  0.2260 -0.7337  0.8560
 2602SOL     OW19264   2.593   1.575  16.029 -0.0316  0.0218 -0.3045
 2602SOL    HW119265   2.628   1.537  16.110 -1.0342 -3.2342 -1.3701
 2602SOL    HW219266   2.537   1.640  16.071  1.8248  0.6461  1.2122
 2603SOL     OW19267   1.410   3.486   6.127 -0.3537 -0.9911 -0.1380
 2603SOL    HW119268   1.377   3.397   6.138 -1.8885 -0.4591 -0.3458
 2603SOL    HW219269   1.502   3.481   6.152 -0.0172  1.9826 -0.7720
 2604SOL     OW19270   1.562   2.660   1.096 -0.3194  0.5831  0.2037
 2604SOL    HW119271   1.535   2.751   1.103  1.4771  0.9417  2.2370
 2604SOL    HW219272   1.526   2.639   1.182 -0.0163 -0.6107  0.0410
 2605SOL     OW19273   1.836   3.549   8.187 -0.2891  0.3585 -0.3977
 2605SOL    HW119274   1.809   3.485   8.121 -0.0204 -0.8589  0.6718
 2605SOL    HW219275   1.854   3.623   8.129 -0.3994  0.7896  0.1211
 2606SOL     OW19276   3.827   0.488   1.650  0.1444  1.0455  1.0565
 2606SOL    HW119277   3.920   0.511   1.655  0.0238  1.6911  0.3875
 2606SOL    HW219278   3.815   0.484   1.744  0.8333  1.3566  1.1567
 2607SOL     OW19279   3.507   0.833  15.866 -0.3955  0.3369  0.2868
 2607SOL    HW119280   3.453   0.909  15.843  1.5721  1.3637 -0.9578
 2607SOL    HW219281   3.537   0.799  15.782 -4.5409  0.7148 -1.3666
 2608SOL     OW19282   0.156   3.537   6.425  0.3123 -0.1334 -0.7285
 2608SOL    HW119283   0.217   3.514   6.495 -1.6971 -2.4174  0.2630
 2608SOL    HW219284   0.120   3.623   6.450 -1.1442 -0.9422 -0.0437
 2609SOL     OW19285   2.376   1.635   3.918  0.4218  0.7880 -0.2533
 2609SOL    HW119286   2.319   1.559   3.920  0.6326  0.6989  3.4409
 2609SOL    HW219287   2.366   1.665   3.828 -1.3948  0.1980 -0.2613
 2610SOL     OW19288   1.350   3.993   5.263  0.1092  0.3072  0.4537
 2610SOL    HW119289   1.353   3.898   5.261  1.0337  0.3462 -0.3434
 2610SOL    HW219290   1.284   4.023   5.200 -0.2965 -0.6726  0.4132
 2611SOL     OW19291   0.861   2.427   1.989 -0.4691  0.3171 -0.4261
 2611SOL    HW119292   0.870   2.486   1.915 -1.5977  1.5005  0.3776
 2611SOL    HW219293   0.880   2.339   1.957  0.0468 -0.5911  2.3024
 2612SOL     OW19294   3.406   2.429  10.789 -0.5361  0.6342 -0.0265
 2612SOL    HW119295   3.411   2.456  10.881 -3.2726  0.1808  0.2665
 2612SOL    HW219296   3.494   2.408  10.759 -1.5540 -1.1840 -1.7845
 2613SOL     OW19297   1.359   0.159  13.252 -0.4183  0.0052  0.3197
 2613SOL    HW119298   1.423   0.090  13.232  0.6359  1.0807  0.0050
 2613SOL    HW219299   1.280   0.107  13.272 -0.5835 -0.4470 -1.5344
 2614SOL     OW19300   0.806   4.033   1.334  0.3568 -0.0226 -0.5165
 2614SOL    HW119301   0.743   4.077   1.278  0.7804  1.2232 -0.0198
 2614SOL    HW219302   0.879   4.086   1.303 -2.1273  3.4198 -0.5294
 2615SOL     OW19303   1.708   0.373   8.987  0.2238 -0.0890 -0.1446
 2615SOL    HW119304   1.727   0.280   8.972 -0.9591 -0.1647 -1.2715
 2615SOL    HW219305   1.790   0.393   9.031 -0.2096  1.8089 -0.2335
 2616SOL     OW19306   1.300   0.792   3.875  0.3117  0.0798  0.0880
 2616SOL    HW119307   1.265   0.792   3.786  0.8295 -1.8608 -0.0961
 2616SOL    HW219308   1.394   0.801   3.860 -0.4196  1.5230 -3.6067
 2617SOL     OW19309   0.700   4.230   8.484 -0.2059  0.1091 -0.9630
 2617SOL    HW119310   0.607   4.228   8.460 -0.7774 -0.5139  1.2203
 2617SOL    HW219311   0.735   4.146   8.455 -1.3725  0.3747 -3.0606
 2618SOL     OW19312   0.078   2.002   8.141 -0.7985  0.2216 -0.2917
 2618SOL    HW119313   0.032   1.981   8.222  0.9263 -1.1485  0.3209
 2618SOL    HW219314   0.016   1.969   8.076 -0.4771 -0.2465 -0.3550
 2619SOL     OW19315   3.490   3.955  12.950 -0.0389  0.1634 -0.7374
 2619SOL    HW119316   3.430   3.893  12.909  0.0611 -1.0563  0.9591
 2619SOL    HW219317   3.438   4.033  12.933 -0.7530  0.2136  1.6952
 2620SOL     OW19318   1.385   1.889   1.501  0.4665  0.1290  0.0126
 2620SOL    HW119319   1.344   1.804   1.520  0.1263  0.5185  0.9591
 2620SOL    HW219320   1.323   1.936   1.556 -2.4300 -1.0625 -2.2132
 2621SOL     OW19321   1.852   2.395   5.075  0.8762 -0.0037 -0.4553
 2621SOL    HW119322   1.910   2.471   5.075  1.1439 -0.2078  0.5841
 2621SOL    HW219323   1.765   2.434   5.067  1.4484  1.0840 -1.3934
 2622SOL     OW19324   2.774   1.538  10.016  0.1710  0.6837 -0.0464
 2622SOL    HW119325   2.718   1.543   9.938 -0.3502  0.5379  0.3240
 2622SOL    HW219326   2.771   1.445  10.037 -0.1459  1.0519  1.5085
 2623SOL     OW19327   1.519   0.599   7.233 -0.3822  0.3541  0.0098
 2623SOL    HW119328   1.506   0.576   7.325 -4.3540 -0.4710 -0.7393
 2623SOL    HW219329   1.434   0.635   7.209 -0.2504 -0.6858 -2.0062
 2624SOL     OW19330   0.302   0.486  14.155 -0.0456 -0.2758  0.2357
 2624SOL    HW119331   0.289   0.580  14.148  0.1862 -0.2449  0.2207
 2624SOL    HW219332   0.244   0.468  14.229  0.2294  2.1397  1.0395
 2625SOL     OW19333   4.154   2.139   2.325  0.4237 -0.3366 -0.0677
 2625SOL    HW119334   4.168   2.059   2.274  2.0878 -1.4607  2.1701
 2625SOL    HW219335   4.067   2.161   2.292  1.0823  2.0453 -0.2214
 2626SOL     OW19336   3.444   0.976   4.760  0.0607 -0.6244  0.4042
 2626SOL    HW119337   3.427   0.919   4.835 -0.4865 -0.4633  0.4038
 2626SOL    HW219338   3.488   0.912   4.705  0.9286  1.0195 -0.7983
 2627SOL     OW19339   4.678   2.187   6.024  0.8356  0.2590  0.0424
 2627SOL    HW119340   4.632   2.217   6.103 -0.8619 -0.5523 -0.6325
 2627SOL    HW219341   4.616   2.130   5.978 -0.0914  1.9737 -0.8123
 2628SOL     OW19342   3.595   4.534   0.004  0.3494 -0.1787  0.0762
 2628SOL    HW119343   3.682   4.567  17.663 -0.4542  1.9059  0.0344
 2628SOL    HW219344   3.559   4.534  17.596  0.2742 -2.5607  0.1030
 2629SOL     OW19345   0.508   3.499   5.535 -0.4530  0.1029 -0.4607
 2629SOL    HW119346   0.568   3.440   5.582  1.4294  2.0975 -0.3520
 2629SOL    HW219347   0.487   3.563   5.603 -0.3467 -0.4486  0.0913
 2630SOL     OW19348   4.351   2.604   5.499  0.4733 -0.3192 -0.4886
 2630SOL    HW119349   4.276   2.595   5.557  0.8501 -1.7141 -0.2044
 2630SOL    HW219350   4.322   2.670   5.437 -0.3229  0.3673  0.6235
 2631SOL     OW19351   2.140   3.502  10.634 -0.0976  0.7556  0.4890
 2631SOL    HW119352   2.101   3.584  10.605  1.0351  0.5004 -1.7176
 2631SOL    HW219353   2.105   3.501  10.723  0.1853 -0.9812  0.5915
 2632SOL     OW19354   3.876   1.178   1.814 -0.0253 -0.3797  0.4288
 2632SOL    HW119355   3.821   1.126   1.872  0.4821 -0.0282  1.2212
 2632SOL    HW219356   3.846   1.264   1.844  3.4658  1.1849 -0.5653
 2633SOL     OW19357   3.668   1.633   9.881 -0.0961  0.0453  0.3076
 2633SOL    HW119358   3.603   1.575   9.920 -0.8607  1.3337  0.9055
 2633SOL    HW219359   3.676   1.704   9.944  2.0873 -0.5038  0.6692
 2634SOL     OW19360   2.751   0.986   8.563  0.1926  0.0405  0.3525
 2634SOL    HW119361   2.839   0.968   8.597  0.0224 -1.4544  0.0247
 2634SOL    HW219362   2.704   1.031   8.633  0.5382 -1.0722  1.3071
 2635SOL     OW19363   3.057   3.568   4.643  0.6341 -0.3495  0.3620
 2635SOL    HW119364   3.059   3.490   4.700 -0.5181  0.2896  1.2767
 2635SOL    HW219365   3.019   3.528   4.565 -0.5150 -0.7102  1.1101
 2636SOL     OW19366   0.652   0.418   6.536  0.3915 -0.1409  0.3324
 2636SOL    HW119367   0.703   0.337   6.535  2.5449  1.2356 -0.9051
 2636SOL    HW219368   0.722   0.478   6.512  2.2206 -2.1931  0.5549
 2637SOL     OW19369   0.181   1.195   1.298 -0.5242 -0.3478 -0.2324
 2637SOL    HW119370   0.144   1.250   1.367  1.6311  0.6442  0.1280
 2637SOL    HW219371   0.164   1.110   1.339 -0.8395 -0.3400 -0.3487
 2638SOL     OW19372   3.568   2.853   6.940  0.5865 -0.0697  0.3388
 2638SOL    HW119373   3.605   2.855   6.852 -1.5089 -2.1645 -0.5879
 2638SOL    HW219374   3.524   2.935   6.963  0.1299 -0.2605  0.1290
 2639SOL     OW19375   1.712   1.690  12.971  0.6024 -0.0736 -0.1973
 2639SOL    HW119376   1.683   1.680  13.061  2.1576  0.9736  0.4067
 2639SOL    HW219377   1.690   1.778  12.941 -2.5833 -0.7865  0.0082
 2640SOL     OW19378   3.868   3.424   2.751  0.2396  0.1609  0.3223
 2640SOL    HW119379   3.953   3.466   2.745  0.6743 -0.8491 -0.5114
 2640SOL    HW219380   3.846   3.411   2.844  2.1575  2.1807  1.0594
 2641SOL     OW19381   4.229   0.656   9.007  0.0690 -0.1751 -0.0315
 2641SOL    HW119382   4.225   0.568   8.968 -1.0183 -0.0342 -0.2602
 2641SOL    HW219383   4.138   0.681   8.991  0.6526  1.7372 -0.3544
 2642SOL     OW19384   2.372   3.621   3.769  0.2150  0.1473 -0.1851
 2642SOL    HW119385   2.409   3.552   3.825  0.8991  0.2066 -0.5694
 2642SOL    HW219386   2.434   3.694   3.777  0.8973 -0.5223  0.7191
 2643SOL     OW19387   2.662   4.261  10.712  0.0931 -0.1237 -0.0867
 2643SOL    HW119388   2.636   4.215  10.791 -3.5241 -0.9508 -1.7899
 2643SOL    HW219389   2.698   4.190  10.659  0.6403 -0.3346  0.5757
 2644SOL     OW19390   4.197   4.515   3.192  0.0712  0.3487  0.2459
 2644SOL    HW119391   4.265   4.581   3.207  1.8603 -1.1929 -1.1106
 2644SOL    HW219392   4.190   4.526   3.097  4.0112 -2.5440 -0.3410
 2645SOL     OW19393   4.380   3.815   5.396 -0.5010  0.5337 -0.1593
 2645SOL    HW119394   4.311   3.753   5.373 -1.4790  1.2159  0.9646
 2645SOL    HW219395   4.341   3.898   5.371  0.3726  0.8531 -0.4602
 2646SOL     OW19396   1.180   0.899   5.318 -0.2044  0.5698 -0.2197
 2646SOL    HW119397   1.126   0.978   5.327 -0.0949  1.0130 -3.4116
 2646SOL    HW219398   1.140   0.828   5.368  0.2532  2.0942  2.3219
 2647SOL     OW19399   4.581   1.789   3.454  0.3382 -0.4764 -0.8194
 2647SOL    HW119400   4.516   1.800   3.385  0.6581 -1.7554 -1.3179
 2647SOL    HW219401   4.559   1.855   3.520  0.0272  0.2047 -1.6012
 2648SOL     OW19402   2.321   2.537   5.348  0.1437  0.0570  0.2378
 2648SOL    HW119403   2.380   2.467   5.320 -1.3244 -0.2718 -2.1183
 2648SOL    HW219404   2.331   2.539   5.443  0.9183 -0.6437  0.1747
 2649SOL     OW19405   1.929   4.683   3.874 -0.2644  0.3336 -0.0079
 2649SOL    HW119406   1.857   0.022   3.894  0.4948  1.9667 -2.0393
 2649SOL    HW219407   1.964   4.675   3.963 -1.8157 -1.6388  0.4305
 2650SOL     OW19408   0.411   2.527  12.085 -0.1725  0.0035  0.2157
 2650SOL    HW119409   0.480   2.535  12.151  0.3072  1.3796 -0.4678
 2650SOL    HW219410   0.456   2.487  12.010 -0.1402 -2.0307  1.2980
 2651SOL     OW19411   0.374   1.422   4.890  0.4418  0.0699 -0.7003
 2651SOL    HW119412   0.345   1.509   4.920 -0.4617 -1.4406  2.7752
 2651SOL    HW219413   0.288   1.384   4.870 -0.4029  1.3380  0.5493
 2652SOL     OW19414   0.462   3.812   8.410 -0.2776  0.2357  0.0755
 2652SOL    HW119415   0.396   3.742   8.414  0.2872 -0.2534  0.7974
 2652SOL    HW219416   0.476   3.809   8.315 -1.0171 -0.8890 -0.0035
 2653SOL     OW19417   2.022   2.219   2.565 -0.1461 -0.7505 -0.4004
 2653SOL    HW119418   2.100   2.190   2.518 -0.2497  2.3854 -2.4530
 2653SOL    HW219419   2.046   2.196   2.655 -0.2439  0.0833 -0.1623
 2654SOL     OW19420   2.267   2.935  15.744 -0.1843  0.2032 -0.0375
 2654SOL    HW119421   2.352   2.947  15.785 -0.1772 -1.7928  0.5319
 2654SOL    HW219422   2.219   3.005  15.791  0.4904  1.1541 -0.7727
 2655SOL     OW19423   2.946   4.524   2.311 -0.0150  0.7158 -0.5062
 2655SOL    HW119424   3.009   4.551   2.378 -1.6778 -0.0224  1.3287
 2655SOL    HW219425   2.993   4.513   2.228 -1.6455 -2.6506 -1.0007
 2656SOL     OW19426   0.553   1.691  14.970  0.6385  0.0111 -0.6599
 2656SOL    HW119427   0.570   1.598  14.982  0.2193 -0.0820 -0.8224
 2656SOL    HW219428   0.502   1.686  14.889  2.6525 -1.4758 -1.8584
 2657SOL     OW19429   3.831   3.413  12.921  0.0476  0.2544  0.6306
 2657SOL    HW119430   3.834   3.324  12.956 -0.1539  0.6660  1.6887
 2657SOL    HW219431   3.812   3.453  13.006  1.7483 -1.5254  1.8791
 2658SOL     OW19432   3.956   1.128  14.210  0.2907  0.1863 -0.4069
 2658SOL    HW119433   3.871   1.120  14.165 -1.5671  1.3758  2.8810
 2658SOL    HW219434   4.006   1.191  14.159 -0.3464 -0.0388 -1.3164
 2659SOL     OW19435   2.377   0.522   6.771 -0.5054 -0.1242  0.1922
 2659SOL    HW119436   2.311   0.464   6.733 -0.5821  0.1104 -0.0358
 2659SOL    HW219437   2.415   0.570   6.696  0.0909  1.7690  1.7018
 2660SOL     OW19438   2.039   3.060  13.243  0.5507  0.2192  0.4403
 2660SOL    HW119439   1.971   3.062  13.175 -0.2888 -1.2786  1.2232
 2660SOL    HW219440   2.034   2.979  13.295 -0.1507  1.2681  1.9875
 2661SOL     OW19441   1.828   2.951  13.091  0.4565  0.4148 -0.2141
 2661SOL    HW119442   1.736   2.979  13.091  0.3504  0.0653 -0.2309
 2661SOL    HW219443   1.826   2.910  13.004  1.9409  0.4428 -0.2539
 2662SOL     OW19444   3.473   1.194   7.262 -0.1301 -0.6990 -0.2924
 2662SOL    HW119445   3.460   1.112   7.310 -2.6275 -1.8893 -3.0495
 2662SOL    HW219446   3.515   1.170   7.180  1.9796 -0.9178  0.8476
 2663SOL     OW19447   3.411   3.123   6.662  0.4785  0.0980 -0.0950
 2663SOL    HW119448   3.394   3.127   6.568  1.5536  0.6517 -0.2712
 2663SOL    HW219449   3.453   3.037   6.664  0.5166  0.1489  1.3644
 2664SOL     OW19450   2.102   0.138   5.148 -0.5901 -0.3478  0.0359
 2664SOL    HW119451   2.058   0.058   5.176 -2.2108  0.0157 -1.5223
 2664SOL    HW219452   2.043   0.159   5.076  1.5451  0.3270 -1.5160
 2665SOL     OW19453   1.566   0.875  15.255  0.2648 -0.7307 -0.5718
 2665SOL    HW119454   1.525   0.936  15.317  0.2423  0.9553 -2.2637
 2665SOL    HW219455   1.596   0.810  15.319 -0.1729 -1.2030 -0.8450
 2666SOL     OW19456   0.920   1.807   2.888 -0.3244  0.1852  0.2729
 2666SOL    HW119457   0.884   1.880   2.838 -0.4646  1.0708  1.6749
 2666SOL    HW219458   0.891   1.737   2.831  1.3895  0.6526 -1.1734
 2667SOL     OW19459   1.065   4.112   4.272  0.1418  0.0079  0.1104
 2667SOL    HW119460   1.070   4.019   4.250  0.0918 -0.1934  0.9635
 2667SOL    HW219461   1.028   4.153   4.193  1.6705  0.9508 -0.1021
 2668SOL     OW19462   1.115   2.274   4.675  0.3926  0.1515 -0.0436
 2668SOL    HW119463   1.130   2.212   4.747  2.3051 -0.3059 -0.8238
 2668SOL    HW219464   1.025   2.252   4.651 -0.4324  0.4569  2.8195
 2669SOL     OW19465   1.172   0.840   6.462 -0.0752 -0.7793  0.0942
 2669SOL    HW119466   1.183   0.776   6.393  0.8770  1.5112 -1.8782
 2669SOL    HW219467   1.120   0.793   6.527 -1.7766  0.6765 -0.1909
 2670SOL     OW19468   3.157   1.201   6.683 -0.1988 -0.2935 -0.5247
 2670SOL    HW119469   3.222   1.213   6.752  0.9260 -0.6122 -1.5383
 2670SOL    HW219470   3.078   1.228   6.730 -0.1673  2.0502 -1.8024
 2671SOL     OW19471   4.235   2.972   1.917 -0.2488 -0.4966  0.0960
 2671SOL    HW119472   4.156   2.963   1.970 -2.0420  0.0860 -2.4736
 2671SOL    HW219473   4.272   2.885   1.932 -0.7472 -0.8557 -0.7687
 2672SOL     OW19474   0.524   1.090   8.153 -0.3467  0.2339 -0.0131
 2672SOL    HW119475   0.507   1.096   8.247 -0.9791 -1.3300 -0.0307
 2672SOL    HW219476   0.614   1.061   8.144  0.2210  1.3166  2.2887
 2673SOL     OW19477   3.290   4.647   3.466 -0.2500  0.0752  0.0164
 2673SOL    HW119478   3.276   4.676   3.376  0.4244 -0.5348 -0.2798
 2673SOL    HW219479   3.204   4.658   3.508  0.5349  1.6780  1.1619
 2674SOL     OW19480   4.529   1.797   0.398 -0.1672  0.7370 -0.1438
 2674SOL    HW119481   4.593   1.791   0.328  0.3701  0.2657  0.3898
 2674SOL    HW219482   4.483   1.879   0.380 -0.8844  0.4690  0.4412
 2675SOL     OW19483   4.211   0.129   8.861  0.0054 -0.0165  0.0538
 2675SOL    HW119484   4.233   0.043   8.826 -2.0165 -0.0056 -1.2514
 2675SOL    HW219485   4.119   0.132   8.834  0.0318  1.1323  0.0995
 2676SOL     OW19486   2.160   3.966   7.986  0.0929  0.3268  0.3271
 2676SOL    HW119487   2.131   3.921   7.907 -1.0618  0.2481  0.7933
 2676SOL    HW219488   2.100   4.040   7.977 -0.1097  0.2833  1.3276
 2677SOL     OW19489   3.199   4.524   0.499 -0.0971 -0.1905 -0.1719
 2677SOL    HW119490   3.179   4.439   0.539 -0.8018 -0.0679 -0.2764
 2677SOL    HW219491   3.287   4.536   0.536 -0.6300  1.2120  0.6153
 2678SOL     OW19492   0.455   3.706   0.476 -0.5298 -0.5337 -0.0426
 2678SOL    HW119493   0.419   3.657   0.550 -0.8614 -2.2300 -1.3059
 2678SOL    HW219494   0.377   3.729   0.424  0.7477  4.0972  0.1036
 2679SOL     OW19495   4.066   4.007  12.374  0.3869 -0.1466 -0.1707
 2679SOL    HW119496   4.159   3.999  12.396  0.2274  0.0562  0.5736
 2679SOL    HW219497   4.070   3.946  12.300  0.1920  1.0782 -1.1927
 2680SOL     OW19498   1.743   3.085   8.013 -0.1288 -0.2355  0.3791
 2680SOL    HW119499   1.719   2.994   8.027  0.4154 -0.7697 -2.1149
 2680SOL    HW219500   1.658   3.129   8.009 -0.5383 -1.2039 -1.5434
 2681SOL     OW19501   2.805   1.738  12.027  0.8916 -0.0809 -0.2342
 2681SOL    HW119502   2.836   1.783  12.105  0.6189 -1.6661  0.7989
 2681SOL    HW219503   2.892   1.710  11.997  1.8819  3.5513 -0.6795
 2682SOL     OW19504   2.896   0.719   7.615  0.1803 -0.1001 -0.0192
 2682SOL    HW119505   2.882   0.804   7.657  3.1436  1.1189 -1.5079
 2682SOL    HW219506   2.858   0.735   7.529  2.5868  2.4895 -0.5657
 2683SOL     OW19507   1.586   2.812  15.492  0.5327 -0.0167 -0.0454
 2683SOL    HW119508   1.673   2.849  15.508  1.6403 -2.3389 -0.7399
 2683SOL    HW219509   1.549   2.853  15.570  0.4366  1.6401 -0.9567
 2684SOL     OW19510   1.427   2.214  13.195 -0.0148  0.2824 -0.2028
 2684SOL    HW119511   1.353   2.261  13.158  0.0269  0.8206  0.3940
 2684SOL    HW219512   1.478   2.284  13.235  1.0164 -0.5468 -0.0447
 2685SOL     OW19513   1.501   1.542   7.733 -0.0468  0.0445 -0.5736
 2685SOL    HW119514   1.407   1.537   7.751 -0.0210  2.0633  0.1469
 2685SOL    HW219515   1.530   1.619   7.782 -2.7893  0.0372  1.0850
 2686SOL     OW19516   1.208   2.085   8.654  1.2279  0.0532 -0.7296
 2686SOL    HW119517   1.193   2.004   8.605 -0.1088  1.2121 -2.2349
 2686SOL    HW219518   1.222   2.152   8.587  3.1908  1.2022  0.8402
 2687SOL     OW19519   1.624   0.764   4.116 -0.1756 -0.0641  0.0847
 2687SOL    HW119520   1.550   0.823   4.104 -0.9188 -1.3144 -1.5781
 2687SOL    HW219521   1.598   0.724   4.199 -1.6130  2.9102  1.0565
 2688SOL     OW19522   1.373   2.645   1.627 -0.2397 -0.0110  0.0249
 2688SOL    HW119523   1.443   2.705   1.603  0.3789 -0.6068  0.3552
 2688SOL    HW219524   1.333   2.694   1.699 -1.5741 -1.2018  0.0953
 2689SOL     OW19525   4.111   0.837   2.708  0.4879 -0.3107  1.4535
 2689SOL    HW119526   4.034   0.893   2.714 -0.0486 -0.7210 -1.7265
 2689SOL    HW219527   4.061   0.759   2.734 -1.9363  1.6522  2.6345
 2690SOL     OW19528   0.431   1.798   4.556  0.4128 -0.3364 -0.1093
 2690SOL    HW119529   0.366   1.814   4.488  0.9290  0.2461 -0.4657
 2690SOL    HW219530   0.504   1.748   4.519  0.1289 -0.9618  0.1778
 2691SOL     OW19531   1.965   2.082  17.036 -0.1071  0.0751  0.0515
 2691SOL    HW119532   1.913   2.029  16.976 -1.4034  1.0202  0.3433
 2691SOL    HW219533   1.921   2.063  17.119 -1.0134 -2.2676 -0.9839
 2692SOL     OW19534   1.274   2.605   5.053 -0.1383 -0.0688 -0.2284
 2692SOL    HW119535   1.344   2.594   4.989  1.1219  1.4431  0.8578
 2692SOL    HW219536   1.308   2.554   5.127 -1.7735  0.8306  1.1581
 2693SOL     OW19537   2.516   3.628  16.879 -0.0290 -0.3171  0.6458
 2693SOL    HW119538   2.597   3.613  16.928  1.0513  0.9386 -0.7539
 2693SOL    HW219539   2.448   3.627  16.946 -3.4410 -1.1023 -2.8164
 2694SOL     OW19540   1.424   0.440  15.288  0.1935  0.2773 -0.0736
 2694SOL    HW119541   1.468   0.356  15.283 -0.8153 -0.2765  0.4754
 2694SOL    HW219542   1.492   0.483  15.339  1.2487 -1.4263 -0.0627
 2695SOL     OW19543   4.182   2.831   8.104 -0.0620 -0.2537  0.2332
 2695SOL    HW119544   4.236   2.855   8.028  0.2602  2.1807  1.2508
 2695SOL    HW219545   4.115   2.780   8.059  1.0742 -2.5383  1.1212
 2696SOL     OW19546   4.567   3.374   3.193 -0.3599 -0.1554 -0.7372
 2696SOL    HW119547   4.623   3.411   3.125 -2.3287  1.5129 -1.4887
 2696SOL    HW219548   4.486   3.374   3.140  0.1203  0.5420 -1.4755
 2697SOL     OW19549   4.290   0.437  15.756 -0.7248 -0.0782 -0.2734
 2697SOL    HW119550   4.237   0.510  15.724  2.4086  1.8873 -0.9896
 2697SOL    HW219551   4.227   0.366  15.762 -0.2299 -0.5380 -0.4954
 2698SOL     OW19552   0.617   3.963   2.915  0.8628  0.0298  0.0230
 2698SOL    HW119553   0.634   4.003   3.000 -0.6319 -0.8654  0.7488
 2698SOL    HW219554   0.684   4.006   2.862  0.1617 -2.1482 -2.5889
 2699SOL     OW19555   3.170   1.355  13.353  0.1291  0.1566  0.3803
 2699SOL    HW119556   3.237   1.364  13.285 -0.9554 -0.2796 -0.7441
 2699SOL    HW219557   3.140   1.446  13.362  0.4810  0.3257 -0.1439
 2700SOL     OW19558   1.234   3.180   2.956 -0.2205  0.3945  0.4484
 2700SOL    HW119559   1.216   3.182   3.050  1.5383 -1.1500  0.8134
 2700SOL    HW219560   1.170   3.122   2.914  0.4325 -0.2143  0.3102
 2701SOL     OW19561   0.410   1.578   5.843  0.4113 -0.0752  0.2896
 2701SOL    HW119562   0.502   1.586   5.819  0.0891  3.1597  0.1882
 2701SOL    HW219563   0.383   1.669   5.833 -0.7754 -0.4688 -0.1271
 2702SOL     OW19564   0.453   2.015  14.760  0.3803 -0.1233  0.2886
 2702SOL    HW119565   0.407   2.068  14.825 -0.8436  0.5809 -1.1614
 2702SOL    HW219566   0.438   2.069  14.682  1.4035  1.9356  1.5259
 2703SOL     OW19567   2.617   2.030   7.290 -0.2955  0.1442 -0.2802
 2703SOL    HW119568   2.535   1.984   7.272 -0.5177  0.4119  0.0558
 2703SOL    HW219569   2.599   2.042   7.383  1.0383 -1.0433  0.1323
 2704SOL     OW19570   4.505   4.665  11.001 -0.3680  0.1719 -0.7850
 2704SOL    HW119571   4.494   4.580  10.958  2.3609 -0.1457 -0.8151
 2704SOL    HW219572   4.503   4.649  11.095 -1.9910  0.4717 -0.7662
 2705SOL     OW19573   0.329   2.089   3.097  0.4666 -0.0369  0.0376
 2705SOL    HW119574   0.312   2.175   3.058  0.2522 -0.4612 -0.8084
 2705SOL    HW219575   0.316   2.110   3.190  1.9196  1.4538 -0.1073
 2706SOL     OW19576   2.080   1.370   8.799  0.0947  0.4442  0.2063
 2706SOL    HW119577   2.156   1.334   8.845  0.1999 -2.1092 -1.9609
 2706SOL    HW219578   2.016   1.374   8.870 -0.0503  0.4016  0.0762
 2707SOL     OW19579   2.131   2.276   7.007  0.1485 -0.8900  0.5012
 2707SOL    HW119580   2.161   2.367   7.010 -1.3122 -0.3824 -0.0420
 2707SOL    HW219581   2.214   2.239   7.036  0.2924 -1.5295 -0.7240
 2708SOL     OW19582   2.786   1.530   4.371 -0.6070  0.0372 -0.1218
 2708SOL    HW119583   2.775   1.495   4.459  0.8811  1.7583  0.7616
 2708SOL    HW219584   2.799   1.623   4.394  1.5361 -0.2906  0.0324
 2709SOL     OW19585   3.433   2.393  12.019 -0.2218  0.2780  0.0053
 2709SOL    HW119586   3.403   2.436  12.099 -0.9238 -0.7721  0.3132
 2709SOL    HW219587   3.439   2.302  12.050  0.6579  0.4462  0.3330
 2710SOL     OW19588   0.921   1.074   3.928  0.3406 -0.4660  0.1785
 2710SOL    HW119589   0.934   1.136   4.000 -0.0058  0.9384 -0.9765
 2710SOL    HW219590   0.995   1.090   3.869  0.0541  0.0647 -0.0308
 2711SOL     OW19591   1.349   4.635  17.421 -0.5598 -0.4817  0.2264
 2711SOL    HW119592   1.307   4.703  17.473  1.2433 -1.1551  2.5835
 2711SOL    HW219593   1.319   4.661  17.334 -2.3201  1.3688  1.4037
 2712SOL     OW19594   1.896   0.528   7.642  0.1530 -0.1244 -0.6087
 2712SOL    HW119595   1.880   0.515   7.736  0.7603 -2.6085 -0.8440
 2712SOL    HW219596   1.977   0.480   7.623  0.7617  0.4758  0.4498
 2713SOL     OW19597   2.279   1.332   4.305 -0.4594 -0.0272 -0.5728
 2713SOL    HW119598   2.291   1.342   4.399 -4.0909  1.5872 -0.2700
 2713SOL    HW219599   2.359   1.285   4.284 -0.7013 -0.0440 -1.4737
 2714SOL     OW19600   1.154   2.011   6.749  0.2487  0.1863  0.5208
 2714SOL    HW119601   1.104   2.073   6.696  0.8998 -0.7292 -1.1803
 2714SOL    HW219602   1.099   1.935   6.767 -0.8724  1.5518  2.8322
 2715SOL     OW19603   0.681   2.496  11.842 -0.7930 -0.0858 -0.2595
 2715SOL    HW119604   0.740   2.534  11.907  1.9561 -0.5419 -2.4735
 2715SOL    HW219605   0.738   2.440  11.790  1.1400  1.6531  0.0113
 2716SOL     OW19606   3.615   3.733   6.389 -0.3626  0.2164 -0.4632
 2716SOL    HW119607   3.540   3.687   6.349 -0.9115  1.6266 -1.0430
 2716SOL    HW219608   3.573   3.809   6.429 -3.3155 -1.2385 -0.7361
 2717SOL     OW19609   3.534   1.546   9.449 -0.9446 -0.2194  0.5340
 2717SOL    HW119610   3.460   1.488   9.463 -1.3149  0.0724 -0.2278
 2717SOL    HW219611   3.510   1.622   9.502  0.0502  0.3194  0.2266
 2718SOL     OW19612   3.342   3.291   1.306 -0.3352  0.3623  0.0715
 2718SOL    HW119613   3.253   3.309   1.338 -0.9673  0.0039 -1.4732
 2718SOL    HW219614   3.392   3.345   1.367  0.3820  0.0991 -0.2862
 2719SOL     OW19615   4.271   1.532   4.624 -0.4641  0.4212  0.1356
 2719SOL    HW119616   4.298   1.616   4.586  1.5447 -0.3810 -0.2429
 2719SOL    HW219617   4.180   1.543   4.651 -1.1684 -1.7430 -1.3506
 2720SOL     OW19618   3.893   1.017   2.766  0.1387 -0.0281  0.0205
 2720SOL    HW119619   3.875   1.027   2.860  0.4395 -1.2678  0.2058
 2720SOL    HW219620   3.884   1.112   2.755 -1.5744 -0.2996 -0.9339
 2721SOL     OW19621   3.393   0.988  11.057  0.0875  0.0868  0.1715
 2721SOL    HW119622   3.333   1.060  11.076 -0.2220 -0.0980 -0.0895
 2721SOL    HW219623   3.346   0.906  11.038  0.8738 -0.5253  0.8934
 2722SOL     OW19624   1.968   4.655   5.250 -0.2659  0.0042 -0.7676
 2722SOL    HW119625   2.009   4.640   5.335  0.2932  1.7397 -0.7386
 2722SOL    HW219626   1.971   4.562   5.227 -0.7886 -0.4016  0.8147
 2723SOL     OW19627   2.116   2.668   6.672  0.2195 -0.3127 -0.3262
 2723SOL    HW119628   2.052   2.597   6.665  0.6492 -0.8239  0.8152
 2723SOL    HW219629   2.189   2.634   6.621 -0.4215 -0.6144 -1.0317
 2724SOL     OW19630   3.455   2.306   2.014 -0.0134 -0.5682  0.5954
 2724SOL    HW119631   3.530   2.348   2.057 -1.6617  1.0379  1.8964
 2724SOL    HW219632   3.479   2.320   1.923 -0.6787 -2.4771  0.1282
 2725SOL     OW19633   2.810   3.975  11.369  0.4871 -0.2167  0.0613
 2725SOL    HW119634   2.893   4.003  11.332 -0.2173  1.0236 -0.5639
 2725SOL    HW219635   2.816   3.880  11.357 -1.9014 -0.4473  0.6004
 2726SOL     OW19636   3.293   2.153   6.758 -0.7922 -0.1243 -0.2498
 2726SOL    HW119637   3.370   2.185   6.710 -1.9215  1.5140 -0.9423
 2726SOL    HW219638   3.233   2.227   6.760  2.6706  2.5665  2.9182
 2727SOL     OW19639   1.631   0.197   7.713 -0.6117 -0.0924  0.6341
 2727SOL    HW119640   1.544   0.231   7.733 -0.5238  0.6037 -0.1931
 2727SOL    HW219641   1.664   0.171   7.800  1.0166  0.4830  0.1929
 2728SOL     OW19642   0.007   1.117   0.171 -0.1950  0.4419 -0.2454
 2728SOL    HW119643   0.060   1.170   0.112  1.6572 -1.7792 -0.5772
 2728SOL    HW219644   0.060   1.123   0.250 -1.8930  1.9466  0.7663
 2729SOL     OW19645   3.849   3.605  15.006 -0.1450  0.2213  0.1108
 2729SOL    HW119646   3.760   3.620  15.038 -0.1216  0.4866  0.0505
 2729SOL    HW219647   3.898   3.584  15.086  1.0045  0.8394 -0.4318
 2730SOL     OW19648   2.415   0.120   7.740 -0.6737  0.4293  0.3164
 2730SOL    HW119649   2.510   0.129   7.731 -0.8535  1.7384 -0.3862
 2730SOL    HW219650   2.404   0.025   7.743  2.3838  0.0787  0.1022
 2731SOL     OW19651   1.799   0.486   6.066 -0.3049 -1.1888 -0.1113
 2731SOL    HW119652   1.741   0.431   6.014  0.2239 -0.1734 -1.7942
 2731SOL    HW219653   1.743   0.552   6.106 -0.0452 -1.2443  0.3502
 2732SOL     OW19654   2.907   4.041   2.409 -0.9556 -0.1418 -0.3452
 2732SOL    HW119655   2.830   3.985   2.401  0.4174 -2.1399  0.2393
 2732SOL    HW219656   2.884   4.121   2.361  2.3372  1.4114  0.6565
 2733SOL     OW19657   1.781   2.707   1.867  0.0192 -0.0307  0.5966
 2733SOL    HW119658   1.811   2.738   1.782 -2.0318 -1.8199 -0.7595
 2733SOL    HW219659   1.728   2.632   1.838  0.3921 -0.1457  0.2236
 2734SOL     OW19660   4.386   0.050   0.442  0.2862 -0.1363 -0.2904
 2734SOL    HW119661   4.372   0.026   0.350 -1.5074  0.7553 -0.2680
 2734SOL    HW219662   4.446   4.697   0.456 -0.7350 -0.6681  1.2902
 2735SOL     OW19663   4.356   2.694   5.186 -0.3419  0.5296 -0.0833
 2735SOL    HW119664   4.327   2.746   5.112 -0.5371 -1.5029 -1.4336
 2735SOL    HW219665   4.273   2.685   5.233 -1.1067 -0.0196 -1.5493
 2736SOL     OW19666   0.284   2.759   3.884 -0.6362  0.3648 -0.1986
 2736SOL    HW119667   0.352   2.743   3.950 -0.9288 -1.2263 -0.2708
 2736SOL    HW219668   0.332   2.756   3.802 -1.1535 -0.2916 -0.4774
 2737SOL     OW19669   1.740   3.925  10.123  0.1992 -0.9709 -0.2065
 2737SOL    HW119670   1.744   3.831  10.137  1.4294 -1.1215 -1.4810
 2737SOL    HW219671   1.766   3.958  10.209  2.8363 -0.9075 -1.0184
 2738SOL     OW19672   3.338   1.273   9.506 -0.1993 -0.2570 -0.3939
 2738SOL    HW119673   3.280   1.197   9.508  1.6999 -1.6782  1.1520
 2738SOL    HW219674   3.320   1.306   9.594  2.8296  0.6218 -0.0996
 2739SOL     OW19675   1.439   1.759   4.619  0.4537  0.4788  0.2031
 2739SOL    HW119676   1.382   1.776   4.544  0.6790 -0.8228 -0.2553
 2739SOL    HW219677   1.390   1.801   4.690 -1.9534 -1.7501 -0.1828
 2740SOL     OW19678   0.252   0.177  17.432  0.5290 -0.4256  0.1296
 2740SOL    HW119679   0.271   0.266  17.402 -1.5199 -0.6966 -1.9140
 2740SOL    HW219680   0.156   0.176  17.434  0.5409 -0.3169  0.8737
 2741SOL     OW19681   1.954   0.738   5.526 -0.2830  0.4216 -0.3868
 2741SOL    HW119682   1.990   0.728   5.438  0.9991 -0.5147  0.2518
 2741SOL    HW219683   2.028   0.735   5.585 -0.2718  0.8769 -0.3776
 2742SOL     OW19684   0.371   3.873   4.324  0.1805 -0.1319  0.1954
 2742SOL    HW119685   0.445   3.930   4.304 -0.9215  1.4307  0.5861
 2742SOL    HW219686   0.360   3.892   4.417  1.8535  0.8701  0.1878
 2743SOL     OW19687   2.585   0.715   9.439  0.1103  0.0254 -0.0334
 2743SOL    HW119688   2.492   0.736   9.439  0.6379  2.4405  0.8074
 2743SOL    HW219689   2.604   0.700   9.347  0.3368  1.6652 -0.2592
 2744SOL     OW19690   0.239   4.621   6.646  0.2899 -0.2900 -0.6326
 2744SOL    HW119691   0.182   4.544   6.649  0.0138 -0.0555  0.0738
 2744SOL    HW219692   0.313   4.604   6.703 -1.6059 -0.0705  1.8615
 2745SOL     OW19693   2.185   0.041   5.790 -0.3034  0.4530  0.1095
 2745SOL    HW119694   2.215   0.121   5.747 -0.4160  0.0934 -0.6539
 2745SOL    HW219695   2.140   0.077   5.866  2.8875 -1.3472  2.8206
 2746SOL     OW19696   3.745   1.729   8.395  0.0631 -0.2060 -0.1448
 2746SOL    HW119697   3.673   1.772   8.441 -0.7606 -0.1263 -1.5146
 2746SOL    HW219698   3.704   1.669   8.333  0.5362 -0.7861  0.1067
 2747SOL     OW19699   1.420   0.190  16.819 -1.0122 -0.0102 -0.2127
 2747SOL    HW119700   1.431   0.285  16.819 -2.5515  0.1612 -3.4862
 2747SOL    HW219701   1.326   0.182  16.834 -1.0532  1.3947  0.2337
 2748SOL     OW19702   2.249   3.864  15.501 -0.0464 -0.5517 -0.1003
 2748SOL    HW119703   2.220   3.836  15.588  2.6043 -0.8834  0.6860
 2748SOL    HW219704   2.265   3.956  15.523  2.2278 -0.4824 -2.1335
 2749SOL     OW19705   3.661   2.182  13.632  0.2399  0.1128 -0.0341
 2749SOL    HW119706   3.580   2.209  13.675 -0.4299 -1.3764 -0.3690
 2749SOL    HW219707   3.634   2.106  13.581  1.9461 -0.7904  0.3983
 2750SOL     OW19708   1.150   0.423  13.383 -0.2754 -0.5924 -0.0061
 2750SOL    HW119709   1.097   0.480  13.439  0.4423 -0.9705  1.0590
 2750SOL    HW219710   1.102   0.340  13.394 -0.1427 -0.3588  2.2825
 2751SOL     OW19711   3.981   0.612   5.516  0.1831  0.0694  0.1893
 2751SOL    HW119712   4.024   0.612   5.431  0.0447  0.4006  0.1194
 2751SOL    HW219713   3.897   0.573   5.491 -1.2459  2.5504  1.1749
 2752SOL     OW19714   3.230   1.712   3.926 -0.4524  0.1144 -0.2826
 2752SOL    HW119715   3.261   1.653   3.858  0.0241 -0.3885  0.3699
 2752SOL    HW219716   3.138   1.690   3.941 -0.4795  0.1087 -0.4526
 2753SOL     OW19717   1.398   3.104  14.315 -0.1890  0.1349 -0.3242
 2753SOL    HW119718   1.463   3.110  14.245 -1.6277  1.4500 -1.5451
 2753SOL    HW219719   1.328   3.160  14.281  1.2035  1.9057 -0.2535
 2754SOL     OW19720   1.807   3.395   0.416  0.3440  0.0784  0.0257
 2754SOL    HW119721   1.756   3.392   0.497  0.2833 -0.3846 -0.0294
 2754SOL    HW219722   1.842   3.306   0.412 -0.3762 -0.0629 -2.6544
 2755SOL     OW19723   2.417   0.754   1.640 -0.3694  0.1187 -0.5562
 2755SOL    HW119724   2.369   0.705   1.574 -0.8402  1.5999 -1.3186
 2755SOL    HW219725   2.438   0.686   1.704 -1.5822 -2.0609 -2.4772
 2756SOL     OW19726   3.940   3.632   6.559 -0.2490 -0.1490  0.0404
 2756SOL    HW119727   3.853   3.653   6.592 -0.1542 -1.4404  1.1342
 2756SOL    HW219728   3.930   3.558   6.498  0.5752 -0.1831 -0.0612
 2757SOL     OW19729   2.443   2.797   2.913  0.3114 -0.1891  0.0855
 2757SOL    HW119730   2.425   2.883   2.950 -0.6042 -0.7750  0.9729
 2757SOL    HW219731   2.524   2.810   2.863  0.0187  2.4359  0.2563
 2758SOL     OW19732   1.915   0.856   3.866  0.0666 -0.3511 -0.7699
 2758SOL    HW119733   2.007   0.880   3.872 -0.4227  1.3267 -0.0903
 2758SOL    HW219734   1.925   0.790   3.797  2.2590 -1.8673  0.9982
 2759SOL     OW19735   3.621   4.376   7.854  0.2564  0.1508  0.4617
 2759SOL    HW119736   3.549   4.370   7.792  1.1888  1.2679 -0.7221
 2759SOL    HW219737   3.572   4.384   7.936  0.7215 -0.2601  0.7828
 2760SOL     OW19738   4.117   4.354   0.772 -0.1335 -0.7706  0.5446
 2760SOL    HW119739   4.072   4.345   0.689 -2.2936 -1.6109  1.8021
 2760SOL    HW219740   4.167   4.435   0.761  1.3373 -1.5488  1.4052
 2761SOL     OW19741   1.779   2.535  15.471  0.4609  0.1929 -0.1981
 2761SOL    HW119742   1.794   2.440  15.473 -2.4822 -0.2766  0.4267
 2761SOL    HW219743   1.691   2.545  15.434  0.7884  0.2848 -0.9415
 2762SOL     OW19744   1.234   2.937  10.120  0.6391  0.2224 -0.0376
 2762SOL    HW119745   1.246   3.008  10.183 -0.1119 -0.7214  1.1668
 2762SOL    HW219746   1.230   2.859  10.174 -1.1726  0.3603  0.0355
 2763SOL     OW19747   3.540   2.078   8.603  0.1104  0.2983 -0.1547
 2763SOL    HW119748   3.521   2.081   8.697 -1.2006  1.3636 -0.4415
 2763SOL    HW219749   3.624   2.034   8.616 -1.0339 -0.8585  3.3315
 2764SOL     OW19750   4.406   3.515   0.595  0.0635  0.6661 -0.5475
 2764SOL    HW119751   4.384   3.422   0.593 -3.0942  1.3929  1.0520
 2764SOL    HW219752   4.373   3.538   0.682  1.5372  1.2322 -0.1328
 2765SOL     OW19753   4.609   2.669   2.506  0.2531 -0.0495  0.2210
 2765SOL    HW119754   4.646   2.588   2.541  1.4219  0.3297 -0.1262
 2765SOL    HW219755   4.578   2.724   2.578  2.3053  0.7949  0.4790
 2766SOL     OW19756   1.144   0.411   2.831 -0.3569 -0.9525 -0.5126
 2766SOL    HW119757   1.164   0.505   2.832 -1.5823 -0.7037 -0.1964
 2766SOL    HW219758   1.163   0.390   2.923 -0.4043 -1.2062 -0.5612
 2767SOL     OW19759   4.466   4.711   7.819  0.9390 -0.6380  0.1876
 2767SOL    HW119760   4.509   4.647   7.876  1.5569  0.3405  0.8109
 2767SOL    HW219761   4.535   0.045   7.780  0.2728  0.9089  1.1231
 2768SOL     OW19762   4.561   4.137   6.755  0.1167 -0.1786 -0.2379
 2768SOL    HW119763   4.473   4.165   6.783 -0.1595 -0.8244 -0.4606
 2768SOL    HW219764   4.555   4.140   6.660 -1.8675  0.7616 -0.0918
 2769SOL     OW19765   0.161   4.009   9.094  0.5276 -0.1981 -0.0853
 2769SOL    HW119766   0.079   3.986   9.049  1.1761 -1.8713 -0.4065
 2769SOL    HW219767   0.187   4.078   9.033  0.5568 -0.5745 -0.5038
 2770SOL     OW19768   1.257   3.073   1.942 -0.1816  0.1548  0.3215
 2770SOL    HW119769   1.196   3.140   1.912 -0.8304 -0.6254 -0.0965
 2770SOL    HW219770   1.327   3.118   1.990 -0.0079 -1.5229  1.6336
 2771SOL     OW19771   3.274   0.064  12.859 -0.1862 -0.1646  0.3957
 2771SOL    HW119772   3.315   0.003  12.921 -1.7695 -0.0917  1.4981
 2771SOL    HW219773   3.199   0.008  12.842  0.2501 -0.1033 -1.6687
 2772SOL     OW19774   3.831   1.622   1.615 -0.1209  0.5361 -0.9842
 2772SOL    HW119775   3.777   1.700   1.615  0.0628  0.6632 -2.1454
 2772SOL    HW219776   3.879   1.635   1.533 -0.6539  2.4647 -0.9789
 2773SOL     OW19777   4.515   1.972  14.102 -0.1831  0.1761 -0.0366
 2773SOL    HW119778   4.493   1.948  14.012 -1.5540 -1.5148  0.7588
 2773SOL    HW219779   4.505   1.894  14.156 -0.7368  0.9998  1.0607
 2774SOL     OW19780   1.792   2.769   6.423 -0.0695 -0.1734  0.1374
 2774SOL    HW119781   1.712   2.718   6.439 -1.2170  1.0058 -1.8628
 2774SOL    HW219782   1.845   2.706   6.374 -1.2911 -0.5374 -0.7040
 2775SOL     OW19783   2.766   3.453   0.650  0.0001 -0.2855  0.2313
 2775SOL    HW119784   2.697   3.475   0.587  2.2337 -2.4893 -2.9545
 2775SOL    HW219785   2.716   3.395   0.707 -1.0544  1.0198  0.6581
 2776SOL     OW19786   3.000   3.460  16.485  0.0912  0.2492 -0.3107
 2776SOL    HW119787   2.940   3.484  16.414 -1.0904  0.3762  0.7146
 2776SOL    HW219788   3.020   3.372  16.455  2.5606  1.1866 -1.3799
 2777SOL     OW19789   0.392   1.764   1.467  0.0781 -0.3023 -0.3758
 2777SOL    HW119790   0.399   1.669   1.471 -1.7197 -0.4252  0.2123
 2777SOL    HW219791   0.369   1.770   1.374 -1.4290 -0.3826 -0.0073
 2778SOL     OW19792   3.091   4.206   8.523  0.3744  0.4906 -0.4752
 2778SOL    HW119793   3.181   4.186   8.496  0.8483  0.6564  1.0042
 2778SOL    HW219794   3.104   4.181   8.614  1.2053 -0.7534 -0.9330
 2779SOL     OW19795   1.862   2.252   2.950  0.0029  0.3070  0.0419
 2779SOL    HW119796   1.886   2.275   3.040 -1.1587  0.5640  0.2944
 2779SOL    HW219797   1.893   2.162   2.947  0.5905  0.4988  0.2418
 2780SOL     OW19798   3.479   3.873   6.693  0.5218 -0.2956  0.1702
 2780SOL    HW119799   3.530   3.947   6.725  1.7780 -0.7582 -0.7501
 2780SOL    HW219800   3.528   3.865   6.611 -2.0034  2.9041 -1.6739
 2781SOL     OW19801   0.347   2.706   4.963 -0.1332  0.5075  0.0674
 2781SOL    HW119802   0.262   2.662   4.955 -0.1458  0.6336 -0.4887
 2781SOL    HW219803   0.402   2.648   5.016  1.4165  1.4624 -0.5001
 2782SOL     OW19804   2.418   4.186   4.003 -0.2288 -0.1620 -0.3699
 2782SOL    HW119805   2.484   4.146   3.947  1.3301  0.8397  0.7732
 2782SOL    HW219806   2.424   4.118   4.070 -1.3824 -0.9735 -1.0840
 2783SOL     OW19807   2.294   4.305   7.842 -0.0665 -0.3379 -0.1911
 2783SOL    HW119808   2.233   4.271   7.776  0.9494 -0.4481 -1.0799
 2783SOL    HW219809   2.347   4.226   7.845  1.2642  0.4605 -2.1417
 2784SOL     OW19810   4.707   3.102   7.830  0.0443 -0.5255  0.3620
 2784SOL    HW119811   4.614   3.085   7.841 -0.0782 -1.4745 -2.0318
 2784SOL    HW219812   0.003   3.168   7.898 -0.1201 -1.4237  1.2599
 2785SOL     OW19813   2.157   4.177   0.159  0.5269  0.4806  0.9170
 2785SOL    HW119814   2.112   4.224   0.230 -0.0432  0.7726  0.3630
 2785SOL    HW219815   2.185   4.250   0.104  1.4024 -2.2047 -2.1696
 2786SOL     OW19816   0.115   2.666  15.524  0.0841  0.1824 -0.2724
 2786SOL    HW119817   0.098   2.760  15.532 -0.6601 -0.1185  1.7612
 2786SOL    HW219818   0.204   2.668  15.490 -0.0671 -1.4034 -0.7541
 2787SOL     OW19819   3.076   4.399   3.477 -0.3662 -0.2703 -0.1285
 2787SOL    HW119820   3.006   4.461   3.495  0.2756  0.5664 -0.4742
 2787SOL    HW219821   3.035   4.315   3.456  0.5906  0.2854 -4.2430
 2788SOL     OW19822   1.460   1.648   8.405 -0.3909  0.3333  0.0891
 2788SOL    HW119823   1.489   1.559   8.422  4.1136  1.5795 -1.2442
 2788SOL    HW219824   1.393   1.663   8.473 -2.0583 -1.3172 -1.1984
 2789SOL     OW19825   4.700   2.056   7.735  0.0305 -0.2085  0.0859
 2789SOL    HW119826   0.023   2.102   7.663 -0.1237  0.7985  0.6340
 2789SOL    HW219827   4.614   2.045   7.694 -1.0546  1.2801  1.9808
 2790SOL     OW19828   2.196   4.496   5.810  0.6745  0.5247  0.2334
 2790SOL    HW119829   2.178   4.590   5.805 -0.5000  0.3126  0.4299
 2790SOL    HW219830   2.201   4.487   5.905 -0.6185  2.3268  0.4795
 2791SOL     OW19831   0.624   2.235   0.410  0.0872  0.7390 -0.5920
 2791SOL    HW119832   0.631   2.331   0.409 -1.3728  0.8522  0.2733
 2791SOL    HW219833   0.574   2.213   0.489 -0.8801 -0.3908 -1.5312
 2792SOL     OW19834   1.864   2.442   8.844  0.3028  0.0251  0.1851
 2792SOL    HW119835   1.941   2.404   8.887 -0.2618  0.6268  1.7592
 2792SOL    HW219836   1.866   2.407   8.755  0.3948 -1.0600  0.6170
 2793SOL     OW19837   0.959   1.802   6.013  0.0681 -0.1508  0.8470
 2793SOL    HW119838   1.026   1.773   5.951  0.1770  1.6143  0.1524
 2793SOL    HW219839   0.924   1.884   5.978  1.2241  0.3546  0.8772
 2794SOL     OW19840   4.559   4.500   4.378 -0.2248  0.3271  0.0191
 2794SOL    HW119841   4.471   4.535   4.391  0.2321  1.2617  0.5982
 2794SOL    HW219842   4.592   4.567   4.318  0.8018 -1.0306 -0.9103
 2795SOL     OW19843   0.861   2.838   6.472 -0.6303 -0.4490 -0.1865
 2795SOL    HW119844   0.787   2.824   6.413 -0.4154 -1.6005 -0.1863
 2795SOL    HW219845   0.898   2.918   6.434 -0.3392 -1.2533 -1.5782
 2796SOL     OW19846   4.337   3.520   5.502  0.3999  0.5515  0.0929
 2796SOL    HW119847   4.309   3.580   5.571 -0.9373  0.5448 -0.4296
 2796SOL    HW219848   4.381   3.447   5.545  0.3458  0.3795 -0.1376
 2797SOL     OW19849   0.342   0.492   1.536 -0.3965  0.1713  0.6536
 2797SOL    HW119850   0.320   0.582   1.509 -0.0099  0.2683  0.6585
 2797SOL    HW219851   0.272   0.474   1.597 -1.8713  0.4901 -0.9334
 2798SOL     OW19852   4.625   3.312   9.928 -0.3433  0.0342 -0.2778
 2798SOL    HW119853   4.634   3.301  10.023 -0.3681  1.5052 -0.1050
 2798SOL    HW219854   4.532   3.290   9.919 -0.8965  1.9952  0.5972
 2799SOL     OW19855   3.599   0.260   3.808  0.5980  0.9098  0.2058
 2799SOL    HW119856   3.644   0.177   3.823 -0.1641  0.1617 -1.6192
 2799SOL    HW219857   3.512   0.237   3.775 -0.0878  1.2611  1.7762
 2800SOL     OW19858   2.311   2.061   1.950  0.1729 -0.4585  0.1157
 2800SOL    HW119859   2.312   1.977   1.997 -1.9797 -0.5867 -0.0654
 2800SOL    HW219860   2.405   2.074   1.938  0.1684  1.1804  1.8588
 2801SOL     OW19861   1.844   0.804  13.351 -0.6415 -0.0924  0.4672
 2801SOL    HW119862   1.774   0.742  13.331  0.3399 -0.9945 -0.2353
 2801SOL    HW219863   1.847   0.801  13.447 -1.5097 -0.4191  0.4853
 2802SOL     OW19864   2.328   0.649   2.405 -0.1031 -0.1220 -0.3269
 2802SOL    HW119865   2.320   0.555   2.393 -2.0823 -0.1244  0.9883
 2802SOL    HW219866   2.245   0.668   2.448  0.6892 -1.8991  1.9684
 2803SOL     OW19867   2.170   0.208   3.345  0.2195 -0.1555 -0.4696
 2803SOL    HW119868   2.153   0.169   3.259  0.4661  0.1835 -0.6733
 2803SOL    HW219869   2.127   0.292   3.331 -1.3450 -0.9124 -0.1487
 2804SOL     OW19870   4.067   1.143  10.350  0.1079  0.6132  0.3593
 2804SOL    HW119871   4.123   1.073  10.383 -0.2880 -0.5623 -1.5085
 2804SOL    HW219872   4.046   1.191  10.431  0.5504 -1.9438  1.9670
 2805SOL     OW19873   3.251   0.419   0.718  0.2516  0.4365 -1.0667
 2805SOL    HW119874   3.247   0.489   0.783 -0.9323  1.1091 -1.8582
 2805SOL    HW219875   3.284   0.343   0.766  0.1702  0.8486 -0.3687
 2806SOL     OW19876   3.546   4.594   9.643 -0.2123 -0.1960 -0.7126
 2806SOL    HW119877   3.576   4.580   9.554 -2.2793 -0.4520 -1.3835
 2806SOL    HW219878   3.457   4.564   9.623 -0.4914  1.3867 -1.7994
 2807SOL     OW19879   1.623   2.252   1.829 -0.3541 -0.1512  0.5954
 2807SOL    HW119880   1.610   2.167   1.873 -2.0418  0.1646  0.7140
 2807SOL    HW219881   1.541   2.292   1.859 -0.1397 -0.0136  0.9958
 2808SOL     OW19882   4.287   0.929  16.993 -0.0533  0.1255 -0.2096
 2808SOL    HW119883   4.228   0.929  17.068  1.7884  0.1232  1.2374
 2808SOL    HW219884   4.252   0.873  16.924 -0.6906 -1.2072  1.2037
 2809SOL     OW19885   0.161   2.802  16.884  0.5512  0.1770 -0.2586
 2809SOL    HW119886   0.119   2.716  16.890 -0.7242  1.0351  3.7411
 2809SOL    HW219887   0.243   2.786  16.931  0.9011  0.3423 -0.8226
 2810SOL     OW19888   0.858   3.023  12.143  0.1377 -0.5302  0.2671
 2810SOL    HW119889   0.771   2.985  12.151 -0.2018  0.1018 -0.4799
 2810SOL    HW219890   0.888   3.036  12.233 -2.7621 -2.9321  1.5461
 2811SOL     OW19891   4.344   0.899   0.987 -0.4700  0.2573 -0.4809
 2811SOL    HW119892   4.352   0.822   1.044  0.3482  1.1922  0.6628
 2811SOL    HW219893   4.297   0.966   1.036  1.0773 -0.3019  1.7547
 2812SOL     OW19894   0.028   0.963   7.768 -0.1824  0.5950  0.5935
 2812SOL    HW119895   4.653   0.953   7.757  0.3399 -1.7291 -1.8361
 2812SOL    HW219896   0.033   0.966   7.863  2.1785 -0.8262  0.5228
 2813SOL     OW19897   2.599   2.997  16.529 -0.7802  0.1456  0.2472
 2813SOL    HW119898   2.571   2.927  16.588  2.1677 -1.9223 -0.8168
 2813SOL    HW219899   2.656   3.044  16.590 -0.8613 -0.9519  1.1572
 2814SOL     OW19900   3.522   2.506   5.801  0.2456 -0.5658 -0.3250
 2814SOL    HW119901   3.568   2.437   5.754  4.0336  3.3855 -2.4266
 2814SOL    HW219902   3.544   2.484   5.891  0.8361  2.8709  0.3803
 2815SOL     OW19903   1.946   2.461   5.923  0.5761 -0.2028 -0.5635
 2815SOL    HW119904   1.891   2.461   6.001 -0.5534  0.9759 -1.3555
 2815SOL    HW219905   1.926   2.369   5.906  2.0866 -0.4453 -1.0559
 2816SOL     OW19906   1.343   0.165   5.525 -0.6521  0.2836  0.0048
 2816SOL    HW119907   1.340   0.260   5.536  0.4798  0.4866 -1.4312
 2816SOL    HW219908   1.255   0.135   5.503 -0.3685 -0.2869 -0.3487
 2817SOL     OW19909   1.598   4.304  10.007 -0.1211  0.3733 -0.4358
 2817SOL    HW119910   1.624   4.391  10.035  0.5163  0.5923 -1.7294
 2817SOL    HW219911   1.663   4.284   9.940  1.2337  0.3551  0.8997
 2818SOL     OW19912   0.414   4.526   7.724 -0.0202  0.1365  0.5392
 2818SOL    HW119913   0.429   4.492   7.813 -2.1698  1.3860  1.3974
 2818SOL    HW219914   0.449   4.455   7.671 -2.4309 -0.2339 -0.5639
 2819SOL     OW19915   3.103   0.071   6.224  0.4132 -0.6434 -0.6771
 2819SOL    HW119916   3.184   0.047   6.269  0.6367  3.5957  1.1581
 2819SOL    HW219917   3.098   0.164   6.246 -1.0022 -1.1271  1.0203
 2820SOL     OW19918   0.797   4.292   5.353  0.5892  0.1315  0.0987
 2820SOL    HW119919   0.704   4.305   5.371  0.9196  0.7708  1.4163
 2820SOL    HW219920   0.835   4.370   5.395  1.6884  0.1928 -1.0289
 2821SOL     OW19921   1.537   3.657   5.594  0.4226  0.3600 -0.3001
 2821SOL    HW119922   1.543   3.592   5.525  1.1796  0.0792  0.0318
 2821SOL    HW219923   1.527   3.595   5.666  0.3435 -0.8541 -1.3640
 2822SOL     OW19924   2.138   4.400   6.431 -0.0498  0.5860  0.2765
 2822SOL    HW119925   2.204   4.466   6.454  1.0426 -0.8673  1.3471
 2822SOL    HW219926   2.148   4.394   6.336 -1.3833 -1.8422  0.2798
 2823SOL     OW19927   1.340   0.563   8.007 -0.0683  0.0638  0.4996
 2823SOL    HW119928   1.250   0.532   8.015  0.4494 -2.1396 -2.6313
 2823SOL    HW219929   1.342   0.612   8.090 -0.1585  1.0929 -0.0978
 2824SOL     OW19930   0.307   3.904   5.766 -0.1876 -0.2270  0.1958
 2824SOL    HW119931   0.251   3.851   5.823  0.0171 -0.7131 -0.0538
 2824SOL    HW219932   0.239   3.952   5.719  1.0257 -0.6943 -2.0231
 2825SOL     OW19933   3.158   3.439  15.843 -0.1624  0.2372  0.0893
 2825SOL    HW119934   3.222   3.504  15.813  1.1474 -1.8033 -1.5068
 2825SOL    HW219935   3.091   3.485  15.894 -2.2456  1.3226 -3.6422
 2826SOL     OW19936   1.457   3.534  12.441  0.1865  0.1741 -0.4070
 2826SOL    HW119937   1.487   3.548  12.351  1.5486  0.5907  0.1100
 2826SOL    HW219938   1.470   3.623  12.474  0.6115 -0.7515  1.9068
 2827SOL     OW19939   4.202   1.494   8.959 -0.2030 -0.0401  0.3263
 2827SOL    HW119940   4.133   1.525   8.900  1.1890  3.7618  0.6959
 2827SOL    HW219941   4.145   1.461   9.029 -0.7264  2.9579  1.3221
 2828SOL     OW19942   4.034   3.113   4.612  0.1064  0.0936 -0.2719
 2828SOL    HW119943   4.099   3.159   4.558  0.8305  0.2558  0.7409
 2828SOL    HW219944   3.993   3.188   4.655 -1.4342 -1.7849  1.5566
 2829SOL     OW19945   4.680   2.235   4.061  0.7439  0.1197  0.2368
 2829SOL    HW119946   4.610   2.183   4.022  0.8905  1.3905 -1.6689
 2829SOL    HW219947   4.702   2.293   3.989  1.3304  1.6756  1.6634
 2830SOL     OW19948   4.406   3.507   6.754  0.0259 -0.2437 -0.1108
 2830SOL    HW119949   4.481   3.493   6.696 -1.4572  0.9132 -2.2933
 2830SOL    HW219950   4.378   3.594   6.727 -0.2963  0.2471  1.7794
 2831SOL     OW19951   4.013   1.667   0.911  0.3650 -0.2278 -0.2676
 2831SOL    HW119952   4.007   1.733   0.842  3.4011  0.0329 -0.2991
 2831SOL    HW219953   4.101   1.682   0.945 -0.5569  1.2561  1.4349
 2832SOL     OW19954   4.317   2.522   2.203  0.7083  0.0056  0.1817
 2832SOL    HW119955   4.369   2.590   2.245  1.3257 -2.3586  3.2574
 2832SOL    HW219956   4.335   2.438   2.246  1.3036  0.2162  0.3354
 2833SOL     OW19957   4.229   3.516   8.194 -0.1980 -0.1498  0.4149
 2833SOL    HW119958   4.176   3.539   8.118  1.5471 -0.6960 -0.9510
 2833SOL    HW219959   4.205   3.423   8.195  2.5094 -0.8301 -0.5057
 2834SOL     OW19960   1.447   2.887  14.967 -0.2344 -0.4234 -0.2815
 2834SOL    HW119961   1.411   2.841  14.891 -3.5756  0.7262  0.6109
 2834SOL    HW219962   1.377   2.949  14.986 -0.2476 -0.5261 -0.0014
 2835SOL     OW19963   2.819   2.364   6.769  0.4263  0.3281  0.1941
 2835SOL    HW119964   2.779   2.321   6.844  0.4866  0.9775  0.6044
 2835SOL    HW219965   2.877   2.293   6.741 -1.9202 -0.4220 -2.7196
 2836SOL     OW19966   1.586   4.703   7.463  0.2331  0.2536 -0.6462
 2836SOL    HW119967   1.530   0.012   7.535  0.8545 -1.5348  0.5451
 2836SOL    HW219968   1.674   4.715   7.499  0.6439 -0.8896 -1.2663
 2837SOL     OW19969   3.570   0.680  11.746  0.1406 -0.4864 -0.1617
 2837SOL    HW119970   3.493   0.738  11.749 -0.5286 -1.3682 -0.3594
 2837SOL    HW219971   3.552   0.638  11.830  1.0643  0.7055  0.6321
 2838SOL     OW19972   0.605   2.177   6.092 -0.2753 -0.1789 -0.1119
 2838SOL    HW119973   0.697   2.159   6.111  0.1983  1.1206 -1.1828
 2838SOL    HW219974   0.596   2.272   6.098  1.4501  0.1392 -2.4123
 2839SOL     OW19975   3.497   2.848   4.849  0.3970 -0.0707  0.2467
 2839SOL    HW119976   3.524   2.769   4.895  0.3940 -1.1573 -1.6108
 2839SOL    HW219977   3.456   2.811   4.771 -0.5685  0.3818  0.5364
 2840SOL     OW19978   1.731   1.526  10.953 -0.0276 -0.0408  0.3136
 2840SOL    HW119979   1.717   1.561  11.041 -2.5200 -0.0190 -0.1056
 2840SOL    HW219980   1.764   1.605  10.909 -2.2102  1.4976  1.4765
 2841SOL     OW19981   0.160   1.044   0.629  0.5182  0.5457  0.2101
 2841SOL    HW119982   0.214   1.077   0.702  1.7868 -2.0973  0.4816
 2841SOL    HW219983   0.192   0.954   0.635  1.6795  1.0153  1.2259
 2842SOL     OW19984   1.401   1.303   6.905  0.7501  0.3934  0.1477
 2842SOL    HW119985   1.422   1.396   6.914  0.9082  0.3443  0.3034
 2842SOL    HW219986   1.329   1.302   6.842  1.1594  0.1215 -0.3204
 2843SOL     OW19987   1.980   1.664   8.927  0.0558 -0.0794  0.8937
 2843SOL    HW119988   1.913   1.715   8.883  0.4390 -0.1823  0.1804
 2843SOL    HW219989   1.987   1.717   9.006 -1.0251  2.3002 -0.6064
 2844SOL     OW19990   4.041   2.551   4.932 -0.3851 -0.1598 -0.1080
 2844SOL    HW119991   3.953   2.584   4.950  0.4084  0.2829  2.9876
 2844SOL    HW219992   4.033   2.459   4.956  1.5540 -0.4497 -0.5340
 2845SOL     OW19993   4.267   1.209   7.046 -0.0633 -0.2879  0.1395
 2845SOL    HW119994   4.346   1.179   7.001  0.5622  0.5312  0.7004
 2845SOL    HW219995   4.305   1.247   7.125  1.8023  1.5863 -1.6470
 2846SOL     OW19996   3.142   1.808   4.767  0.5163  0.3346 -0.3128
 2846SOL    HW119997   3.231   1.785   4.797  0.6821 -0.5389 -1.4965
 2846SOL    HW219998   3.156   1.887   4.715  0.8714  0.9592  0.7281
 2847SOL     OW19999   4.021   0.621  13.731 -0.2971  0.7055 -0.3853
 2847SOL    HW120000   4.008   0.537  13.688  0.5896 -0.3088  1.3392
 2847SOL    HW220001   3.936   0.628  13.774  0.8278 -0.1729  1.9660
 2848SOL     OW20002   2.468   0.400   8.124  0.0708  0.3328 -0.6651
 2848SOL    HW120003   2.435   0.441   8.044  1.4055  2.6515 -0.0179
 2848SOL    HW220004   2.443   0.478   8.173  0.0838  0.0964 -0.2752
 2849SOL     OW20005   3.640   1.870  15.753  0.1207  0.3245  0.1511
 2849SOL    HW120006   3.632   1.956  15.794 -0.1395  1.0950 -1.5396
 2849SOL    HW220007   3.593   1.806  15.807 -0.2147  0.9456  0.5967
 2850SOL     OW20008   1.979   2.469  10.157  0.1171 -0.1297  0.7008
 2850SOL    HW120009   2.054   2.470  10.098 -2.0830  0.8756 -2.1040
 2850SOL    HW220010   2.004   2.422  10.236 -0.9545 -0.3427  0.9247
 2851SOL     OW20011   0.365   4.705   5.551  0.3949 -0.2148  0.1496
 2851SOL    HW120012   0.290   4.716   5.493  1.2104  0.4646 -0.7925
 2851SOL    HW220013   0.382   0.073   5.587 -1.7417  0.9451 -1.6105
 2852SOL     OW20014   3.893   2.092   5.842 -0.4272  0.0453  0.4781
 2852SOL    HW120015   3.810   2.138   5.852 -0.9199 -0.8894  0.6499
 2852SOL    HW220016   3.862   2.004   5.821 -2.2259  1.3491 -2.3188
 2853SOL     OW20017   0.286   3.498   5.388  0.4274 -0.2281  0.6147
 2853SOL    HW120018   0.353   3.473   5.451  0.6634  0.1301  0.5024
 2853SOL    HW220019   0.309   3.591   5.391 -0.0336 -0.0853 -0.1641
 2854SOL     OW20020   1.257   2.780   0.994  0.4126  0.6307 -0.2941
 2854SOL    HW120021   1.251   2.697   1.042  1.3277  0.7120 -0.0418
 2854SOL    HW220022   1.352   2.789   0.988  0.7997 -0.2830  4.5572
 2855SOL     OW20023   0.273   1.253   9.597  0.3841 -0.0468  0.0402
 2855SOL    HW120024   0.186   1.254   9.637 -0.5677 -3.0686 -2.0735
 2855SOL    HW220025   0.242   1.278   9.510  1.0581  2.0678  0.3872
 2856SOL     OW20026   1.934   1.454   6.240  0.3884  0.6606  0.0887
 2856SOL    HW120027   2.014   1.496   6.272  0.2502  0.3047  0.8975
 2856SOL    HW220028   1.963   1.380   6.187 -0.5502  2.0665 -2.3898
 2857SOL     OW20029   2.058   2.698   2.751 -0.2487 -0.1239 -0.3576
 2857SOL    HW120030   2.011   2.694   2.668 -3.1872  1.2349  1.2527
 2857SOL    HW220031   1.979   2.693   2.805  0.1156  2.2993  0.3968
 2858SOL     OW20032   1.258   2.109  15.783 -0.1014 -0.5185 -0.3889
 2858SOL    HW120033   1.213   2.045  15.837 -1.8032  0.6855 -0.3911
 2858SOL    HW220034   1.329   2.049  15.759  0.8003  1.4003 -2.5665
 2859SOL     OW20035   3.954   2.344   5.531  0.3378  0.3834  0.1563
 2859SOL    HW120036   3.975   2.256   5.500  2.1237  0.7811  0.2768
 2859SOL    HW220037   3.915   2.384   5.453  0.3950 -0.7701 -0.4611
 2860SOL     OW20038   1.374   0.728  13.033 -0.3832 -0.5129  0.4761
 2860SOL    HW120039   1.353   0.749  12.942  1.3188 -2.5808 -0.3913
 2860SOL    HW220040   1.308   0.660  13.048 -1.6843 -0.0889 -3.4369
 2861SOL     OW20041   1.741   0.769   0.002  0.3335  0.3841 -0.0281
 2861SOL    HW120042   1.788   0.818   0.069  0.5468 -1.5022  1.1858
 2861SOL    HW220043   1.744   0.835  17.613  0.6649  1.3662  0.9285
 2862SOL     OW20044   0.933   1.288   4.120 -0.4949  0.2028  0.5269
 2862SOL    HW120045   0.870   1.285   4.192 -0.4543 -0.7962  0.5237
 2862SOL    HW220046   0.937   1.382   4.103  0.9525 -0.1324 -1.0223
 2863SOL     OW20047   0.880   3.605   3.506  0.3084  0.5585  0.3876
 2863SOL    HW120048   0.809   3.540   3.508 -0.0301  0.9784  1.8134
 2863SOL    HW220049   0.944   3.534   3.515  0.7441  1.3509  3.5677
 2864SOL     OW20050   3.167   0.087   8.351 -0.4069 -0.9735  0.2029
 2864SOL    HW120051   3.110   0.149   8.397 -0.9025 -0.7709 -0.6880
 2864SOL    HW220052   3.173   0.016   8.414 -2.8420 -1.2135  0.1643
 2865SOL     OW20053   0.383   3.467   6.032  0.3747  0.1257  0.1069
 2865SOL    HW120054   0.455   3.422   6.077  2.0107  1.3641 -1.2798
 2865SOL    HW220055   0.390   3.554   6.072  2.1411  0.9019 -1.9322
 2866SOL     OW20056   4.179   1.216  12.776 -0.3575  0.4445  0.7796
 2866SOL    HW120057   4.266   1.219  12.815 -0.8350  2.2258  1.7439
 2866SOL    HW220058   4.136   1.157  12.837  1.5716 -0.2866  1.4184
 2867SOL     OW20059   2.195   4.344   8.632  0.5636  0.9132  0.0344
 2867SOL    HW120060   2.220   4.402   8.560 -5.4766  1.3119 -1.7434
 2867SOL    HW220061   2.219   4.388   8.714  0.9300 -1.9578  1.4756
 2868SOL     OW20062   3.496   2.300   6.678  0.1803 -0.0982 -0.3605
 2868SOL    HW120063   3.582   2.287   6.637 -0.7051 -4.0235 -0.9417
 2868SOL    HW220064   3.513   2.350   6.757 -2.1743  1.5910 -0.9309
 2869SOL     OW20065   0.281   1.305   2.807 -0.3586 -0.5253  0.1401
 2869SOL    HW120066   0.233   1.242   2.753 -0.4327 -0.1932 -0.1792
 2869SOL    HW220067   0.322   1.253   2.876  0.8706 -1.3304 -1.2047
 2870SOL     OW20068   3.616   2.225  15.077 -0.1529 -0.0978 -0.0694
 2870SOL    HW120069   3.572   2.287  15.019  1.5175 -0.5396 -1.8094
 2870SOL    HW220070   3.702   2.268  15.078 -0.5320  0.6351  1.4607
 2871SOL     OW20071   3.428   2.793  10.697 -0.2606  0.2568  0.1900
 2871SOL    HW120072   3.388   2.857  10.755  0.7606 -0.9506  2.2338
 2871SOL    HW220073   3.354   2.755  10.649 -0.6963  1.9081 -0.4300
 2872SOL     OW20074   0.360   0.090   8.654  0.1970 -0.5936 -0.5340
 2872SOL    HW120075   0.362   0.083   8.749 -1.3790 -1.0673 -0.5412
 2872SOL    HW220076   0.301   0.165   8.643  0.4317 -0.6434 -2.1390
 2873SOL     OW20077   2.049   2.090   1.835  0.0509  0.4004 -0.8620
 2873SOL    HW120078   2.122   2.088   1.898 -1.4302 -0.0616  0.8313
 2873SOL    HW220079   2.051   2.171   1.785 -0.9442  1.0510  0.1637
 2874SOL     OW20080   1.129   2.093   5.843 -0.4071  0.2683  0.4764
 2874SOL    HW120081   1.161   2.179   5.817  1.4071 -0.3847  0.6140
 2874SOL    HW220082   1.044   2.111   5.883 -0.8322 -1.0169  0.1520
 2875SOL     OW20083   4.476   0.518   3.431 -0.4079  0.5252 -0.5543
 2875SOL    HW120084   4.530   0.549   3.359  1.7338 -2.6649 -0.3543
 2875SOL    HW220085   4.458   0.429   3.401 -2.2973 -0.1383  2.4902
 2876SOL     OW20086   1.591   3.500   6.399  0.6041 -0.2116 -0.0867
 2876SOL    HW120087   1.644   3.500   6.319  0.7760 -1.7225  0.0291
 2876SOL    HW220088   1.574   3.593   6.412 -2.2688 -1.1742  2.9493
 2877SOL     OW20089   0.364   1.611  15.419 -0.3714 -0.6347  1.2888
 2877SOL    HW120090   0.397   1.549  15.355  2.0167 -0.4619  2.3652
 2877SOL    HW220091   0.274   1.579  15.411 -0.6124  0.9494 -2.5041
 2878SOL     OW20092   1.413   0.279   8.328 -0.3253 -0.4131 -0.0155
 2878SOL    HW120093   1.398   0.277   8.233  0.9268  1.5552 -0.2479
 2878SOL    HW220094   1.351   0.350   8.348  0.3003 -0.0573  0.6524
 2879SOL     OW20095   4.084   0.148  11.868  0.5298  0.0947  0.7594
 2879SOL    HW120096   4.068   0.241  11.858  0.3301 -0.0038  0.1769
 2879SOL    HW220097   4.179   0.146  11.859  0.6077  1.5673  1.2576
 2880SOL     OW20098   0.832   2.226   3.194 -0.4108 -0.3183  0.0477
 2880SOL    HW120099   0.796   2.170   3.125 -3.2681  1.5232  0.0428
 2880SOL    HW220100   0.822   2.313   3.155  0.4427 -0.1602  0.1819
 2881SOL     OW20101   3.798   1.204  10.644  0.3004  0.2385  0.2471
 2881SOL    HW120102   3.781   1.270  10.711  1.2472  0.9329 -0.2031
 2881SOL    HW220103   3.889   1.222  10.620  0.0126  0.6125 -0.5670
 2882SOL     OW20104   2.132   3.695  14.528 -0.1263 -0.4291 -0.2406
 2882SOL    HW120105   2.158   3.754  14.599  0.5326 -1.5375  0.4269
 2882SOL    HW220106   2.037   3.706  14.534 -0.1206  0.5061 -2.0392
 2883SOL     OW20107   0.254   3.731  15.895  0.5296 -0.0513 -0.0987
 2883SOL    HW120108   0.251   3.725  15.991  2.3168  3.2965  0.1733
 2883SOL    HW220109   0.289   3.646  15.870  0.1776 -0.6734  1.5259
 2884SOL     OW20110   3.801   1.725   9.657  0.1317 -0.1446  0.2147
 2884SOL    HW120111   3.759   1.693   9.737  2.6834 -1.1712  1.1412
 2884SOL    HW220112   3.842   1.647   9.618  2.7598  1.7666 -0.8116
 2885SOL     OW20113   4.272   0.468   7.353 -0.6994 -0.3036  0.2552
 2885SOL    HW120114   4.332   0.397   7.329  0.0728  0.6483 -0.6665
 2885SOL    HW220115   4.229   0.437   7.432 -0.0239  0.6937  1.0183
 2886SOL     OW20116   3.377   1.074  10.178 -0.7513 -0.2258  0.0743
 2886SOL    HW120117   3.450   1.012  10.175  1.5523  2.6840 -3.8725
 2886SOL    HW220118   3.373   1.105  10.268 -0.7689 -2.3488  0.8072
 2887SOL     OW20119   4.230   2.886   7.370  0.2934 -0.0918 -0.4592
 2887SOL    HW120120   4.296   2.936   7.417 -0.9755  0.9981  0.1551
 2887SOL    HW220121   4.157   2.935   7.407 -0.3617 -0.3099 -1.4522
 2888SOL     OW20122   1.817   4.235   0.463  0.0545  0.5718  0.1096
 2888SOL    HW120123   1.905   4.272   0.461  0.5086 -0.4480  1.6325
 2888SOL    HW220124   1.812   4.223   0.558 -0.5857 -1.9593 -0.2295
 2889SOL     OW20125   0.712   2.741   5.904 -0.2847 -0.0209  0.5168
 2889SOL    HW120126   0.807   2.740   5.889 -0.7575  1.3147 -2.6236
 2889SOL    HW220127   0.685   2.694   5.983  0.7627 -1.2108  0.1682
 2890SOL     OW20128   2.877   0.174   0.233 -0.5427 -0.1151  0.7720
 2890SOL    HW120129   2.881   0.263   0.197 -1.9001  0.3522  1.7688
 2890SOL    HW220130   2.964   0.176   0.274  0.2773  0.5055 -0.9874
 2891SOL     OW20131   2.934   4.486   6.818  0.3970 -0.3754  0.0325
 2891SOL    HW120132   2.926   4.401   6.861  1.9401  0.0157  1.0879
 2891SOL    HW220133   3.028   4.473   6.802  0.8754  0.7842  1.8211
 2892SOL     OW20134   0.551   4.231   6.733 -0.1257 -0.2834 -0.2824
 2892SOL    HW120135   0.609   4.283   6.677 -2.1289 -0.5471 -2.6166
 2892SOL    HW220136   0.470   4.275   6.706  0.0621  0.0641 -0.2817
 2893SOL     OW20137   3.479   0.885   9.107  0.6499 -0.3274 -0.2218
 2893SOL    HW120138   3.535   0.912   9.035 -0.3369 -0.4601 -1.0387
 2893SOL    HW220139   3.496   0.790   9.103  1.0246 -0.2338 -0.9002
 2894SOL     OW20140   1.475   2.149   3.108  0.4842  0.2697  0.2614
 2894SOL    HW120141   1.457   2.093   3.184 -1.9923 -0.1306 -0.6502
 2894SOL    HW220142   1.417   2.106   3.046  3.3132 -2.2762 -0.6303
 2895SOL     OW20143   4.230   1.205   4.445  0.4529 -0.0313  0.2767
 2895SOL    HW120144   4.177   1.256   4.383  1.1044  1.5291  1.0180
 2895SOL    HW220145   4.303   1.187   4.386 -0.6520  0.2098 -1.2033
 2896SOL     OW20146   2.534   4.114   7.846 -0.5155 -0.2096  0.2060
 2896SOL    HW120147   2.571   4.189   7.799  0.6698 -1.0255 -0.1701
 2896SOL    HW220148   2.519   4.053   7.774  0.3283 -2.1528  1.6945
 2897SOL     OW20149   1.009   0.383   3.423 -0.7451 -0.4105 -0.2850
 2897SOL    HW120150   0.949   0.440   3.376 -1.1400 -0.1601  0.5210
 2897SOL    HW220151   0.964   0.367   3.506 -0.7058  1.2636  0.0551
 2898SOL     OW20152   1.808   1.303  14.647 -0.2479 -0.5469 -0.3004
 2898SOL    HW120153   1.803   1.261  14.561 -0.2003 -3.8180  1.3004
 2898SOL    HW220154   1.791   1.396  14.629  1.1367 -0.3140 -0.3412
 2899SOL     OW20155   2.351   2.744   6.824 -0.2834 -0.4462 -0.0689
 2899SOL    HW120156   2.299   2.740   6.744 -0.2042  0.3702 -0.1681
 2899SOL    HW220157   2.438   2.711   6.803 -0.1393  0.3249 -0.7233
 2900SOL     OW20158   4.192   1.732   7.255  0.0570  0.1991 -0.3286
 2900SOL    HW120159   4.103   1.697   7.256  0.3896 -0.6650 -0.9717
 2900SOL    HW220160   4.229   1.699   7.173 -2.7031 -0.1490 -1.4392
 2901SOL     OW20161   1.793   2.929   7.473 -0.2675 -0.3195 -0.4618
 2901SOL    HW120162   1.698   2.937   7.481 -0.4647 -1.2548 -1.9025
 2901SOL    HW220163   1.822   2.905   7.561 -1.3388  2.2191  0.5933
 2902SOL     OW20164   3.785   0.479   6.822  0.0988  0.3150 -0.6415
 2902SOL    HW120165   3.781   0.574   6.823  1.7814  0.3961 -0.7239
 2902SOL    HW220166   3.738   0.455   6.743  1.4531 -2.1085 -0.7125
 2903SOL     OW20167   2.376   1.351  16.678  0.1517 -0.4532  0.3244
 2903SOL    HW120168   2.327   1.420  16.723 -1.0212  0.1500 -1.8478
 2903SOL    HW220169   2.384   1.284  16.746  2.6749  0.2370  0.7018
 2904SOL     OW20170   3.940   4.094   4.713  0.3002 -0.4847  0.1495
 2904SOL    HW120171   3.975   4.162   4.770  0.5696 -0.1725 -0.3819
 2904SOL    HW220172   3.882   4.055   4.778  0.5645  0.7306  1.0967
 2905SOL     OW20173   2.486   3.068   3.378 -0.4268  0.3530  0.4181
 2905SOL    HW120174   2.564   3.124   3.373  0.9666 -1.7004 -1.0664
 2905SOL    HW220175   2.421   3.117   3.329  1.8536  1.8254 -1.1264
 2906SOL     OW20176   4.363   3.852   8.953  0.0102  0.4820 -0.3229
 2906SOL    HW120177   4.438   3.794   8.939  1.0471  1.7188 -0.0275
 2906SOL    HW220178   4.339   3.828   9.042 -0.8009  0.0883 -0.6574
 2907SOL     OW20179   2.237   2.859  11.587 -0.3604 -0.0813 -0.2675
 2907SOL    HW120180   2.205   2.937  11.542 -0.7126 -1.5534 -2.5265
 2907SOL    HW220181   2.225   2.888  11.678  0.3754 -4.2578  1.1816
 2908SOL     OW20182   3.469   3.997   0.543 -0.5053  0.3405  0.4428
 2908SOL    HW120183   3.465   4.092   0.542  1.1103  0.4123  0.6364
 2908SOL    HW220184   3.396   3.978   0.602 -1.3430  0.3088 -0.6031
 2909SOL     OW20185   1.836   0.608   9.991  0.7601  0.0169  0.0107
 2909SOL    HW120186   1.865   0.601  10.082  0.8136  0.1850  0.0053
 2909SOL    HW220187   1.922   0.624   9.951  0.1286  1.9581 -0.5325
 2910SOL     OW20188   0.595   0.673   6.073  0.3369  0.4856  0.1420
 2910SOL    HW120189   0.664   0.724   6.116 -0.2480  1.5125 -0.1494
 2910SOL    HW220190   0.543   0.648   6.150 -2.1740  1.2855 -1.3040
 2911SOL     OW20191   3.209   0.323  12.978  0.7458  0.5340 -0.2982
 2911SOL    HW120192   3.260   0.245  12.958 -0.5436 -0.5449  0.6102
 2911SOL    HW220193   3.146   0.314  12.906 -0.2469 -0.5130  0.7004
 2912SOL     OW20194   0.463   2.355  11.856 -0.3198  0.1485 -0.2107
 2912SOL    HW120195   0.550   2.393  11.858  0.1436 -0.9272  0.2326
 2912SOL    HW220196   0.428   2.406  11.783 -1.4160 -0.5462 -0.1644
 2913SOL     OW20197   1.900   4.115   8.571  1.0114 -0.2582 -0.0227
 2913SOL    HW120198   1.993   4.096   8.567  1.0429 -0.4450  1.7299
 2913SOL    HW220199   1.905   4.209   8.589 -1.3583  0.0312 -0.8685
 2914SOL     OW20200   1.666   1.467   6.833  0.9902 -0.5636  0.6108
 2914SOL    HW120201   1.690   1.447   6.743  0.1414  0.7954  0.0760
 2914SOL    HW220202   1.751   1.474   6.876  2.0513 -1.5710 -1.3565
 2915SOL     OW20203   3.527   2.640   3.909  0.1746 -0.2296 -0.2674
 2915SOL    HW120204   3.473   2.589   3.969  0.5073  0.8358  0.9427
 2915SOL    HW220205   3.603   2.582   3.907  1.2635  1.1463  0.8884
 2916SOL     OW20206   0.579   2.537   3.788 -0.2135 -0.4071  0.4045
 2916SOL    HW120207   0.505   2.492   3.748 -0.7658 -2.3235  3.6351
 2916SOL    HW220208   0.625   2.549   3.705  0.6829  2.7536  1.3614
 2917SOL     OW20209   3.825   2.635   7.345 -0.0378 -0.0531 -0.4384
 2917SOL    HW120210   3.759   2.577   7.307  1.9115 -1.5333 -1.5983
 2917SOL    HW220211   3.884   2.562   7.360  1.6658  1.1316 -1.2908
 2918SOL     OW20212   3.943   3.845   1.660 -0.7103 -0.0898 -0.3176
 2918SOL    HW120213   3.852   3.843   1.690 -0.5258  1.1218  0.3255
 2918SOL    HW220214   3.953   3.754   1.631  0.4591 -0.2766  0.6574
 2919SOL     OW20215   4.008   2.506   9.676 -0.0918 -0.3423 -0.5232
 2919SOL    HW120216   4.065   2.437   9.711  0.4904  0.8142  0.8018
 2919SOL    HW220217   4.046   2.520   9.589  1.8959  0.6800  0.4848
 2920SOL     OW20218   1.779   0.625   1.550 -0.2382 -0.3386 -0.1013
 2920SOL    HW120219   1.767   0.720   1.550 -1.8174 -0.5423  0.1414
 2920SOL    HW220220   1.872   0.620   1.572 -0.4755 -2.5055  0.4318
 2921SOL     OW20221   1.483   3.264  14.875 -0.3075  0.7092 -0.1906
 2921SOL    HW120222   1.438   3.203  14.934 -1.1083  2.7514  1.3071
 2921SOL    HW220223   1.493   3.206  14.800 -1.7954 -0.6196  0.6347
 2922SOL     OW20224   1.799   1.783  10.913  0.2866 -0.3259  0.0129
 2922SOL    HW120225   1.788   1.841  10.988  0.1517 -2.4888  1.6502
 2922SOL    HW220226   1.892   1.786  10.894  0.7322  0.9020  2.4659
 2923SOL     OW20227   2.528   3.424  13.260  0.2198 -0.2490 -0.3903
 2923SOL    HW120228   2.610   3.373  13.266  0.9987  0.9478 -0.9307
 2923SOL    HW220229   2.479   3.372  13.324 -0.3884  1.5029  0.5671
 2924SOL     OW20230   0.109   1.337   9.113 -0.0214 -0.3252 -0.5058
 2924SOL    HW120231   0.088   1.293   9.031 -0.1746 -0.3403 -0.4575
 2924SOL    HW220232   0.191   1.384   9.094 -0.9226  0.0117 -3.4464
 2925SOL     OW20233   2.004   2.544  16.459  0.3197 -0.0714  0.4333
 2925SOL    HW120234   1.967   2.631  16.441  0.8957  0.3509  1.2499
 2925SOL    HW220235   1.932   2.493  16.423  3.1654 -2.6915 -1.4116
 2926SOL     OW20236   3.623   3.907  15.582 -0.3953  0.5196  0.3312
 2926SOL    HW120237   3.664   3.966  15.519  0.1019  1.3299  1.4190
 2926SOL    HW220238   3.668   3.826  15.558 -0.1654  1.1541 -1.4049
 2927SOL     OW20239   1.282   2.650  11.860 -0.1490 -0.0742 -0.6229
 2927SOL    HW120240   1.193   2.614  11.853 -0.3641  0.3325 -0.0463
 2927SOL    HW220241   1.298   2.662  11.767 -0.5731  1.5904 -0.4716
 2928SOL     OW20242   1.582   1.409   1.451 -0.4006 -0.0992  0.2385
 2928SOL    HW120243   1.609   1.500   1.451  0.1560 -0.2602 -0.7015
 2928SOL    HW220244   1.658   1.376   1.498 -1.1632  1.0986  2.2815
 2929SOL     OW20245   1.646   3.189   9.092  0.1353  0.5796 -0.2688
 2929SOL    HW120246   1.669   3.258   9.030 -2.1011  0.7910 -0.8899
 2929SOL    HW220247   1.715   3.126   9.075 -1.0221 -1.1959  1.6048
 2930SOL     OW20248   2.716   0.190   6.427 -0.3237  0.3991  0.2935
 2930SOL    HW120249   2.770   0.111   6.434 -0.3376  0.2878 -0.9238
 2930SOL    HW220250   2.738   0.243   6.504 -0.8278 -1.2938  1.6373
 2931SOL     OW20251   0.971   4.072  17.189 -0.0455  0.2860 -0.2514
 2931SOL    HW120252   0.905   4.070  17.258 -0.5535  0.9450 -0.7136
 2931SOL    HW220253   1.013   4.158  17.196  0.7076 -0.0490 -0.7144
 2932SOL     OW20254   1.256   0.690   7.165  0.9862 -0.0795 -0.1943
 2932SOL    HW120255   1.192   0.653   7.225  0.2147  0.6880 -0.5415
 2932SOL    HW220256   1.207   0.708   7.085  0.2757  0.1798  0.3068
 2933SOL     OW20257   3.932   4.542   7.026  0.1344  0.0010 -0.1626
 2933SOL    HW120258   3.957   4.568   6.937 -0.4949 -0.3746 -0.4501
 2933SOL    HW220259   3.885   4.621   7.054  0.6710  0.0519  0.5829
 2934SOL     OW20260   4.353   2.407   4.468 -0.2633 -0.2663 -0.3438
 2934SOL    HW120261   4.350   2.496   4.504  2.4466 -0.1317 -0.4716
 2934SOL    HW220262   4.418   2.402   4.398  1.4325 -3.3815  1.4778
 2935SOL     OW20263   1.817   0.403   9.629 -0.3047  0.1301 -0.4433
 2935SOL    HW120264   1.867   0.339   9.680 -1.3958 -2.1949 -2.2942
 2935SOL    HW220265   1.732   0.361   9.615 -0.4177 -0.0132  0.6632
 2936SOL     OW20266   0.977   3.329  15.244  0.1440 -0.8739  0.2134
 2936SOL    HW120267   0.924   3.407  15.260 -0.7622 -1.3114 -0.5911
 2936SOL    HW220268   0.976   3.328  15.148 -0.8982 -3.1051  0.2388
 2937SOL     OW20269   3.892   4.222   7.875 -0.1893  0.7364 -0.0858
 2937SOL    HW120270   3.890   4.129   7.900  0.5808  0.1977 -2.1032
 2937SOL    HW220271   3.797   4.238   7.872 -0.4368 -0.4169  1.1328
 2938SOL     OW20272   4.659   0.706   7.525 -0.0001 -0.0813  0.0084
 2938SOL    HW120273   4.654   0.661   7.609  0.9500 -1.2409 -0.5642
 2938SOL    HW220274   4.712   0.640   7.481  2.3214  2.9215 -1.7564
 2939SOL     OW20275   3.412   1.963   5.772  0.1362 -0.3616  0.5635
 2939SOL    HW120276   3.324   1.929   5.790  0.4951 -0.4994  2.0569
 2939SOL    HW220277   3.465   1.887   5.751 -1.7440 -1.2396 -0.9894
 2940SOL     OW20278   4.656   3.597   7.597  0.1251  0.3854  0.9822
 2940SOL    HW120279   4.700   3.562   7.674  2.4460 -1.2607 -1.0864
 2940SOL    HW220280   4.716   3.658   7.555 -0.0389  0.6881  1.1950
 2941SOL     OW20281   4.587   0.497   6.148  0.2256 -0.2746  0.3508
 2941SOL    HW120282   4.624   0.461   6.068  1.5205 -0.1375  0.8949
 2941SOL    HW220283   4.584   0.418   6.201  0.5352 -1.6958 -1.7901
 2942SOL     OW20284   4.668   2.487   8.046  0.0367  0.1296  0.3566
 2942SOL    HW120285   0.036   2.451   8.030  0.3965  1.0448  0.2462
 2942SOL    HW220286   4.682   2.557   8.109  2.6428 -0.5669  0.5474
 2943SOL     OW20287   3.580   4.659   7.602 -0.1958  0.1477 -0.3475
 2943SOL    HW120288   3.501   4.656   7.549  0.8555  0.8554 -1.9548
 2943SOL    HW220289   3.649   4.643   7.538 -2.4677  0.3803 -2.8168
 2944SOL     OW20290   4.565   1.242   7.672 -0.8133  0.0346 -0.4771
 2944SOL    HW120291   4.484   1.261   7.721 -0.5618 -3.2429  1.2656
 2944SOL    HW220292   4.549   1.155   7.635 -2.3196  0.3909 -0.6702
 2945SOL     OW20293   3.053   4.194   6.715 -0.3507  0.1778 -0.0990
 2945SOL    HW120294   3.144   4.178   6.743 -0.3097  1.7877  0.6909
 2945SOL    HW220295   3.021   4.152   6.795 -0.7635  0.8343  0.0788
 2946SOL     OW20296   3.755   0.808   0.634 -0.2517  0.5460 -0.1702
 2946SOL    HW120297   3.767   0.821   0.728  0.2340 -1.5089  0.0372
 2946SOL    HW220298   3.683   0.747   0.621 -0.7044  1.1705 -0.6287
 2947SOL     OW20299   1.922   0.578  16.723  0.3964 -0.4053 -0.7788
 2947SOL    HW120300   1.853   0.544  16.780 -1.7753  2.2044 -1.8561
 2947SOL    HW220301   1.902   0.538  16.639  1.7707 -3.4168  0.3030
 2948SOL     OW20302   1.258   0.133   6.248  0.4238 -0.5375 -0.2394
 2948SOL    HW120303   1.306   0.089   6.177  1.0494  0.7300 -0.5937
 2948SOL    HW220304   1.178   0.155   6.200  1.0706 -0.6998 -1.3816
 2949SOL     OW20305   4.270   3.393  13.071 -0.2495  0.0331  0.2737
 2949SOL    HW120306   4.208   3.421  13.003 -0.4032  0.0020  0.4007
 2949SOL    HW220307   4.250   3.462  13.133 -2.4870  1.0853 -1.5794
 2950SOL     OW20308   0.658   3.055   5.080  0.0978  0.5620  0.5243
 2950SOL    HW120309   0.618   3.106   5.009 -2.5335 -2.9836 -0.5210
 2950SOL    HW220310   0.677   2.976   5.029 -0.7441  1.4596 -1.2018
 2951SOL     OW20311   1.197   0.465   6.569 -0.1745 -0.1808  0.4478
 2951SOL    HW120312   1.260   0.426   6.508 -1.1717 -0.1505 -0.6005
 2951SOL    HW220313   1.167   0.384   6.611  2.0485 -0.8235  0.8068
 2952SOL     OW20314   2.509   1.203  17.657  0.1409 -0.4706 -0.1339
 2952SOL    HW120315   2.473   1.291  17.645  0.3503 -0.4951 -0.9243
 2952SOL    HW220316   2.602   1.223  17.665  0.1683 -0.7284  0.2149
 2953SOL     OW20317   3.314   4.404   9.516  0.1151  0.1607  0.3605
 2953SOL    HW120318   3.269   4.334   9.468  0.7981  0.1344 -0.2430
 2953SOL    HW220319   3.281   4.386   9.604 -0.6186  1.8873  0.4342
 2954SOL     OW20320   4.347   0.760   0.220  0.3307  0.7309 -0.2429
 2954SOL    HW120321   4.270   0.777   0.165 -0.0856 -0.6095 -0.0672
 2954SOL    HW220322   4.389   0.846   0.219  2.3239 -0.2341 -0.1053
 2955SOL     OW20323   1.422   0.901   9.399  0.3906  0.1472 -0.4339
 2955SOL    HW120324   1.379   0.986   9.406  0.4588  0.2163 -0.8533
 2955SOL    HW220325   1.462   0.900   9.312  0.4883 -0.9356 -0.3859
 2956SOL     OW20326   0.987   0.676   6.981  0.2750 -0.3939  0.8327
 2956SOL    HW120327   1.052   0.704   6.916 -0.3537  2.3060  1.3524
 2956SOL    HW220328   1.000   0.582   6.989 -0.5715 -0.6735 -0.8906
 2957SOL     OW20329   2.401   0.035   1.295  0.4978 -0.4883 -0.0191
 2957SOL    HW120330   2.328   4.699   1.270  0.3227 -0.0705 -0.4245
 2957SOL    HW220331   2.470   4.688   1.285 -0.7622 -1.8450  0.2938
 2958SOL     OW20332   1.650   1.399   0.399 -0.2122 -0.1729  0.5021
 2958SOL    HW120333   1.655   1.313   0.357  0.7477 -0.6377  1.5791
 2958SOL    HW220334   1.625   1.461   0.330 -0.3837 -1.4892 -0.6186
 2959SOL     OW20335   0.330   2.415   3.732 -0.9390  0.0002  0.1352
 2959SOL    HW120336   0.308   2.338   3.679  2.1824  0.3675 -1.6828
 2959SOL    HW220337   0.273   2.480   3.691 -1.0424 -0.1079  0.1076
 2960SOL     OW20338   0.103   1.426   8.141  0.1709 -0.5386  0.2965
 2960SOL    HW120339   0.078   1.347   8.190 -2.5511 -0.5981 -1.1399
 2960SOL    HW220340   0.031   1.431   8.078  1.4528  0.8398 -1.0478
 2961SOL     OW20341   1.212   2.400   5.650 -0.3286  0.5360  0.2790
 2961SOL    HW120342   1.154   2.456   5.599 -2.2308 -0.2153  1.6236
 2961SOL    HW220343   1.294   2.407   5.602  0.4947 -0.4214  1.5582
 2962SOL     OW20344   4.478   4.293   7.780 -0.0966 -0.2710  0.3207
 2962SOL    HW120345   4.553   4.282   7.839  0.8656  1.6667 -0.5465
 2962SOL    HW220346   4.496   4.371   7.728 -1.1763 -0.4157 -0.2843
 2963SOL     OW20347   1.998   0.635   7.970  0.6304  0.3624  0.0742
 2963SOL    HW120348   1.916   0.586   7.965 -0.0399  1.5701 -0.7930
 2963SOL    HW220349   1.967   0.724   7.982  2.8558  1.3283 -1.2342
 2964SOL     OW20350   1.880   0.312   8.136  0.2034  0.5037  0.4501
 2964SOL    HW120351   1.883   0.385   8.197 -1.9734  1.0482 -0.0913
 2964SOL    HW220352   1.960   0.263   8.151  1.0181  1.0848 -1.8988
 2965SOL     OW20353   4.647   4.446   4.876 -0.1302 -0.4922  0.0201
 2965SOL    HW120354   4.679   4.449   4.966  1.5878 -0.8705 -0.5625
 2965SOL    HW220355   0.011   4.455   4.830 -0.4328  2.4344  0.0307
 2966SOL     OW20356   2.591   4.689   8.828 -0.1112  0.0941 -0.0550
 2966SOL    HW120357   2.539   0.000   8.903  1.7879  1.2726  0.7639
 2966SOL    HW220358   2.534   4.695   8.752 -0.6191 -0.8837  0.2471
 2967SOL     OW20359   4.335   0.823   4.278  0.1766  0.1567  0.5972
 2967SOL    HW120360   4.364   0.914   4.284 -0.2279  0.4191 -1.2140
 2967SOL    HW220361   4.242   0.843   4.287  0.1345  0.5812 -0.6600
 2968SOL     OW20362   2.751   4.520   7.552  0.0930  0.6102  0.2568
 2968SOL    HW120363   2.724   4.457   7.485 -0.8130 -0.4313  1.6003
 2968SOL    HW220364   2.790   4.578   7.488  1.1655 -1.1211 -0.6553
 2969SOL     OW20365   3.723   0.380   2.463  0.0809  0.0995  0.1619
 2969SOL    HW120366   3.694   0.450   2.522 -0.9420  1.4212 -1.9232
 2969SOL    HW220367   3.790   0.336   2.516 -0.9816 -0.3555  1.1390
 2970SOL     OW20368   3.636   0.997   5.883 -0.3827 -0.3223 -0.0854
 2970SOL    HW120369   3.627   1.066   5.949 -1.5669 -1.2153  0.6917
 2970SOL    HW220370   3.727   1.014   5.857  0.4140 -1.3416  1.9965
 2971SOL     OW20371   1.285   4.664   4.786  0.1419  0.7611  0.4378
 2971SOL    HW120372   1.198   4.696   4.763  0.9562  2.7139  0.1265
 2971SOL    HW220373   1.289   4.582   4.735  0.0261  2.2305 -1.9481
 2972SOL     OW20374   1.568   4.531   4.793  0.3557  0.5588 -0.1609
 2972SOL    HW120375   1.496   4.472   4.815 -0.9281  2.1187 -0.2169
 2972SOL    HW220376   1.538   4.580   4.716  2.0573  0.1074 -1.1268
 2973SOL     OW20377   1.592   4.334   5.280  0.6109  0.0851 -0.2224
 2973SOL    HW120378   1.554   4.287   5.206 -0.5998 -0.3316  0.6737
 2973SOL    HW220379   1.516   4.383   5.312  0.2366 -0.3178 -0.4981
 2974SOL     OW20380   2.289   1.426   6.097 -0.1992  0.4924  0.5021
 2974SOL    HW120381   2.362   1.381   6.055  0.6006  0.9802  1.3781
 2974SOL    HW220382   2.222   1.360   6.079 -0.7805  1.2112  0.0304
 2975SOL     OW20383   1.771   0.173   4.877 -0.0740  0.0256  0.2237
 2975SOL    HW120384   1.857   0.160   4.917 -0.4428 -0.2255  0.9466
 2975SOL    HW220385   1.710   0.111   4.916  0.8663 -1.5627 -0.8329
 2976SOL     OW20386   0.863   1.178   3.380  0.3746  0.2662  0.0710
 2976SOL    HW120387   0.872   1.212   3.469  0.7161 -3.0236  1.2792
 2976SOL    HW220388   0.887   1.252   3.324 -4.0169  1.6924  0.1234
 2977SOL     OW20389   4.157   3.032   5.595 -0.0130  0.8209  0.0729
 2977SOL    HW120390   4.161   2.937   5.607  1.5166  0.6518 -1.8472
 2977SOL    HW220391   4.074   3.054   5.552 -0.8016  1.7826  2.0482
 2978SOL     OW20392   4.024   4.312   9.019  0.0914  0.0825  0.6841
 2978SOL    HW120393   3.931   4.321   9.036 -0.2611  1.0186 -1.7474
 2978SOL    HW220394   4.061   4.336   9.104  0.2066 -0.9198  0.9236
 2979SOL     OW20395   4.511   1.478  13.864 -0.3219  0.1228 -0.5571
 2979SOL    HW120396   4.539   1.486  13.955 -1.6485  0.2718 -0.1569
 2979SOL    HW220397   4.429   1.429  13.874 -1.0599  1.1516 -1.5428
 2980SOL     OW20398   2.090   4.019   0.428 -0.6691  0.2430  0.3660
 2980SOL    HW120399   2.178   4.007   0.391 -0.1457  1.3291  1.2532
 2980SOL    HW220400   2.105   4.056   0.515 -1.0204  1.4001 -0.0631
 2981SOL     OW20401   3.874   0.002   8.304 -0.1938 -0.4956  0.0549
 2981SOL    HW120402   3.864   4.634   8.265 -0.7885 -0.3720 -0.0752
 2981SOL    HW220403   3.893   4.693   8.393 -2.4054  3.1597  1.6743
 2982SOL     OW20404   2.486   3.423   7.864 -0.0413 -0.3202  0.4744
 2982SOL    HW120405   2.456   3.410   7.774  0.8033 -0.4883  0.2198
 2982SOL    HW220406   2.401   3.442   7.904 -0.3793  0.2656 -0.5321
 2983SOL     OW20407   1.574   1.201   4.127 -0.1898 -0.0149 -0.5790
 2983SOL    HW120408   1.558   1.166   4.039  1.4042  0.3815 -1.0086
 2983SOL    HW220409   1.665   1.180   4.148  0.0578  0.0054 -1.6335
 2984SOL     OW20410   0.350   3.196  11.164 -0.6734  0.0107  0.1514
 2984SOL    HW120411   0.375   3.242  11.245 -1.3574  0.7674 -0.0618
 2984SOL    HW220412   0.410   3.235  11.101 -3.4392  0.5452 -2.1983
 2985SOL     OW20413   0.573   3.778   9.062 -0.1979  0.2096  0.6591
 2985SOL    HW120414   0.658   3.760   9.022 -0.2707 -0.2247  0.7009
 2985SOL    HW220415   0.567   3.719   9.137 -1.4099 -1.0289 -0.4061
 2986SOL     OW20416   2.510   0.303   8.437  0.4781  0.1797  0.1466
 2986SOL    HW120417   2.437   0.296   8.374  1.5183  1.2817 -1.1798
 2986SOL    HW220418   2.480   0.237   8.500  1.5380 -0.2936  0.1473
 2987SOL     OW20419   0.101   2.249   1.976  0.3120  0.8553 -0.3750
 2987SOL    HW120420   0.094   2.344   1.979 -0.6153  0.7784  0.1945
 2987SOL    HW220421   0.008   2.224   1.972  0.9671 -1.7891  1.0749
 2988SOL     OW20422   3.615   1.786   5.655  0.4616 -0.5259 -0.3978
 2988SOL    HW120423   3.681   1.753   5.716 -2.7260 -0.5446  2.9833
 2988SOL    HW220424   3.542   1.732   5.684 -1.4239  0.7809 -2.7483
 2989SOL     OW20425   1.423   1.018   5.220  0.2234 -0.1658 -0.1062
 2989SOL    HW120426   1.458   0.933   5.194 -2.0470 -0.5184 -1.9975
 2989SOL    HW220427   1.345   0.986   5.265  0.4285  1.0270  1.1122
 2990SOL     OW20428   0.795   4.656   4.226 -0.0569 -0.2806  0.4833
 2990SOL    HW120429   0.768   4.693   4.142  1.2654 -0.7305 -0.1395
 2990SOL    HW220430   0.757   0.000   4.287 -1.7231  1.1026 -2.0298
 2991SOL     OW20431   4.620   4.192   7.478 -0.4826  0.1086  0.1055
 2991SOL    HW120432   4.640   4.196   7.385  1.5620  0.7179  0.5595
 2991SOL    HW220433   4.572   4.273   7.496  0.0506  0.2927  0.7173
 2992SOL     OW20434   4.692   0.185  17.486  0.0507 -0.0152  0.6312
 2992SOL    HW120435   4.676   0.278  17.472 -1.1111 -0.3395 -0.1221
 2992SOL    HW220436   4.623   0.148  17.433 -0.5652  2.2487 -0.1460
 2993SOL     OW20437   1.383   3.131   4.195  0.7841 -0.6129 -0.1048
 2993SOL    HW120438   1.478   3.123   4.205  0.7793 -0.0677  0.4701
 2993SOL    HW220439   1.359   3.042   4.219  0.7461 -0.2444  1.2663
 2994SOL     OW20440   2.629   0.141   2.482 -0.1759 -0.0647  0.0478
 2994SOL    HW120441   2.705   0.198   2.495 -0.9562  0.6377  1.5851
 2994SOL    HW220442   2.669   0.060   2.450  0.2465  0.0544  0.2784
 2995SOL     OW20443   3.423   3.028  15.290  0.3653  0.1327 -0.1280
 2995SOL    HW120444   3.435   3.002  15.199 -0.5891  2.1395 -0.8091
 2995SOL    HW220445   3.410   3.122  15.293  0.3513  0.0806  1.6436
 2996SOL     OW20446   2.471   1.270   2.841 -0.1474  0.1258 -0.1702
 2996SOL    HW120447   2.445   1.180   2.859 -0.2527  0.6159  2.2426
 2996SOL    HW220448   2.461   1.268   2.746  2.1111  0.6824 -0.4120
 2997SOL     OW20449   3.494   4.255   2.695  0.2487 -0.2366  0.0949
 2997SOL    HW120450   3.541   4.336   2.718 -2.2872  1.1897  0.2152
 2997SOL    HW220451   3.485   4.255   2.600 -0.5667  0.2264  0.1749
 2998SOL     OW20452   3.424   0.379   8.495  0.1945 -0.4627  0.0812
 2998SOL    HW120453   3.329   0.391   8.493  0.3483  0.5885 -0.9130
 2998SOL    HW220454   3.455   0.462   8.459  2.4592 -0.9626  0.8559
 2999SOL     OW20455   4.334   0.350   6.707  0.1381  0.2596  0.1409
 2999SOL    HW120456   4.339   0.364   6.612 -2.5777  0.4178  0.0197
 2999SOL    HW220457   4.335   0.434   6.753 -1.2605  0.1258  0.4043
 3000SOL     OW20458   3.885   3.353   0.800  0.0039 -0.0956 -0.7793
 3000SOL    HW120459   3.816   3.299   0.762 -2.1272  2.1153 -0.0406
 3000SOL    HW220460   3.917   3.394   0.719 -1.0622  0.6400 -0.8301
 3001SOL     OW20461   0.641   3.759   6.771 -0.3970  0.4776  0.1629
 3001SOL    HW120462   0.563   3.799   6.732 -0.5534  1.4915  1.5103
 3001SOL    HW220463   0.680   3.842   6.799 -1.1322  2.0403 -3.2847
 3002SOL     OW20464   0.560   1.064   5.802  0.9629  0.3987  0.4760
 3002SOL    HW120465   0.584   1.117   5.726 -1.0351 -2.1523 -1.9275
 3002SOL    HW220466   0.629   0.997   5.795  0.2098 -0.7013  3.3721
 3003SOL     OW20467   4.530   1.874  16.381 -0.4763 -0.0977  0.5092
 3003SOL    HW120468   4.442   1.866  16.344  0.8967  0.1664 -2.8419
 3003SOL    HW220469   4.496   1.949  16.430 -0.5365 -0.4689  1.0259
 3004SOL     OW20470   2.344   2.639  11.910 -0.0025 -0.2091 -0.3435
 3004SOL    HW120471   2.278   2.656  11.977  0.0941 -0.8495 -0.0845
 3004SOL    HW220472   2.412   2.695  11.947  0.8552 -1.3631 -0.1540
 3005SOL     OW20473   1.099   1.635  10.929 -0.1369  0.6118 -0.0062
 3005SOL    HW120474   1.191   1.624  10.955 -0.2014  2.6593  1.0980
 3005SOL    HW220475   1.109   1.694  10.855 -1.4437  1.2559  0.3376
 3006SOL     OW20476   1.310   0.099  14.089 -0.0237  0.1607 -0.7781
 3006SOL    HW120477   1.233   0.145  14.055  0.8655  0.7754 -1.9788
 3006SOL    HW220478   1.277   0.029  14.146  0.0857  0.3518 -0.4815
 3007SOL     OW20479   3.482   1.700   3.693  0.0544 -0.1496 -0.1643
 3007SOL    HW120480   3.410   1.755   3.660  0.9327  0.5184 -0.9598
 3007SOL    HW220481   3.471   1.617   3.647  0.1403 -0.5636  0.5691
 3008SOL     OW20482   0.779   1.026   6.144 -0.1885 -0.1244 -0.2164
 3008SOL    HW120483   0.847   1.034   6.211 -0.4769 -1.3329  0.2318
 3008SOL    HW220484   0.726   1.100   6.171 -0.1545 -0.1116 -0.1854
 3009SOL     OW20485   2.931   2.827   8.383  0.6178  0.0498 -0.4618
 3009SOL    HW120486   2.935   2.886   8.458  0.3403  0.4511 -0.7598
 3009SOL    HW220487   2.837   2.834   8.362  0.7679  0.9665 -0.8363
 3010SOL     OW20488   2.652   0.541   7.216 -0.2936 -0.0574  0.5270
 3010SOL    HW120489   2.665   0.452   7.248  0.4029 -0.5025 -1.0297
 3010SOL    HW220490   2.610   0.521   7.133  0.8966 -1.4210  0.2594
 3011SOL     OW20491   4.437   4.098   9.202  0.4764  0.0153 -0.0874
 3011SOL    HW120492   4.515   4.056   9.238 -0.1978 -0.8822  0.3417
 3011SOL    HW220493   4.365   4.059   9.251  0.7573  1.1717  1.2803
 3012SOL     OW20494   0.484   4.276   1.643 -0.6168  0.1760  0.0491
 3012SOL    HW120495   0.555   4.223   1.609  0.7051  1.1898  1.2195
 3012SOL    HW220496   0.407   4.229   1.610 -0.5537  0.0269  0.1184
 3013SOL     OW20497   3.575   2.873   7.998  0.2228 -0.3605  0.2846
 3013SOL    HW120498   3.589   2.836   8.086 -1.3053 -1.9763 -0.1583
 3013SOL    HW220499   3.495   2.924   8.015  0.2385  0.7520 -3.1238
 3014SOL     OW20500   1.875   4.587   0.574 -0.2888  0.1034 -0.0005
 3014SOL    HW120501   1.929   4.517   0.612  1.2659  0.5129 -1.4707
 3014SOL    HW220502   1.784   4.572   0.597 -0.3147  0.6121  0.2232
 3015SOL     OW20503   2.084   0.427   0.945  0.2124  0.0350 -0.3978
 3015SOL    HW120504   2.130   0.401   0.865  0.1047 -1.3607  0.0044
 3015SOL    HW220505   2.033   0.351   0.972  0.7947 -0.9241 -1.9953
 3016SOL     OW20506   4.081   2.142   1.244  0.2546 -0.1651 -0.3742
 3016SOL    HW120507   4.076   2.237   1.238 -1.1092 -0.2611 -0.7895
 3016SOL    HW220508   4.126   2.126   1.161 -0.6646  0.7781 -1.0683
 3017SOL     OW20509   3.251   0.736   8.407  0.0206  0.4501 -0.2489
 3017SOL    HW120510   3.227   0.713   8.317  1.7345  1.0789 -0.8845
 3017SOL    HW220511   3.347   0.727   8.403  0.0739  0.6084  0.6265
 3018SOL     OW20512   4.446   2.797  13.766  0.3636 -0.2481 -0.3975
 3018SOL    HW120513   4.455   2.751  13.849  2.3146  0.6477 -0.1079
 3018SOL    HW220514   4.356   2.772  13.746 -0.0737 -0.4441  1.8712
 3019SOL     OW20515   1.557   0.528   6.336  0.3392  0.3651  0.4441
 3019SOL    HW120516   1.643   0.564   6.312  0.0975  0.5201 -0.1857
 3019SOL    HW220517   1.535   0.580   6.413  0.4631  1.8559 -0.5255
 3020SOL     OW20518   1.248   2.057   2.433 -0.3066 -0.3663 -0.0234
 3020SOL    HW120519   1.302   1.990   2.390  0.7466 -0.0280  0.7712
 3020SOL    HW220520   1.187   2.002   2.481  0.3510 -1.9978 -1.0630
 3021SOL     OW20521   4.013   3.053  12.092 -0.4852  0.6764  0.2794
 3021SOL    HW120522   4.040   3.028  12.004 -2.1800 -1.5513  0.3846
 3021SOL    HW220523   3.924   3.083  12.073 -0.5987  0.5310  0.5731
 3022SOL     OW20524   3.042   2.018  13.190  0.3845 -0.5261 -0.1394
 3022SOL    HW120525   2.955   1.983  13.173  0.1812  1.0549 -2.3698
 3022SOL    HW220526   3.025   2.111  13.178 -3.7807 -1.3086 -0.4252
 3023SOL     OW20527   3.263   1.520   6.783  0.2684  0.5736  0.0070
 3023SOL    HW120528   3.171   1.497   6.800  0.2592  1.3130  0.9701
 3023SOL    HW220529   3.303   1.434   6.773 -0.2622  0.4228 -0.8170
 3024SOL     OW20530   4.216   3.080   8.470  0.2968 -0.4831  0.3065
 3024SOL    HW120531   4.153   3.099   8.539  2.2467  2.5523  1.2739
 3024SOL    HW220532   4.187   3.001   8.426 -0.4929 -0.2219  0.3522
 3025SOL     OW20533   2.407   1.638   6.428  0.6220 -0.1667  0.1107
 3025SOL    HW120534   2.500   1.634   6.409  0.5311  1.2410 -0.6277
 3025SOL    HW220535   2.402   1.601   6.516 -2.1582  0.8804  0.4126
 3026SOL     OW20536   0.079   0.571   0.208  0.0963 -0.1886 -0.5460
 3026SOL    HW120537   0.143   0.610   0.268 -0.6473 -1.8129  1.3147
 3026SOL    HW220538   0.064   0.488   0.254  0.3204 -0.3396 -0.7451
 3027SOL     OW20539   1.685   4.487  15.560  0.1117 -0.0791 -0.2768
 3027SOL    HW120540   1.686   4.541  15.639 -1.0838 -2.1173  1.1369
 3027SOL    HW220541   1.750   4.421  15.584 -0.7709 -1.0127 -0.4490
 3028SOL     OW20542   0.934   3.770  13.698 -0.2531 -0.2870  0.4671
 3028SOL    HW120543   0.933   3.725  13.613  0.6168 -0.1100  0.3656
 3028SOL    HW220544   1.019   3.813  13.692 -0.7744  0.4615 -1.4827
 3029SOL     OW20545   0.054   2.776   8.625 -0.0125  0.1297  0.6202
 3029SOL    HW120546   4.704   2.820   8.576  0.8548  0.6643 -0.1417
 3029SOL    HW220547   0.028   2.685   8.618 -0.9662  0.5235 -0.9756
 3030SOL     OW20548   3.063   4.068  17.014 -0.0408  0.1757  0.0336
 3030SOL    HW120549   3.101   4.100  16.932 -1.9468  0.4158 -0.7628
 3030SOL    HW220550   3.068   4.148  17.067  0.0619  0.8379 -0.9667
 3031SOL     OW20551   1.728   3.817   5.247 -0.2116  0.3389 -0.8566
 3031SOL    HW120552   1.702   3.899   5.287  2.5280  0.0680  1.5544
 3031SOL    HW220553   1.652   3.808   5.190 -0.3731 -0.8632 -0.4538
 3032SOL     OW20554   1.866   3.070   4.581  0.1892  0.5512  0.5157
 3032SOL    HW120555   1.880   3.101   4.492  1.1864 -0.4946  0.3117
 3032SOL    HW220556   1.853   2.976   4.565 -0.0075  0.4840  1.0712
 3033SOL     OW20557   1.331   2.437   4.614  0.3926 -0.1178 -0.1135
 3033SOL    HW120558   1.353   2.452   4.706 -0.6428  2.5940 -0.3099
 3033SOL    HW220559   1.252   2.385   4.632  0.3416 -0.2688 -0.7961
 3034SOL     OW20560   0.154   4.498   7.915 -0.3559  0.3864 -0.0287
 3034SOL    HW120561   0.193   4.450   7.842  0.4832 -0.7122  1.1407
 3034SOL    HW220562   0.149   4.429   7.980  2.3154  0.5568  0.3434
 3035SOL     OW20563   1.538   0.878  14.747 -0.5427 -0.5762  0.2592
 3035SOL    HW120564   1.630   0.892  14.769 -0.6650  1.6976 -0.6572
 3035SOL    HW220565   1.505   0.860  14.834 -0.0143  1.1838  0.8303
 3036SOL     OW20566   4.355   1.119   6.441 -0.3733  0.6961  0.5310
 3036SOL    HW120567   4.362   1.078   6.355  0.0003  0.6911  0.5627
 3036SOL    HW220568   4.282   1.180   6.431  0.8089  2.3836  2.1539
 3037SOL     OW20569   0.891   1.866  13.166  0.1877 -0.1647  0.7600
 3037SOL    HW120570   0.915   1.934  13.102 -0.2845 -2.7530 -2.1465
 3037SOL    HW220571   0.974   1.873  13.213  1.0919  0.4807 -0.9486
 3038SOL     OW20572   4.175   3.105  11.002  0.0300  0.7659  0.4444
 3038SOL    HW120573   4.161   3.173  11.067  0.9867  0.4888  0.9375
 3038SOL    HW220574   4.137   3.031  11.050 -1.2567  0.8054 -0.5138
 3039SOL     OW20575   3.187   3.420  15.496 -0.8326 -0.6470  0.4700
 3039SOL    HW120576   3.112   3.477  15.512 -1.3219 -0.5685 -2.0432
 3039SOL    HW220577   3.190   3.412  15.401  1.1192  0.4135  0.4318
 3040SOL     OW20578   0.290   4.659   3.558 -0.7749  0.7825 -1.0913
 3040SOL    HW120579   0.230   4.615   3.498 -0.3901 -1.3475  0.0869
 3040SOL    HW220580   0.365   4.601   3.550  1.3630  3.5467 -1.0907
 3041SOL     OW20581   2.308   3.299  12.019  0.3895  0.0128 -0.0620
 3041SOL    HW120582   2.224   3.259  12.042  1.0254 -0.8394  0.8089
 3041SOL    HW220583   2.352   3.214  12.014 -0.3483 -0.2666 -1.8782
 3042SOL     OW20584   2.111   0.790  13.727  0.0371 -0.1654 -0.3197
 3042SOL    HW120585   2.082   0.878  13.704 -2.5026 -1.5123 -2.2266
 3042SOL    HW220586   2.049   0.769  13.796  0.3938  4.3548  1.3393
 3043SOL     OW20587   3.433   2.668   7.347 -0.4014 -0.4683  0.2877
 3043SOL    HW120588   3.343   2.683   7.373 -0.1906  0.8909  0.2479
 3043SOL    HW220589   3.424   2.576   7.320  0.3155  0.2778 -2.4927
 3044SOL     OW20590   3.733   3.454   3.496  0.1471 -0.5609 -0.1216
 3044SOL    HW120591   3.645   3.489   3.483  0.0269 -1.5243 -1.8840
 3044SOL    HW220592   3.782   3.464   3.414  0.9975  0.2695  0.4863
 3045SOL     OW20593   2.227   2.660   8.554  0.2571  0.1696  0.6195
 3045SOL    HW120594   2.219   2.715   8.476  2.6629  1.7643  1.5031
 3045SOL    HW220595   2.290   2.708   8.608  1.1294 -1.4808  1.0795
 3046SOL     OW20596   1.149   1.080   6.131 -0.0556 -0.2300  0.7044
 3046SOL    HW120597   1.090   1.069   6.206 -0.2611  2.3865  0.9190
 3046SOL    HW220598   1.153   1.175   6.118  2.7147 -0.1017  2.4736
 3047SOL     OW20599   4.462   0.870  17.351 -0.3942 -0.1322  0.0460
 3047SOL    HW120600   4.444   0.777  17.359 -0.5379 -0.0142  1.0662
 3047SOL    HW220601   4.535   0.872  17.289  1.8925 -1.5306  2.7210
 3048SOL     OW20602   0.483   0.994  11.119 -0.2340 -0.5346 -0.3885
 3048SOL    HW120603   0.421   0.988  11.191 -1.1332  1.9013 -0.9639
 3048SOL    HW220604   0.564   0.959  11.155 -0.0433  0.2666 -0.0527
 3049SOL     OW20605   2.983   0.461   7.369 -0.0574 -0.0861 -0.1347
 3049SOL    HW120606   3.049   0.441   7.436 -1.1592 -2.1912  0.3210
 3049SOL    HW220607   2.907   0.407   7.387 -0.8073  1.1765  0.4577
 3050SOL     OW20608   1.275   4.638   2.498 -0.1558  0.1688  0.0784
 3050SOL    HW120609   1.261   4.577   2.426  0.4306  1.7442 -1.3786
 3050SOL    HW220610   1.354   4.684   2.471  0.2548 -1.1166 -0.8795
 3051SOL     OW20611   4.406   3.824  16.064  0.0291  0.0453  0.0781
 3051SOL    HW120612   4.501   3.823  16.068 -0.0931 -0.8254  2.9196
 3051SOL    HW220613   4.379   3.755  16.125 -2.3376 -0.8134 -1.9215
 3052SOL     OW20614   1.227   2.449   7.036  0.2207  0.0314 -0.0136
 3052SOL    HW120615   1.323   2.444   7.038  0.2520  0.0369 -1.7958
 3052SOL    HW220616   1.212   2.541   7.014 -0.5956  0.0927  0.8107
 3053SOL     OW20617   3.822   2.984   5.325  0.4066  0.3645  0.5662
 3053SOL    HW120618   3.740   3.028   5.346 -0.7129 -1.1872 -0.5613
 3053SOL    HW220619   3.886   3.054   5.341 -0.1194  1.0537 -0.3524
 3054SOL     OW20620   0.328   1.656   6.707 -0.7872  0.0549 -0.9028
 3054SOL    HW120621   0.421   1.680   6.710 -0.4577 -1.2278 -1.1361
 3054SOL    HW220622   0.295   1.744   6.688 -0.1544  0.1809 -1.3956
 3055SOL     OW20623   3.492   3.608   7.871 -0.6729  0.1342 -0.1759
 3055SOL    HW120624   3.449   3.571   7.948 -0.8363  2.1396  0.6998
 3055SOL    HW220625   3.422   3.661   7.832 -0.0726  0.0592 -1.3573
 3056SOL     OW20626   3.972   2.443  10.401 -0.5729 -0.1767 -0.2828
 3056SOL    HW120627   3.986   2.409  10.312  0.3544  1.1792 -0.6463
 3056SOL    HW220628   3.972   2.366  10.459 -0.7476  1.4159  1.8107
 3057SOL     OW20629   2.633   0.886  14.568  0.7867 -0.4826  0.2628
 3057SOL    HW120630   2.643   0.971  14.526  0.6544 -0.7673 -0.3428
 3057SOL    HW220631   2.584   0.909  14.647 -0.4743 -2.8520  0.1791
 3058SOL     OW20632   1.699   4.621   6.800 -0.1550  0.2194  0.4277
 3058SOL    HW120633   1.686   4.703   6.848 -0.0178 -0.5750  1.7968
 3058SOL    HW220634   1.771   4.648   6.742  0.7577 -0.4721  1.2301
 3059SOL     OW20635   1.076   2.841   3.082  0.0781 -0.0063 -0.4376
 3059SOL    HW120636   1.077   2.889   2.999  0.8125  0.4103 -0.1880
 3059SOL    HW220637   1.045   2.755   3.056 -0.4114  0.2294 -0.6357
 3060SOL     OW20638   0.315   2.359   4.000  0.3698  0.3443  0.6511
 3060SOL    HW120639   0.237   2.408   4.029 -0.4296 -0.1817 -0.6170
 3060SOL    HW220640   0.314   2.383   3.907 -1.6171  1.5206  0.9518
 3061SOL     OW20641   2.587   0.567   8.446 -0.0012 -0.2064 -0.4060
 3061SOL    HW120642   2.581   0.472   8.443 -0.2072 -0.1464 -1.8353
 3061SOL    HW220643   2.499   0.588   8.413 -0.1784  0.1635  0.2928
 3062SOL     OW20644   0.628   0.448   9.147 -0.0119  0.7279  0.6797
 3062SOL    HW120645   0.556   0.509   9.135 -0.6536 -0.3449 -1.0416
 3062SOL    HW220646   0.667   0.443   9.059 -1.2519  0.3554  0.1542
 3063SOL     OW20647   0.406   2.322   9.587  0.0268 -0.0914 -0.4783
 3063SOL    HW120648   0.332   2.301   9.643 -0.1560  1.5696 -0.0877
 3063SOL    HW220649   0.388   2.406   9.545 -0.8809  1.1181  2.3663
 3064SOL     OW20650   2.623   4.628  13.647  0.2008 -0.2436  0.4671
 3064SOL    HW120651   2.638   4.580  13.565 -1.5922  1.5832 -0.9364
 3064SOL    HW220652   2.613   4.559  13.711 -0.6715  1.3944  2.0963
 3065SOL     OW20653   0.075   1.053   8.430  0.1083 -0.5258 -0.2721
 3065SOL    HW120654   0.016   0.985   8.398  1.4186 -0.4028 -3.0107
 3065SOL    HW220655   0.062   1.105   8.351 -2.7689 -1.9044 -0.7240
 3066SOL     OW20656   1.072   1.146   7.716  0.7138  0.1155  0.1890
 3066SOL    HW120657   1.028   1.232   7.716 -0.2258 -0.3575  1.4694
 3066SOL    HW220658   1.001   1.092   7.682  0.2909  0.0128  1.2447
 3067SOL     OW20659   4.046   2.407   1.497 -0.3534  0.1110  0.1322
 3067SOL    HW120660   3.985   2.471   1.532 -1.1287 -0.2911 -0.4911
 3067SOL    HW220661   4.107   2.398   1.570 -0.9796  0.5704  0.7003
 3068SOL     OW20662   1.669   2.206   5.572  0.1603  0.6652 -0.3631
 3068SOL    HW120663   1.762   2.185   5.579 -0.0367 -0.5999 -1.6243
 3068SOL    HW220664   1.648   2.159   5.492  0.2865 -0.3935  0.2329
 3069SOL     OW20665   0.740   3.602   3.233 -0.1523 -0.3861  0.0924
 3069SOL    HW120666   0.751   3.534   3.166  0.4183  1.4648 -1.6861
 3069SOL    HW220667   0.817   3.586   3.288  0.4726  0.7086 -0.4712
 3070SOL     OW20668   3.109   1.647   9.473 -0.6304  0.0330  0.0257
 3070SOL    HW120669   3.125   1.672   9.564 -2.5232  1.7525 -0.1084
 3070SOL    HW220670   3.100   1.729   9.425  3.2299 -0.1863 -1.0699
 3071SOL     OW20671   0.366   3.409   4.673  0.5269 -0.3427 -0.9877
 3071SOL    HW120672   0.418   3.357   4.611  0.5922  2.1541 -3.0689
 3071SOL    HW220673   0.328   3.341   4.728  0.8002 -0.7547 -1.2981
 3072SOL     OW20674   3.614   2.115   2.210  0.8541 -0.7038  0.1968
 3072SOL    HW120675   3.583   2.071   2.131 -0.4975 -0.4609  0.5842
 3072SOL    HW220676   3.708   2.105   2.192  1.2349  0.4467  1.5893
 3073SOL     OW20677   0.785   3.783   1.174 -0.6042  0.0003 -0.4294
 3073SOL    HW120678   0.834   3.851   1.219 -2.1301 -0.9077  2.5848
 3073SOL    HW220679   0.697   3.819   1.188 -1.0205 -0.9203 -0.6250
 3074SOL     OW20680   2.852   4.464   6.563 -0.1708  0.1562 -0.4205
 3074SOL    HW120681   2.849   4.370   6.550 -4.5583  0.2900 -0.1341
 3074SOL    HW220682   2.870   4.472   6.657  1.1001  1.8386 -0.7896
 3075SOL     OW20683   2.556   2.811  11.989  0.4679 -0.5908 -0.8492
 3075SOL    HW120684   2.630   2.777  11.938  0.5049 -2.2204  0.2905
 3075SOL    HW220685   2.587   2.815  12.080 -2.6246  1.3168  0.1280
 3076SOL     OW20686   3.680   0.808   2.942 -0.0981  0.8774 -0.4454
 3076SOL    HW120687   3.704   0.791   2.851 -0.9551 -0.7458 -0.3681
 3076SOL    HW220688   3.740   0.879   2.966  1.2026 -0.4408  0.2262
 3077SOL     OW20689   0.592   2.568  12.297  0.1911  0.0804 -0.1866
 3077SOL    HW120690   0.588   2.663  12.302  0.2092  0.0534  0.3385
 3077SOL    HW220691   0.583   2.529  12.384 -1.9738 -2.1440 -1.3911
 3078SOL     OW20692   0.819   1.060  12.273 -0.5947 -0.5927 -0.1489
 3078SOL    HW120693   0.874   1.139  12.269 -1.0752 -0.1863  1.3065
 3078SOL    HW220694   0.813   1.030  12.183 -0.3244 -0.1377 -0.3211
 3079SOL     OW20695   1.262   1.681   7.341  0.0908  0.5983  0.4927
 3079SOL    HW120696   1.329   1.742   7.373 -0.5360  1.9036 -0.6701
 3079SOL    HW220697   1.235   1.723   7.259 -0.3470 -0.4904  0.0892
 3080SOL     OW20698   0.913   3.421   6.467 -0.1247 -0.7212 -0.9270
 3080SOL    HW120699   0.973   3.370   6.520 -1.5590 -1.2165  0.2406
 3080SOL    HW220700   0.893   3.503   6.512 -0.7216 -1.4779  0.1796
 3081SOL     OW20701   3.087   3.148   5.735 -0.2068  0.1466  0.1156
 3081SOL    HW120702   3.171   3.107   5.713  0.4923  1.6416  0.0672
 3081SOL    HW220703   3.091   3.223   5.676  0.8668  0.9648  1.2118
 3082SOL     OW20704   1.719   3.844   4.308  0.1586 -0.4611  0.1364
 3082SOL    HW120705   1.691   3.871   4.221  1.4424 -1.0716 -0.4674
 3082SOL    HW220706   1.812   3.863   4.297  0.1187 -0.2963  0.0768
 3083SOL     OW20707   4.259   0.044   6.524 -0.2837  0.0940  0.0512
 3083SOL    HW120708   4.265   0.078   6.613 -0.0938 -0.9681  0.4409
 3083SOL    HW220709   4.293   4.675   6.536 -1.1588 -0.1719  0.5431
 3084SOL     OW20710   2.519   0.104  10.953  0.0795 -0.3370 -0.1194
 3084SOL    HW120711   2.585   0.075  10.891 -1.4985  0.2885 -2.0894
 3084SOL    HW220712   2.459   0.031  10.934  0.1340 -0.7556  1.2934
 3085SOL     OW20713   4.120   4.635   2.717 -0.0197 -0.1538  0.0904
 3085SOL    HW120714   4.177   4.667   2.647  0.6587  0.1127  0.7572
 3085SOL    HW220715   4.131   4.540   2.716  1.8389  0.0647 -0.4403
 3086SOL     OW20716   3.736   1.237   5.156  0.1428  0.0601 -0.3422
 3086SOL    HW120717   3.749   1.291   5.078  1.4068  0.8966  0.4478
 3086SOL    HW220718   3.688   1.165   5.116  0.4426 -0.9648  1.1472
 3087SOL     OW20719   0.026   0.551  15.087  0.1220 -0.0052  0.4635
 3087SOL    HW120720   0.044   0.635  15.043  0.0018  0.5705  1.5170
 3087SOL    HW220721   0.043   0.481  15.025 -0.6684  1.1950 -1.1078
 3088SOL     OW20722   0.561   2.657   7.035 -0.2624 -0.8452 -0.4050
 3088SOL    HW120723   0.487   2.696   7.083  1.5835  0.3903  1.5039
 3088SOL    HW220724   0.606   2.632   7.116  1.3870 -2.1099 -1.7225
 3089SOL     OW20725   1.330   1.236   3.462  0.1236 -0.9685 -0.7742
 3089SOL    HW120726   1.257   1.288   3.495 -0.2588 -1.0167 -1.5599
 3089SOL    HW220727   1.285   1.156   3.436 -0.5287 -0.1463 -2.1557
 3090SOL     OW20728   3.429   0.063   8.402 -0.3964 -0.0923  0.4325
 3090SOL    HW120729   3.440   0.152   8.435  1.0077  0.6200 -1.9868
 3090SOL    HW220730   3.340   0.065   8.366 -0.1384  2.0742 -0.0604
 3091SOL     OW20731   1.629   2.693   2.771  0.2082 -0.3044  0.4884
 3091SOL    HW120732   1.534   2.684   2.778 -0.0736  1.7779 -0.8771
 3091SOL    HW220733   1.653   2.741   2.850  0.5790  1.3385 -0.6358
 3092SOL     OW20734   2.031   1.143   8.053  0.1728 -0.4919  0.0513
 3092SOL    HW120735   2.031   1.194   7.972 -0.1324 -0.9199 -0.2116
 3092SOL    HW220736   2.114   1.166   8.096  1.1695 -0.1602 -2.0063
 3093SOL     OW20737   1.495   1.650   4.072 -0.0393  0.8826 -0.4838
 3093SOL    HW120738   1.467   1.640   4.163 -0.1728  1.5004 -0.4566
 3093SOL    HW220739   1.561   1.581   4.075 -1.4459 -0.3851  1.5570
 3094SOL     OW20740   1.828   1.634  11.903 -0.2000 -0.1796 -0.6038
 3094SOL    HW120741   1.853   1.560  11.959  0.1771  0.0623 -0.4524
 3094SOL    HW220742   1.889   1.625  11.830  0.5042  0.3543 -0.0875
 3095SOL     OW20743   3.806   0.118   9.539 -0.3566 -0.3791  0.1126
 3095SOL    HW120744   3.882   0.069   9.510  0.1789 -0.0552  0.9511
 3095SOL    HW220745   3.764   0.120   9.453 -0.2775 -3.1462  0.0308
 3096SOL     OW20746   1.172   2.917   0.592  0.0800 -0.2443  0.2574
 3096SOL    HW120747   1.247   2.956   0.636 -0.1182 -2.4793  2.6032
 3096SOL    HW220748   1.143   2.853   0.657  0.8688 -0.6231  0.2419
 3097SOL     OW20749   0.697   4.333  14.120  0.0795 -0.3255  0.0230
 3097SOL    HW120750   0.728   4.424  14.125  0.3504 -0.2500 -2.8704
 3097SOL    HW220751   0.604   4.339  14.101 -0.0070  1.2092  0.9699
 3098SOL     OW20752   0.063   0.841   1.757 -0.2564 -0.2706 -0.1320
 3098SOL    HW120753   0.045   0.896   1.833 -1.2795 -0.6347 -0.1036
 3098SOL    HW220754   0.085   0.915   1.701 -0.7725  0.6548  0.9073
 3099SOL     OW20755   2.512   2.776   3.742 -0.0956 -0.1258 -0.3673
 3099SOL    HW120756   2.444   2.808   3.683 -2.3192 -2.1228  1.1092
 3099SOL    HW220757   2.584   2.763   3.681 -0.1735 -2.2485  0.0027
 3100SOL     OW20758   1.642   2.273   8.610 -0.1159 -0.0139  0.4060
 3100SOL    HW120759   1.647   2.229   8.695  0.1309 -2.4571 -0.8547
 3100SOL    HW220760   1.685   2.208   8.554  1.4415  1.7490 -0.4239
 3101SOL     OW20761   4.526   2.842   6.213 -0.2246 -0.4620 -0.1800
 3101SOL    HW120762   4.595   2.905   6.195  0.3753 -0.0801  3.5113
 3101SOL    HW220763   4.505   2.841   6.307 -1.4088 -3.1906 -0.4650
 3102SOL     OW20764   0.380   0.470   6.617  0.2190  0.0849 -0.6695
 3102SOL    HW120765   0.460   0.452   6.569  0.0177  2.2134 -1.8504
 3102SOL    HW220766   0.324   0.402   6.579  1.9461 -1.1084 -1.0715
 3103SOL     OW20767   3.832   2.758   2.400  0.2689  0.3781 -0.7819
 3103SOL    HW120768   3.883   2.839   2.405  0.1675  0.2574  2.3401
 3103SOL    HW220769   3.782   2.762   2.318 -0.9949  0.5647  0.0077
 3104SOL     OW20770   4.667   4.384   8.168 -0.1750 -0.0008  0.5835
 3104SOL    HW120771   0.006   4.430   8.228 -1.8670 -0.8067  2.8753
 3104SOL    HW220772   4.622   4.329   8.232  1.0894 -2.6472 -0.8302
 3105SOL     OW20773   0.434   2.559   8.011  0.4260 -0.5914 -0.4383
 3105SOL    HW120774   0.469   2.490   7.955  0.0815 -0.5004 -0.7712
 3105SOL    HW220775   0.510   2.618   8.013  0.9081 -1.2422  0.1979
 3106SOL     OW20776   3.943   4.585   8.571 -0.2749 -0.1367 -0.2494
 3106SOL    HW120777   4.025   4.631   8.591 -0.0498  0.1084 -1.7361
 3106SOL    HW220778   3.887   4.628   8.636  1.0243  0.7556  0.2871
 3107SOL     OW20779   0.400   0.367   7.290  0.0194  0.0591  0.1063
 3107SOL    HW120780   0.419   0.426   7.363 -1.8222  0.6110  0.1526
 3107SOL    HW220781   0.439   0.419   7.220  0.3454 -0.3850 -0.0373
 3108SOL     OW20782   4.447   1.588   2.006  0.2717  0.2552 -0.4020
 3108SOL    HW120783   4.494   1.618   1.928  2.5381  0.7415  1.1600
 3108SOL    HW220784   4.504   1.522   2.045  0.8685  0.6673 -0.5789
 3109SOL     OW20785   2.752   4.441   8.817  0.0008 -0.1181  0.2004
 3109SOL    HW120786   2.701   4.516   8.846 -0.7575 -0.8557  0.7849
 3109SOL    HW220787   2.816   4.483   8.760 -1.0810  0.6463 -0.4635
 3110SOL     OW20788   0.203   3.307   7.243  0.4858  0.1565  0.3842
 3110SOL    HW120789   0.266   3.372   7.274 -0.4537  0.8875  0.7572
 3110SOL    HW220790   0.241   3.283   7.159  0.8866 -0.1422  0.6445
 3111SOL     OW20791   3.034   2.066  12.654 -0.3091 -0.0803  0.2606
 3111SOL    HW120792   3.054   2.054  12.747  0.3621  0.5926  0.2063
 3111SOL    HW220793   3.036   1.976  12.622  3.7484  0.3997 -0.7957
 3112SOL     OW20794   2.904   3.012  11.896  0.2942 -0.8507  0.0458
 3112SOL    HW120795   2.896   3.016  11.991 -0.6390 -1.3507 -0.0155
 3112SOL    HW220796   2.978   3.071  11.881 -1.0985  0.5393 -1.3927
 3113SOL     OW20797   0.324   3.122   1.122 -0.7873  0.2319  0.2413
 3113SOL    HW120798   0.312   3.031   1.146  0.6462 -0.2625 -0.9440
 3113SOL    HW220799   0.235   3.154   1.137 -1.0914 -0.1219 -0.7703
 3114SOL     OW20800   1.785   1.350   8.297 -0.1355  0.3724  0.1690
 3114SOL    HW120801   1.755   1.323   8.210 -2.6430  0.8306  0.9055
 3114SOL    HW220802   1.705   1.362   8.348  0.8294  2.2876  1.1916
 3115SOL     OW20803   1.558   2.101   7.305 -0.2254 -0.1328 -0.2579
 3115SOL    HW120804   1.640   2.074   7.264 -1.1261  0.6389 -2.5823
 3115SOL    HW220805   1.591   2.161   7.371 -1.7170  3.0463 -2.4318
 3116SOL     OW20806   3.164   4.142   8.778 -0.4007  0.7305  0.1300
 3116SOL    HW120807   3.143   4.192   8.857  1.2105  1.2134  0.2684
 3116SOL    HW220808   3.260   4.138   8.782 -0.4367  0.5433  0.8272
 3117SOL     OW20809   2.576   1.368   3.827  0.4056  0.7038  0.5218
 3117SOL    HW120810   2.622   1.318   3.759 -0.1097  1.9375 -0.7431
 3117SOL    HW220811   2.656   1.394   3.873  0.9115  1.0964 -0.5691
 3118SOL     OW20812   3.332   3.336  10.511 -0.8479 -0.0932  0.1200
 3118SOL    HW120813   3.366   3.412  10.558 -1.4594 -0.9654  2.0058
 3118SOL    HW220814   3.254   3.319  10.564 -1.6726  1.0664 -0.6955
 3119SOL     OW20815   4.703   1.042   8.714  0.0274  0.0603 -0.0231
 3119SOL    HW120816   0.018   1.036   8.625 -1.1486  0.5575 -0.5200
 3119SOL    HW220817   4.714   1.136   8.726 -2.1969  0.2682  0.4803
 3120SOL     OW20818   2.215   1.940  17.029 -0.2886  0.3476  0.5591
 3120SOL    HW120819   2.135   1.971  17.071 -1.5534  0.2014 -1.7812
 3120SOL    HW220820   2.199   1.939  16.935  1.1529  1.0094  0.3125
 3121SOL     OW20821   4.038   1.706  15.353 -0.0786  0.0972 -0.2732
 3121SOL    HW120822   4.010   1.793  15.382 -0.6541 -0.6061  1.2563
 3121SOL    HW220823   3.974   1.688  15.284 -0.9248  0.7639  0.3435
 3122SOL     OW20824   2.770   0.768  17.443 -0.1892  0.4980  0.0198
 3122SOL    HW120825   2.679   0.760  17.415 -0.6022 -0.9740  1.8389
 3122SOL    HW220826   2.780   0.848  17.493 -3.0801  0.7000  0.2727
 3123SOL     OW20827   0.462   4.504   8.997 -0.4603  0.1364  0.2088
 3123SOL    HW120828   0.523   4.543   9.060 -1.6620  2.9251 -0.3286
 3123SOL    HW220829   0.406   4.446   9.047  1.0861 -0.3724  1.3597
 3124SOL     OW20830   3.978   2.604   8.510 -0.0693 -0.7846  0.0274
 3124SOL    HW120831   3.995   2.511   8.527  1.2405 -0.4172  0.7416
 3124SOL    HW220832   3.926   2.589   8.432 -0.2669 -1.0673  0.2128
 3125SOL     OW20833   0.166   0.649   6.178  0.4511 -0.0143 -0.3012
 3125SOL    HW120834   0.165   0.560   6.213 -0.3898 -0.4049 -1.3181
 3125SOL    HW220835   0.223   0.687   6.244 -1.9417 -0.3059  1.9335
 3126SOL     OW20836   2.263   1.026  11.303 -0.4247  0.1667  0.1612
 3126SOL    HW120837   2.172   1.007  11.326 -0.3555 -0.5838 -0.1891
 3126SOL    HW220838   2.252   1.105  11.250  1.5455  1.4610  1.6628
 3127SOL     OW20839   2.592   2.628   6.750 -0.1569 -0.0317  0.1470
 3127SOL    HW120840   2.654   2.695   6.721 -0.8232  0.7280  0.4982
 3127SOL    HW220841   2.646   2.549   6.760 -1.6407 -1.2223 -1.2724
 3128SOL     OW20842   3.314   1.030  15.783 -0.2415 -0.5690  0.5358
 3128SOL    HW120843   3.269   1.002  15.863 -2.4320 -0.7106 -0.7535
 3128SOL    HW220844   3.345   1.110  15.826  0.2850 -0.7191  0.4291
 3129SOL     OW20845   4.229   2.542   0.785 -0.5479  0.6806 -0.0896
 3129SOL    HW120846   4.296   2.602   0.751  0.4127 -1.5246 -2.0595
 3129SOL    HW220847   4.235   2.553   0.880  0.3722  2.2139 -0.3266
 3130SOL     OW20848   4.419   3.585   9.409 -0.7628  0.1003  0.0522
 3130SOL    HW120849   4.468   3.506   9.434 -0.3507  0.4877  0.4604
 3130SOL    HW220850   4.438   3.637   9.487  1.5155  3.2154 -2.5894
 3131SOL     OW20851   3.685   0.529  16.963  0.4699 -0.0027 -0.0341
 3131SOL    HW120852   3.689   0.607  17.019  2.0248 -0.7677  0.9315
 3131SOL    HW220853   3.599   0.549  16.928  0.0827  1.1804  1.5946
 3132SOL     OW20854   2.261   2.783  12.119 -0.2888  0.4279 -0.2454
 3132SOL    HW120855   2.294   2.866  12.153 -3.1381  1.6260 -0.4402
 3132SOL    HW220856   2.310   2.726  12.178 -0.3394  0.5818 -0.0581
 3133SOL     OW20857   2.208   4.101   7.647  0.0729 -0.0536 -0.5946
 3133SOL    HW120858   2.233   4.104   7.555 -1.8247  2.4370 -1.0093
 3133SOL    HW220859   2.113   4.097   7.650  0.1279 -1.6965 -1.4164
 3134SOL     OW20860   0.485   3.575  11.430 -0.7965 -0.2742 -0.1442
 3134SOL    HW120861   0.544   3.561  11.504 -1.7838  1.0686  0.8834
 3134SOL    HW220862   0.456   3.487  11.406  1.7823 -1.2318  0.2592
 3135SOL     OW20863   3.953   4.568   8.869 -0.0474  0.1230 -0.5144
 3135SOL    HW120864   3.897   4.632   8.913 -0.7202 -1.4654  0.9208
 3135SOL    HW220865   4.023   4.553   8.933  0.6777  0.4724 -1.2253
 3136SOL     OW20866   4.036   0.931  14.380  0.0506 -0.2702 -0.8108
 3136SOL    HW120867   3.953   0.885  14.393  0.2927 -0.4489  0.0851
 3136SOL    HW220868   4.007   1.002  14.322  1.0432  0.3076 -0.5905
 3137SOL     OW20869   1.269   1.678   9.245  0.5305  0.2190 -0.4967
 3137SOL    HW120870   1.271   1.674   9.149  1.9887  0.0434 -0.4675
 3137SOL    HW220871   1.177   1.701   9.256  1.0886  2.3723 -0.3419
 3138SOL     OW20872   2.945   2.905   1.553 -0.1718 -0.6162 -0.6826
 3138SOL    HW120873   3.033   2.873   1.531 -0.3448  0.1219 -2.4213
 3138SOL    HW220874   2.950   2.921   1.648  0.9405  2.4627 -1.2403
 3139SOL     OW20875   4.541   0.118   8.148  0.2098  0.7199 -0.0254
 3139SOL    HW120876   4.539   0.185   8.080  3.2993  1.9312  1.0666
 3139SOL    HW220877   4.559   0.034   8.106  0.9158  1.5482 -1.3489
 3140SOL     OW20878   0.696   2.648  13.665 -0.2784  0.1085  0.1086
 3140SOL    HW120879   0.776   2.595  13.671 -0.0098  0.5743  0.5752
 3140SOL    HW220880   0.732   2.735  13.682 -0.6489  0.6556 -1.8311
 3141SOL     OW20881   3.854   3.168  13.028  0.1007  0.3578  0.1512
 3141SOL    HW120882   3.783   3.127  13.076  0.6461 -0.4308  0.2739
 3141SOL    HW220883   3.931   3.118  13.054  0.1976  0.3366 -0.1788
 3142SOL     OW20884   1.542   0.619   5.804 -0.4558 -0.2266 -0.4369
 3142SOL    HW120885   1.623   0.587   5.765  0.6680  1.0909  0.8346
 3142SOL    HW220886   1.574   0.623   5.894 -2.1596  1.1845  0.1299
 3143SOL     OW20887   3.590   1.884   7.407  0.1124 -0.2558 -0.0699
 3143SOL    HW120888   3.630   1.820   7.348  0.8508 -1.2058  1.4648
 3143SOL    HW220889   3.654   1.876   7.478  1.7086 -0.9783 -1.5846
 3144SOL     OW20890   1.981   4.305   3.557 -0.1643  0.0416 -0.6401
 3144SOL    HW120891   1.984   4.395   3.588  1.5331 -0.4630  0.7028
 3144SOL    HW220892   2.061   4.308   3.505  1.0786  3.2745  1.4796
 3145SOL     OW20893   4.206   1.012   8.906 -0.6167  0.3928  0.7989
 3145SOL    HW120894   4.168   1.065   8.976 -2.7135  1.2674 -0.9893
 3145SOL    HW220895   4.141   1.000   8.836 -0.6847  0.9453  0.7656
 3146SOL     OW20896   2.881   1.432   5.691  0.2187 -0.1209  0.3178
 3146SOL    HW120897   2.975   1.447   5.695  0.2422 -0.0896 -0.3486
 3146SOL    HW220898   2.870   1.381   5.611  0.2674 -1.1384  0.9465
 3147SOL     OW20899   1.193   2.813   7.749 -0.2505  0.0016  0.5840
 3147SOL    HW120900   1.200   2.768   7.833 -2.6502 -1.0741  0.2082
 3147SOL    HW220901   1.141   2.887   7.779 -2.7848  0.2104 -4.2434
 3148SOL     OW20902   2.110   0.169   8.124  0.7043 -0.5940 -0.6218
 3148SOL    HW120903   2.166   0.207   8.192  0.4930 -3.9259  1.3836
 3148SOL    HW220904   2.158   0.094   8.089  1.4332 -1.4019  2.1855
 3149SOL     OW20905   1.152   1.134   2.542 -0.3977  0.3278  0.0639
 3149SOL    HW120906   1.059   1.117   2.550 -0.2765 -0.4254 -0.1486
 3149SOL    HW220907   1.167   1.148   2.449  0.1012  1.9127  0.3695
 3150SOL     OW20908   2.711   3.042   4.077  0.6885  0.1447 -0.1022
 3150SOL    HW120909   2.625   3.014   4.046 -0.2622  2.7563  0.2544
 3150SOL    HW220910   2.740   2.958   4.114 -1.9935 -0.9610 -0.4568
 3151SOL     OW20911   3.561   1.754   3.968 -0.2984 -0.2065 -0.2392
 3151SOL    HW120912   3.573   1.674   4.020  3.4094  0.2256 -0.4156
 3151SOL    HW220913   3.524   1.710   3.892 -1.3427  0.4709 -0.1200
 3152SOL     OW20914   1.396   4.661   3.342  0.0595  0.0955  0.1184
 3152SOL    HW120915   1.313   4.625   3.373  1.5360 -2.0126  1.5674
 3152SOL    HW220916   1.460   4.592   3.357  2.2446  1.9049 -0.8604
 3153SOL     OW20917   2.793   4.283   3.233 -0.2237 -0.3360 -0.2337
 3153SOL    HW120918   2.847   4.347   3.187 -1.4287  1.1561  0.3943
 3153SOL    HW220919   2.862   4.229   3.270  0.0379  0.7039  0.7980
 3154SOL     OW20920   1.552   0.106  16.447  0.7689  0.3382  0.0622
 3154SOL    HW120921   1.603   0.048  16.503  3.0775  2.2129 -0.0784
 3154SOL    HW220922   1.568   0.193  16.484 -3.5606  1.2057 -0.0990
 3155SOL     OW20923   1.392   1.957   4.103  0.3129  0.2968  0.4186
 3155SOL    HW120924   1.379   2.045   4.137  0.2459  1.4820 -2.6315
 3155SOL    HW220925   1.482   1.957   4.070 -0.3709 -1.8196 -1.4915
 3156SOL     OW20926   1.732   3.527   3.755 -0.5054  0.4985 -0.0341
 3156SOL    HW120927   1.796   3.591   3.785  0.4064 -0.4667  0.0664
 3156SOL    HW220928   1.660   3.589   3.743 -0.9458  0.3554  1.8944
 3157SOL     OW20929   2.491   3.297   3.181 -0.0829 -0.0072 -0.8883
 3157SOL    HW120930   2.471   3.386   3.210  0.3517  0.0002 -0.6104
 3157SOL    HW220931   2.555   3.311   3.111 -0.1768 -0.7298 -1.1168
 3158SOL     OW20932   0.914   1.788  12.150 -0.3363  0.3659 -0.0374
 3158SOL    HW120933   0.873   1.702  12.156 -0.9311  0.6085 -0.5395
 3158SOL    HW220934   0.907   1.811  12.057  1.1593 -0.7284 -0.4103
 3159SOL     OW20935   3.014   4.083   6.472 -0.5806  0.7261 -0.5734
 3159SOL    HW120936   3.016   4.107   6.565 -1.5424  0.1903 -0.4111
 3159SOL    HW220937   2.931   4.122   6.443 -1.3660 -0.8588 -0.4693
 3160SOL     OW20938   3.497   2.140  13.993  0.1991  0.7594 -0.0089
 3160SOL    HW120939   3.589   2.158  14.015  0.9496  0.4638 -2.8914
 3160SOL    HW220940   3.468   2.092  14.071  1.4377  0.9356  0.5646
 3161SOL     OW20941   1.534   4.625   0.241 -0.0450  0.1639  0.9243
 3161SOL    HW120942   1.519   4.719   0.231  1.5368  0.2303 -0.8767
 3161SOL    HW220943   1.532   4.608   0.147  2.4261 -0.7312  1.0449
 3162SOL     OW20944   0.225   1.727  17.673 -0.7090  0.4782  0.2162
 3162SOL    HW120945   0.204   1.677   0.071 -2.9724  0.2801 -0.5119
 3162SOL    HW220946   0.205   1.663  17.605 -1.5499  1.1110 -0.1371
 3163SOL     OW20947   4.210   4.313   6.667  0.4465  0.1058 -0.2326
 3163SOL    HW120948   4.262   4.375   6.615  3.3964 -1.5897  0.7523
 3163SOL    HW220949   4.231   4.235   6.617  0.9528 -0.7738  1.3704
 3164SOL     OW20950   2.267   3.847   2.473 -0.1775  0.5429 -0.3303
 3164SOL    HW120951   2.193   3.845   2.413 -2.1391  1.1229  2.0559
 3164SOL    HW220952   2.227   3.895   2.546  1.1497 -0.7862  1.2857
 3165SOL     OW20953   3.338   4.223   4.804 -0.2314  1.1153 -0.3911
 3165SOL    HW120954   3.311   4.266   4.885  2.2492  1.1418  0.4094
 3165SOL    HW220955   3.253   4.214   4.761  0.0560 -0.3307 -0.6627
 3166SOL     OW20956   2.302   4.142   4.694  0.2995  0.0382  0.6596
 3166SOL    HW120957   2.355   4.063   4.678 -1.6047 -0.9338 -0.7273
 3166SOL    HW220958   2.235   4.113   4.756  1.3333 -1.3990  1.1166
 3167SOL     OW20959   4.579   3.466   3.447  0.3475  0.3813 -0.3203
 3167SOL    HW120960   4.674   3.477   3.441  0.5823 -2.4793 -2.0394
 3167SOL    HW220961   4.555   3.444   3.356  0.7929 -1.7663  0.0853
 3168SOL     OW20962   4.591   0.437  17.102 -0.0691 -0.7735 -0.4107
 3168SOL    HW120963   4.499   0.427  17.078 -0.3756  0.6240  0.1548
 3168SOL    HW220964   4.591   0.379  17.179 -2.2304  1.1227  1.0232
 3169SOL     OW20965   0.393   1.107   2.974 -0.2030 -0.8114 -0.0147
 3169SOL    HW120966   0.326   1.039   2.983 -0.7691 -0.2511 -0.0087
 3169SOL    HW220967   0.405   1.142   3.063 -3.0793 -0.3345  0.1807
 3170SOL     OW20968   4.120   3.505   4.976 -0.1513  0.4651 -0.6811
 3170SOL    HW120969   4.196   3.557   5.003 -0.5283 -0.6582  2.5592
 3170SOL    HW220970   4.081   3.474   5.057  0.6043 -0.0308 -0.5052
 3171SOL     OW20971   1.450   3.928  13.663  0.0075  0.7777 -0.4059
 3171SOL    HW120972   1.409   4.008  13.630 -0.4232  0.3886 -0.8088
 3171SOL    HW220973   1.526   3.920  13.605  1.1203  1.7327  0.9152
 3172SOL     OW20974   4.298   2.016   7.947  1.0178  0.6313  0.3807
 3172SOL    HW120975   4.211   1.991   7.915  1.8489 -0.2907 -1.1353
 3172SOL    HW220976   4.292   2.111   7.957 -0.6140  0.5421  0.2797
 3173SOL     OW20977   3.277   1.546   3.084 -0.1453  0.1070  0.0714
 3173SOL    HW120978   3.243   1.635   3.076 -2.6444 -0.8206  0.4554
 3173SOL    HW220979   3.222   1.522   3.158 -0.9846 -1.0132 -0.9054
 3174SOL     OW20980   0.965   1.762   9.691  0.4105  0.1218  0.1370
 3174SOL    HW120981   0.958   1.696   9.760  0.8514 -1.4656 -1.3302
 3174SOL    HW220982   0.874   1.752   9.662 -0.4678 -0.0306  2.9518
 3175SOL     OW20983   2.236   1.962   0.449  0.3105 -0.4866  0.2456
 3175SOL    HW120984   2.170   2.022   0.413  1.1472 -0.4828 -1.2849
 3175SOL    HW220985   2.225   1.883   0.396 -1.0778 -0.4123  0.4051
 3176SOL     OW20986   1.949   2.713   9.813 -0.1141 -0.2889 -0.2194
 3176SOL    HW120987   1.866   2.668   9.796 -0.7337  1.6082 -2.1666
 3176SOL    HW220988   1.941   2.708   9.908  1.2084  1.7065 -0.0079
 3177SOL     OW20989   2.013   1.115   6.622  0.0523  0.0574  0.0263
 3177SOL    HW120990   2.102   1.080   6.625 -0.2673 -0.7367  0.2704
 3177SOL    HW220991   1.988   1.115   6.714 -0.1718 -2.1279 -0.0403
 3178SOL     OW20992   1.089   4.699   3.947  0.1386  0.3195  0.4727
 3178SOL    HW120993   1.048   0.030   3.878  0.0368  1.3766  1.3075
 3178SOL    HW220994   1.133   0.051   3.994  1.3786 -0.5262  0.6126
 3179SOL     OW20995   2.274   2.169   1.642  0.1251 -0.3495 -0.1146
 3179SOL    HW120996   2.303   2.115   1.716 -1.1249  0.1526  0.7351
 3179SOL    HW220997   2.228   2.103   1.590  0.9827  0.4458 -1.8830
 3180SOL     OW20998   4.484   2.868  14.574 -0.0281  0.1258  0.0036
 3180SOL    HW120999   4.473   2.963  14.569 -2.0247 -0.2235 -1.9973
 3180SOL    HW221000   4.395   2.834  14.578  0.2143 -0.5947 -0.5676
 3181SOL     OW21001   0.414   3.280   3.635 -0.1487  0.4557  0.1721
 3181SOL    HW121002   0.414   3.249   3.725  0.8825  0.0105  0.0185
 3181SOL    HW221003   0.385   3.208   3.579 -1.1675  1.0363 -0.0426
 3182SOL     OW21004   4.435   0.763   5.108  0.4601  0.5881  0.2109
 3182SOL    HW121005   4.481   0.841   5.079  1.7921 -0.2794 -0.0465
 3182SOL    HW221006   4.499   0.695   5.085  0.6705  0.6550  0.5934
 3183SOL     OW21007   0.237   0.717   8.806  0.0249  0.2390 -0.2279
 3183SOL    HW121008   0.279   0.800   8.829 -0.3592 -0.3029  2.4393
 3183SOL    HW221009   0.159   0.726   8.861  1.1205 -0.1915  1.4175
 3184SOL     OW21010   3.209   1.519   8.244  0.0912 -0.0418  0.3345
 3184SOL    HW121011   3.134   1.468   8.213  1.0724 -1.7185  0.7297
 3184SOL    HW221012   3.247   1.451   8.299 -1.3479 -0.4807  0.7594
 3185SOL     OW21013   4.350   0.712   8.434  0.3789  0.3027 -0.2973
 3185SOL    HW121014   4.319   0.725   8.523 -0.1869 -0.8455 -0.3346
 3185SOL    HW221015   4.276   0.722   8.375  0.2182  0.4069 -0.0761
 3186SOL     OW21016   2.349   3.713   5.564 -0.0391  0.2028  0.1348
 3186SOL    HW121017   2.389   3.663   5.493  1.7139  1.3631  0.3091
 3186SOL    HW221018   2.314   3.642   5.618 -0.7650 -0.6545 -1.4572
 3187SOL     OW21019   2.083   0.872  17.422 -0.2473 -0.1867  0.1576
 3187SOL    HW121020   2.107   0.927  17.347  0.3164  1.0588  1.2421
 3187SOL    HW221021   2.038   0.794  17.392  1.8169 -0.8713 -1.1360
 3188SOL     OW21022   0.489   1.570   8.361 -0.4799  0.3325  0.0818
 3188SOL    HW121023   0.438   1.646   8.389  0.5362  1.0726 -0.1124
 3188SOL    HW221024   0.438   1.548   8.283  1.3650 -1.1227 -0.7145
 3189SOL     OW21025   2.126   3.110  12.696  0.6474 -0.0189  0.5963
 3189SOL    HW121026   2.153   3.091  12.786 -1.0277 -1.1762  0.8571
 3189SOL    HW221027   2.037   3.076  12.709  0.4422  1.2857  2.5832
 3190SOL     OW21028   2.871   3.072   2.952 -0.2817  0.5971  0.3921
 3190SOL    HW121029   2.896   3.107   2.866 -0.6990 -0.3150 -0.0980
 3190SOL    HW221030   2.921   2.990   2.951 -1.4088 -0.0543 -1.5401
 3191SOL     OW21031   2.481   2.787  15.554  0.6464  0.1572  0.1427
 3191SOL    HW121032   2.461   2.731  15.629  2.1789 -2.1933 -1.2167
 3191SOL    HW221033   2.526   2.859  15.599 -1.5766  1.6495 -0.0536
 3192SOL     OW21034   1.036   3.168   6.703  0.4002 -0.1100  0.3794
 3192SOL    HW121035   1.088   3.088   6.712  0.6543  0.1019  0.7938
 3192SOL    HW221036   0.947   3.133   6.705  0.5892 -0.5144  2.0241
 3193SOL     OW21037   2.369   1.567   8.602  0.0611  0.3281  0.6946
 3193SOL    HW121038   2.300   1.590   8.665  1.0268  0.7257  1.6038
 3193SOL    HW221039   2.445   1.588   8.656 -1.4742  0.8032  2.7099
 3194SOL     OW21040   2.715   4.195   8.684  0.1059 -0.1500  0.0189
 3194SOL    HW121041   2.744   4.282   8.714 -2.2274  0.0921  1.5627
 3194SOL    HW221042   2.752   4.152   8.761  0.8689  1.4019  0.5258
 3195SOL     OW21043   4.010   2.060   4.506 -0.3768 -0.2247 -0.3194
 3195SOL    HW121044   4.045   1.972   4.520  0.0703 -0.0846 -0.5477
 3195SOL    HW221045   3.969   2.058   4.420 -2.0628 -2.1378  0.5427
 3196SOL     OW21046   1.761   0.052   9.587  0.0002  0.7494 -0.6137
 3196SOL    HW121047   1.695   4.711   9.620  0.1266  0.4097 -0.9711
 3196SOL    HW221048   1.717   0.136   9.595  0.1028  0.6232  1.3836
 3197SOL     OW21049   1.065   1.563   6.503 -0.2791  0.6945 -0.0136
 3197SOL    HW121050   1.029   1.649   6.523  0.2085  1.2256 -1.4244
 3197SOL    HW221051   1.009   1.525   6.435  0.9903 -2.2885  0.5786
 3198SOL     OW21052   0.942   1.397   9.061  0.4862  0.7441  0.0728
 3198SOL    HW121053   0.864   1.350   9.031  0.2002  1.5831 -0.5040
 3198SOL    HW221054   1.011   1.334   9.080 -0.0027  0.8760  2.2270
 3199SOL     OW21055   3.150   1.162   4.840 -0.2184  0.6857  0.1892
 3199SOL    HW121056   3.086   1.112   4.789  1.8347 -0.5541 -1.1773
 3199SOL    HW221057   3.217   1.169   4.772  0.3096  1.6131  0.8098
 3200SOL     OW21058   0.103   3.209   6.483  0.6018  0.2741  0.3268
 3200SOL    HW121059   0.151   3.159   6.417  2.4574  1.4238  0.7984
 3200SOL    HW221060   0.080   3.142   6.548  0.4643  0.2168  0.2195
 3201SOL     OW21061   0.403   0.542   9.630 -0.0328  0.0878 -0.9612
 3201SOL    HW121062   0.387   0.448   9.640 -0.7196  0.3222  0.1570
 3201SOL    HW221063   0.428   0.578   9.716 -4.6336 -0.9593  0.7998
 3202SOL     OW21064   3.262   3.100   8.397 -0.3555  0.1831  0.0999
 3202SOL    HW121065   3.340   3.104   8.341  0.3279 -1.1740  0.9623
 3202SOL    HW221066   3.286   3.026   8.452 -0.3756 -0.3207 -0.5789
 3203SOL     OW21067   2.605   4.542   1.010  0.1912  0.9370  0.1948
 3203SOL    HW121068   2.546   4.469   0.993  0.6062  0.7545 -0.4833
 3203SOL    HW221069   2.663   4.504   1.075  0.5583 -0.2715 -0.8461
 3204SOL     OW21070   4.513   4.461   3.132 -0.2376  0.3020 -0.3191
 3204SOL    HW121071   4.503   4.549   3.169  0.2408  0.4639 -0.5647
 3204SOL    HW221072   4.552   4.400   3.195  2.4904  2.7181  0.3566
 3205SOL     OW21073   0.472   0.050   8.946  0.0842 -0.0751 -0.4722
 3205SOL    HW121074   0.495   0.083   9.033 -1.9148  0.0873 -0.0082
 3205SOL    HW221075   0.469   4.675   8.961  3.4260  0.1978  2.1015
 3206SOL     OW21076   2.013   1.279   9.765  0.0877  0.0825  0.0894
 3206SOL    HW121077   1.993   1.366   9.733 -0.8227 -0.2080 -0.1267
 3206SOL    HW221078   2.105   1.267   9.740  0.9191  1.6965  2.3384
 3207SOL     OW21079   3.275   3.894   3.454  0.0263 -0.1774  0.6182
 3207SOL    HW121080   3.248   3.978   3.490  2.3158  1.3561 -1.2155
 3207SOL    HW221081   3.340   3.927   3.392 -1.6580 -0.6856 -1.4269
 3208SOL     OW21082   1.428   2.874   6.252  0.1519 -0.0197  0.3058
 3208SOL    HW121083   1.449   2.849   6.162  0.0470  2.0878 -0.3023
 3208SOL    HW221084   1.333   2.865   6.258 -0.0272  2.4811  1.1229
 3209SOL     OW21085   0.658   0.801   8.918  0.0405 -0.0047  0.5769
 3209SOL    HW121086   0.568   0.774   8.902  1.5176 -2.4908 -3.6359
 3209SOL    HW221087   0.682   0.765   9.004  1.9555 -0.7221 -0.2561
 3210SOL     OW21088   0.555   1.122  17.073 -0.2699  0.2428 -0.5830
 3210SOL    HW121089   0.461   1.136  17.084  0.0451  2.4289 -0.6355
 3210SOL    HW221090   0.575   1.159  16.987  1.1269  0.6126 -0.1061
 3211SOL     OW21091   2.376   0.888  10.410 -0.3871 -0.2746  0.2240
 3211SOL    HW121092   2.355   0.811  10.463  1.6645 -0.6908  0.4413
 3211SOL    HW221093   2.465   0.861  10.385 -0.5100  0.2984 -0.8028
 3212SOL     OW21094   0.877   0.152   2.478 -0.2976 -0.3720  0.0361
 3212SOL    HW121095   0.857   0.058   2.474 -1.3735 -0.1394  0.0031
 3212SOL    HW221096   0.960   0.152   2.430 -0.6473 -0.2414 -0.5639
 3213SOL     OW21097   0.871   2.186  14.989 -0.0636  0.1681 -0.2583
 3213SOL    HW121098   0.958   2.188  15.027 -1.0969  0.3049  2.1067
 3213SOL    HW221099   0.817   2.234  15.052  2.0483  1.2775  0.7132
 3214SOL     OW21100   2.946   2.381   8.903  0.2216 -0.2742  0.6201
 3214SOL    HW121101   2.884   2.432   8.955  0.1160  0.7656 -0.5241
 3214SOL    HW221102   2.898   2.392   8.821  0.8766 -0.5149  0.2086
 3215SOL     OW21103   4.606   3.395   6.581  0.1883 -0.8432 -0.0211
 3215SOL    HW121104   4.672   3.329   6.559  1.3308  0.6652 -1.0972
 3215SOL    HW221105   4.573   3.418   6.495 -0.0949 -2.4780 -0.3598
 3216SOL     OW21106   2.039   3.110   7.525  0.3041  0.4045 -0.6184
 3216SOL    HW121107   2.078   3.038   7.475 -2.2875 -0.0579 -2.0072
 3216SOL    HW221108   1.945   3.105   7.510  0.3434 -0.3412 -0.6170
 3217SOL     OW21109   0.394   4.118  14.099  0.4790 -1.0795  0.0021
 3217SOL    HW121110   0.300   4.104  14.105 -0.0065  2.8292  1.2696
 3217SOL    HW221111   0.391   4.148  14.008 -0.5530 -0.6480  0.1781
 3218SOL     OW21112   4.190   3.200   4.207 -0.3538  0.4986  0.5479
 3218SOL    HW121113   4.147   3.284   4.224 -0.4267  0.7122 -0.6944
 3218SOL    HW221114   4.222   3.185   4.296 -1.0484 -0.8390  0.5708
 3219SOL     OW21115   0.132   0.914   9.645 -0.4637  0.7938 -0.4352
 3219SOL    HW121116   0.075   0.989   9.662  1.5623  1.9144  1.2906
 3219SOL    HW221117   0.188   0.956   9.579 -0.7066  1.8952  0.0646
 3220SOL     OW21118   1.952   1.508   9.292 -0.3229  0.1991 -0.6713
 3220SOL    HW121119   1.875   1.531   9.345  0.4131  0.8114  0.1392
 3220SOL    HW221120   1.970   1.417   9.315  0.1409  1.2987  3.3168
 3221SOL     OW21121   0.106   3.362   4.630 -0.0320 -0.2476  0.2227
 3221SOL    HW121122   0.191   3.402   4.650  0.1122 -0.0927 -0.7145
 3221SOL    HW221123   0.098   3.330   4.720  2.3540 -0.4594  0.3598
 3222SOL     OW21124   2.042   3.015   2.851 -0.4495 -0.7243  0.2236
 3222SOL    HW121125   2.071   2.997   2.940 -1.2005 -0.9322  0.4208
 3222SOL    HW221126   2.055   2.935   2.800 -0.9731 -1.2325  0.9041
 3223SOL     OW21127   3.222   1.157  13.849  0.3939  0.2327 -0.5074
 3223SOL    HW121128   3.244   1.249  13.832  0.9348 -0.2148 -2.2429
 3223SOL    HW221129   3.310   1.136  13.818  0.5961 -0.1473  0.3328
 3224SOL     OW21130   2.585   1.704   6.786  0.2935  0.2316  0.3276
 3224SOL    HW121131   2.632   1.646   6.727 -1.2063 -0.1744 -0.4615
 3224SOL    HW221132   2.571   1.648   6.863 -0.2261 -1.6218 -1.1286
 3225SOL     OW21133   3.921   1.541   9.856  0.1807 -0.1559  0.1671
 3225SOL    HW121134   3.952   1.548   9.946 -1.0346 -0.5544  0.6095
 3225SOL    HW221135   3.830   1.571   9.854  0.2158 -0.0321  0.3701
 3226SOL     OW21136   0.709   2.832  16.323 -0.6281  0.3119 -0.0068
 3226SOL    HW121137   0.677   2.888  16.252  0.6306 -0.5708 -1.2609
 3226SOL    HW221138   0.691   2.746  16.284  1.3805  1.0975 -2.6595
 3227SOL     OW21139   2.427   2.025   5.751  0.0630  0.1125 -0.3423
 3227SOL    HW121140   2.469   2.022   5.665 -0.6878 -2.1212 -0.6384
 3227SOL    HW221141   2.390   2.113   5.747 -1.0018 -0.3498 -0.6726
 3228SOL     OW21142   0.768   2.446   5.787  0.0734 -0.1493 -0.8833
 3228SOL    HW121143   0.792   2.463   5.878 -1.0826  2.7558 -1.1169
 3228SOL    HW221144   0.674   2.464   5.796  0.4233 -1.1384  4.7163
 3229SOL     OW21145   0.197   4.576   8.705 -0.0777 -0.0346  0.0507
 3229SOL    HW121146   0.266   4.640   8.685 -0.5498  0.6071  0.5145
 3229SOL    HW221147   0.255   4.504   8.729  0.2823 -0.6198 -2.5079
 3230SOL     OW21148   2.440   2.637   7.593  0.2831 -0.0816 -0.0176
 3230SOL    HW121149   2.469   2.593   7.674 -2.2645  1.9741  2.0177
 3230SOL    HW221150   2.346   2.619   7.598  0.3709 -0.6619 -0.4836
 3231SOL     OW21151   1.220   4.163  16.821 -0.0446  0.3233  0.0273
 3231SOL    HW121152   1.261   4.190  16.739 -2.3513  0.5269 -1.0704
 3231SOL    HW221153   1.150   4.228  16.827 -1.0019 -0.9029  1.9764
 3232SOL     OW21154   1.702   0.715  10.750  0.0869  0.0956 -0.0786
 3232SOL    HW121155   1.647   0.780  10.706  1.8511  1.5387 -0.1585
 3232SOL    HW221156   1.633   0.673  10.802  0.9343  0.1645  1.0939
 3233SOL     OW21157   3.467   0.272  11.194 -0.1674  0.3133  0.3079
 3233SOL    HW121158   3.471   0.184  11.156 -1.3964  1.2383 -1.9462
 3233SOL    HW221159   3.545   0.315  11.157  0.7027 -1.2415  0.3368
 3234SOL     OW21160   4.027   4.381  10.540  0.0408 -0.8382  0.0726
 3234SOL    HW121161   3.968   4.451  10.513  0.6174 -0.3546  0.0898
 3234SOL    HW221162   4.080   4.369  10.462 -0.5301  0.8778 -0.5749
 3235SOL     OW21163   1.592   0.476   5.079  0.6340 -0.3560 -0.1463
 3235SOL    HW121164   1.630   0.435   5.001 -3.1908 -2.6047 -0.8152
 3235SOL    HW221165   1.672   0.470   5.132  1.4725 -1.4629 -1.5100
 3236SOL     OW21166   3.208   1.988   4.568 -0.0188  0.4932  0.4159
 3236SOL    HW121167   3.289   1.939   4.558  0.4925  1.5392 -0.6092
 3236SOL    HW221168   3.196   2.028   4.482  1.4586  0.0337 -0.0077
 3237SOL     OW21169   0.727   3.988  10.509 -0.6142  0.1791 -0.8167
 3237SOL    HW121170   0.776   3.911  10.480 -0.4183 -0.0595  0.1427
 3237SOL    HW221171   0.641   3.950  10.528  0.1447 -1.6399 -1.0322
 3238SOL     OW21172   1.139   0.659   8.187  0.3714 -0.1669  0.2701
 3238SOL    HW121173   1.216   0.684   8.238  0.2575 -0.4198  0.5624
 3238SOL    HW221174   1.096   0.744   8.180  0.4363 -0.2473 -1.1777
 3239SOL     OW21175   1.654   3.574   8.719 -0.7510 -0.0551 -0.3276
 3239SOL    HW121176   1.680   3.657   8.679 -2.0179  0.2703 -0.4631
 3239SOL    HW221177   1.616   3.608   8.800  0.4706  2.9824 -1.0198
 3240SOL     OW21178   0.003   0.074   5.996 -0.2578  0.3451  0.0482
 3240SOL    HW121179   4.638   0.059   6.039 -0.4017 -0.8775 -0.6454
 3240SOL    HW221180   0.003   0.168   5.978 -3.7437 -0.1001 -2.3834
 3241SOL     OW21181   2.650   3.901   4.871  0.5393 -0.0974 -0.5369
 3241SOL    HW121182   2.671   3.993   4.883  1.4040 -0.1425 -1.6763
 3241SOL    HW221183   2.567   3.903   4.822 -0.8171  0.7295  1.8047
 3242SOL     OW21184   2.881   2.112   8.313  0.0220 -0.0105 -0.1433
 3242SOL    HW121185   2.899   2.025   8.277  1.4675 -0.0318  0.6360
 3242SOL    HW221186   2.789   2.107   8.339 -0.8896 -1.4064 -3.5336
 3243SOL     OW21187   2.162   0.037   4.455 -0.1070 -0.2429 -0.2192
 3243SOL    HW121188   2.209   0.097   4.396  0.2647 -0.2059  0.1148
 3243SOL    HW221189   2.224   0.008   4.521 -0.9975 -0.3502  0.5674
 3244SOL     OW21190   4.595   3.060   4.135  0.3926 -0.0802 -0.2282
 3244SOL    HW121191   4.523   2.996   4.128 -0.8207  1.2550  0.0016
 3244SOL    HW221192   4.673   3.006   4.124  1.0679  1.3413 -2.5230
 3245SOL     OW21193   3.008   4.203   5.431  0.0483 -0.0577 -0.0026
 3245SOL    HW121194   3.040   4.256   5.504  0.5462 -0.0984 -0.1906
 3245SOL    HW221195   3.050   4.255   5.362 -1.6555  0.8242 -0.3928
 3246SOL     OW21196   2.515   2.817  16.964  0.3978  0.4422 -0.2836
 3246SOL    HW121197   2.497   2.778  17.050  0.9787  0.4918 -0.1373
 3246SOL    HW221198   2.541   2.902  16.998  0.5521  0.8771 -1.5178
 3247SOL     OW21199   4.564   4.482   7.331 -0.7040  0.2483  0.3868
 3247SOL    HW121200   4.622   4.423   7.283 -0.0073  0.9164  0.4089
 3247SOL    HW221201   4.578   4.573   7.304 -0.8915 -0.1063 -0.8975
 3248SOL     OW21202   2.443   1.978   6.302  0.3912 -0.4606  0.0178
 3248SOL    HW121203   2.486   2.048   6.352  1.8294 -1.1318 -0.2669
 3248SOL    HW221204   2.510   1.939   6.246 -0.3209 -1.4563 -0.1397
 3249SOL     OW21205   2.416   3.530   5.847  0.0613  0.1288 -0.0139
 3249SOL    HW121206   2.494   3.560   5.799 -1.3276  2.1150 -1.0553
 3249SOL    HW221207   2.395   3.609   5.896 -2.4685 -0.4648 -0.1757
 3250SOL     OW21208   4.450   1.252   0.653 -0.6592 -0.7778  0.3041
 3250SOL    HW121209   4.496   1.274   0.572  1.4061 -1.2826  1.3359
 3250SOL    HW221210   4.523   1.266   0.713 -0.4264  1.7277 -0.5467
 3251SOL     OW21211   3.805   4.318   5.253 -0.0812  0.1912 -0.1796
 3251SOL    HW121212   3.803   4.360   5.339 -1.8984  1.4677 -0.8497
 3251SOL    HW221213   3.736   4.252   5.263  0.5474 -0.8263 -2.5682
 3252SOL     OW21214   1.799   2.206   3.662  0.4119 -0.2158  0.9337
 3252SOL    HW121215   1.737   2.240   3.726 -1.0047  0.3270 -0.7358
 3252SOL    HW221216   1.875   2.190   3.718  0.8218 -0.5961  0.2657
 3253SOL     OW21217   4.333   1.080   9.602 -0.3255 -0.5327  0.5978
 3253SOL    HW121218   4.274   1.134   9.654  0.4978 -0.8185  1.8106
 3253SOL    HW221219   4.295   0.993   9.610 -1.4667  0.0186  1.1835
 3254SOL     OW21220   1.071   0.161   5.467  0.2860  0.0990 -0.5302
 3254SOL    HW121221   1.030   0.135   5.385  0.3303  1.0909 -0.8771
 3254SOL    HW221222   1.026   0.109   5.534  1.9192 -0.1156  0.4051
 3255SOL     OW21223   0.085   2.513   1.640 -0.0373 -0.0565 -0.3320
 3255SOL    HW121224   0.007   2.500   1.587  0.5756  0.6972 -1.4325
 3255SOL    HW221225   0.123   2.425   1.633  2.2277  0.6068  3.4809
 3256SOL     OW21226   2.978   3.916   3.995 -0.3032 -0.2567 -0.1361
 3256SOL    HW121227   2.969   3.849   3.927 -0.9495  0.6959 -0.9775
 3256SOL    HW221228   3.072   3.910   4.012 -0.3091  1.6051  0.4948
 3257SOL     OW21229   2.232   3.045  12.933  0.4576 -0.7411 -0.0910
 3257SOL    HW121230   2.321   3.053  12.968  0.3286 -0.4842  0.1784
 3257SOL    HW221231   2.185   3.092  13.002 -0.2465 -2.0498  0.3384
 3258SOL     OW21232   3.881   1.464   6.406  0.4685  0.3259  0.4862
 3258SOL    HW121233   3.812   1.399   6.418  1.2323 -0.6232 -0.2171
 3258SOL    HW221234   3.930   1.465   6.488 -1.3675  1.6422  1.5622
 3259SOL     OW21235   2.058   3.600   4.075  0.0093 -0.3621 -0.4951
 3259SOL    HW121236   2.017   3.649   4.004 -1.4231  0.6389  1.0228
 3259SOL    HW221237   1.983   3.603   4.135  0.3926  2.9811 -0.1895
 3260SOL     OW21238   2.339   4.110  15.630 -0.1065  0.5001 -0.0406
 3260SOL    HW121239   2.329   4.139  15.721  0.6921 -1.4134  0.6653
 3260SOL    HW221240   2.368   4.186  15.580 -1.2243  1.7298  1.2124
 3261SOL     OW21241   2.792   3.999  12.978  0.5035  0.2410 -0.5097
 3261SOL    HW121242   2.721   3.935  12.984 -0.5461  1.3195 -1.3832
 3261SOL    HW221243   2.739   4.077  12.963 -1.2819 -0.9505 -0.4778
 3262SOL     OW21244   1.287   1.952  15.177  0.1406  0.3194 -0.2441
 3262SOL    HW121245   1.316   2.037  15.211 -1.6334  0.7485  0.1721
 3262SOL    HW221246   1.374   1.928  15.144 -0.2610 -1.5754  0.0786
 3263SOL     OW21247   4.168   1.588   6.969 -0.3279  0.1281 -0.1726
 3263SOL    HW121248   4.167   1.509   6.916 -0.9046  0.9315 -1.3728
 3263SOL    HW221249   4.074   1.601   6.977 -0.5903 -0.0733 -2.8646
 3264SOL     OW21250   2.638   2.246  16.484  0.3542 -0.1005  0.0797
 3264SOL    HW121251   2.650   2.271  16.576  0.4853 -0.8986  0.2798
 3264SOL    HW221252   2.581   2.169  16.489 -0.9704  0.8971  0.2038
 3265SOL     OW21253   1.654   0.208   8.013  0.0557 -0.4431 -0.4657
 3265SOL    HW121254   1.721   0.213   8.080  1.4647  0.4282 -1.9477
 3265SOL    HW221255   1.616   0.295   8.024  1.2491  0.0589 -0.4163
 3266SOL     OW21256   2.369   1.379   4.620 -0.5281  0.1361  0.0785
 3266SOL    HW121257   2.430   1.437   4.667  0.4484 -0.4750 -0.4352
 3266SOL    HW221258   2.291   1.391   4.674  0.3715  0.2403  1.3491
 3267SOL     OW21259   1.416   3.818   8.223 -0.2066  0.0408 -0.6453
 3267SOL    HW121260   1.347   3.859   8.275 -0.6227 -0.2857 -0.9445
 3267SOL    HW221261   1.490   3.867   8.259  0.3109  0.4105 -2.1875
 3268SOL     OW21262   1.422   0.927   2.944  0.5642 -0.1253 -0.2980
 3268SOL    HW121263   1.329   0.905   2.937  0.5246 -0.9478  3.2391
 3268SOL    HW221264   1.451   0.900   3.031 -0.1255  0.3028  0.0640
 3269SOL     OW21265   0.146   2.317   6.319  0.3542 -0.0436 -0.2308
 3269SOL    HW121266   0.221   2.349   6.369  1.3157  0.8608 -2.2477
 3269SOL    HW221267   0.144   2.383   6.250 -2.7103 -1.5039 -1.5289
 3270SOL     OW21268   3.125   2.435   9.219  0.2908 -0.5689  0.3462
 3270SOL    HW121269   3.037   2.440   9.180 -0.0960 -1.2681  1.1138
 3270SOL    HW221270   3.147   2.525   9.242 -0.1899  0.5904 -3.6788
 3271SOL     OW21271   1.913   2.189  10.021  0.1493  0.2207 -0.3652
 3271SOL    HW121272   1.820   2.165  10.012  0.6917 -1.8775 -0.5310
 3271SOL    HW221273   1.946   2.109  10.062  0.9260 -0.8518 -3.0506
 3272SOL     OW21274   2.900   2.679   6.604  0.1488 -0.1490 -0.1493
 3272SOL    HW121275   2.967   2.679   6.672  2.5697  0.7925 -2.5348
 3272SOL    HW221276   2.847   2.752   6.637  0.5157 -0.6130  1.4634
 3273SOL     OW21277   2.730   2.386  12.780 -0.3270  0.2035  0.0295
 3273SOL    HW121278   2.765   2.460  12.730  0.5296  1.4708  2.4904
 3273SOL    HW221279   2.779   2.386  12.862  2.3274  0.6105 -1.5671
 3274SOL     OW21280   4.187   3.754   2.781 -0.4227 -1.1525  0.4488
 3274SOL    HW121281   4.160   3.691   2.714 -4.3705 -0.0788  1.0447
 3274SOL    HW221282   4.100   3.783   2.807  0.0656  0.7057  0.0247
 3275SOL     OW21283   1.475   3.646  13.880 -0.4172  0.2609  0.2020
 3275SOL    HW121284   1.414   3.573  13.890 -0.6176  0.5899  1.3540
 3275SOL    HW221285   1.531   3.618  13.808  0.5254  0.9855  0.6472
 3276SOL     OW21286   0.787   4.495   6.828 -0.0166  0.4725 -0.0395
 3276SOL    HW121287   0.792   4.429   6.897  0.1344 -0.0660 -0.5635
 3276SOL    HW221288   0.746   4.443   6.759 -0.3785 -0.5125  0.9236
 3277SOL     OW21289   1.305   3.852  10.190 -0.1962 -0.0239  0.0181
 3277SOL    HW121290   1.352   3.922  10.146  1.5642 -0.7451  0.7674
 3277SOL    HW221291   1.239   3.905  10.235  1.0802  1.3952  0.1949
 3278SOL     OW21292   0.926   3.116   7.101  0.1647  0.1663 -0.1517
 3278SOL    HW121293   0.886   3.157   7.178  1.6122  1.8717 -0.3142
 3278SOL    HW221294   0.980   3.183   7.059  0.0803  1.0587  1.1562
 3279SOL     OW21295   2.235   2.498   8.943  0.1654  0.0370  0.0684
 3279SOL    HW121296   2.312   2.466   8.991  0.9348 -0.6071 -1.5865
 3279SOL    HW221297   2.248   2.592   8.931  0.1805 -0.0887 -0.8955
 3280SOL     OW21298   1.917   2.488   1.984 -0.5248 -0.7076  0.1399
 3280SOL    HW121299   1.913   2.445   1.899 -0.7637  0.1324 -0.2681
 3280SOL    HW221300   1.920   2.582   1.967  0.4229 -1.3114 -3.0476
 3281SOL     OW21301   1.032   1.911   7.569 -0.4070 -0.0825 -0.1350
 3281SOL    HW121302   1.061   1.894   7.480  1.8267 -0.9519  0.7550
 3281SOL    HW221303   1.087   1.983   7.599  2.0641 -1.9323 -0.2391
 3282SOL     OW21304   0.294   2.989   5.247 -0.0864 -0.2019 -0.4417
 3282SOL    HW121305   0.217   2.975   5.302  0.8717  0.1554  0.9947
 3282SOL    HW221306   0.329   3.071   5.284 -1.8005  0.5630 -0.5280
 3283SOL     OW21307   1.215   0.976   5.688  0.3438 -0.5163 -0.5284
 3283SOL    HW121308   1.231   1.046   5.625  0.8337 -0.0752  0.0879
 3283SOL    HW221309   1.287   0.916   5.668  1.8716  0.4069  2.1081
 3284SOL     OW21310   0.571   3.773  10.343 -0.5332  0.4834  0.6179
 3284SOL    HW121311   0.499   3.720  10.378 -0.1582  0.0887  0.7795
 3284SOL    HW221312   0.528   3.812  10.267 -0.8587 -2.7852 -0.8489
 3285SOL     OW21313   0.364   4.176  13.217 -0.3042  0.0057 -0.3874
 3285SOL    HW121314   0.410   4.172  13.134  0.4749  2.0173 -0.0623
 3285SOL    HW221315   0.419   4.221  13.281 -0.7018  0.2428 -0.2085
 3286SOL     OW21316   0.828   1.301  16.519  0.1396  0.2438 -0.2552
 3286SOL    HW121317   0.843   1.305  16.425 -0.2335 -1.0731 -0.3721
 3286SOL    HW221318   0.898   1.353  16.558  0.7295 -1.3313  0.7799
 3287SOL     OW21319   4.280   4.113   6.489 -0.0893 -0.0226  0.4299
 3287SOL    HW121320   4.323   4.126   6.404  2.2768 -0.5995  1.5434
 3287SOL    HW221321   4.294   4.020   6.502 -0.4223 -0.3869 -1.7558
 3288SOL     OW21322   1.161   0.398   9.484 -0.2218 -0.1798  0.1781
 3288SOL    HW121323   1.197   0.485   9.495 -2.7291  0.3830  3.8408
 3288SOL    HW221324   1.071   0.421   9.507 -0.7091 -1.2235 -0.6559
 3289SOL     OW21325   3.452   1.366   4.424 -0.3903  0.1697 -0.5711
 3289SOL    HW121326   3.406   1.335   4.502 -0.6335  2.1653  0.0818
 3289SOL    HW221327   3.544   1.381   4.446 -0.8192  1.2832  0.4572
 3290SOL     OW21328   0.641   3.563  11.655  0.4157 -0.2714 -0.2524
 3290SOL    HW121329   0.730   3.588  11.630  0.4284 -1.2589 -1.1787
 3290SOL    HW221330   0.650   3.493  11.719  2.0551 -2.1367 -2.5310
 3291SOL     OW21331   3.583   1.092   3.181 -0.5604  0.2839 -0.6293
 3291SOL    HW121332   3.525   1.144   3.236 -1.0364  0.2197 -1.0659
 3291SOL    HW221333   3.605   1.018   3.238 -1.6526  0.3507 -0.1185
 3292SOL     OW21334   1.620   1.952   2.454  0.2064  0.2730  0.3334
 3292SOL    HW121335   1.620   1.997   2.369 -1.2854  0.6057  0.5144
 3292SOL    HW221336   1.651   1.863   2.435  0.1275  0.1461  0.7994
 3293SOL     OW21337   1.665   4.566   6.144  0.3709 -0.0252  0.2144
 3293SOL    HW121338   1.668   4.579   6.239 -1.0305 -1.6694  0.4720
 3293SOL    HW221339   1.633   4.477   6.136  3.1263 -1.0415  0.6123
 3294SOL     OW21340   1.845   2.295   1.474  0.1673  0.4434 -0.4686
 3294SOL    HW121341   1.816   2.280   1.384  0.0362  2.2851 -0.7286
 3294SOL    HW221342   1.768   2.341   1.506  1.1913  2.0164 -0.2783
 3295SOL     OW21343   2.353   1.973  14.491  0.1494 -0.4302  0.4276
 3295SOL    HW121344   2.332   2.055  14.537 -0.8580 -0.3262 -0.2200
 3295SOL    HW221345   2.284   1.965  14.425  0.5125 -0.0390  0.0092
 3296SOL     OW21346   3.710   3.208   4.936 -0.2253  0.4768 -0.1304
 3296SOL    HW121347   3.722   3.128   4.884  1.8821  2.7767 -3.2015
 3296SOL    HW221348   3.796   3.250   4.931  0.7083 -1.4047  0.5294
 3297SOL     OW21349   1.196   4.317  12.527  0.5716  0.0968  0.2186
 3297SOL    HW121350   1.116   4.369  12.515 -0.4976 -1.3777  0.9555
 3297SOL    HW221351   1.161   4.233  12.555  0.0343  0.6884  1.3602
 3298SOL     OW21352   2.382   4.082   0.266  0.2580 -0.5902  0.1268
 3298SOL    HW121353   2.301   4.123   0.237  0.7668  1.8354  2.1370
 3298SOL    HW221354   2.387   4.092   0.361 -0.7456  1.1338  0.0017
 3299SOL     OW21355   0.581   4.469   1.319  0.5321 -0.1191 -0.1797
 3299SOL    HW121356   0.518   4.421   1.373  0.0836  1.8238  1.0284
 3299SOL    HW221357   0.545   4.440   1.235 -1.2103  1.8805 -0.1411
 3300SOL     OW21358   1.509   4.251  15.821 -0.1746 -0.1825  0.0779
 3300SOL    HW121359   1.465   4.206  15.894  0.5150 -1.6806 -0.4257
 3300SOL    HW221360   1.444   4.312  15.787 -1.8082 -1.4537  0.8869
 3301SOL     OW21361   3.835   2.089  10.483  0.2750  0.3172 -0.2162
 3301SOL    HW121362   3.759   2.135  10.519  1.3162  1.6853  0.2285
 3301SOL    HW221363   3.908   2.144  10.513  0.6082  1.4033 -3.0120
 3302SOL     OW21364   3.385   0.206   7.960 -0.4210 -0.0580  0.3881
 3302SOL    HW121365   3.462   0.156   7.931  0.0683  1.9562 -1.8246
 3302SOL    HW221366   3.433   0.283   7.990  0.1344 -0.1763 -0.1865
 3303SOL     OW21367   0.285   2.341   5.208  0.6154  0.5683  0.0545
 3303SOL    HW121368   0.303   2.365   5.299  0.7597  0.9602 -0.0779
 3303SOL    HW221369   0.352   2.393   5.164  1.2493  0.1015  0.4626
 3304SOL     OW21370   4.046   4.437  16.822 -0.6419  0.2518  0.0328
 3304SOL    HW121371   4.077   4.405  16.907 -2.5658  1.0919  1.0574
 3304SOL    HW221372   4.130   4.431  16.778 -1.0255  0.3051 -0.7076
 3305SOL     OW21373   3.578   4.117   7.367 -0.8900  0.2293  0.8934
 3305SOL    HW121374   3.535   4.075   7.292 -0.9269  0.4366  0.7962
 3305SOL    HW221375   3.550   4.058   7.437 -0.7884 -1.1729 -0.2655
 3306SOL     OW21376   0.563   4.558   3.673 -0.2630 -0.0662 -0.3928
 3306SOL    HW121377   0.529   4.598   3.753  0.6821  0.0699 -0.0590
 3306SOL    HW221378   0.511   4.477   3.672  0.1027 -0.2938 -1.2485
 3307SOL     OW21379   1.553   1.015  15.506  0.4428  0.6270 -0.3643
 3307SOL    HW121380   1.504   0.970  15.575  0.5652  1.2206  0.1068
 3307SOL    HW221381   1.550   1.102  15.546 -1.1119  1.6674 -2.7381
 3308SOL     OW21382   0.696   4.460   2.700  0.4920  0.1009  0.4495
 3308SOL    HW121383   0.725   4.550   2.687 -1.2628  0.6088 -0.0374
 3308SOL    HW221384   0.751   4.404   2.646 -0.8184 -1.8105  1.0748
 3309SOL     OW21385   0.585   0.267   8.431 -0.6302  0.5431 -0.3150
 3309SOL    HW121386   0.584   0.242   8.339  0.6442 -0.2752 -0.1130
 3309SOL    HW221387   0.601   0.179   8.465 -1.9747 -0.0448 -1.2588
 3310SOL     OW21388   1.714   0.371  15.263 -0.1171  0.8292  0.0760
 3310SOL    HW121389   1.656   0.297  15.244  0.4481  0.2545  0.6144
 3310SOL    HW221390   1.682   0.417  15.341 -0.7621 -0.1057  0.3647
 3311SOL     OW21391   4.315   2.693   8.568  0.5516  0.0042  0.0076
 3311SOL    HW121392   4.328   2.607   8.529 -1.4718 -0.6466  0.7302
 3311SOL    HW221393   4.236   2.728   8.526  0.9157 -0.3739 -0.9770
 3312SOL     OW21394   3.767   0.012   6.259 -0.0252 -0.1137 -0.7702
 3312SOL    HW121395   3.778   4.713   6.352  1.6173  1.7320 -0.5984
 3312SOL    HW221396   3.793   4.645   6.225  0.2931 -0.4994  0.4729
 3313SOL     OW21397   1.794   2.192  13.225  0.2697 -0.0090 -0.1715
 3313SOL    HW121398   1.775   2.286  13.215  1.5804  0.3813  1.0239
 3313SOL    HW221399   1.789   2.166  13.133 -0.4189 -0.2569 -0.0612
 3314SOL     OW21400   3.239   1.597   9.751 -0.1472  0.2680 -0.2281
 3314SOL    HW121401   3.240   1.605   9.847  1.4120  1.1770 -0.3246
 3314SOL    HW221402   3.177   1.527   9.730  0.1210  0.3944 -1.4568
 3315SOL     OW21403   1.316   1.437  10.178 -0.5722 -0.0761  0.2197
 3315SOL    HW121404   1.224   1.442  10.201 -0.7226  1.2175 -0.6536
 3315SOL    HW221405   1.310   1.437  10.082 -2.8649 -0.7879  0.3698
 3316SOL     OW21406   4.254   4.360   5.573  0.0106  0.1482 -0.3009
 3316SOL    HW121407   4.337   4.334   5.533 -0.0971  0.5430 -0.7932
 3316SOL    HW221408   4.223   4.403   5.493 -2.1874 -1.5314 -0.3786
 3317SOL     OW21409   4.497   2.623   1.057 -0.1007  0.1302 -0.2845
 3317SOL    HW121410   4.508   2.711   1.091 -0.6989 -0.2953  1.0195
 3317SOL    HW221411   4.508   2.647   0.965  0.1992  2.7190  0.4280
 3318SOL     OW21412   4.342   4.389  15.328  0.1853  0.4338  0.0642
 3318SOL    HW121413   4.360   4.474  15.288 -0.7453 -0.0098 -1.3137
 3318SOL    HW221414   4.259   4.362  15.289 -1.0961  0.9211  2.4674
 3319SOL     OW21415   4.363   0.055   9.076  0.3146  1.0252 -0.0700
 3319SOL    HW121416   4.304   0.075   9.003 -2.2349 -2.4276  1.0365
 3319SOL    HW221417   4.299   0.076   9.144  0.2093  0.5239 -0.0166
 3320SOL     OW21418   2.597   4.411   7.754  0.2977  0.5552  0.0689
 3320SOL    HW121419   2.636   4.466   7.686 -0.1218  0.5687 -0.1636
 3320SOL    HW221420   2.608   4.472   7.826  2.2874 -1.5354  1.5128
 3321SOL     OW21421   2.683   2.240   7.000  0.2836  0.4434 -0.5127
 3321SOL    HW121422   2.674   2.161   7.052 -1.1548  1.1941  0.3641
 3321SOL    HW221423   2.720   2.301   7.063 -0.3397  0.5401 -0.2414
 3322SOL     OW21424   4.527   3.451   3.957  0.0669  0.1546  0.3366
 3322SOL    HW121425   4.488   3.519   3.903 -1.2033  0.6393  1.8703
 3322SOL    HW221426   4.485   3.475   4.040 -1.2099  0.2647 -0.3461
 3323SOL     OW21427   3.300   0.134  12.036 -0.3335 -0.0401  0.1562
 3323SOL    HW121428   3.298   0.140  12.131 -0.7572  1.4112  0.0679
 3323SOL    HW221429   3.262   0.219  12.011  0.8218 -0.0795 -1.7271
 3324SOL     OW21430   0.147   1.288   3.615  0.2267 -0.3060 -0.1468
 3324SOL    HW121431   0.187   1.375   3.612  0.6020 -0.4949 -0.6505
 3324SOL    HW221432   0.210   1.227   3.578 -0.1270 -1.4571  1.1491
 3325SOL     OW21433   0.348   0.023   8.347 -0.0537 -0.0993  0.2084
 3325SOL    HW121434   0.323   0.104   8.304 -0.8151 -0.3136  0.2425
 3325SOL    HW221435   0.366   0.042   8.439  2.4247 -2.0774  0.1242
 3326SOL     OW21436   0.473   1.674   6.223  0.9447 -0.3664  0.2518
 3326SOL    HW121437   0.519   1.716   6.150 -0.1198  0.7981  0.2562
 3326SOL    HW221438   0.411   1.744   6.244  0.3093 -0.6107 -0.8295
 3327SOL     OW21439   4.174   0.821   8.117 -0.4455  0.1077 -0.3630
 3327SOL    HW121440   4.247   0.770   8.082 -0.9336 -1.5205  1.0229
 3327SOL    HW221441   4.102   0.804   8.056  0.2252  1.6868 -1.5976
 3328SOL     OW21442   1.666   3.346   4.060 -0.4330 -0.0331  0.1662
 3328SOL    HW121443   1.739   3.338   3.999 -1.4454 -2.0618 -0.7698
 3328SOL    HW221444   1.707   3.410   4.119 -0.8579  0.0490  0.3689
 3329SOL     OW21445   2.194   1.120   9.397  0.8088 -0.3495  0.3602
 3329SOL    HW121446   2.268   1.119   9.458  1.7943 -0.2169 -0.8248
 3329SOL    HW221447   2.227   1.069   9.323 -1.6149 -2.5861  0.8462
 3330SOL     OW21448   4.055   0.503   2.984 -0.0397  0.7034 -0.2213
 3330SOL    HW121449   4.074   0.414   3.015  1.8840  0.9434 -0.6670
 3330SOL    HW221450   4.057   0.484   2.890 -0.4771 -0.9409  0.1090
 3331SOL     OW21451   4.277   1.670  13.183 -0.1326  0.4664  0.1686
 3331SOL    HW121452   4.321   1.729  13.122 -0.8983  0.8471 -0.0235
 3331SOL    HW221453   4.279   1.588  13.134 -4.2899  0.0234  0.6868
 3332SOL     OW21454   2.257   0.928   2.640 -0.2635 -0.1277 -0.2905
 3332SOL    HW121455   2.250   0.902   2.548 -0.8128 -4.3879  0.9832
 3332SOL    HW221456   2.320   0.869   2.682 -1.1793 -0.3545  0.7539
 3333SOL     OW21457   3.217   4.287   5.155 -0.4542  0.1580 -0.4055
 3333SOL    HW121458   3.285   4.308   5.220  0.9168 -3.0853 -0.7631
 3333SOL    HW221459   3.234   4.193   5.151 -0.9365  0.0133  0.8997
 3334SOL     OW21460   2.717   1.138   5.692 -0.2286 -0.4105  0.1433
 3334SOL    HW121461   2.676   1.121   5.607  0.1873 -2.5915  0.3647
 3334SOL    HW221462   2.703   1.231   5.707 -2.0624 -0.6435 -0.2035
 3335SOL     OW21463   1.042   1.721   3.128  0.1783 -0.2167  0.0045
 3335SOL    HW121464   1.130   1.754   3.108  0.0229  0.0761 -0.2121
 3335SOL    HW221465   0.995   1.745   3.048  0.5637 -0.2588 -0.2351
 3336SOL     OW21466   1.279   3.506   8.337 -0.2390 -0.1207  0.1114
 3336SOL    HW121467   1.357   3.458   8.308  0.7816  1.9337 -0.5380
 3336SOL    HW221468   1.244   3.515   8.248 -0.2638  1.5262  0.3035
 3337SOL     OW21469   3.111   0.607  13.493  0.1180  0.5924 -0.1173
 3337SOL    HW121470   3.123   0.672  13.424 -0.4988 -0.6675 -1.3979
 3337SOL    HW221471   3.024   0.570  13.474  0.5934 -0.2775 -0.5986
 3338SOL     OW21472   3.352   1.927   4.053  0.0459  0.2946 -0.0990
 3338SOL    HW121473   3.414   1.873   4.005  0.8882  0.6753  0.5616
 3338SOL    HW221474   3.285   1.859   4.049 -0.6496  0.8704  1.6008
 3339SOL     OW21475   1.686   0.720   4.677  0.1190 -0.0772  0.2495
 3339SOL    HW121476   1.719   0.774   4.606  0.0470 -0.3460  0.0113
 3339SOL    HW221477   1.768   0.681   4.706  0.4238  0.3833 -0.0085
 3340SOL     OW21478   0.702   0.544   9.888  0.7349 -0.3204 -0.1559
 3340SOL    HW121479   0.638   0.509   9.950  1.0610 -1.4750 -0.4640
 3340SOL    HW221480   0.737   0.458   9.866 -0.9047 -1.2251  0.7382
 3341SOL     OW21481   4.606   3.899  17.446 -0.2249 -0.7926  0.1171
 3341SOL    HW121482   4.593   3.976  17.501 -0.3500  0.5353 -1.7527
 3341SOL    HW221483   4.626   3.843  17.521  0.7573 -0.6821 -0.0624
 3342SOL     OW21484   4.604   2.247  12.472 -0.1814  0.2968 -0.2073
 3342SOL    HW121485   4.670   2.204  12.417  0.2951 -0.3890  0.8978
 3342SOL    HW221486   4.534   2.183  12.478  0.2109 -0.1613 -0.5235
 3343SOL     OW21487   3.642   3.843  13.466  0.2196 -0.1442 -0.1683
 3343SOL    HW121488   3.636   3.869  13.557  0.8681  1.1757 -0.5037
 3343SOL    HW221489   3.548   3.836  13.453  0.2360 -0.7455  0.0176
 3344SOL     OW21490   0.665   1.792   4.983  0.0270 -0.0839 -0.1273
 3344SOL    HW121491   0.700   1.763   4.899 -3.5666  0.2345 -1.7535
 3344SOL    HW221492   0.708   1.877   4.994  1.0605 -0.6561  0.2229
 3345SOL     OW21493   3.643   2.406   2.168  0.0236  0.1608 -0.3870
 3345SOL    HW121494   3.622   2.325   2.214  0.7003  0.2154  0.0312
 3345SOL    HW221495   3.714   2.435   2.226 -0.7336  2.4563 -0.6323
 3346SOL     OW21496   2.000   3.431   5.767  0.0689  0.3460  0.0344
 3346SOL    HW121497   1.990   3.525   5.780 -0.7178 -0.0707  2.4831
 3346SOL    HW221498   1.909   3.414   5.744  0.6120 -1.3032 -0.8880
 3347SOL     OW21499   2.646   0.373   7.670 -0.2929 -0.1178 -0.9162
 3347SOL    HW121500   2.667   0.283   7.694 -0.0837  0.3616  0.7087
 3347SOL    HW221501   2.691   0.424   7.737 -0.7756  1.9790 -2.1917
 3348SOL     OW21502   3.445   0.583   5.997 -0.4447 -0.1613 -0.2994
 3348SOL    HW121503   3.507   0.655   6.011  0.1498 -0.8314  0.5158
 3348SOL    HW221504   3.458   0.580   5.903 -2.5758 -2.0489 -0.5347
 3349SOL     OW21505   2.658   2.647   7.416 -0.3853  0.0874 -0.1243
 3349SOL    HW121506   2.574   2.628   7.458  0.9130  0.3116  2.5608
 3349SOL    HW221507   2.709   2.673   7.493 -0.1575 -0.4195 -0.1040
 3350SOL     OW21508   1.725   2.154   6.134 -0.1359  0.1145  0.0878
 3350SOL    HW121509   1.820   2.147   6.142 -0.0199  0.5773 -0.9461
 3350SOL    HW221510   1.694   2.168   6.224 -0.0480  2.3154 -0.2332
 3351SOL     OW21511   1.984   1.272  16.842  0.0611  0.6370 -0.1485
 3351SOL    HW121512   2.005   1.334  16.913  1.2358  0.1369 -0.0524
 3351SOL    HW221513   2.051   1.209  16.868  0.5824  1.3235  0.1989
 3352SOL     OW21514   1.589   0.109   2.608  0.7437  0.1699  0.0447
 3352SOL    HW121515   1.584   0.066   2.522 -1.8064 -0.1740  0.3621
 3352SOL    HW221516   1.559   0.198   2.587  1.9925  0.1293 -1.9290
 3353SOL     OW21517   0.823   3.711   0.837  0.1514  0.6982 -0.2794
 3353SOL    HW121518   0.746   3.655   0.831  1.4611 -0.9765 -1.3512
 3353SOL    HW221519   0.866   3.687   0.919  0.7834  1.1810 -0.4699
 3354SOL     OW21520   3.006   1.147   9.686  0.0348 -0.4363  0.4493
 3354SOL    HW121521   2.941   1.117   9.749  1.1725 -1.8146  0.9645
 3354SOL    HW221522   3.082   1.094   9.713  1.4558  1.2514 -0.2707
 3355SOL     OW21523   3.183   4.263   0.601  0.0447  0.0443 -0.1268
 3355SOL    HW121524   3.213   4.195   0.661 -1.2028 -0.2821  0.1290
 3355SOL    HW221525   3.134   4.210   0.538 -1.4789  1.6481 -0.3045
 3356SOL     OW21526   0.766   2.021   5.932  0.3470  0.4125 -0.4043
 3356SOL    HW121527   0.806   2.074   5.863  0.9838 -2.6229 -2.3688
 3356SOL    HW221528   0.694   2.080   5.956 -1.6686 -1.9533 -0.6655
 3357SOL     OW21529   0.836   3.944  16.387 -0.6790 -0.4269  0.1239
 3357SOL    HW121530   0.909   4.001  16.414 -0.1605 -0.3640 -1.4151
 3357SOL    HW221531   0.831   3.968  16.294  0.1783  4.5488  1.3264
 3358SOL     OW21532   0.482   3.411   7.692 -0.0245 -0.2611  0.0551
 3358SOL    HW121533   0.533   3.344   7.646 -0.0513 -0.7155  0.6843
 3358SOL    HW221534   0.487   3.382   7.783 -0.5299 -1.4559 -0.2900
 3359SOL     OW21535   3.393   3.769  13.463 -0.7160 -0.3600 -0.0506
 3359SOL    HW121536   3.312   3.756  13.513  1.0669 -0.6938  2.7800
 3359SOL    HW221537   3.356   3.801  13.381  2.7623  2.0256 -0.6634
 3360SOL     OW21538   3.719   1.077   0.549  0.3628 -0.0553  0.1315
 3360SOL    HW121539   3.807   1.111   0.534 -0.1719  1.4433  0.3992
 3360SOL    HW221540   3.737   0.984   0.560  2.1913  0.0117 -2.2542
 3361SOL     OW21541   4.063   1.813   6.033 -0.0689  0.0454 -0.1718
 3361SOL    HW121542   4.024   1.852   5.955  0.3172  0.7216 -0.0320
 3361SOL    HW221543   4.123   1.878   6.070  2.4776 -2.9100  0.9122
 3362SOL     OW21544   2.573   2.120  17.381 -0.2948 -0.1281 -0.3941
 3362SOL    HW121545   2.649   2.087  17.332  1.8524  2.8291  0.9492
 3362SOL    HW221546   2.574   2.211  17.350  0.4963  0.1638  0.4852
 3363SOL     OW21547   1.343   2.036   8.881  0.2403 -0.1870  0.5705
 3363SOL    HW121548   1.297   2.064   8.801 -0.9961 -2.3138  0.5410
 3363SOL    HW221549   1.372   2.122   8.913  1.5526 -0.1660 -0.6771
 3364SOL     OW21550   0.706   2.383   5.404  0.7752 -0.7772 -0.1915
 3364SOL    HW121551   0.715   2.288   5.411  0.0150 -0.8243  0.1871
 3364SOL    HW221552   0.624   2.394   5.453  0.1327 -1.7092 -1.0569
 3365SOL     OW21553   1.462   3.649   7.721 -0.2204 -0.1371  0.2968
 3365SOL    HW121554   1.486   3.563   7.688 -3.1415  0.0291 -2.3048
 3365SOL    HW221555   1.471   3.628   7.814 -0.2948  2.4264  0.8937
 3366SOL     OW21556   0.390   2.020  15.944 -0.4275 -0.5805 -0.2413
 3366SOL    HW121557   0.355   2.102  15.977  0.9745  0.4193 -1.2529
 3366SOL    HW221558   0.484   2.033  15.956 -0.1140 -2.0133 -1.1266
 3367SOL     OW21559   3.995   2.600   6.974 -0.1930  0.2654  0.6803
 3367SOL    HW121560   3.941   2.676   6.997 -1.5084 -0.1942 -0.8985
 3367SOL    HW221561   4.069   2.651   6.941 -0.2167  0.4945  0.9727
 3368SOL     OW21562   0.555   4.399   2.203  0.3498 -0.4718 -0.5676
 3368SOL    HW121563   0.561   4.380   2.109  1.6457  1.6917 -0.9246
 3368SOL    HW221564   0.649   4.388   2.219  0.4857  1.7406  0.1359
 3369SOL     OW21565   3.790   0.631   7.325  0.8782 -0.1875 -0.0271
 3369SOL    HW121566   3.863   0.599   7.377  0.4125  0.8140  1.2381
 3369SOL    HW221567   3.781   0.722   7.355  2.3517  0.2717 -0.9989
 3370SOL     OW21568   4.181   0.918   3.282 -0.2778 -0.3202  0.2450
 3370SOL    HW121569   4.231   0.851   3.329  1.7064  1.1886  0.2577
 3370SOL    HW221570   4.181   0.883   3.194  0.2335 -1.9068  0.8826
 3371SOL     OW21571   0.779   1.980   0.702  0.1197  0.1036 -0.5541
 3371SOL    HW121572   0.871   1.953   0.697  0.1810  0.2711 -0.3257
 3371SOL    HW221573   0.793   2.072   0.722  0.2841  0.1196 -0.7500
 3372SOL     OW21574   1.553   1.899   8.798 -0.1769 -0.1766  0.4344
 3372SOL    HW121575   1.577   1.811   8.826 -2.0847 -1.3885 -1.6834
 3372SOL    HW221576   1.464   1.910   8.831 -0.2304 -0.6819  0.4467
 3373SOL     OW21577   1.556   2.646  17.125 -0.2029  0.2658  0.0005
 3373SOL    HW121578   1.496   2.633  17.051 -0.8985 -0.2766  0.6606
 3373SOL    HW221579   1.504   2.711  17.173 -0.6406 -0.3734  0.3876
 3374SOL     OW21580   3.633   3.095  10.002  0.1144  0.1129  0.0944
 3374SOL    HW121581   3.616   3.024  10.064 -1.2181  0.5895  0.2675
 3374SOL    HW221582   3.610   3.050   9.921 -0.2709 -0.2897  0.4301
 3375SOL     OW21583   2.201   1.107   6.959 -0.4455  1.2682  0.5041
 3375SOL    HW121584   2.223   1.093   6.867 -0.0622  0.3889  0.7253
 3375SOL    HW221585   2.132   1.042   6.976  1.1561 -0.3451  0.8257
 3376SOL     OW21586   1.323   3.121  13.454  0.1257  0.3681 -0.3916
 3376SOL    HW121587   1.398   3.169  13.491  0.3283  0.2583 -0.6666
 3376SOL    HW221588   1.366   3.036  13.447  0.9834  0.7488  0.2040
 3377SOL     OW21589   3.419   3.313   4.205 -0.7955 -0.2075  0.8825
 3377SOL    HW121590   3.357   3.261   4.256 -1.4082  0.5309  0.9093
 3377SOL    HW221591   3.409   3.274   4.118 -2.8617 -0.8123  1.3988
 3378SOL     OW21592   0.453   4.287   5.813  0.2923  0.0883  0.1416
 3378SOL    HW121593   0.514   4.267   5.742 -0.2121  0.1637 -0.3055
 3378SOL    HW221594   0.440   4.203   5.856  2.3333  1.3150  3.2122
 3379SOL     OW21595   4.462   2.284   2.709  0.2943 -0.0823  0.0478
 3379SOL    HW121596   4.451   2.273   2.804 -0.5695  0.1323 -0.0293
 3379SOL    HW221597   4.412   2.206   2.684  1.1986 -0.1420 -1.5559
 3380SOL     OW21598   3.277   0.703   8.155 -0.2469 -0.8653  0.0897
 3380SOL    HW121599   3.329   0.758   8.097 -2.0993  0.5577 -0.2252
 3380SOL    HW221600   3.322   0.619   8.152  3.1018  0.8050  3.0350
 3381SOL     OW21601   3.151   2.973   0.289  0.5543 -0.2382 -0.3564
 3381SOL    HW121602   3.169   2.932   0.374  0.2326  3.0407  1.2719
 3381SOL    HW221603   3.134   3.065   0.309  0.9250 -0.7782  2.5174
 3382SOL     OW21604   3.620   1.560   6.979 -0.1744  0.5493 -0.2820
 3382SOL    HW121605   3.599   1.505   6.903  1.1751 -0.2023 -0.1039
 3382SOL    HW221606   3.535   1.604   6.987 -0.8479 -0.6070 -1.0158
 3383SOL     OW21607   4.095   1.501   5.314  0.5421 -0.5876  0.0725
 3383SOL    HW121608   4.009   1.492   5.273  1.8266 -0.4746 -2.6571
 3383SOL    HW221609   4.089   1.595   5.331 -1.3808 -0.6310 -0.3061
 3384SOL     OW21610   3.777   3.577   4.469  0.1378  0.4738 -0.0088
 3384SOL    HW121611   3.809   3.664   4.448 -0.6830  0.8194  0.1455
 3384SOL    HW221612   3.704   3.582   4.406 -0.2751  1.4012  0.5484
 3385SOL     OW21613   0.091   3.872   1.573 -0.1772  0.3592  0.2504
 3385SOL    HW121614   0.001   3.840   1.560 -0.0692 -0.9078  2.7391
 3385SOL    HW221615   0.131   3.785   1.565  1.8792  1.5188 -2.0955
 3386SOL     OW21616   4.316   0.611   3.038 -0.7509 -0.2332  0.1781
 3386SOL    HW121617   4.227   0.575   3.033 -1.2084  1.2643 -2.0825
 3386SOL    HW221618   4.356   0.564   2.965 -2.9373  0.4044 -1.4311
 3387SOL     OW21619   1.404   3.084   5.928 -0.0526  0.1002 -0.5394
 3387SOL    HW121620   1.404   2.994   5.895  1.0077 -0.9171  2.1896
 3387SOL    HW221621   1.480   3.120   5.882  0.8044  0.0279  0.8221
 3388SOL     OW21622   1.680   2.074   0.815  0.0298 -1.0908 -0.1748
 3388SOL    HW121623   1.709   2.153   0.771  0.4800 -0.2423  1.6392
 3388SOL    HW221624   1.654   2.027   0.736 -2.1394 -1.5299  0.7959
 3389SOL     OW21625   4.576   0.767   2.065  0.2196  0.0346  0.2740
 3389SOL    HW121626   4.649   0.778   2.005 -0.3965 -2.0304 -0.8514
 3389SOL    HW221627   4.572   0.853   2.107  0.6771  0.7459 -1.1428
 3390SOL     OW21628   2.620   0.977   7.988 -0.6391  0.4313 -0.0363
 3390SOL    HW121629   2.605   0.993   8.081 -1.3232  1.4899 -0.3227
 3390SOL    HW221630   2.627   0.882   7.983  1.3449  0.5498  0.3616
 3391SOL     OW21631   2.768   0.141   4.240  0.3324  0.0810  0.2338
 3391SOL    HW121632   2.758   0.173   4.151 -0.0294 -0.8094 -0.0447
 3391SOL    HW221633   2.693   0.082   4.238  0.1403  0.3083  0.8592
 3392SOL     OW21634   1.556   0.480  12.722  0.1351  0.4581  0.3732
 3392SOL    HW121635   1.462   0.481  12.740 -0.1991  0.6296 -1.4531
 3392SOL    HW221636   1.590   0.507  12.807  3.1191  2.3088 -1.4290
 3393SOL     OW21637   1.520   1.861   6.985  0.5605 -0.0253 -0.4925
 3393SOL    HW121638   1.610   1.883   7.006  0.7535  0.7565 -2.1549
 3393SOL    HW221639   1.522   1.858   6.889  1.3393 -0.8857 -0.4467
 3394SOL     OW21640   4.026   4.505  10.208 -0.3157  0.2293  0.9228
 3394SOL    HW121641   3.950   4.505  10.266 -1.1438  0.5062 -0.1624
 3394SOL    HW221642   4.079   4.434  10.244  0.2922 -0.8621 -2.0491
 3395SOL     OW21643   0.311   1.554  11.136 -0.1783 -0.8659  0.1461
 3395SOL    HW121644   0.239   1.601  11.095  2.1703  3.1084  0.5702
 3395SOL    HW221645   0.374   1.623  11.157  0.6933 -1.7916  0.6109
 3396SOL     OW21646   3.285   3.410   5.193 -0.3441  0.1424 -0.2212
 3396SOL    HW121647   3.296   3.498   5.230 -0.6763  0.3589 -0.6318
 3396SOL    HW221648   3.236   3.433   5.114 -0.4043 -2.9244 -1.0683
 3397SOL     OW21649   2.827   3.407   3.912  0.0067 -0.3345 -0.1370
 3397SOL    HW121650   2.887   3.335   3.931  2.3760  1.1619 -1.9191
 3397SOL    HW221651   2.857   3.469   3.979  1.5312 -1.4743  0.2328
 3398SOL     OW21652   2.139   0.612   4.523  0.2052 -0.4029  0.4226
 3398SOL    HW121653   2.112   0.577   4.439 -2.1179  0.4790  0.8007
 3398SOL    HW221654   2.209   0.552   4.550  1.2892  0.6930  0.0918
 3399SOL     OW21655   3.316   4.174  16.765  0.1260  0.1225 -0.0671
 3399SOL    HW121656   3.376   4.194  16.693 -0.0545  0.2281 -0.1903
 3399SOL    HW221657   3.233   4.191  16.720  1.2425  1.6267 -1.5661
 3400SOL     OW21658   3.559   3.030  13.085 -0.1038  0.0697 -0.2146
 3400SOL    HW121659   3.635   2.975  13.070  1.2039  3.0874 -4.5528
 3400SOL    HW221660   3.508   2.981  13.150 -1.9550 -0.4995 -2.0741
 3401SOL     OW21661   0.425   1.856   7.407 -0.2379 -0.0881  0.0371
 3401SOL    HW121662   0.467   1.884   7.488  0.0391 -2.8435  0.8391
 3401SOL    HW221663   0.463   1.915   7.342  0.2897  0.5834  0.9656
 3402SOL     OW21664   0.468   1.419   6.767 -0.9957  0.2424 -0.2762
 3402SOL    HW121665   0.493   1.420   6.675 -1.1989 -1.9887 -0.3587
 3402SOL    HW221666   0.422   1.502   6.757 -2.1349 -0.3833 -0.2933
 3403SOL     OW21667   3.582   3.306   3.803  0.2444 -0.4260  0.6087
 3403SOL    HW121668   3.595   3.272   3.892  3.1113  1.7321  1.0439
 3403SOL    HW221669   3.666   3.310   3.757 -1.2145 -1.6023 -2.1129
 3404SOL     OW21670   0.228   3.230   6.068 -0.0479 -0.5903  0.0507
 3404SOL    HW121671   0.247   3.211   5.976 -1.8975 -0.6749 -0.3235
 3404SOL    HW221672   0.297   3.296   6.080 -0.6584  0.4437 -2.1251
 3405SOL     OW21673   3.021   4.668  16.529  0.0454  0.7750 -0.3636
 3405SOL    HW121674   3.101   4.621  16.555  1.4613  2.6823 -1.2744
 3405SOL    HW221675   2.954   4.619  16.576  1.3592 -3.0345 -2.4487
 3406SOL     OW21676   4.523   0.310   7.974  0.4052 -0.0863  0.1218
 3406SOL    HW121677   4.476   0.392   7.986 -1.1285 -0.7941 -0.9894
 3406SOL    HW221678   4.613   0.341   7.980  0.3591 -0.4507  2.6472
 3407SOL     OW21679   2.063   1.215  16.120 -0.2096 -0.4084 -0.2181
 3407SOL    HW121680   2.140   1.252  16.163 -0.0982 -0.8833 -0.0100
 3407SOL    HW221681   2.108   1.159  16.056  0.8109  0.9217 -0.6680
 3408SOL     OW21682   0.287   3.084   7.577 -0.0359 -0.2201 -0.2299
 3408SOL    HW121683   0.236   3.068   7.498 -0.0520 -0.1810 -0.2273
 3408SOL    HW221684   0.252   3.019   7.639  0.3302 -1.9323 -1.8360
 3409SOL     OW21685   0.830   2.020   9.561 -0.0854 -0.0685  0.4149
 3409SOL    HW121686   0.767   1.950   9.577 -1.3305  1.1536  0.8570
 3409SOL    HW221687   0.775   2.095   9.583 -0.5506 -0.0477 -0.7808
 3410SOL     OW21688   4.248   3.968  17.254 -0.1095 -0.8506 -0.1616
 3410SOL    HW121689   4.278   3.975  17.345 -0.4943  2.3947 -0.2599
 3410SOL    HW221690   4.262   3.875  17.237 -1.3891 -1.9235  4.5353
 3411SOL     OW21691   0.757   3.022   5.826  0.1113 -0.5485 -0.3845
 3411SOL    HW121692   0.756   2.937   5.868 -0.5206 -0.3775 -0.0526
 3411SOL    HW221693   0.666   3.037   5.801  0.1408 -0.8090 -0.6455
 3412SOL     OW21694   2.474   1.112  11.465  0.0735  0.3391  0.5571
 3412SOL    HW121695   2.411   1.085  11.399 -0.1661 -0.4092  1.1004
 3412SOL    HW221696   2.509   1.194  11.428 -1.6720  0.0093 -1.7399
 3413SOL     OW21697   0.044   3.694   5.248 -0.3806 -0.4384 -0.2405
 3413SOL    HW121698   0.017   3.783   5.224 -1.2364 -0.8690 -0.9047
 3413SOL    HW221699   0.098   3.712   5.325 -0.6350 -0.7888  0.0210
 3414SOL     OW21700   3.475   2.246   4.778  0.1254  0.0665  0.0286
 3414SOL    HW121701   3.394   2.282   4.743 -1.7463 -1.7935  2.4522
 3414SOL    HW221702   3.457   2.253   4.871 -0.2450  1.9313 -0.1831
 3415SOL     OW21703   0.799   2.372   7.067 -0.2869  0.2430  0.1590
 3415SOL    HW121704   0.736   2.301   7.057  0.1152 -0.1336  0.2936
 3415SOL    HW221705   0.880   2.321   7.065  2.3331  4.2417  2.6885
 3416SOL     OW21706   0.834   2.894   3.241  0.0848  0.0485 -0.0749
 3416SOL    HW121707   0.919   2.864   3.207 -0.2754 -0.6960 -0.3280
 3416SOL    HW221708   0.824   2.831   3.312  0.0889 -0.8135 -0.8258
 3417SOL     OW21709   4.321   3.317   1.383 -0.4528 -0.3282  0.2201
 3417SOL    HW121710   4.252   3.266   1.340 -1.1692  1.8692 -1.2763
 3417SOL    HW221711   4.398   3.264   1.365 -1.1185 -0.7584 -1.3933
 3418SOL     OW21712   3.123   4.133   3.749 -0.8148  0.0646 -0.2361
 3418SOL    HW121713   3.158   4.196   3.686 -1.1095  0.6980  0.2288
 3418SOL    HW221714   3.038   4.170   3.772 -2.1862 -2.8174 -0.6979
 3419SOL     OW21715   3.199   1.834   3.100  0.4021 -0.0293  0.1502
 3419SOL    HW121716   3.106   1.833   3.079  0.4979 -0.7572 -0.2517
 3419SOL    HW221717   3.198   1.821   3.195 -0.9621  0.3474  0.1935
 3420SOL     OW21718   2.982   4.520   5.851  0.3226 -0.6452  0.3516
 3420SOL    HW121719   3.038   4.594   5.876 -0.5144  0.5683 -1.3170
 3420SOL    HW221720   2.910   4.549   5.907 -0.4302  0.1315 -1.0315
 3421SOL     OW21721   0.532   0.451   8.629 -0.6911  0.0763 -0.3804
 3421SOL    HW121722   0.452   0.401   8.612  0.7108 -2.9324  1.9637
 3421SOL    HW221723   0.590   0.402   8.571  1.2069  1.6405  0.1613
 3422SOL     OW21724   2.799   2.444  10.592  0.3709  0.7421  1.0897
 3422SOL    HW121725   2.783   2.411  10.503  0.2830  1.3158  0.8890
 3422SOL    HW221726   2.752   2.527  10.584 -1.2191 -0.3467 -0.7172
 3423SOL     OW21727   4.282   3.312   2.360  0.1921 -0.1749 -0.1546
 3423SOL    HW121728   4.277   3.257   2.281 -2.9193 -1.0431  0.6480
 3423SOL    HW221729   4.202   3.362   2.341  0.1308  0.3927  1.6701
 3424SOL     OW21730   0.586   1.582   1.317 -0.0270 -0.0953  0.3738
 3424SOL    HW121731   0.668   1.554   1.358 -1.1028  3.5340  4.9572
 3424SOL    HW221732   0.600   1.676   1.327  1.0688 -0.3760  1.6317
 3425SOL     OW21733   2.611   1.200   1.124 -0.6748  0.5076  0.0430
 3425SOL    HW121734   2.529   1.182   1.077  0.0633  0.5531 -1.2355
 3425SOL    HW221735   2.598   1.146   1.202  0.0800 -0.7069 -0.6744
 3426SOL     OW21736   3.523   1.382   9.954 -0.2813 -0.3589 -0.0135
 3426SOL    HW121737   3.435   1.344   9.956 -0.8924  1.1486  1.6792
 3426SOL    HW221738   3.568   1.311   9.907 -0.4934 -0.3332 -0.2552
 3427SOL     OW21739   2.160   3.933  11.625  0.0531 -0.3594 -0.1864
 3427SOL    HW121740   2.077   3.956  11.583 -0.2477  1.9899  1.7507
 3427SOL    HW221741   2.193   4.009  11.673 -0.2214 -0.7528  0.6172
 3428SOL     OW21742   0.869   0.673   2.836 -0.0431 -0.1346  0.5483
 3428SOL    HW121743   0.784   0.685   2.879 -0.0061 -0.6568  0.7651
 3428SOL    HW221744   0.895   0.582   2.849 -1.4271 -0.5044  0.6878
 3429SOL     OW21745   1.191   4.531  16.459  0.1243  0.5364  0.2387
 3429SOL    HW121746   1.210   4.569  16.544  2.5486 -1.1179  0.4401
 3429SOL    HW221747   1.253   4.583  16.408 -0.8139 -0.2835 -1.7722
 3430SOL     OW21748   1.126   3.539   5.988 -0.3351  0.1424  0.2780
 3430SOL    HW121749   1.090   3.472   6.047  3.5115 -3.4582 -1.4879
 3430SOL    HW221750   1.167   3.599   6.051  2.1546  1.0491 -2.2183
 3431SOL     OW21751   3.443   0.230  10.053  0.6405 -0.0772 -0.5345
 3431SOL    HW121752   3.483   0.151  10.015  1.7229  0.4547 -0.4891
 3431SOL    HW221753   3.508   0.255  10.119 -0.5625  1.9066 -0.1194
 3432SOL     OW21754   4.438   1.175   3.203  0.0386  0.4660  0.0662
 3432SOL    HW121755   4.411   1.246   3.262 -0.9060 -0.4846  0.7874
 3432SOL    HW221756   4.531   1.167   3.224 -0.5569 -0.6363  2.2701
 3433SOL     OW21757   3.338   2.089   6.358  0.3005  0.1635 -0.4861
 3433SOL    HW121758   3.382   2.164   6.319  0.0669  0.2691 -0.5468
 3433SOL    HW221759   3.403   2.039   6.409 -0.5060  1.1438  1.5269
 3434SOL     OW21760   1.497   4.045   6.858 -0.1753 -0.6479 -0.2126
 3434SOL    HW121761   1.414   4.083   6.886 -0.0665 -1.3763  1.1030
 3434SOL    HW221762   1.471   3.973   6.801  0.6815 -0.7367 -0.4890
 3435SOL     OW21763   1.581   1.112   3.392  0.2325  0.1330 -0.7712
 3435SOL    HW121764   1.506   1.170   3.407 -1.3501 -2.1010  0.0039
 3435SOL    HW221765   1.656   1.165   3.420 -0.9965  0.0486  2.7052
 3436SOL     OW21766   1.059   1.672   7.995  0.5628 -0.3773 -0.2585
 3436SOL    HW121767   0.999   1.688   8.068 -0.2575  1.1875 -1.2772
 3436SOL    HW221768   1.072   1.578   8.008 -1.8974 -0.6999 -0.1897
 3437SOL     OW21769   2.653   1.398   4.946 -0.5773  0.1007  0.4773
 3437SOL    HW121770   2.659   1.340   4.870 -1.2232  0.5655  0.0729
 3437SOL    HW221771   2.591   1.463   4.912 -0.5664  1.1544  2.4462
 3438SOL     OW21772   3.125   0.809   2.714  0.2688  0.1258  0.3116
 3438SOL    HW121773   3.059   0.799   2.646 -0.1013  0.7869  0.5723
 3438SOL    HW221774   3.135   0.716   2.735 -1.8453  0.2799  2.0598
 3439SOL     OW21775   1.744   2.879   6.941 -0.5973 -0.5113 -0.0540
 3439SOL    HW121776   1.723   2.865   7.033  0.5944 -2.5138 -0.1009
 3439SOL    HW221777   1.812   2.814   6.925 -3.3810 -3.2388 -0.6982
 3440SOL     OW21778   3.755   1.213   0.251 -0.0398 -0.8221  0.5787
 3440SOL    HW121779   3.746   1.285   0.313 -0.5479 -1.0951  0.8193
 3440SOL    HW221780   3.689   1.153   0.285 -1.2986  0.5684  0.5694
 3441SOL     OW21781   3.254   2.171  11.958  0.1032  0.2287  0.5537
 3441SOL    HW121782   3.280   2.117  12.033 -0.5992  1.1620  1.4699
 3441SOL    HW221783   3.335   2.190  11.910  0.5052  0.8357  1.4643
 3442SOL     OW21784   1.724   4.663   2.808  0.0278  0.1348  1.0002
 3442SOL    HW121785   1.681   4.718   2.742 -1.8241  0.9613  2.8970
 3442SOL    HW221786   1.724   4.579   2.763  0.0816 -0.1636  1.5523
 3443SOL     OW21787   1.936   0.826  13.936  0.5458  0.1550  0.0529
 3443SOL    HW121788   1.974   0.890  13.996  1.6690 -0.6820  0.2574
 3443SOL    HW221789   1.851   0.799  13.971  0.2198  0.9972 -0.1056
 3444SOL     OW21790   4.310   0.854  16.220  0.2913 -0.6932  0.0552
 3444SOL    HW121791   4.273   0.943  16.221 -1.2225 -1.2953 -1.7804
 3444SOL    HW221792   4.386   0.871  16.165  1.7445 -1.9942  1.6920
 3445SOL     OW21793   0.314   0.127   2.865 -0.2064  0.2484  0.3021
 3445SOL    HW121794   0.303   0.056   2.928  0.5211  0.6312  0.8677
 3445SOL    HW221795   0.396   0.109   2.819 -0.3720 -1.8420  0.8276
 3446SOL     OW21796   0.515   0.737   4.801 -0.1347 -0.3128 -0.1592
 3446SOL    HW121797   0.582   0.752   4.868 -0.7398  0.2243  0.3179
 3446SOL    HW221798   0.536   0.787   4.722 -2.0077  1.6946  0.6348
 3447SOL     OW21799   0.103   1.500   9.435 -0.1060 -0.5184 -0.1150
 3447SOL    HW121800   0.056   1.555   9.498 -0.2247 -1.9302  1.0385
 3447SOL    HW221801   0.192   1.535   9.442  0.1194 -0.5444 -2.8030
 3448SOL     OW21802   3.619   2.171  13.084  0.4118 -0.2273 -0.4663
 3448SOL    HW121803   3.703   2.170  13.039  1.0467  0.4952  0.7168
 3448SOL    HW221804   3.583   2.086  13.056 -1.5592  0.6909 -0.7000
 3449SOL     OW21805   4.397   3.559   4.580 -0.0963  0.0955  0.0178
 3449SOL    HW121806   4.395   3.467   4.555 -0.4162 -0.0480  0.5828
 3449SOL    HW221807   4.489   3.581   4.561  0.2937 -0.8570  0.8348
 3450SOL     OW21808   2.421   4.271   7.239  0.1406  0.0170 -0.1203
 3450SOL    HW121809   2.393   4.234   7.155 -0.2129 -2.3294  1.0122
 3450SOL    HW221810   2.395   4.205   7.304 -1.8328  0.8340 -0.0815
 3451SOL     OW21811   1.374   2.360   2.778  0.3473  0.7038  0.5009
 3451SOL    HW121812   1.347   2.329   2.691  1.1323 -2.5050  1.4303
 3451SOL    HW221813   1.307   2.428   2.788  2.7687  3.3547 -1.1738
 3452SOL     OW21814   0.235   2.119   7.429 -0.0311  0.2999  0.2457
 3452SOL    HW121815   0.291   2.187   7.465 -2.0417  3.2087 -2.1086
 3452SOL    HW221816   0.292   2.093   7.356  0.6518 -1.5524  1.4352
 3453SOL     OW21817   1.099   0.642  11.324 -0.5826  0.2312  0.4316
 3453SOL    HW121818   1.147   0.581  11.380 -0.6180  2.1220  2.5251
 3453SOL    HW221819   1.044   0.685  11.389 -0.9905 -0.7840  0.7372
 3454SOL     OW21820   3.849   3.556   5.484  0.5426 -0.3781 -0.4555
 3454SOL    HW121821   3.917   3.535   5.548 -0.5706 -0.9547  0.5348
 3454SOL    HW221822   3.827   3.638   5.528  0.2190 -1.6167  1.6724
 3455SOL     OW21823   2.997   0.307   4.217  0.1530  0.1616  0.0574
 3455SOL    HW121824   2.942   0.235   4.187 -2.3118  1.7687  0.6805
 3455SOL    HW221825   2.928   0.346   4.271  0.1695 -0.9374  0.8461
 3456SOL     OW21826   3.829   1.606   3.904 -1.1256 -0.0189  0.2515
 3456SOL    HW121827   3.831   1.696   3.871  0.9190 -0.2243 -0.2081
 3456SOL    HW221828   3.735   1.593   3.916 -1.0951 -1.2422 -0.7771
 3457SOL     OW21829   4.618   2.674   7.443  0.6459 -0.0689  0.7631
 3457SOL    HW121830   4.713   2.689   7.446  0.6406 -0.2559  1.8104
 3457SOL    HW221831   4.601   2.630   7.526  0.7622 -1.2786  0.1476
 3458SOL     OW21832   1.748   4.586   2.313  0.4643 -0.7459 -0.1914
 3458SOL    HW121833   1.790   4.650   2.255 -2.9002  0.0430 -1.7713
 3458SOL    HW221834   1.820   4.549   2.363 -0.5785 -2.7714 -0.2100
 3459SOL     OW21835   3.429   3.778   4.631  0.0939  0.1447  0.8143
 3459SOL    HW121836   3.336   3.795   4.617 -0.4166 -0.6512  3.2727
 3459SOL    HW221837   3.442   3.835   4.706 -2.4806  2.6998 -0.6846
 3460SOL     OW21838   1.982   1.930  15.616 -0.2939 -0.1126  0.1291
 3460SOL    HW121839   2.016   2.019  15.617  0.3907 -0.3681  0.2333
 3460SOL    HW221840   1.899   1.939  15.570  1.4736  1.4495 -2.7564
 3461SOL     OW21841   0.188   1.052   1.633  1.0745 -0.5989 -0.3027
 3461SOL    HW121842   0.148   1.139   1.636  3.4405  0.4053  2.2329
 3461SOL    HW221843   0.266   1.075   1.683  0.6990 -1.0168  0.4710
 3462SOL     OW21844   1.140   3.483   3.409  0.4202  0.4099 -0.6163
 3462SOL    HW121845   1.095   3.411   3.453 -0.8798  0.6951 -1.4788
 3462SOL    HW221846   1.213   3.496   3.471 -2.2035 -1.4870  2.8670
 3463SOL     OW21847   1.149   0.188   2.672 -0.3340 -0.2417  0.0738
 3463SOL    HW121848   1.125   0.269   2.715  0.5411  0.0160  0.0678
 3463SOL    HW221849   1.137   0.125   2.744 -4.0208  0.6596  0.2589
 3464SOL     OW21850   1.664   1.797   5.628 -0.2547  0.7068  0.0672
 3464SOL    HW121851   1.690   1.705   5.635 -1.3835  0.1603 -2.6010
 3464SOL    HW221852   1.665   1.835   5.716 -0.8446 -2.2063  1.3388
 3465SOL     OW21853   0.016   1.173   6.729 -0.3637 -0.5175 -0.4588
 3465SOL    HW121854   0.041   1.155   6.820  2.1607  0.0248 -1.0614
 3465SOL    HW221855   0.049   1.262   6.716 -0.6707 -0.6669 -2.2817
 3466SOL     OW21856   4.067   0.939   4.399 -0.0077 -0.0665  0.1455
 3466SOL    HW121857   4.076   0.869   4.463  1.9132 -1.0703 -1.2004
 3466SOL    HW221858   4.076   1.015   4.457 -1.2811  0.6319 -0.5631
 3467SOL     OW21859   3.441   1.560   6.394 -0.0032  0.2998 -0.7806
 3467SOL    HW121860   3.386   1.528   6.322 -1.1619  0.4381  0.0273
 3467SOL    HW221861   3.388   1.634   6.425 -0.5792 -1.9948  3.7063
 3468SOL     OW21862   4.093   4.248   1.365  0.7273  0.8774 -0.6571
 3468SOL    HW121863   4.138   4.167   1.385 -1.4716 -0.3705 -0.8209
 3468SOL    HW221864   4.152   4.308   1.411  1.4765 -0.7677  0.4908
 3469SOL     OW21865   0.558   0.937   8.687 -0.1301  0.0288 -0.2351
 3469SOL    HW121866   0.622   0.919   8.755 -0.3134  1.0808  0.2245
 3469SOL    HW221867   0.473   0.943   8.731 -1.1991 -1.5048 -2.0746
 3470SOL     OW21868   3.643   0.898   3.356 -0.4428 -0.3631 -0.6563
 3470SOL    HW121869   3.602   0.811   3.353 -0.3979 -0.4296  0.4414
 3470SOL    HW221870   3.731   0.870   3.333 -1.1902 -1.3087 -2.3376
 3471SOL     OW21871   2.813   4.673   0.126  0.8158 -0.6708  0.7187
 3471SOL    HW121872   2.730   4.657   0.170  1.0071 -0.8134  1.0286
 3471SOL    HW221873   2.826   0.045   0.151  0.7383 -0.8687  1.4729
 3472SOL     OW21874   3.358   0.318   6.847 -0.2282 -0.2793 -0.4930
 3472SOL    HW121875   3.304   0.370   6.907 -1.1378 -0.4989 -1.1132
 3472SOL    HW221876   3.438   0.312   6.899  0.8293  1.8462 -1.8759
 3473SOL     OW21877   0.297   2.535   6.395  0.1976  0.2499 -0.0658
 3473SOL    HW121878   0.270   2.530   6.487 -0.5344 -1.8377 -0.3787
 3473SOL    HW221879   0.269   2.621   6.364 -1.4991 -0.3370 -0.1670
 3474SOL     OW21880   2.166   0.768   8.777  0.3272 -0.2600 -0.2396
 3474SOL    HW121881   2.197   0.690   8.823  1.6123  1.2714  1.5416
 3474SOL    HW221882   2.243   0.824   8.762  0.2250  0.0839  0.5099
 3475SOL     OW21883   4.538   3.476   1.878  0.2235  0.1178  0.2387
 3475SOL    HW121884   4.586   3.487   1.960  0.7165 -1.6102  0.1756
 3475SOL    HW221885   4.469   3.541   1.888  2.3336  2.3176  0.4263
 3476SOL     OW21886   3.289   0.468  14.544  0.1767  0.7000 -0.1741
 3476SOL    HW121887   3.228   0.393  14.546  0.1384  0.7647  0.9838
 3476SOL    HW221888   3.232   0.545  14.551  1.3097  1.4706  0.4374
 3477SOL     OW21889   4.350   4.368   5.829  0.1313  0.2052 -0.9014
 3477SOL    HW121890   4.330   4.349   5.738 -0.8633 -1.1103 -0.4158
 3477SOL    HW221891   4.324   4.288   5.875  1.1615  1.0471  1.1452
 3478SOL     OW21892   4.326   4.521   5.142 -0.4909  0.0698 -0.3211
 3478SOL    HW121893   4.404   4.570   5.166  0.1930 -0.2844 -1.8072
 3478SOL    HW221894   4.269   4.530   5.218 -0.4895  0.3757 -0.3544
 3479SOL     OW21895   3.299   4.250   3.094  0.4830 -0.3177  0.1178
 3479SOL    HW121896   3.288   4.305   3.171  2.4296 -1.0675  0.9316
 3479SOL    HW221897   3.387   4.275   3.064 -0.2390 -1.5056 -2.9755
 3480SOL     OW21898   1.464   0.347   3.564  0.4971 -0.0787  0.0402
 3480SOL    HW121899   1.504   0.272   3.607  2.0405  1.0956  0.6912
 3480SOL    HW221900   1.410   0.385   3.633 -1.3220 -0.3513 -1.2464
 3481SOL     OW21901   1.413   0.700   3.554 -0.0790 -0.1370  0.1348
 3481SOL    HW121902   1.480   0.735   3.495  0.6051  0.0305  0.9947
 3481SOL    HW221903   1.466   0.652   3.618  0.8035 -0.1124 -0.5822
 3482SOL     OW21904   0.031   0.036   6.321 -0.8224 -0.3735 -0.3107
 3482SOL    HW121905   0.029   4.693   6.249 -3.4270  0.6334 -1.1282
 3482SOL    HW221906   0.122   0.037   6.350 -1.0423  1.2881  0.3617
 3483SOL     OW21907   4.046   4.129   7.012  0.2843  0.2262  0.0418
 3483SOL    HW121908   3.983   4.166   6.949  1.1496  1.5136 -0.0817
 3483SOL    HW221909   4.054   4.209   7.065  0.1349  1.3978 -1.6857
 3484SOL     OW21910   3.337   2.863   3.998 -0.0027  0.0576  0.2164
 3484SOL    HW121911   3.347   2.806   3.922  1.9445 -0.4937  0.8896
 3484SOL    HW221912   3.250   2.830   4.024 -0.0766  2.0741  2.5277
 3485SOL     OW21913   3.546   2.689   1.577  0.1745  0.4302  0.2419
 3485SOL    HW121914   3.640   2.671   1.586  0.4292  0.2206 -2.9736
 3485SOL    HW221915   3.554   2.767   1.523  1.5091  0.7255  0.8686
 3486SOL     OW21916   1.841   0.183   3.609 -0.2674 -0.4140 -0.2864
 3486SOL    HW121917   1.819   0.095   3.579 -3.0692 -0.5024  2.0213
 3486SOL    HW221918   1.845   0.233   3.528 -0.2767 -0.5590 -0.3766
 3487SOL     OW21919   0.634   3.586  14.568  0.4824  0.1629  0.6685
 3487SOL    HW121920   0.687   3.507  14.575  0.5730  0.0995 -0.7411
 3487SOL    HW221921   0.684   3.640  14.505 -0.8136 -2.3100 -2.4803
 3488SOL     OW21922   0.562   3.421   2.939  0.4286 -0.2972 -0.2583
 3488SOL    HW121923   0.535   3.389   2.853 -0.0598 -1.0919  0.1964
 3488SOL    HW221924   0.549   3.352   3.004 -0.1354  1.5526  1.5928
 3489SOL     OW21925   4.700   0.949   2.329 -0.3079  0.5143  0.2139
 3489SOL    HW121926   4.609   0.969   2.311  0.4125  1.7342 -2.1258
 3489SOL    HW221927   4.719   1.035   2.367 -3.8024  2.0305 -1.4812
 3490SOL     OW21928   1.913   2.180   1.006  0.1575 -0.3262 -0.7791
 3490SOL    HW121929   1.989   2.202   0.952  2.2589 -1.5244  1.7023
 3490SOL    HW221930   1.839   2.161   0.948 -0.5810 -1.1147  0.4232
 3491SOL     OW21931   1.580   1.431   6.131  0.3335  0.0310 -0.2319
 3491SOL    HW121932   1.590   1.488   6.055 -1.3130 -0.6569 -0.9726
 3491SOL    HW221933   1.665   1.388   6.124 -0.0602 -0.6203 -0.9228
 3492SOL     OW21934   1.656   2.784   5.441 -0.6440  0.0223 -0.2402
 3492SOL    HW121935   1.566   2.808   5.423 -0.5280 -0.5940 -1.6814
 3492SOL    HW221936   1.657   2.691   5.417  0.0898 -0.5019  1.7700
 3493SOL     OW21937   3.247   1.531   3.381 -0.1288 -0.0484  0.0158
 3493SOL    HW121938   3.169   1.523   3.327  1.3410 -0.5676 -2.0461
 3493SOL    HW221939   3.240   1.462   3.448  2.7323 -0.5734 -0.1962
 3494SOL     OW21940   3.048   0.960   5.594  0.6589  0.1089 -0.0389
 3494SOL    HW121941   3.121   0.924   5.645 -1.2858  0.4632  2.9899
 3494SOL    HW221942   3.056   0.900   5.519  0.8384 -0.7731  0.6863
 3495SOL     OW21943   4.502   3.585   5.306 -0.1410  0.2666 -0.0639
 3495SOL    HW121944   4.449   3.561   5.382 -1.1106 -3.5347 -1.8971
 3495SOL    HW221945   4.517   3.674   5.337 -1.4722 -0.1543  1.7957
 3496SOL     OW21946   2.680   2.455   8.245 -0.3086  0.2431 -0.4887
 3496SOL    HW121947   2.690   2.407   8.327  0.5732  1.4715  0.1241
 3496SOL    HW221948   2.768   2.491   8.231 -0.4172 -0.6052 -3.2757
 3497SOL     OW21949   0.941   0.227  12.603 -0.1769 -0.4181 -0.2153
 3497SOL    HW121950   0.936   0.318  12.634 -0.6344 -0.3539 -0.4835
 3497SOL    HW221951   0.947   0.244  12.509 -0.0057 -1.2588 -0.3483
 3498SOL     OW21952   0.781   1.091   5.200 -0.7981  0.1132  0.2824
 3498SOL    HW121953   0.805   1.032   5.272  1.5441  0.3375 -0.2972
 3498SOL    HW221954   0.842   1.060   5.133 -0.6578  0.2587  0.3412
 3499SOL     OW21955   1.801   2.503   3.989  0.1806  0.4616  0.5194
 3499SOL    HW121956   1.859   2.479   4.062  0.9056  1.3831  0.2517
 3499SOL    HW221957   1.871   2.508   3.924 -1.0028 -0.8128 -0.8437
 3500SOL     OW21958   0.171   1.730   6.979  0.1978  0.5116  0.0293
 3500SOL    HW121959   0.218   1.654   7.014 -0.1930 -0.3597 -1.3506
 3500SOL    HW221960   0.083   1.692   6.981 -0.1567  1.3474 -0.1309
 3501SOL     OW21961   2.220   2.787  14.144 -0.0775 -0.0144 -0.1276
 3501SOL    HW121962   2.300   2.810  14.190 -0.5097 -0.1854  0.7089
 3501SOL    HW221963   2.235   2.698  14.111 -1.1161 -0.2500  0.0364
 3502SOL     OW21964   1.658   2.435  10.803  0.3283  0.0882 -0.4296
 3502SOL    HW121965   1.595   2.506  10.807  0.4814  0.1910  0.1761
 3502SOL    HW221966   1.732   2.475  10.849  0.2041 -1.3306  1.0103
 3503SOL     OW21967   0.288   0.818   4.429 -0.1428  0.1014 -0.0363
 3503SOL    HW121968   0.281   0.912   4.409  0.3994  0.1128 -0.1747
 3503SOL    HW221969   0.205   0.808   4.475  1.2340  0.7139  2.6061
 3504SOL     OW21970   4.420   4.143   8.263  0.2723  0.6777 -0.1670
 3504SOL    HW121971   4.370   4.147   8.182 -0.5866 -0.6492  0.3083
 3504SOL    HW221972   4.363   4.193   8.322 -0.3438 -1.1023  0.7600
 3505SOL     OW21973   4.000   3.623  11.956 -0.1309  0.1179 -0.1431
 3505SOL    HW121974   4.033   3.575  12.032 -1.3393 -1.0364 -0.3549
 3505SOL    HW221975   4.037   3.566  11.888 -0.7216  0.8325 -1.0640
 3506SOL     OW21976   2.614   1.485  13.735 -0.7302  0.2899  0.1268
 3506SOL    HW121977   2.619   1.484  13.831  2.2548 -0.7496 -0.0337
 3506SOL    HW221978   2.672   1.411  13.715 -0.6547  0.6976 -1.1233
 3507SOL     OW21979   4.708   1.726   1.216 -0.8481 -0.5230  0.5610
 3507SOL    HW121980   0.019   1.727   1.307  0.2864 -0.2102  0.1750
 3507SOL    HW221981   0.062   1.767   1.170 -2.0446  0.5150 -0.4184
 3508SOL     OW21982   4.715   1.493   3.328 -0.2875 -0.7174  0.5394
 3508SOL    HW121983   0.034   1.534   3.405  0.3080  1.5552 -0.9862
 3508SOL    HW221984   0.008   1.563   3.265  0.5553 -0.6042  0.8332
 3509SOL     OW21985   1.030   2.732   1.611 -0.1002  0.4837  0.3333
 3509SOL    HW121986   1.079   2.713   1.531  1.3126  1.6097  0.9257
 3509SOL    HW221987   1.076   2.805   1.651  0.9535 -0.7602  1.4016
 3510SOL     OW21988   3.099   3.505  16.215 -0.1050  0.1812  0.4570
 3510SOL    HW121989   3.175   3.457  16.248  1.6481  1.5812 -1.5639
 3510SOL    HW221990   3.075   3.547  16.298  1.1097 -1.4284  1.6275
 3511SOL     OW21991   2.895   3.059   4.682 -0.0530  0.1938 -0.1012
 3511SOL    HW121992   2.961   2.991   4.671  0.0809  0.4492 -0.9000
 3511SOL    HW221993   2.852   3.068   4.597 -1.9033 -2.1962  0.5896
 3512SOL     OW21994   3.002   3.028   9.871 -0.3044  0.1641 -0.2578
 3512SOL    HW121995   3.053   3.110   9.869  0.7922 -0.4400  1.9602
 3512SOL    HW221996   3.074   2.968   9.891  0.3441  0.6395 -1.1916
 3513SOL     OW21997   1.643   4.170   8.486  0.5839 -0.2803  0.2738
 3513SOL    HW121998   1.735   4.163   8.511  0.3337  2.3468  1.8793
 3513SOL    HW221999   1.602   4.216   8.559  1.3180 -0.5664  0.8736
 3514SOL     OW22000   2.445   2.667  15.813  0.3476  0.1955  0.7536
 3514SOL    HW122001   2.470   2.579  15.839  3.6384  0.5780 -1.1261
 3514SOL    HW222002   2.380   2.691  15.879 -0.5709 -1.6634  0.5137
 3515SOL     OW22003   3.544   1.475   3.155  0.3499  0.2499  0.1135
 3515SOL    HW122004   3.461   1.466   3.108  1.3726 -0.2967 -1.5716
 3515SOL    HW222005   3.523   1.564   3.184 -1.0742 -0.2031  0.4550
 3516SOL     OW22006   3.412   1.914   5.448  0.4724  0.2506 -0.0710
 3516SOL    HW122007   3.357   1.838   5.427  0.6364 -0.0686  0.6827
 3516SOL    HW222008   3.479   1.867   5.497  0.2018 -0.2582 -0.1884
 3517SOL     OW22009   3.671   2.698   2.150 -0.4155  0.1106 -0.1359
 3517SOL    HW122010   3.673   2.603   2.140  0.8617  0.1040  0.1215
 3517SOL    HW222011   3.580   2.722   2.169  0.8101  4.3085  0.3613
 3518SOL     OW22012   1.460   1.308   4.515 -0.9059 -0.2913 -0.2781
 3518SOL    HW122013   1.417   1.247   4.455 -0.0198 -0.6758 -0.5159
 3518SOL    HW222014   1.508   1.246   4.570 -0.6030  0.3758  0.2135
 3519SOL     OW22015   1.021   3.385   1.257 -0.1111 -0.1504  0.0994
 3519SOL    HW122016   0.969   3.313   1.222  0.3436 -0.5206  0.1788
 3519SOL    HW222017   1.109   3.367   1.222 -0.0145  1.7253 -0.6024
 3520SOL     OW22018   4.677   0.057   8.742  0.0579 -0.6174 -0.0709
 3520SOL    HW122019   4.625   0.030   8.667  1.4467 -1.6673 -0.6505
 3520SOL    HW222020   0.031   4.716   8.733  1.8651  1.9016 -2.0255
 3521SOL     OW22021   2.940   2.015   4.076 -0.9977 -0.3622 -0.3361
 3521SOL    HW122022   2.950   2.093   4.022  1.3942  0.1355  0.8402
 3521SOL    HW222023   2.855   1.988   4.042 -2.0673  1.7599  0.7153
 3522SOL     OW22024   3.612   0.284   2.227 -0.1780 -0.0949 -0.5460
 3522SOL    HW122025   3.637   0.193   2.243 -1.5241 -0.2174  0.7932
 3522SOL    HW222026   3.626   0.321   2.313 -0.2108  0.2564 -0.6934
 3523SOL     OW22027   3.393   1.180  14.523 -0.2532  0.2452 -0.6262
 3523SOL    HW122028   3.350   1.140  14.448 -1.6634  1.6902 -0.5724
 3523SOL    HW222029   3.347   1.263  14.531 -2.5535 -1.0831 -0.0304
 3524SOL     OW22030   2.885   0.216  10.820  0.0186 -0.0549  0.4462
 3524SOL    HW122031   2.903   0.134  10.866 -0.9337 -1.1650 -1.1771
 3524SOL    HW222032   2.939   0.281  10.865  1.6228 -2.4502  2.0402
 3525SOL     OW22033   1.572   0.204  14.698  0.6101  0.2243 -0.0363
 3525SOL    HW122034   1.507   0.217  14.767 -0.3827  1.7855 -1.2548
 3525SOL    HW222035   1.639   0.264  14.730 -0.0566 -0.0095  1.7672
 3526SOL     OW22036   3.692   3.638   5.008 -0.2889 -0.3766 -0.0641
 3526SOL    HW122037   3.685   3.557   5.058 -1.6873 -0.5826 -0.6282
 3526SOL    HW222038   3.682   3.602   4.920  0.7607  1.8991 -1.1084
 3527SOL     OW22039   0.885   0.177   7.505  0.0863  0.0801  0.3528
 3527SOL    HW122040   0.794   0.204   7.517 -0.1059 -0.3125 -0.2353
 3527SOL    HW222041   0.881   0.122   7.427  1.5202 -0.0460  0.3700
 3528SOL     OW22042   3.408   1.734   6.828  0.5036 -0.1078  0.3150
 3528SOL    HW122043   3.367   1.647   6.819 -0.0776  0.2677 -0.6913
 3528SOL    HW222044   3.329   1.784   6.809  0.2787 -0.9945 -1.1470
 3529SOL     OW22045   3.213   2.868   1.475 -0.1486 -0.2353  0.3102
 3529SOL    HW122046   3.263   2.935   1.522 -2.2974  1.1465  0.6111
 3529SOL    HW222047   3.233   2.890   1.384  0.0599  0.1486  0.4499
 3530SOL     OW22048   0.718   1.477   4.937 -0.0293 -0.0827  0.3366
 3530SOL    HW122049   0.623   1.474   4.929 -0.0426 -2.3350  1.1509
 3530SOL    HW222050   0.752   1.439   4.857  0.0619 -0.0516  0.3603
 3531SOL     OW22051   2.164   0.351   7.435 -0.1596 -0.6116  0.1665
 3531SOL    HW122052   2.128   0.283   7.491  1.1804  1.8154  3.9505
 3531SOL    HW222053   2.256   0.327   7.441 -0.4605 -1.0482  2.7729
 3532SOL     OW22054   0.374   3.024   7.286  0.2906 -0.4239  0.6216
 3532SOL    HW122055   0.279   3.025   7.274  0.6547 -2.8489 -2.3973
 3532SOL    HW222056   0.411   3.089   7.225  0.6765 -2.3155 -1.1703
 3533SOL     OW22057   3.868   1.569   2.020  0.4468 -0.2288 -0.0744
 3533SOL    HW122058   3.830   1.508   2.083  1.2432 -0.1579  0.4815
 3533SOL    HW222059   3.955   1.577   2.061  1.9446  2.0672 -3.6779
 3534SOL     OW22060   0.586   3.872   9.456 -0.0542  0.0481 -0.2919
 3534SOL    HW122061   0.517   3.895   9.395 -1.9601 -3.6083  0.4604
 3534SOL    HW222062   0.590   3.777   9.440 -0.0875  0.0262 -0.1756
 3535SOL     OW22063   4.181   3.956   6.729  0.3075  0.0089 -0.7063
 3535SOL    HW122064   4.152   3.910   6.808  0.5975 -3.4627 -2.6296
 3535SOL    HW222065   4.211   4.042   6.760  0.1623  0.4429 -1.7788
 3536SOL     OW22066   3.126   0.482  13.187  0.3527 -0.0183  0.2318
 3536SOL    HW122067   3.142   0.416  13.120  0.2518  0.3376 -0.1428
 3536SOL    HW222068   3.147   0.435  13.267 -0.0170  1.4448  1.1785
 3537SOL     OW22069   2.004   2.250   8.196  0.3145 -0.6468  0.1953
 3537SOL    HW122070   2.046   2.197   8.263 -0.6520 -1.2172  0.3440
 3537SOL    HW222071   1.929   2.197   8.168  0.4001 -0.2547 -0.7950
 3538SOL     OW22072   4.628   4.216   6.018 -0.4474 -0.0934 -0.0579
 3538SOL    HW122073   4.702   4.271   5.990 -0.7362 -0.7732 -2.1532
 3538SOL    HW222074   4.673   4.132   6.018  2.9382  1.7001 -1.4977
 3539SOL     OW22075   0.292   2.258  12.762 -0.5646 -0.4073 -0.1823
 3539SOL    HW122076   0.324   2.214  12.841  0.5260  1.6294  0.5250
 3539SOL    HW222077   0.299   2.183  12.703  1.6802  0.0062 -0.4821
 3540SOL     OW22078   4.293   2.132  15.460 -0.0411  0.3913 -0.1909
 3540SOL    HW122079   4.212   2.135  15.409 -0.6441  1.6846  0.8654
 3540SOL    HW222080   4.281   2.049  15.506 -0.1000  0.4317 -0.1340
 3541SOL     OW22081   2.537   0.854   3.189 -0.2178 -0.0699  0.2416
 3541SOL    HW122082   2.629   0.880   3.191 -0.4885  0.9181 -0.0530
 3541SOL    HW222083   2.510   0.887   3.275 -0.9016  0.5143 -0.1940
 3542SOL     OW22084   2.349   3.107   0.966 -0.6647 -0.0515 -0.3712
 3542SOL    HW122085   2.412   3.111   1.037  0.7449  2.4221 -1.7769
 3542SOL    HW222086   2.371   3.026   0.920  1.3272 -0.2817  1.0051
 3543SOL     OW22087   1.978   0.005  11.384 -0.2856  0.1958 -0.2149
 3543SOL    HW122088   1.884   0.001  11.401 -0.0302 -0.3095  1.1296
 3543SOL    HW222089   1.991   0.099  11.383  2.4833 -0.2278 -2.3541
 3544SOL     OW22090   4.161   0.590   4.327  0.3297  0.3517 -0.9176
 3544SOL    HW122091   4.146   0.573   4.420  1.0319 -0.8431 -1.0269
 3544SOL    HW222092   4.248   0.628   4.339  0.6031 -0.8285  0.7958
 3545SOL     OW22093   1.856   4.039   5.548 -0.1844  0.3834  0.0777
 3545SOL    HW122094   1.951   4.037   5.562 -0.1295 -0.6058 -0.4132
 3545SOL    HW222095   1.823   3.952   5.571  0.3004 -0.1353 -1.1960
 3546SOL     OW22096   1.375   0.342   6.397  0.5293  0.2620  0.4495
 3546SOL    HW122097   1.398   0.432   6.374  1.2488  0.3231  1.4260
 3546SOL    HW222098   1.355   0.302   6.312  1.5135  3.1000 -1.1394
 3547SOL     OW22099   3.384   3.524   8.898  0.4166  0.6451 -0.1289
 3547SOL    HW122100   3.415   3.547   8.811  0.7568  0.3369 -0.0915
 3547SOL    HW222101   3.290   3.537   8.889  0.3480  0.1044 -0.2160
 3548SOL     OW22102   3.453   0.909  11.637  0.7859  0.9399  0.3473
 3548SOL    HW122103   3.501   0.988  11.612  0.9756  0.5081 -0.6397
 3548SOL    HW222104   3.487   0.858  11.563  0.4038  1.4856 -0.2065
 3549SOL     OW22105   4.315   2.522   3.350 -0.0663  0.5940 -0.4772
 3549SOL    HW122106   4.237   2.548   3.399 -1.2234 -2.9153 -0.4810
 3549SOL    HW222107   4.299   2.562   3.264  1.2158  0.8726 -0.5954
 3550SOL     OW22108   2.549   4.551   6.643  0.3263 -0.0351  0.7019
 3550SOL    HW122109   2.530   4.545   6.736  1.1519  0.2996  0.8927
 3550SOL    HW222110   2.615   4.486   6.617  1.5659  1.3206  0.4226
 3551SOL     OW22111   0.091   4.603  15.057  0.3872 -0.1972 -0.2801
 3551SOL    HW122112   0.061   4.675  15.111  0.7286 -0.9097  0.8547
 3551SOL    HW222113   0.044   4.624  14.976 -0.1045 -0.9150 -0.1842
 3552SOL     OW22114   1.453   2.305   0.668  0.5172  0.1772  0.2011
 3552SOL    HW122115   1.368   2.312   0.713  1.4443  0.5795  1.8794
 3552SOL    HW222116   1.502   2.365   0.724  0.8820  0.8752 -0.8723
 3553SOL     OW22117   3.996   2.790  12.182  0.0737 -0.2428 -0.1926
 3553SOL    HW122118   3.968   2.822  12.267  2.2381 -0.6261  0.6597
 3553SOL    HW222119   4.005   2.873  12.134 -1.6740  0.2276  0.2854
 3554SOL     OW22120   4.339   1.908  12.686 -0.2435  0.0197 -0.1785
 3554SOL    HW122121   4.398   1.864  12.625 -0.1134  0.6168 -0.4836
 3554SOL    HW222122   4.323   1.992  12.643 -1.5253 -0.5752 -0.8669
 3555SOL     OW22123   2.399   4.013   7.154 -0.0347 -0.0267 -0.1708
 3555SOL    HW122124   2.456   3.937   7.169 -1.1938 -0.6962  0.8809
 3555SOL    HW222125   2.347   3.994   7.076 -0.5003  0.0314  0.1247
 3556SOL     OW22126   0.987   2.305   9.420  0.7204  0.4667 -0.1317
 3556SOL    HW122127   0.972   2.212   9.440  0.0575  0.7866  0.8792
 3556SOL    HW222128   1.046   2.323   9.492  0.6191 -0.5615  0.2035
 3557SOL     OW22129   1.818   0.510  14.167 -0.2975 -0.0788  0.2275
 3557SOL    HW122130   1.852   0.559  14.242  0.6346 -0.3689 -0.0071
 3557SOL    HW222131   1.753   0.451  14.205  0.3256 -0.7003  0.3413
 3558SOL     OW22132   1.384   4.456  12.387 -0.8095 -0.3377  0.3007
 3558SOL    HW122133   1.346   4.393  12.448 -1.6075 -1.1335 -1.0201
 3558SOL    HW222134   1.380   4.543  12.427  0.3896  0.3651 -1.0547
 3559SOL     OW22135   2.351   2.897   0.337 -0.1109 -0.5040 -0.5921
 3559SOL    HW122136   2.375   2.827   0.276  0.4650 -1.8058  1.1156
 3559SOL    HW222137   2.257   2.880   0.346 -0.7400  1.7697 -2.7899
 3560SOL     OW22138   4.156   2.355  14.813 -0.0387  0.1608  0.4087
 3560SOL    HW122139   4.075   2.379  14.768  1.1125  1.2718 -1.0729
 3560SOL    HW222140   4.209   2.432  14.793 -0.0057  0.2934  1.0069
 3561SOL     OW22141   4.032   0.226   7.101 -0.5123  0.0854 -0.6629
 3561SOL    HW122142   3.953   0.175   7.080 -0.8643  0.1556  0.5110
 3561SOL    HW222143   4.005   0.316   7.083  0.7053  0.0120 -2.8700
 3562SOL     OW22144   1.698   1.335   9.282  0.1766 -0.4560 -0.0542
 3562SOL    HW122145   1.674   1.245   9.304 -0.0718 -0.3428  0.1393
 3562SOL    HW222146   1.792   1.316   9.287  0.0605 -0.5403  1.9654
 3563SOL     OW22147   4.621   1.388   3.063 -0.2881  0.3205 -0.0972
 3563SOL    HW122148   4.643   1.452   3.131 -0.8175  0.4989 -0.0878
 3563SOL    HW222149   4.688   1.414   3.000 -0.1833  0.1596 -0.0497
 3564SOL     OW22150   3.689   0.439   2.990  0.2760  0.0061  0.1967
 3564SOL    HW122151   3.663   0.510   2.933  0.2233  0.7767  1.1805
 3564SOL    HW222152   3.697   0.366   2.928  1.2086 -0.2564  0.6272
 3565SOL     OW22153   2.265   1.199  16.916  0.1574 -0.4408 -0.1494
 3565SOL    HW122154   2.352   1.210  16.956 -0.0461  3.4336 -0.7860
 3565SOL    HW222155   2.243   1.109  16.940  0.6039 -0.5842 -0.2756
 3566SOL     OW22156   1.247   1.651   8.627 -0.6118  0.2949 -0.0644
 3566SOL    HW122157   1.224   1.558   8.621  1.3624 -0.1928  0.0032
 3566SOL    HW222158   1.294   1.655   8.710  0.7572  1.2539 -0.8935
 3567SOL     OW22159   2.465   0.197   5.371  0.0332  0.4224  0.5940
 3567SOL    HW122160   2.433   0.117   5.331  2.7367 -0.4572  0.2472
 3567SOL    HW222161   2.552   0.176   5.405  1.0819  2.3949 -0.8994
 3568SOL     OW22162   3.316   0.300   3.293 -0.0430 -0.0281  0.1253
 3568SOL    HW122163   3.361   0.264   3.217 -2.4385 -2.8604  0.0350
 3568SOL    HW222164   3.390   0.308   3.352 -1.1552 -1.5969  1.7334
 3569SOL     OW22165   0.917   0.082   5.261 -0.0534 -0.5699  0.6178
 3569SOL    HW122166   0.913   0.041   5.174 -0.1503 -1.6641  1.1421
 3569SOL    HW222167   0.827   0.067   5.290 -0.5500  0.6397 -0.2911
 3570SOL     OW22168   2.122   2.627  17.475  0.1769 -0.2854 -0.2780
 3570SOL    HW122169   2.148   2.537  17.494  1.8060  0.5446  1.4484
 3570SOL    HW222170   2.033   2.617  17.511  0.4352 -1.5446 -0.0018
 3571SOL     OW22171   0.210   1.262  12.519  0.0682  0.1364  0.1888
 3571SOL    HW122172   0.157   1.339  12.501 -1.1843 -1.0280 -1.1513
 3571SOL    HW222173   0.146   1.205  12.561 -1.2034  0.3304 -1.5183
 3572SOL     OW22174   3.531   2.622   4.986 -0.3890  0.6209 -0.2787
 3572SOL    HW122175   3.445   2.580   5.000  0.4002 -0.0507  2.5645
 3572SOL    HW222176   3.561   2.607   5.076 -1.0510 -0.9461 -0.3035
 3573SOL     OW22177   1.814   2.711  13.307 -0.2619 -0.2322 -0.5701
 3573SOL    HW122178   1.909   2.723  13.317 -0.2571 -1.2132  0.6287
 3573SOL    HW222179   1.776   2.795  13.332 -0.4865 -0.4879 -0.0574
 3574SOL     OW22180   0.352   2.862  11.670 -0.6751  0.1576  0.1336
 3574SOL    HW122181   0.375   2.899  11.585  0.8179  1.0498  0.9250
 3574SOL    HW222182   0.267   2.907  11.672  0.2687  1.9359 -0.0461
 3575SOL     OW22183   0.383   1.531   5.253  0.1353  0.4174 -0.5745
 3575SOL    HW122184   0.311   1.563   5.199 -0.9927  0.1911  0.8032
 3575SOL    HW222185   0.377   1.585   5.332  0.8127 -1.2204  0.5928
 3576SOL     OW22186   2.257   2.254   8.634 -0.4070  0.4208 -0.1972
 3576SOL    HW122187   2.216   2.277   8.717  0.2983 -1.6904  0.7405
 3576SOL    HW222188   2.191   2.199   8.592 -1.3918  2.8966 -1.9102
 3577SOL     OW22189   4.091   2.902   8.916  0.2926 -0.3906  0.3262
 3577SOL    HW122190   4.112   2.894   9.009  0.2187  0.3437  0.4038
 3577SOL    HW222191   4.171   2.869   8.876  0.0818  0.8520 -1.1070
 3578SOL     OW22192   3.891   3.747   3.543 -0.2960 -0.0486 -0.0682
 3578SOL    HW122193   3.923   3.689   3.612 -2.1994 -0.5774  0.3616
 3578SOL    HW222194   3.968   3.800   3.524 -0.1325 -1.2354 -2.7512
 3579SOL     OW22195   1.615   1.992  13.058 -0.0883  0.5169 -0.0801
 3579SOL    HW122196   1.684   2.033  13.005 -0.9771 -0.2752 -1.8371
 3579SOL    HW222197   1.547   2.059  13.058  0.2950  0.9344  3.4668
 3580SOL     OW22198   0.344   1.691  15.674  0.7376 -0.2284  0.0305
 3580SOL    HW122199   0.351   1.597  15.691 -0.1549 -0.7168 -2.1935
 3580SOL    HW222200   0.336   1.690  15.578 -1.4034 -2.4263  0.2358
 3581SOL     OW22201   1.383   4.335   7.113 -0.5224  0.2448 -0.3837
 3581SOL    HW122202   1.387   4.382   7.196  0.3601  0.5963 -0.6206
 3581SOL    HW222203   1.435   4.393   7.056  0.8785  0.4905  1.1434
 3582SOL     OW22204   2.924   0.170   6.868  0.0872  0.7100  0.3823
 3582SOL    HW122205   2.968   0.159   6.784 -0.6547  1.5737 -0.1168
 3582SOL    HW222206   2.897   0.083   6.896 -1.3625  1.0023 -0.1369
 3583SOL     OW22207   2.200   4.218   3.064  0.3157 -0.2866 -0.2227
 3583SOL    HW122208   2.142   4.293   3.051  0.5492 -0.1875 -0.6890
 3583SOL    HW222209   2.255   4.239   2.989  0.8711 -0.7365  0.0565
 3584SOL     OW22210   2.036   0.923   2.817  0.1262 -0.2648  0.2887
 3584SOL    HW122211   2.104   0.890   2.758 -0.4239  0.3754 -0.6891
 3584SOL    HW222212   2.044   0.855   2.884  0.6837 -2.0184 -1.5488
 3585SOL     OW22213   0.008   1.614   5.681  0.1341  0.1752  0.7242
 3585SOL    HW122214   0.069   1.554   5.639 -0.8913 -0.4891  0.1951
 3585SOL    HW222215   0.052   1.699   5.672 -0.0868  0.4138  1.9183
 3586SOL     OW22216   0.702   4.433  13.507 -0.0014 -0.2946  0.7131
 3586SOL    HW122217   0.672   4.496  13.573  0.8434  0.7756  0.0657
 3586SOL    HW222218   0.670   4.348  13.538 -2.7225  1.4213  2.6813
 3587SOL     OW22219   1.239   0.742   6.828 -0.0618 -0.1773  0.2678
 3587SOL    HW122220   1.325   0.701   6.836  0.0544  0.0639  0.2578
 3587SOL    HW222221   1.250   0.829   6.868 -1.1063  0.3972 -0.6938
 3588SOL     OW22222   4.650   3.259   7.288 -0.0182  0.0396 -0.0242
 3588SOL    HW122223   4.637   3.344   7.246  0.6731  0.0841 -0.1477
 3588SOL    HW222224   0.025   3.251   7.299 -0.1222  0.9127  1.5234
 3589SOL     OW22225   1.827   2.008  14.443  0.1358 -0.0624 -0.0237
 3589SOL    HW122226   1.795   2.094  14.418 -1.0678 -0.7229 -0.7604
 3589SOL    HW222227   1.898   2.035  14.501 -0.1506 -1.2733  0.8796
 3590SOL     OW22228   3.160   4.287   6.022 -0.0549 -0.2768  0.0188
 3590SOL    HW122229   3.214   4.226   6.072  1.5037  1.0392 -0.0573
 3590SOL    HW222230   3.077   4.256   6.058  0.3592 -0.9254  0.3931
 3591SOL     OW22231   1.750   3.812   8.424 -0.1456  0.5015 -0.0545
 3591SOL    HW122232   1.803   3.868   8.367  1.5074  0.7607  1.7582
 3591SOL    HW222233   1.732   3.857   8.506  2.5471 -0.8075  1.2484
 3592SOL     OW22234   1.570   2.095  15.284 -0.8644  0.6245 -0.3528
 3592SOL    HW122235   1.562   2.022  15.223 -0.6572 -0.7065  1.2173
 3592SOL    HW222236   1.512   2.070  15.356  0.6324  0.1522  0.6807
 3593SOL     OW22237   0.311   0.686   2.507  0.3187 -0.7127  0.8723
 3593SOL    HW122238   0.260   0.605   2.516 -3.4861  1.5741 -0.2027
 3593SOL    HW222239   0.274   0.735   2.434 -0.4193 -0.3591  1.4853
 3594SOL     OW22240   0.783   4.362  11.383  0.2612 -0.6667  0.3262
 3594SOL    HW122241   0.858   4.325  11.429  1.0870 -1.1440 -1.3996
 3594SOL    HW222242   0.789   4.444  11.431 -1.2004 -0.0583 -0.5413
 3595SOL     OW22243   4.608   2.237   9.655 -0.3244  0.2216  0.0407
 3595SOL    HW122244   4.699   2.241   9.625 -0.7654 -0.4021 -1.3574
 3595SOL    HW222245   4.608   2.169   9.723  1.0086 -1.3384 -1.5166
 3596SOL     OW22246   1.780   2.149  16.669  0.8768  0.1541 -0.1241
 3596SOL    HW122247   1.812   2.224  16.718 -0.2688  0.8441 -0.4415
 3596SOL    HW222248   1.811   2.172  16.582  0.3242 -0.9337 -0.6093
 3597SOL     OW22249   1.915   1.263  16.386 -0.4705 -0.4185 -0.2015
 3597SOL    HW122250   1.979   1.241  16.319  0.4590  0.5237  0.3700
 3597SOL    HW222251   1.900   1.357  16.373  0.8717  0.1652  2.4269
 3598SOL     OW22252   3.266   4.448  17.105 -0.4309 -0.1307  0.1720
 3598SOL    HW122253   3.213   4.453  17.026  0.8348  0.0138 -0.6724
 3598SOL    HW222254   3.342   4.406  17.063  0.2702  2.0040 -0.6792
 3599SOL     OW22255   2.598   1.394   6.854 -0.2774  0.7801  0.1093
 3599SOL    HW122256   2.676   1.356   6.813  0.1530  1.7373  0.0475
 3599SOL    HW222257   2.609   1.382   6.948  2.0488  2.4165  0.0173
 3600SOL     OW22258   0.618   1.482  16.703 -0.5017 -0.5064 -0.3507
 3600SOL    HW122259   0.689   1.523  16.752 -0.0037 -1.2748 -0.4415
 3600SOL    HW222260   0.581   1.561  16.663  0.6835  0.5919  0.7478
 3601SOL     OW22261   2.805   2.366   4.576 -0.3002  0.3822  0.5858
 3601SOL    HW122262   2.777   2.285   4.618  1.7714 -0.1500  0.9173
 3601SOL    HW222263   2.856   2.398   4.650  1.2584  1.1170 -0.8252
 3602SOL     OW22264   2.747   2.570   5.275  0.6116  0.0070 -0.0884
 3602SOL    HW122265   2.687   2.644   5.273  3.7340  2.5193 -0.9739
 3602SOL    HW222266   2.758   2.572   5.370 -1.8875 -0.6784  0.2264
 3603SOL     OW22267   1.228   2.576   2.110 -0.2238 -0.4319 -0.5379
 3603SOL    HW122268   1.252   2.638   2.041 -2.2679  0.8068 -0.1183
 3603SOL    HW222269   1.165   2.627   2.161  0.2407 -1.0103  0.6165
 3604SOL     OW22270   0.755   1.835   6.524  0.1760 -0.1261 -0.0907
 3604SOL    HW122271   0.793   1.768   6.467 -0.2834 -0.1349 -0.3928
 3604SOL    HW222272   0.694   1.877   6.463 -0.8314  0.0647  1.0367
 3605SOL     OW22273   4.389   1.752  17.577  0.4531 -0.6891 -0.0117
 3605SOL    HW122274   4.386   1.676  17.635 -1.1258 -0.4249  0.2320
 3605SOL    HW222275   4.437   1.817  17.629  1.7801 -1.1680 -0.6463
 3606SOL     OW22276   1.390   1.462  13.832  0.2649 -0.3136 -0.0592
 3606SOL    HW122277   1.296   1.445  13.845  0.9312 -3.9755  0.1036
 3606SOL    HW222278   1.441   1.403  13.888 -1.8838 -0.8436  1.3515
 3607SOL     OW22279   1.966   1.853   1.701 -0.1207 -0.0690  0.1116
 3607SOL    HW122280   1.981   1.919   1.770  0.7237  0.3119 -0.4409
 3607SOL    HW222281   1.932   1.908   1.631  0.5986  0.8329  0.4538
 3608SOL     OW22282   4.295   4.456   8.026 -0.1785  0.3195  0.3038
 3608SOL    HW122283   4.308   4.366   8.058  0.5909 -0.3662 -1.9278
 3608SOL    HW222284   4.359   4.441   7.956 -2.4331  1.7710 -2.0843
 3609SOL     OW22285   3.627   2.918   1.779  0.2450  0.6642  0.5761
 3609SOL    HW122286   3.704   2.973   1.760  1.6597 -1.1288  1.1352
 3609SOL    HW222287   3.581   2.928   1.696  1.1880  2.0189  0.2179
 3610SOL     OW22288   1.328   4.297   4.436  0.4459  0.4969  0.2214
 3610SOL    HW122289   1.244   4.343   4.438  0.8322  1.1501  0.9982
 3610SOL    HW222290   1.363   4.327   4.351 -2.3044  2.1518 -0.3399
 3611SOL     OW22291   0.122   0.668  14.632  0.1120  0.3794  0.2473
 3611SOL    HW122292   0.207   0.712  14.630 -0.9088  2.3201 -0.3835
 3611SOL    HW222293   0.099   0.655  14.540 -2.4193  4.8060  0.2459
 3612SOL     OW22294   3.320   0.133   9.788 -0.0812 -0.5251 -0.4908
 3612SOL    HW122295   3.270   0.214   9.792 -1.2879 -1.3316  0.9489
 3612SOL    HW222296   3.314   0.092   9.874  0.2382 -0.9583 -0.6724
 3613SOL     OW22297   3.860   3.242   7.103 -0.4254 -0.1630 -0.7654
 3613SOL    HW122298   3.876   3.161   7.055 -0.0785 -0.7682  0.3676
 3613SOL    HW222299   3.808   3.293   7.041  1.0338 -0.4493 -2.2328
 3614SOL     OW22300   3.532   1.085   0.357  0.1509  0.5193 -0.1949
 3614SOL    HW122301   3.579   1.062   0.437  1.4524 -0.1870 -1.1616
 3614SOL    HW222302   3.442   1.087   0.387 -0.3135  0.4813 -1.6018
 3615SOL     OW22303   0.344   2.304  11.205 -0.1594  0.0526 -0.8555
 3615SOL    HW122304   0.402   2.236  11.239 -1.2994 -1.5392 -2.1500
 3615SOL    HW222305   0.403   2.374  11.177  0.6398 -0.4125 -0.3402
 3616SOL     OW22306   4.222   0.327  13.097 -0.1890 -0.2046  0.5195
 3616SOL    HW122307   4.289   0.395  13.090 -0.7277  0.3608  0.8175
 3616SOL    HW222308   4.153   0.371  13.047 -0.2429  1.5297  2.1170
 3617SOL     OW22309   3.743   1.236   8.384  0.5107  0.3385  0.1300
 3617SOL    HW122310   3.702   1.285   8.313  1.7150  0.8056 -0.2292
 3617SOL    HW222311   3.790   1.160   8.349  1.6333  0.9914  0.2388
 3618SOL     OW22312   0.876   2.033   9.947  0.2350 -0.0975 -0.3151
 3618SOL    HW122313   0.868   2.036  10.043  2.7779  2.8218 -0.1772
 3618SOL    HW222314   0.817   1.960   9.927 -1.2706  0.9791  0.2166
 3619SOL     OW22315   1.310   4.662  16.638 -0.4631 -0.1244  0.2273
 3619SOL    HW122316   1.341   0.032  16.655 -1.3879  0.2816 -0.2600
 3619SOL    HW222317   1.375   4.616  16.691 -0.8520 -1.6395 -0.6167
 3620SOL     OW22318   2.006   2.214  15.587 -0.6472  0.3924 -0.2187
 3620SOL    HW122319   2.067   2.275  15.545  1.5445 -1.6356  0.0022
 3620SOL    HW222320   1.946   2.205  15.514  0.1827 -0.4041 -0.8163
 3621SOL     OW22321   2.794   1.988   6.355  0.0240 -0.1671  0.3707
 3621SOL    HW122322   2.730   1.925   6.324 -1.0504  1.8211 -1.4281
 3621SOL    HW222323   2.822   2.039   6.279  2.6264 -0.0939  1.3718
 3622SOL     OW22324   4.273   3.743   4.719 -0.2831 -0.0203 -0.3635
 3622SOL    HW122325   4.330   3.745   4.795 -1.8905  0.4267  0.8256
 3622SOL    HW222326   4.298   3.661   4.676  0.0151  0.1016 -0.4230
 3623SOL     OW22327   2.412   2.878   0.773  0.6094  0.0148 -0.0192
 3623SOL    HW122328   2.346   2.859   0.707  0.1372  0.9447  0.1820
 3623SOL    HW222329   2.423   2.793   0.814  0.9583  0.2729  0.4277
 3624SOL     OW22330   3.161   1.868  15.677 -0.6026 -0.4981  0.2792
 3624SOL    HW122331   3.185   1.890  15.587  0.6179 -0.7531  0.5475
 3624SOL    HW222332   3.108   1.943  15.704  2.1290  1.0174  1.3427
 3625SOL     OW22333   3.934   4.506   5.792  0.4937  0.6069  0.3658
 3625SOL    HW122334   3.918   4.569   5.722  0.2832  0.7226  0.5168
 3625SOL    HW222335   3.921   4.421   5.750  0.4795  1.1108 -0.6324
 3626SOL     OW22336   2.331   0.431   4.577  0.0696  0.3452  0.3065
 3626SOL    HW122337   2.391   0.423   4.503  0.5577  0.7884  0.6578
 3626SOL    HW222338   2.351   0.345   4.615  3.5366  1.1590  0.3128
 3627SOL     OW22339   0.634   2.135  16.246 -0.0654  0.1534  0.4089
 3627SOL    HW122340   0.591   2.221  16.245  1.8573  1.1129 -0.1893
 3627SOL    HW222341   0.687   2.142  16.325 -0.3558 -0.8854  0.6914
 3628SOL     OW22342   3.780   4.245  16.080 -0.2182 -0.4722  0.6219
 3628SOL    HW122343   3.773   4.247  15.985 -0.5244  2.0723  0.6990
 3628SOL    HW222344   3.689   4.222  16.102  0.3903 -2.1351  1.3733
 3629SOL     OW22345   3.937   1.657   7.236  0.1419  0.3956  0.1606
 3629SOL    HW122346   3.913   1.731   7.180  0.8712  0.2115 -0.4070
 3629SOL    HW222347   3.854   1.633   7.278 -0.8183  3.0453 -0.1981
 3630SOL     OW22348   1.777   2.352   1.213 -0.2717  0.4357  0.0734
 3630SOL    HW122349   1.829   2.299   1.153 -0.5049 -0.6901  0.8647
 3630SOL    HW222350   1.690   2.334   1.178 -1.7148  0.8214  3.3925
 3631SOL     OW22351   1.177   3.092   4.605  0.0904 -0.3769 -0.2096
 3631SOL    HW122352   1.239   3.150   4.649  0.7471 -0.1509 -1.4419
 3631SOL    HW222353   1.237   3.050   4.543 -1.5123 -0.8572 -1.4213
 3632SOL     OW22354   2.644   0.683   8.140 -0.1371 -0.2263 -0.1859
 3632SOL    HW122355   2.562   0.646   8.175  0.6709  0.0672  2.0680
 3632SOL    HW222356   2.699   0.699   8.217  2.1776 -1.5655 -1.5749
 3633SOL     OW22357   0.726   2.371  15.134 -0.8197  0.3542 -0.4573
 3633SOL    HW122358   0.749   2.464  15.133  1.0482 -0.0917  1.0055
 3633SOL    HW222359   0.631   2.376  15.120 -0.9874  0.5340  0.7493
 3634SOL     OW22360   3.294   4.397   3.299 -0.6390 -0.3576  0.5011
 3634SOL    HW122361   3.352   4.342   3.352  0.5289  0.5447  0.1542
 3634SOL    HW222362   3.222   4.410   3.361  1.0865  0.9795  2.1842
 3635SOL     OW22363   3.682   2.687   6.153  0.0012  0.2801 -0.0191
 3635SOL    HW122364   3.734   2.753   6.107  0.2554 -0.2951 -0.5500
 3635SOL    HW222365   3.679   2.733   6.237 -0.7433 -1.1657  0.7370
 3636SOL     OW22366   4.330   4.323  11.125 -0.6059  0.0379 -0.0394
 3636SOL    HW122367   4.350   4.407  11.167 -0.7965 -1.1080  2.3220
 3636SOL    HW222368   4.367   4.333  11.037 -0.5435  1.1688  0.1121
 3637SOL     OW22369   0.936   3.164   5.379  0.2632 -0.3347 -0.0915
 3637SOL    HW122370   0.961   3.086   5.329  1.0372 -0.4630  0.5086
 3637SOL    HW222371   0.878   3.124   5.444  1.7273  0.2654  1.5728
 3638SOL     OW22372   1.234   0.017  10.987 -0.2243 -0.3352  0.2618
 3638SOL    HW122373   1.181   0.093  11.008  0.2964  0.6583 -2.0430
 3638SOL    HW222374   1.210   0.006  10.894 -0.6153  1.8806  0.1163
 3639SOL     OW22375   2.143   4.637   4.053 -0.4351 -0.4520 -0.1235
 3639SOL    HW122376   2.218   4.696   4.056  1.2456 -2.5239 -0.6624
 3639SOL    HW222377   2.176   4.548   4.069 -2.6053 -1.0130  1.1306
 3640SOL     OW22378   0.540   0.538   5.581  0.1665  0.2805  0.4150
 3640SOL    HW122379   0.583   0.579   5.656  0.9564 -1.6159  1.0091
 3640SOL    HW222380   0.456   0.523   5.625  1.1928 -1.6851  1.7172
 3641SOL     OW22381   1.746   0.369   3.824 -0.6452 -0.5452 -0.7066
 3641SOL    HW122382   1.771   0.314   3.749  0.7457 -2.6346  1.2925
 3641SOL    HW222383   1.687   0.314   3.875 -2.6918  0.2796 -2.2111
 3642SOL     OW22384   0.411   3.457   4.023  0.7981 -0.3151 -0.2366
 3642SOL    HW122385   0.482   3.429   3.965  1.8454  0.9077  0.4883
 3642SOL    HW222386   0.335   3.406   3.993 -0.1085  1.0592 -0.2870
 3643SOL     OW22387   2.183   1.623   6.805  0.7735  0.0293 -0.0190
 3643SOL    HW122388   2.155   1.630   6.713 -1.1854  0.4841  0.6199
 3643SOL    HW222389   2.148   1.701   6.847  1.9988  0.9300 -0.6962
 3644SOL     OW22390   4.277   1.831  16.311  0.0778  0.3473  0.0840
 3644SOL    HW122391   4.218   1.853  16.239 -0.9193  2.9287  1.6925
 3644SOL    HW222392   4.221   1.812  16.386  0.4255 -2.7464 -0.4421
 3645SOL     OW22393   0.194   4.400   7.409 -0.0820 -0.4467 -0.0800
 3645SOL    HW122394   0.117   4.360   7.367 -0.2227  0.3493 -0.5779
 3645SOL    HW222395   0.209   4.323   7.465 -2.1974  0.1161  1.2667
 3646SOL     OW22396   3.814   2.046   4.267 -0.6417 -0.1214 -0.0768
 3646SOL    HW122397   3.853   2.032   4.181 -0.0720 -0.0821  0.1741
 3646SOL    HW222398   3.792   2.139   4.264 -0.6369 -0.0253  2.6526
 3647SOL     OW22399   1.898   3.384   5.201 -0.3030 -0.2701 -0.4050
 3647SOL    HW122400   1.817   3.360   5.156 -0.1195 -0.4588 -0.6389
 3647SOL    HW222401   1.866   3.362   5.288 -1.0947 -1.0793 -0.8953
 3648SOL     OW22402   2.707   2.472   9.276  0.2930 -0.1478 -0.5459
 3648SOL    HW122403   2.735   2.508   9.360  3.1650  1.5348 -2.2341
 3648SOL    HW222404   2.726   2.380   9.298  1.3204  0.1571 -0.1362
 3649SOL     OW22405   0.207   3.040   0.799  0.2770 -0.4555 -0.5786
 3649SOL    HW122406   0.249   2.973   0.853  0.1741 -0.7406 -0.8470
 3649SOL    HW222407   0.209   2.993   0.715 -0.0420 -2.4277  0.5115
 3650SOL     OW22408   1.644   2.802   3.696 -0.3305 -0.1061 -0.5159
 3650SOL    HW122409   1.629   2.839   3.609 -1.4985  0.9502  0.1488
 3650SOL    HW222410   1.607   2.714   3.687  2.0121 -0.8489 -2.8623
 3651SOL     OW22411   1.032   1.800   9.272 -0.5432  0.3485  0.2923
 3651SOL    HW122412   1.084   1.832   9.346  0.8107 -0.8934 -0.1102
 3651SOL    HW222413   0.956   1.858   9.270 -1.8252 -1.3618  0.5290
 3652SOL     OW22414   2.653   1.594   6.362  0.3331  0.3632  0.1482
 3652SOL    HW122415   2.729   1.592   6.304 -1.6303 -0.2231 -2.4424
 3652SOL    HW222416   2.693   1.601   6.448  3.4841  0.1653 -1.2927
 3653SOL     OW22417   3.228   3.919   7.324 -0.0945  0.3416  0.1320
 3653SOL    HW122418   3.181   3.983   7.378 -0.3215  0.5442 -0.3069
 3653SOL    HW222419   3.243   3.852   7.391  0.5369  2.7317  2.3731
 3654SOL     OW22420   3.216   0.993  12.461  0.6848  0.1293  0.6959
 3654SOL    HW122421   3.164   0.916  12.437  4.1715 -2.4279  1.1556
 3654SOL    HW222422   3.244   1.020  12.373 -0.9817  0.7258  0.3592
 3655SOL     OW22423   4.610   4.368   6.404  0.1158  0.0684 -0.7929
 3655SOL    HW122424   4.635   4.416   6.324 -2.1261  2.1584 -0.2306
 3655SOL    HW222425   4.681   4.407   6.456 -0.7159  1.7631 -0.9192
 3656SOL     OW22426   2.053   3.864   6.725  0.4788 -0.1107  0.4276
 3656SOL    HW122427   2.020   3.892   6.811 -1.1356 -0.6976  0.0151
 3656SOL    HW222428   2.027   3.772   6.721 -1.4898  0.4454  0.1805
 3657SOL     OW22429   3.448   2.731   3.161  0.1331  0.6071 -0.2508
 3657SOL    HW122430   3.515   2.791   3.128  1.4887 -0.3726  0.6935
 3657SOL    HW222431   3.477   2.744   3.251 -0.9279  0.6490  0.0767
 3658SOL     OW22432   0.897   1.776   0.423  0.2494 -0.0393  0.2881
 3658SOL    HW122433   0.819   1.779   0.368 -1.3829 -1.5166  2.5137
 3658SOL    HW222434   0.866   1.758   0.512  2.3694  0.4223  1.1289
 3659SOL     OW22435   1.177   0.213  15.109 -0.1812 -0.1555 -0.2785
 3659SOL    HW122436   1.195   0.259  15.027 -1.4541  2.0195  0.6723
 3659SOL    HW222437   1.109   0.149  15.087 -0.3110 -0.0416 -0.2002
 3660SOL     OW22438   3.615   3.464   7.202 -0.1062 -0.4861 -0.4026
 3660SOL    HW122439   3.710   3.457   7.202  0.0201  1.3072 -0.2740
 3660SOL    HW222440   3.594   3.554   7.227  1.7669 -0.3823  0.7486
 3661SOL     OW22441   1.589   1.564   5.408 -0.1047  0.0397 -0.6097
 3661SOL    HW122442   1.611   1.497   5.344 -0.7523 -0.2265 -0.5570
 3661SOL    HW222443   1.528   1.613   5.353 -0.0962  0.8510  0.1096
 3662SOL     OW22444   1.536   2.584   4.099  0.5933 -0.7517  0.1804
 3662SOL    HW122445   1.504   2.646   4.033 -0.8443 -0.7540  0.8635
 3662SOL    HW222446   1.612   2.542   4.059  0.7550 -0.0768 -0.2247
 3663SOL     OW22447   1.025   0.048   5.791 -1.0292  0.2607 -0.0071
 3663SOL    HW122448   1.074   4.689   5.813  1.7352  1.7715 -0.7993
 3663SOL    HW222449   0.939   0.049   5.834 -1.3643 -0.0100 -0.6709
 3664SOL     OW22450   3.453   4.340  16.945  0.3907 -0.2940  0.0365
 3664SOL    HW122451   3.512   4.284  16.895 -2.8235 -1.2760 -2.7453
 3664SOL    HW222452   3.376   4.309  16.897 -0.6925  2.0364  0.2762
 3665SOL     OW22453   2.294   2.802  13.709 -0.7157 -0.7357  0.2767
 3665SOL    HW122454   2.230   2.732  13.705 -0.3072 -0.9597 -2.3444
 3665SOL    HW222455   2.333   2.797  13.797 -1.4444 -3.0123  0.4782
 3666SOL     OW22456   0.641   3.521   1.211 -0.2239  0.2911 -0.2720
 3666SOL    HW122457   0.627   3.607   1.251 -1.9684 -0.0917 -0.0309
 3666SOL    HW222458   0.723   3.533   1.163 -0.7178  1.5494 -0.8028
 3667SOL     OW22459   2.981   0.346   5.903 -0.4390 -0.0342 -0.6192
 3667SOL    HW122460   3.076   0.338   5.911 -0.3694 -1.1295 -2.3859
 3667SOL    HW222461   2.965   0.423   5.956 -0.4755 -0.1105 -0.5190
 3668SOL     OW22462   3.671   2.272   3.665 -0.2697 -0.1508 -0.4415
 3668SOL    HW122463   3.596   2.222   3.698  1.0038 -1.3846  0.5607
 3668SOL    HW222464   3.725   2.206   3.621  1.5223  0.8871  0.2569
 3669SOL     OW22465   3.213   3.059   2.821  0.2739  0.0071 -0.3928
 3669SOL    HW122466   3.151   3.047   2.749 -0.9666  0.4289  0.5962
 3669SOL    HW222467   3.228   3.153   2.810 -1.3321  0.4989  1.6217
 3670SOL     OW22468   0.933   4.070  12.199 -0.2930  0.4383  0.0564
 3670SOL    HW122469   0.860   4.125  12.169 -1.0985  0.8387  2.7862
 3670SOL    HW222470   0.923   3.998  12.136 -2.7486  0.9740 -0.1643
 3671SOL     OW22471   2.715   2.938   3.153 -0.0942 -0.3625 -0.2810
 3671SOL    HW122472   2.774   2.953   3.078 -0.2301  0.5264 -0.2000
 3671SOL    HW222473   2.663   3.018   3.155 -0.1674 -0.4345  0.4406
 3672SOL     OW22474   3.373   0.143  12.315  0.2403 -0.2788  0.7965
 3672SOL    HW122475   3.381   0.049  12.331  1.9223 -0.1987  0.3877
 3672SOL    HW222476   3.381   0.179  12.404 -0.1836 -1.2051  1.2149
 3673SOL     OW22477   1.471   0.112   4.127 -0.4963 -0.1391 -0.3487
 3673SOL    HW122478   1.430   0.069   4.203 -0.0283  0.4090  0.2166
 3673SOL    HW222479   1.521   0.177   4.177  1.0769 -1.8218  0.2711
 3674SOL     OW22480   4.182   0.124   9.253 -0.0792 -0.3097 -0.4785
 3674SOL    HW122481   4.125   0.047   9.253 -2.3053  1.3119  1.0252
 3674SOL    HW222482   4.206   0.144   9.343 -1.1753  0.2255 -0.3050
 3675SOL     OW22483   2.439   2.942  15.173  0.5257 -0.4693  0.2363
 3675SOL    HW122484   2.385   2.864  15.185  0.4367 -0.3210  0.8341
 3675SOL    HW222485   2.364   3.001  15.180 -0.2024 -1.3306 -0.2987
 3676SOL     OW22486   4.677   2.771   3.991 -0.6187  0.0050  0.2996
 3676SOL    HW122487   0.029   2.793   4.051 -0.2856 -0.1712 -0.0312
 3676SOL    HW222488   4.605   2.758   4.053 -1.7631  0.1115 -1.0163
 3677SOL     OW22489   3.209   2.311  10.131  0.7617  0.2417 -0.0061
 3677SOL    HW122490   3.191   2.221  10.106 -0.3900  0.0292  1.6065
 3677SOL    HW222491   3.216   2.302  10.226 -0.8074  1.9802  0.2805
 3678SOL     OW22492   2.359   1.275   2.585  0.2483  0.4635  0.4879
 3678SOL    HW122493   2.404   1.266   2.501  0.0829 -2.2495  0.6799
 3678SOL    HW222494   2.284   1.219   2.563  0.5764  0.6642 -1.0869
 3679SOL     OW22495   1.851   2.946  12.478  0.2548  0.4396  0.3818
 3679SOL    HW122496   1.831   2.853  12.476  0.1448  0.4726 -0.0586
 3679SOL    HW222497   1.867   2.952  12.572  1.5956 -1.0676  0.2476
 3680SOL     OW22498   0.596   4.544   4.461  0.2793 -0.2212  0.0918
 3680SOL    HW122499   0.602   4.622   4.518 -0.2141 -1.5938  2.0181
 3680SOL    HW222500   0.518   4.572   4.413 -0.4118 -0.8973  0.8308
 3681SOL     OW22501   1.283   2.248   4.214 -0.2675  0.0938  0.2875
 3681SOL    HW122502   1.324   2.325   4.252 -0.1463  0.4142 -0.4899
 3681SOL    HW222503   1.285   2.195   4.293  1.2378  2.3176  1.7543
 3682SOL     OW22504   2.697   2.238   8.658 -0.3840 -0.5189 -0.2422
 3682SOL    HW122505   2.749   2.158   8.670 -1.3689 -1.0447  0.5310
 3682SOL    HW222506   2.640   2.224   8.734 -2.0562  1.3446 -1.1523
 3683SOL     OW22507   1.779   3.781   5.633 -0.1848  0.3801  0.0979
 3683SOL    HW122508   1.714   3.719   5.599  1.0095 -1.2274  0.7241
 3683SOL    HW222509   1.734   3.818   5.709 -0.5660 -0.1541  0.1332
 3684SOL     OW22510   0.432   2.750   4.570  0.0539 -0.2965  0.3994
 3684SOL    HW122511   0.453   2.839   4.599 -0.2113  0.6695 -2.3573
 3684SOL    HW222512   0.492   2.739   4.495 -1.5964 -0.6439 -0.8645
 3685SOL     OW22513   1.473   0.185  12.637 -0.2313  0.1774  0.2851
 3685SOL    HW122514   1.397   0.234  12.604 -0.0043 -1.8791 -3.2883
 3685SOL    HW222515   1.513   0.246  12.699 -0.9199 -0.5063  1.3956
 3686SOL     OW22516   3.817   4.015  11.987  0.1689  0.0496 -0.0142
 3686SOL    HW122517   3.881   3.998  12.056 -0.2173  0.0887  0.3495
 3686SOL    HW222518   3.819   3.930  11.943  3.8318 -0.0975  0.4015
 3687SOL     OW22519   1.661   2.984   3.099 -0.1165  0.1332 -0.1329
 3687SOL    HW122520   1.711   3.044   3.154 -0.5405  0.6524 -0.3040
 3687SOL    HW222521   1.674   3.028   3.014 -0.4456  0.1784 -0.1588
 3688SOL     OW22522   4.049   2.831   9.891  0.7837 -0.2732 -0.4168
 3688SOL    HW122523   4.045   2.850   9.797 -1.7494  1.2530  0.0148
 3688SOL    HW222524   3.958   2.802   9.897  0.3077  1.2471 -0.3648
 3689SOL     OW22525   3.227   4.450   4.639  0.2953 -0.0564  0.2989
 3689SOL    HW122526   3.206   4.469   4.547 -0.6673  0.2739  0.5901
 3689SOL    HW222527   3.141   4.422   4.670 -0.9871  0.4180 -2.7446
 3690SOL     OW22528   1.192   3.868   3.553  0.5597  0.0709  0.5139
 3690SOL    HW122529   1.270   3.813   3.556 -1.0353 -2.3244 -2.1557
 3690SOL    HW222530   1.229   3.957   3.550 -3.2231  1.6346  0.1078
 3691SOL     OW22531   0.057   1.775  16.419  0.0736 -0.0077  0.0880
 3691SOL    HW122532   4.689   1.814  16.422  0.7445  1.5543 -0.3438
 3691SOL    HW222533   0.050   1.717  16.495 -0.2023 -1.0676 -0.7394
 3692SOL     OW22534   3.852   2.897   3.757  0.2593 -0.2141  0.2303
 3692SOL    HW122535   3.902   2.977   3.743 -1.0654  0.1585 -2.2507
 3692SOL    HW222536   3.787   2.908   3.688 -0.0615 -3.0343  0.0647
 3693SOL     OW22537   4.682   3.067   8.507 -0.0270 -0.0897  0.0170
 3693SOL    HW122538   4.659   3.108   8.424 -1.5369 -0.5420  0.2059
 3693SOL    HW222539   4.607   3.010   8.526 -0.9809  1.5271  1.1091
 3694SOL     OW22540   1.263   1.862  11.673  0.1847 -0.0069 -0.4616
 3694SOL    HW122541   1.291   1.945  11.712 -0.1527 -0.3885  0.5991
 3694SOL    HW222542   1.322   1.865  11.598 -1.1170 -0.9080 -1.5048
 3695SOL     OW22543   4.432   1.705   9.157  0.0157 -0.4443 -0.2043
 3695SOL    HW122544   4.490   1.655   9.215  0.4758  2.1391  1.5758
 3695SOL    HW222545   4.474   1.679   9.076  0.1480  2.0727 -0.9610
 3696SOL     OW22546   4.352   2.677  17.463  0.0456  0.5492  0.0446
 3696SOL    HW122547   4.388   2.616  17.527  0.5584 -0.2796 -1.0374
 3696SOL    HW222548   4.436   2.709  17.429 -0.1052  0.2713 -0.5890
 3697SOL     OW22549   4.341   0.129  11.732 -0.2069  0.1910 -0.2850
 3697SOL    HW122550   4.315   0.173  11.651 -0.2611 -0.1809 -0.4687
 3697SOL    HW222551   4.433   0.148  11.750  0.4445 -2.9724 -0.2379
 3698SOL     OW22552   1.216   1.314  16.296  0.1414 -0.2531 -0.1415
 3698SOL    HW122553   1.255   1.319  16.208  0.2489 -0.5271 -0.1070
 3698SOL    HW222554   1.255   1.236  16.334  1.3703  0.8311  0.8485
 3699SOL     OW22555   0.211   3.077   6.280  0.2702 -0.6663  0.4479
 3699SOL    HW122556   0.165   3.016   6.222  0.4858 -0.1940 -0.2185
 3699SOL    HW222557   0.211   3.155   6.225 -0.5442 -1.3431 -0.4912
 3700SOL     OW22558   1.550   1.514   9.149 -0.1948  0.8623 -0.0492
 3700SOL    HW122559   1.471   1.468   9.123  0.0585 -0.0328  0.7620
 3700SOL    HW222560   1.594   1.450   9.206 -2.0896 -0.3729  0.0002
 3701SOL     OW22561   2.101   2.991  16.981  0.5124  0.2660  0.2838
 3701SOL    HW122562   2.020   2.945  16.958 -0.2343  2.1788 -0.9045
 3701SOL    HW222563   2.081   3.084  16.968 -1.8442 -0.4083 -0.8830
 3702SOL     OW22564   0.257   3.733  16.661  0.3819  0.1639 -0.4287
 3702SOL    HW122565   0.275   3.663  16.725  1.4356 -0.4387 -1.3675
 3702SOL    HW222566   0.202   3.786  16.718 -0.6325 -1.1116 -0.2087
 3703SOL     OW22567   1.296   1.700   1.678 -1.1819 -0.0813 -0.5802
 3703SOL    HW122568   1.201   1.708   1.684 -1.0550 -0.5679  2.2350
 3703SOL    HW222569   1.312   1.616   1.721 -2.5615 -0.8854 -1.6726
 3704SOL     OW22570   3.970   2.589  10.653  0.1476 -0.1654 -0.0958
 3704SOL    HW122571   3.913   2.658  10.688 -0.1805 -1.3379  1.7005
 3704SOL    HW222572   3.929   2.512  10.694  0.8092  0.2736  1.3907
 3705SOL     OW22573   0.201   2.111   4.684  0.0385  0.3405  0.4967
 3705SOL    HW122574   0.117   2.142   4.719 -1.0765 -3.0721  0.8324
 3705SOL    HW222575   0.240   2.092   4.770  0.9753 -0.8164 -0.1807
 3706SOL     OW22576   4.170   1.970   3.104  0.0174  0.4113  0.2893
 3706SOL    HW122577   4.202   1.926   3.025 -1.8218 -0.0344 -0.2145
 3706SOL    HW222578   4.151   2.058   3.072  0.1720 -0.3172 -1.7923
 3707SOL     OW22579   1.263   2.543   0.675  0.0096 -0.1506  0.5177
 3707SOL    HW122580   1.328   2.611   0.695 -0.5672  0.1250  1.4961
 3707SOL    HW222581   1.269   2.530   0.581  1.3290  1.3450  0.3992
 3708SOL     OW22582   2.865   1.469   0.459 -0.2070 -0.3733  0.1399
 3708SOL    HW122583   2.956   1.475   0.487 -0.3293  0.7281  0.3277
 3708SOL    HW222584   2.828   1.396   0.509 -1.9234 -0.3896 -1.1572
 3709SOL     OW22585   3.286   3.250  13.216 -0.3432  0.1825 -0.2190
 3709SOL    HW122586   3.244   3.336  13.211  1.0953  0.7873 -2.0869
 3709SOL    HW222587   3.311   3.239  13.124 -1.9545  0.1009 -0.6603
 3710SOL     OW22588   1.995   2.349  16.766 -0.5410  0.2309 -0.1409
 3710SOL    HW122589   2.025   2.369  16.677 -0.7486  1.6677  0.1113
 3710SOL    HW222590   1.918   2.406  16.767  0.8620  2.0706  0.8209
 3711SOL     OW22591   1.985   1.970   8.265  0.3095 -0.3098  0.3782
 3711SOL    HW122592   2.032   1.949   8.184 -1.6497 -1.3493 -0.4985
 3711SOL    HW222593   2.018   1.906   8.329  0.1131 -2.5679 -1.7478
 3712SOL     OW22594   1.819   0.185   5.450 -0.8227  0.1192 -0.1129
 3712SOL    HW122595   1.862   0.100   5.459  1.1362  1.1949  0.7646
 3712SOL    HW222596   1.857   0.222   5.530 -2.2791  0.4124  0.4552
 3713SOL     OW22597   0.794   0.079   5.957 -0.0891 -0.4741 -0.4498
 3713SOL    HW122598   0.756   4.710   5.960  1.8346 -1.3596 -2.7610
 3713SOL    HW222599   0.716   0.123   5.991 -0.6004 -1.2935 -0.5685
 3714SOL     OW22600   0.355   1.270  10.761 -0.1017  0.5383 -0.2594
 3714SOL    HW122601   0.395   1.262  10.674  3.9814 -0.2103  1.6813
 3714SOL    HW222602   0.324   1.360  10.771 -1.1134  0.0821  0.7077
 3715SOL     OW22603   1.811   4.020   7.833  0.1401  0.8803 -0.4636
 3715SOL    HW122604   1.859   4.042   7.913 -0.6974  1.9715 -0.2668
 3715SOL    HW222605   1.733   3.973   7.863  1.1835 -1.6160 -1.6681
 3716SOL     OW22606   1.959   3.022   3.969  0.4528  0.7305  0.1238
 3716SOL    HW122607   1.905   3.024   4.048  0.4586  1.1497  0.1206
 3716SOL    HW222608   1.937   2.932   3.946  0.5387  0.5979  0.5532
 3717SOL     OW22609   0.338   2.386  16.006 -0.0537  0.1390  0.6063
 3717SOL    HW122610   0.367   2.469  15.967 -1.7638  0.3879 -0.1293
 3717SOL    HW222611   0.275   2.350  15.944  1.0378  1.4446 -1.2282
 3718SOL     OW22612   2.152   4.638   1.553 -0.1203 -1.0283 -0.1670
 3718SOL    HW122613   2.111   4.552   1.541  1.2372 -1.7172  0.1689
 3718SOL    HW222614   2.183   4.656   1.464 -0.2928  1.3639  0.2672
 3719SOL     OW22615   3.493   0.948   4.347  0.1848 -0.0733  0.4331
 3719SOL    HW122616   3.586   0.970   4.347 -0.4883  2.8454 -2.0445
 3719SOL    HW222617   3.489   0.947   4.252 -1.3061  2.1774  0.4770
 3720SOL     OW22618   2.297   3.033  16.745 -0.3688 -0.3828 -0.3753
 3720SOL    HW122619   2.347   3.114  16.753  1.7426 -1.9248  1.8610
 3720SOL    HW222620   2.267   3.000  16.830 -2.2483 -0.8499 -1.2117
 3721SOL     OW22621   1.335   1.888   0.743 -0.0345 -0.5193 -0.0815
 3721SOL    HW122622   1.275   1.864   0.672 -1.0798  0.3607  0.5048
 3721SOL    HW222623   1.423   1.863   0.715  0.1164  0.3997 -0.4352
 3722SOL     OW22624   1.305   4.543   2.194 -0.1894  0.2430 -0.3401
 3722SOL    HW122625   1.292   4.629   2.154  0.1909 -0.1488 -1.3079
 3722SOL    HW222626   1.218   4.505   2.207 -0.0987  0.7341  1.6457
 3723SOL     OW22627   1.499   1.723  17.085  0.2288  0.2007  0.4283
 3723SOL    HW122628   1.459   1.727  16.999  2.0490  1.4791 -0.3656
 3723SOL    HW222629   1.504   1.817  17.103  2.3049  0.2055 -0.1713
 3724SOL     OW22630   0.905   0.891   7.120 -0.1434  0.0183  0.4256
 3724SOL    HW122631   0.821   0.868   7.159  0.5141 -1.2218  1.0898
 3724SOL    HW222632   0.919   0.811   7.069 -0.3002  1.4235 -1.8181
 3725SOL     OW22633   0.152   2.615   3.347 -0.3236  0.0402 -0.2879
 3725SOL    HW122634   0.193   2.536   3.313  1.8830  1.0787 -0.0602
 3725SOL    HW222635   0.059   2.592   3.351  0.1517 -1.9672 -0.7053
 3726SOL     OW22636   3.000   2.492   4.773 -0.1640  0.4625  0.1549
 3726SOL    HW122637   2.945   2.454   4.841 -0.0770 -1.3422 -0.7928
 3726SOL    HW222638   3.021   2.576   4.814  1.3049  0.7575 -1.2075
 3727SOL     OW22639   1.292   2.214  15.284 -0.0660 -0.1584 -0.1504
 3727SOL    HW122640   1.260   2.183  15.368 -1.4491  0.2699 -0.5142
 3727SOL    HW222641   1.312   2.307  15.299 -4.3806  0.5491  1.1145
 3728SOL     OW22642   1.142   3.917  17.482  0.4744 -0.0989 -0.1459
 3728SOL    HW122643   1.182   3.837  17.448 -0.0853  0.4923 -2.1723
 3728SOL    HW222644   1.054   3.886  17.506  0.8318  0.7147  2.1710
 3729SOL     OW22645   4.053   3.567   8.934  0.2278  0.4255 -0.1128
 3729SOL    HW122646   4.119   3.522   8.987  0.0879  0.7698  0.3548
 3729SOL    HW222647   4.110   3.618   8.877  0.3836  1.4059  0.9266
 3730SOL     OW22648   1.279   2.353   3.881  0.0192  0.0238  0.1335
 3730SOL    HW122649   1.283   2.393   3.794  0.2784 -0.5191 -0.1026
 3730SOL    HW222650   1.346   2.287   3.865  1.4233  1.5522 -0.2678
 3731SOL     OW22651   3.716   3.500   8.514 -0.4335 -0.2238  0.1535
 3731SOL    HW122652   3.801   3.487   8.555 -1.0903 -1.1043  1.2304
 3731SOL    HW222653   3.719   3.455   8.430 -1.1012  2.7564 -1.4714
 3732SOL     OW22654   3.496   1.871  15.114  0.1097  0.4320  0.3856
 3732SOL    HW122655   3.450   1.789  15.131 -2.4763  1.7419 -0.2671
 3732SOL    HW222656   3.521   1.857  15.023 -0.3692  0.3143  0.2736
 3733SOL     OW22657   1.932   3.125   5.027  0.0789 -0.0214 -0.1327
 3733SOL    HW122658   1.865   3.135   5.095 -0.2930  0.1065 -0.5167
 3733SOL    HW222659   1.984   3.202   5.052  1.9811 -1.7020  1.0877
 3734SOL     OW22660   1.386   2.491   4.310  0.4974 -0.3888  0.1068
 3734SOL    HW122661   1.389   2.570   4.363  0.6636  0.2124 -0.7872
 3734SOL    HW222662   1.406   2.535   4.227  2.9361  0.5864  1.2326
 3735SOL     OW22663   3.651   1.972   9.388  0.0050 -0.4687 -0.3460
 3735SOL    HW122664   3.699   1.897   9.353  1.3813  0.7272 -0.9807
 3735SOL    HW222665   3.566   1.936   9.362  0.9336 -2.2632 -0.9165
 3736SOL     OW22666   1.433   0.772   3.157  0.2165 -0.0145 -0.0692
 3736SOL    HW122667   1.344   0.778   3.192 -0.1686  0.2487 -1.0748
 3736SOL    HW222668   1.452   0.678   3.165 -0.2185 -0.2725 -2.0723
 3737SOL     OW22669   3.619   2.620  10.627  0.1621 -0.3192 -0.0296
 3737SOL    HW122670   3.555   2.683  10.658  0.4002  0.0860 -0.3521
 3737SOL    HW222671   3.644   2.561  10.698  2.4060 -1.2262 -1.5783
 3738SOL     OW22672   3.538   2.523   1.817 -0.4618 -0.3852 -0.3523
 3738SOL    HW122673   3.516   2.573   1.739 -0.5085 -0.0960 -0.1528
 3738SOL    HW222674   3.486   2.566   1.885 -2.7450 -1.3050 -1.5144
 3739SOL     OW22675   3.541   4.575   6.856  0.6299  0.4262  0.0207
 3739SOL    HW122676   3.455   4.616   6.848  0.2109  0.0175  2.2992
 3739SOL    HW222677   3.601   4.642   6.889  0.6288 -0.0554  1.0272
 3740SOL     OW22678   0.302   2.184  12.228 -0.9100 -0.2064 -0.5548
 3740SOL    HW122679   0.345   2.162  12.311  1.2541  0.1358 -1.5664
 3740SOL    HW222680   0.222   2.232  12.249 -2.0248 -2.5097  0.4076
 3741SOL     OW22681   3.107   2.084  12.924 -0.1507 -0.4475 -0.4497
 3741SOL    HW122682   3.147   2.090  13.011 -1.6213 -0.2968  0.2226
 3741SOL    HW222683   3.076   1.994  12.940  1.1657 -0.8406 -0.0983
 3742SOL     OW22684   1.645   3.342  12.976 -0.4095  0.1971 -0.3097
 3742SOL    HW122685   1.740   3.348  12.990 -0.9073 -3.3018  4.2291
 3742SOL    HW222686   1.616   3.371  13.062 -0.2788 -1.4644  0.2861
 3743SOL     OW22687   4.505   2.885   1.215  0.9260 -0.0208 -0.6130
 3743SOL    HW122688   4.501   2.975   1.248 -0.4388 -0.5113  0.5381
 3743SOL    HW222689   4.442   2.845   1.274  0.3585  0.8581 -0.6150
 3744SOL     OW22690   0.428   2.275   9.297  0.3689 -0.3425  0.0502
 3744SOL    HW122691   0.372   2.345   9.266  0.1565 -0.7173 -0.4038
 3744SOL    HW222692   0.486   2.258   9.223 -0.8399  1.5191 -1.3003
 3745SOL     OW22693   2.759   3.134   9.100 -0.1026  0.2944 -0.2380
 3745SOL    HW122694   2.804   3.053   9.078  0.0615  0.4968 -0.6628
 3745SOL    HW222695   2.818   3.179   9.161  1.1670 -0.8798 -0.5910
 3746SOL     OW22696   4.626   1.486   9.217 -0.3278  0.0522 -0.2302
 3746SOL    HW122697   4.659   1.501   9.306  1.0499 -0.8963 -0.5802
 3746SOL    HW222698   4.708   1.458   9.177 -0.3706  1.1351 -1.0712
 3747SOL     OW22699   0.607   2.789   4.352  0.2289  0.7498 -0.0717
 3747SOL    HW122700   0.696   2.825   4.354  0.0870  1.1436 -0.7160
 3747SOL    HW222701   0.614   2.713   4.294  0.2075  0.8634 -0.2247
 3748SOL     OW22702   2.111   3.182   3.501  0.3262  0.8471  0.4002
 3748SOL    HW122703   2.046   3.251   3.511 -1.0274 -0.5550  1.2447
 3748SOL    HW222704   2.142   3.193   3.411 -0.5966  0.5576  0.0431
 3749SOL     OW22705   2.259   2.228  14.532  0.3581  0.1305 -0.6383
 3749SOL    HW122706   2.238   2.242  14.440 -0.7648  0.8510 -0.2820
 3749SOL    HW222707   2.293   2.316  14.549  1.5160  0.0129 -2.4249
 3750SOL     OW22708   4.435   1.703   1.693 -0.2710 -0.0772  0.3056
 3750SOL    HW122709   4.344   1.712   1.665  0.1141  0.4713 -0.7762
 3750SOL    HW222710   4.454   1.797   1.691  0.3226 -0.2345 -1.4830
 3751SOL     OW22711   2.594   2.532  14.381 -0.0438 -0.2035  0.0446
 3751SOL    HW122712   2.531   2.485  14.435  1.6768 -2.1247  0.3622
 3751SOL    HW222713   2.646   2.585  14.441 -0.9809 -0.5179  1.1234
 3752SOL     OW22714   2.365   3.153   1.535  0.0629  0.3885  0.6269
 3752SOL    HW122715   2.359   3.063   1.501 -3.0312  0.9910 -0.4075
 3752SOL    HW222716   2.277   3.177   1.565  0.5345  1.3308  1.2130
 3753SOL     OW22717   1.667   4.485  13.045  0.1723  0.0571 -0.9868
 3753SOL    HW122718   1.754   4.490  13.005  0.2930 -0.3473 -0.7748
 3753SOL    HW222719   1.613   4.496  12.967 -0.2683 -0.8480 -0.8060
 3754SOL     OW22720   0.876   3.850  16.837 -0.5314  0.0165  0.3266
 3754SOL    HW122721   0.840   3.833  16.750 -0.3896 -2.8022  0.8262
 3754SOL    HW222722   0.837   3.776  16.883 -0.6557 -0.5973 -0.7491
 3755SOL     OW22723   2.371   1.547   2.624  0.6107 -0.3829  0.2832
 3755SOL    HW122724   2.351   1.521   2.713  0.0475  2.8039  1.0808
 3755SOL    HW222725   2.316   1.483   2.581 -0.7589  1.8023 -1.2343
 3756SOL     OW22726   1.055   0.749   3.969  0.0211  0.3524 -0.0589
 3756SOL    HW122727   1.149   0.753   3.951  0.2720  0.5754  1.2520
 3756SOL    HW222728   1.027   0.836   3.943  0.3242  0.6389  0.5645
 3757SOL     OW22729   0.429   1.140   9.067  0.3084 -0.0090  0.2105
 3757SOL    HW122730   0.382   1.190   9.001  1.3575  1.1594  0.3597
 3757SOL    HW222731   0.410   1.196   9.142  1.3238  0.9415 -0.2358
 3758SOL     OW22732   1.350   4.156   6.189 -0.2974 -0.1496  0.2026
 3758SOL    HW122733   1.401   4.235   6.168  0.1567 -1.3890 -3.4263
 3758SOL    HW222734   1.390   4.100   6.122 -0.1945  0.5956 -0.3641
 3759SOL     OW22735   1.319   4.619   8.662 -0.2743  0.7785  1.2874
 3759SOL    HW122736   1.229   4.638   8.688  0.3562  1.2081  3.1525
 3759SOL    HW222737   1.325   4.651   8.572  0.4501 -1.9299  0.3822
 3760SOL     OW22738   1.200   2.179  12.971  0.4460  0.0304  0.4116
 3760SOL    HW122739   1.192   2.254  13.031 -1.8830  0.6066 -0.6356
 3760SOL    HW222740   1.292   2.164  12.951  0.7513 -1.0584  2.6168
 3761SOL     OW22741   0.046   4.626   2.672  0.0343  0.1059 -0.0093
 3761SOL    HW122742   4.699   4.617   2.740 -1.1018 -1.5533 -1.3072
 3761SOL    HW222743   0.120   4.577   2.709  0.6356  0.4102 -0.8089
 3762SOL     OW22744   2.685   3.874   2.699 -0.3863  0.0527  0.4523
 3762SOL    HW122745   2.698   3.788   2.739 -0.3279  0.6659  1.7324
 3762SOL    HW222746   2.779   3.890   2.695 -0.6794  1.4838 -0.6433
 3763SOL     OW22747   2.473   1.960   2.885  0.0133 -0.4231 -0.2619
 3763SOL    HW122748   2.381   1.955   2.858 -1.0470  2.6219  2.7552
 3763SOL    HW222749   2.482   1.870   2.915  0.8742 -0.4533 -0.6372
 3764SOL     OW22750   1.239   4.037  12.024  0.5455  0.3077  0.5206
 3764SOL    HW122751   1.312   3.978  12.045  1.0028  0.5498 -0.3970
 3764SOL    HW222752   1.229   4.091  12.103 -2.1421 -1.6755  1.5434
 3765SOL     OW22753   2.303   4.073   8.217  0.4871  0.6415  0.0940
 3765SOL    HW122754   2.302   4.016   8.140  1.2511  0.5742  0.1290
 3765SOL    HW222755   2.218   4.116   8.211  0.6890  1.5796  3.5427
 3766SOL     OW22756   4.183   1.390   2.856 -0.0240  0.2115  0.1243
 3766SOL    HW122757   4.222   1.303   2.854 -0.1792  0.2041 -2.1580
 3766SOL    HW222758   4.257   1.442   2.887  1.8078 -2.9347  1.0872
 3767SOL     OW22759   1.814   4.271   2.284 -0.2908 -0.1482 -0.5381
 3767SOL    HW122760   1.755   4.297   2.212 -0.1935  1.5556 -0.0039
 3767SOL    HW222761   1.846   4.358   2.307  1.7306 -0.8598 -0.7013
 3768SOL     OW22762   0.401   4.254   2.374 -0.1515 -0.2154  0.0167
 3768SOL    HW122763   0.348   4.209   2.308  0.2930 -1.8231  0.7682
 3768SOL    HW222764   0.439   4.319   2.315 -1.3554  1.5148  1.1219
 3769SOL     OW22765   2.167   1.063   4.316  0.1696 -0.5781 -0.1031
 3769SOL    HW122766   2.202   1.037   4.231 -1.5278 -1.0049 -0.6734
 3769SOL    HW222767   2.196   1.154   4.308 -2.7833  0.3431 -0.2652
 3770SOL     OW22768   0.957   4.552   7.412 -0.1653 -0.2263 -0.2653
 3770SOL    HW122769   0.868   4.585   7.393  0.8472  1.7871 -1.5261
 3770SOL    HW222770   0.934   4.486   7.477 -1.5645  0.9526  0.4545
 3771SOL     OW22771   4.035   0.420   2.733 -0.5055  0.1802  0.3498
 3771SOL    HW122772   4.044   0.325   2.741  0.5024  0.1353 -1.2404
 3771SOL    HW222773   4.124   0.436   2.702 -1.6877  2.1409 -2.0287
 3772SOL     OW22774   1.524   2.468  13.272 -0.5192 -0.1234 -0.2545
 3772SOL    HW122775   1.500   2.541  13.215 -0.9086 -1.4494 -1.7846
 3772SOL    HW222776   1.616   2.466  13.247 -0.3260 -0.4153  0.4939
 3773SOL     OW22777   4.076   2.339   8.578  0.2577  0.0461  0.1535
 3773SOL    HW122778   4.062   2.271   8.512 -2.2460  0.4761  0.2513
 3773SOL    HW222779   4.049   2.294   8.658  2.7893  0.7266  1.3931
 3774SOL     OW22780   0.886   3.315  16.789  0.5021  0.1010 -0.0116
 3774SOL    HW122781   0.896   3.221  16.773 -0.6964  0.0396 -0.4273
 3774SOL    HW222782   0.814   3.331  16.850  0.8452  1.0543  0.1362
 3775SOL     OW22783   3.605   1.691  11.197 -0.0654  0.3129 -0.0056
 3775SOL    HW122784   3.592   1.759  11.131  0.9787  0.9707  0.4801
 3775SOL    HW222785   3.691   1.661  11.169 -0.3282 -0.3422 -0.1268
 3776SOL     OW22786   1.278   0.820   4.245 -0.2662  0.4567  0.2737
 3776SOL    HW122787   1.247   0.880   4.177 -0.1193 -0.1539 -0.3239
 3776SOL    HW222788   1.190   0.791   4.269 -0.1629 -0.7908 -0.8813
 3777SOL     OW22789   2.504   1.419   7.409 -0.2935  0.2455  0.1331
 3777SOL    HW122790   2.547   1.335   7.428 -1.8474 -0.2618  1.4062
 3777SOL    HW222791   2.448   1.423   7.487 -0.3444 -1.1502  0.1656
 3778SOL     OW22792   1.567   2.375  15.603  0.7481 -0.4587  0.1396
 3778SOL    HW122793   1.487   2.427  15.609 -0.5710 -2.2888 -1.7579
 3778SOL    HW222794   1.616   2.406  15.680  0.5829  0.2784 -0.0509
 3779SOL     OW22795   1.974   2.417   5.448  0.3729  0.2211 -0.5876
 3779SOL    HW122796   1.917   2.415   5.372 -1.6178  3.9614  0.7988
 3779SOL    HW222797   2.049   2.368   5.415 -1.6607 -3.1255 -0.2309
 3780SOL     OW22798   1.207   1.377   4.669  0.5192 -0.1054  0.2111
 3780SOL    HW122799   1.174   1.287   4.668  0.7058 -0.1869  1.6564
 3780SOL    HW222800   1.265   1.370   4.593 -0.4493 -1.5539 -0.3956
 3781SOL     OW22801   3.832   4.502  10.383  0.2790 -0.4563 -0.2462
 3781SOL    HW122802   3.790   4.417  10.382  0.6845 -0.6471 -1.2294
 3781SOL    HW222803   3.796   4.536  10.465  0.7152 -0.1837 -0.1630
 3782SOL     OW22804   1.541   2.744   3.052 -0.6413 -0.3690  0.4265
 3782SOL    HW122805   1.573   2.698   3.130  1.2896 -0.8605 -0.6767
 3782SOL    HW222806   1.556   2.831   3.090 -0.1331 -1.6527  3.1399
 3783SOL     OW22807   1.591   0.082   2.129 -0.1987 -0.3283  0.2042
 3783SOL    HW122808   1.586   4.705   2.131 -1.3426 -0.2253  2.3856
 3783SOL    HW222809   1.686   0.089   2.114 -0.6996  0.8693 -2.3554
 3784SOL     OW22810   1.127   3.451  16.404  0.3882  0.0106  0.5726
 3784SOL    HW122811   1.076   3.468  16.483 -1.4648  0.9308 -0.8186
 3784SOL    HW222812   1.129   3.536  16.359  0.5459 -0.9268 -1.1981
 3785SOL     OW22813   2.387   2.038   3.929  0.3317 -0.4158  0.6993
 3785SOL    HW122814   2.421   2.084   4.005  2.3491  1.3536 -1.2952
 3785SOL    HW222815   2.339   1.971   3.977 -1.4529 -1.0164 -1.9074
 3786SOL     OW22816   2.507   3.361  12.270  0.3058 -0.1328 -0.1724
 3786SOL    HW122817   2.543   3.420  12.336 -0.6855  1.0370 -0.6801
 3786SOL    HW222818   2.496   3.418  12.194 -1.8766  1.6288  1.4707
 3787SOL     OW22819   4.471   1.486   0.900  0.2261  0.4488  0.2256
 3787SOL    HW122820   4.436   1.459   0.985  0.4044  1.0406  0.4788
 3787SOL    HW222821   4.434   1.413   0.850  0.8515  1.8222 -2.2419
 3788SOL     OW22822   0.909   2.536   9.901 -0.2110  0.1345 -0.1085
 3788SOL    HW122823   0.824   2.566   9.872 -0.3835  1.0515  1.3589
 3788SOL    HW222824   0.960   2.560   9.824  2.2491 -0.5062  1.3070
 3789SOL     OW22825   3.509   4.177  14.149 -0.0458  0.2146 -0.1198
 3789SOL    HW122826   3.473   4.214  14.068  1.3862  0.3249 -0.7012
 3789SOL    HW222827   3.551   4.097  14.118  0.4622  0.6800 -0.6239
 3790SOL     OW22828   2.780   1.601   6.626 -0.8334 -0.0202 -0.6157
 3790SOL    HW122829   2.829   1.672   6.670  0.7742  0.2077 -2.7739
 3790SOL    HW222830   2.846   1.533   6.613  0.9120  1.2748  1.3988
 3791SOL     OW22831   2.273   2.448   2.318 -0.4042  0.6090 -0.1121
 3791SOL    HW122832   2.215   2.398   2.374 -0.7045  1.6753  0.5322
 3791SOL    HW222833   2.219   2.506   2.263 -0.1015  2.4640  1.5529
 3792SOL     OW22834   2.923   3.619   4.950 -0.4120  0.0065  0.2097
 3792SOL    HW122835   3.010   3.585   4.973 -0.0420  2.1991  1.9927
 3792SOL    HW222836   2.869   3.546   4.981  0.1156 -0.5177 -0.1002
 3793SOL     OW22837   4.386   1.745  12.323 -0.1900  0.2057  0.9857
 3793SOL    HW122838   4.291   1.741  12.330 -0.1419 -1.0069  1.0500
 3793SOL    HW222839   4.398   1.728  12.417  1.5871 -0.7139  0.6055
 3794SOL     OW22840   4.396   3.461  15.905  0.4396  0.0108  0.3156
 3794SOL    HW122841   4.489   3.481  15.910  0.0540  2.2153 -1.2055
 3794SOL    HW222842   4.401   3.367  15.925 -0.2504 -0.0638  0.1499
 3795SOL     OW22843   0.439   3.933   7.830 -0.2265 -0.0128  0.6109
 3795SOL    HW122844   0.439   3.839   7.848 -0.6607  0.1239  1.3485
 3795SOL    HW222845   0.532   3.947   7.843 -0.3446  1.5840 -0.2821
 3796SOL     OW22846   4.446   3.634   6.019  0.7083 -0.0172 -0.1122
 3796SOL    HW122847   4.518   3.627   5.958  0.7511 -1.2553  0.0850
 3796SOL    HW222848   4.395   3.554   6.005  0.2950  0.1094  0.6147
 3797SOL     OW22849   0.057   3.830   1.917 -0.5958  0.0856  0.1277
 3797SOL    HW122850   0.111   3.839   1.838 -1.5500 -1.7500 -0.7319
 3797SOL    HW222851   0.008   3.751   1.892 -1.4311  1.1652 -1.6600
 3798SOL     OW22852   2.839   2.444   6.462 -0.1872  0.2948 -0.0182
 3798SOL    HW122853   2.867   2.516   6.518  1.6782 -2.1316  2.2051
 3798SOL    HW222854   2.828   2.377   6.531 -0.8836 -1.8044 -2.1761
 3799SOL     OW22855   3.821   1.580  13.304 -0.1308 -0.0567 -0.1503
 3799SOL    HW122856   3.885   1.638  13.262  0.5529  1.0610  2.4590
 3799SOL    HW222857   3.883   1.520  13.346  0.2376  0.3590 -0.0947
 3800SOL     OW22858   4.319   1.424   1.664 -0.4282 -0.1102  0.1995
 3800SOL    HW122859   4.235   1.437   1.707 -0.9571 -0.5881 -0.6771
 3800SOL    HW222860   4.370   1.404   1.742  4.7115  1.0425 -2.8593
 3801SOL     OW22861   4.488   2.763   4.180  0.1399  0.6773 -0.6608
 3801SOL    HW122862   4.540   2.751   4.260 -1.2354  0.5726  0.2099
 3801SOL    HW222863   4.406   2.807   4.201 -0.0378  0.4839 -0.9430
 3802SOL     OW22864   2.991   0.606   8.547  0.8571 -0.3560 -0.1248
 3802SOL    HW122865   3.031   0.690   8.572 -1.6015  0.4267  1.1836
 3802SOL    HW222866   2.926   0.636   8.483 -0.9123 -1.5662  1.1180
 3803SOL     OW22867   1.677   0.330   4.136 -0.0658  0.2077  0.6974
 3803SOL    HW122868   1.765   0.294   4.140 -0.1400  0.0651  1.0669
 3803SOL    HW222869   1.658   0.336   4.230 -0.5427 -3.0397  0.7995
 3804SOL     OW22870   0.146   2.793   6.396  0.2564 -0.7112  0.6399
 3804SOL    HW122871   0.062   2.839   6.400  0.9436  0.6782 -0.7633
 3804SOL    HW222872   0.192   2.815   6.477 -1.0850  1.9804  0.6659
 3805SOL     OW22873   1.667   1.848   9.685 -0.1526  0.9137  0.0950
 3805SOL    HW122874   1.616   1.822   9.608 -2.4798  0.9277  1.6576
 3805SOL    HW222875   1.675   1.760   9.722  1.4139  0.2850 -1.6670
 3806SOL     OW22876   0.490   2.498   2.930  0.1752  0.0147  0.3780
 3806SOL    HW122877   0.514   2.452   2.849  1.5562  0.2145  0.6667
 3806SOL    HW222878   0.451   2.579   2.896 -0.8640 -0.3488  0.7037
 3807SOL     OW22879   4.407   1.194   1.057  0.3225  0.2110 -0.5267
 3807SOL    HW122880   4.366   1.262   1.111  0.6636  0.7884 -0.9989
 3807SOL    HW222881   4.331   1.136   1.047 -0.0623  0.7883 -0.9788
 3808SOL     OW22882   3.017   3.592   5.393 -0.6215  0.3275  0.1310
 3808SOL    HW122883   2.924   3.569   5.394 -1.4717  3.6691 -0.9883
 3808SOL    HW222884   3.014   3.635   5.308 -1.5043 -2.9197 -1.4551
 3809SOL     OW22885   4.639   4.088   6.485 -0.7051  0.3301 -0.6933
 3809SOL    HW122886   4.639   4.173   6.441 -0.1107  1.1357  0.8327
 3809SOL    HW222887   4.630   4.023   6.416 -0.2163 -2.2264  1.6421
 3810SOL     OW22888   4.645   3.927  14.510 -0.3957  0.2681 -0.3912
 3810SOL    HW122889   4.589   3.987  14.559 -1.5663 -1.1567  0.0374
 3810SOL    HW222890   4.649   3.855  14.573  3.5473 -0.3695 -1.3875
 3811SOL     OW22891   2.412   3.664   9.687 -0.4015 -0.4581 -0.1552
 3811SOL    HW122892   2.489   3.688   9.738 -0.6120  0.8028 -0.4515
 3811SOL    HW222893   2.373   3.590   9.735 -2.1051  1.2549  1.0917
 3812SOL     OW22894   2.351   2.096  12.586  0.8314 -0.1651  0.0346
 3812SOL    HW122895   2.393   2.071  12.504  0.2816 -2.0231  0.3311
 3812SOL    HW222896   2.404   2.168  12.619  0.0459 -0.6453  2.3580
 3813SOL     OW22897   3.493   4.548   1.623 -0.0334 -0.0504  0.3425
 3813SOL    HW122898   3.434   4.622   1.606  0.8367  0.8220  1.1124
 3813SOL    HW222899   3.541   4.536   1.542 -0.5673  0.8688 -0.1104
 3814SOL     OW22900   0.642   0.006   8.528 -0.1997  0.0232 -0.3527
 3814SOL    HW122901   0.570   4.670   8.558 -0.3293  0.1121 -0.4996
 3814SOL    HW222902   0.723   4.673   8.523 -0.2681 -0.1333  0.1818
 3815SOL     OW22903   1.737   0.286   0.964 -0.3508 -0.3226 -0.8552
 3815SOL    HW122904   1.747   0.381   0.954  0.8157 -0.0879  2.3658
 3815SOL    HW222905   1.828   0.257   0.961  0.3008  1.5970 -0.2343
 3816SOL     OW22906   4.038   2.833   6.136 -0.1509 -0.2584 -0.3512
 3816SOL    HW122907   4.079   2.860   6.219 -1.1734  1.0511 -0.2594
 3816SOL    HW222908   4.068   2.743   6.133  1.7349  0.3257  0.3627
 3817SOL     OW22909   2.059   0.653   5.272 -0.1899  0.0990 -0.0800
 3817SOL    HW122910   2.096   0.567   5.252 -0.3545 -0.3312  1.5232
 3817SOL    HW222911   2.128   0.706   5.232  1.1654  0.5070  2.8126
 3818SOL     OW22912   0.646   0.289   7.796 -0.1682  0.0753  0.0830
 3818SOL    HW122913   0.645   0.373   7.749 -1.4068  0.0574  0.0926
 3818SOL    HW222914   0.662   0.233   7.720  1.0991  3.6720 -2.3157
 3819SOL     OW22915   4.110   2.561  14.001 -0.2489 -0.2794  0.2585
 3819SOL    HW122916   4.051   2.495  14.037 -0.4815 -0.4365 -0.4061
 3819SOL    HW222917   4.050   2.622  13.958  1.7910 -0.2383 -2.5172
 3820SOL     OW22918   0.563   0.805   2.515 -0.5861 -0.4425  0.4681
 3820SOL    HW122919   0.482   0.754   2.519 -0.6253 -0.3130  1.2742
 3820SOL    HW222920   0.539   0.878   2.458 -2.0645 -1.2128  0.1177
 3821SOL     OW22921   3.747   0.939  10.809 -0.8483  0.1554 -0.2747
 3821SOL    HW122922   3.732   0.861  10.862 -2.0131  0.1578 -0.6182
 3821SOL    HW222923   3.827   0.972  10.851  0.2179  0.7951 -2.8014
 3822SOL     OW22924   1.000   2.027   5.344  0.4625  0.0353 -0.6597
 3822SOL    HW122925   0.957   2.094   5.397  2.7113  0.5735  0.4703
 3822SOL    HW222926   1.072   2.026   5.407 -1.4866 -1.6306  1.5414
 3823SOL     OW22927   0.506   2.776   2.039 -0.1923  0.2876  0.1175
 3823SOL    HW122928   0.486   2.768   2.132  0.6011  0.5187  0.3124
 3823SOL    HW222929   0.599   2.800   2.032  0.6127 -2.5797  0.7104
 3824SOL     OW22930   1.147   4.122   5.099 -0.4218 -0.0744  0.2939
 3824SOL    HW122931   1.121   4.199   5.149  0.0425  0.9438 -1.0468
 3824SOL    HW222932   1.085   4.056   5.131  0.4797 -1.5868 -1.1031
 3825SOL     OW22933   0.097   4.185   4.044 -1.1515 -0.3932 -0.6742
 3825SOL    HW122934   0.038   4.230   4.104 -1.5064 -1.5294 -0.1748
 3825SOL    HW222935   0.121   4.107   4.094 -1.7995 -1.0995 -1.4481
 3826SOL     OW22936   4.299   3.667   9.181 -0.5383 -0.5080 -0.1686
 3826SOL    HW122937   4.273   3.583   9.144  0.6586 -0.2986 -1.5041
 3826SOL    HW222938   4.341   3.630   9.258 -0.8799 -0.1037  0.2136
 3827SOL     OW22939   3.201   4.563   7.015 -0.2300  0.0230  0.0790
 3827SOL    HW122940   3.273   4.504   7.037 -0.3235 -0.8971 -2.1159
 3827SOL    HW222941   3.208   4.550   6.921 -0.0570 -0.2088  0.1236
 3828SOL     OW22942   1.830   4.632   3.035  0.5169  0.3731  0.5184
 3828SOL    HW122943   1.850   0.004   3.055 -2.0311  1.6245 -2.6813
 3828SOL    HW222944   1.793   4.642   2.948  0.3942  2.4939  0.8153
 3829SOL     OW22945   2.990   0.377  12.798  0.3313 -0.4275 -0.5370
 3829SOL    HW122946   3.030   0.436  12.734  1.0103 -1.2276 -0.8696
 3829SOL    HW222947   2.918   0.430  12.830  0.9728  0.6935 -0.9258
 3830SOL     OW22948   1.517   1.367   8.406 -0.9041 -0.2291 -0.1945
 3830SOL    HW122949   1.468   1.291   8.376  3.2234 -1.8933 -2.5896
 3830SOL    HW222950   1.534   1.343   8.497 -0.6031 -0.8541 -0.4222
 3831SOL     OW22951   1.402   3.853  14.751  0.2739 -0.3684 -0.0776
 3831SOL    HW122952   1.374   3.943  14.768  1.3278  0.6345 -3.6941
 3831SOL    HW222953   1.408   3.828  14.844  0.5608  2.0328  0.5459
 3832SOL     OW22954   0.432   2.428   8.905  0.5676  0.0149  0.4664
 3832SOL    HW122955   0.472   2.352   8.947  2.7388  0.0655 -1.5194
 3832SOL    HW222956   0.494   2.499   8.926  0.5930 -0.2155  1.1893
 3833SOL     OW22957   1.318   0.029   3.620 -0.5040  0.0684 -0.1244
 3833SOL    HW122958   1.294   0.068   3.535  1.1332  0.7226 -0.2818
 3833SOL    HW222959   1.268   4.668   3.604  0.2986 -0.2002 -1.2437
 3834SOL     OW22960   2.835   1.451   3.883 -0.1216  0.0587  0.2923
 3834SOL    HW122961   2.876   1.524   3.929 -0.5830  0.0336  0.7365
 3834SOL    HW222962   2.893   1.439   3.807  0.0738 -0.7320  0.5639
 3835SOL     OW22963   1.733   1.178   6.310 -0.5602 -0.3932  0.2355
 3835SOL    HW122964   1.821   1.139   6.314 -0.3278  0.1171  0.1641
 3835SOL    HW222965   1.719   1.195   6.217  0.5394 -1.9643 -0.2192
 3836SOL     OW22966   2.982   3.021   7.912  0.0552  0.2757 -0.8012
 3836SOL    HW122967   3.002   2.928   7.925 -3.3795  0.2276  4.2524
 3836SOL    HW222968   3.019   3.035   7.824 -0.3717 -1.6743 -1.2960
 3837SOL     OW22969   4.655   3.534   2.775  0.4332 -0.6380 -0.2840
 3837SOL    HW122970   4.568   3.546   2.812  0.4863  0.0569 -0.3881
 3837SOL    HW222971   4.672   3.616   2.729 -0.7100 -1.0721 -1.5024
 3838SOL     OW22972   4.206   1.868  12.096 -0.1623 -0.5434 -0.4924
 3838SOL    HW122973   4.173   1.904  12.014  1.0108 -1.2533 -1.2862
 3838SOL    HW222974   4.187   1.774  12.084 -3.4483  0.1880 -0.9466
 3839SOL     OW22975   4.596   3.081   3.157  0.1620 -0.0940 -0.1350
 3839SOL    HW122976   4.664   3.128   3.205  0.9356  0.1883 -1.5349
 3839SOL    HW222977   4.521   3.132   3.189  0.3595  0.1612 -0.0831
 3840SOL     OW22978   3.311   2.220  10.393 -0.2616  0.2419  0.3305
 3840SOL    HW122979   3.337   2.128  10.380 -2.0957 -0.1651 -0.4435
 3840SOL    HW222980   3.392   2.271  10.398  0.1879 -0.5855  1.7504
 3841SOL     OW22981   0.759   2.273   3.903 -0.0657 -0.3301  0.0580
 3841SOL    HW122982   0.713   2.353   3.876  1.6680  0.1640 -1.4650
 3841SOL    HW222983   0.832   2.269   3.840  1.6926  1.5521  1.9812
 3842SOL     OW22984   3.086   3.884  12.996 -0.4777  0.2268  0.3659
 3842SOL    HW122985   2.991   3.889  13.006 -0.6051 -0.4524 -0.5216
 3842SOL    HW222986   3.099   3.894  12.902 -1.6874  0.9185  0.2735
 3843SOL     OW22987   3.070   2.440   1.731 -0.1448  0.0511  0.2934
 3843SOL    HW122988   3.110   2.394   1.805 -0.8116  1.4255  1.4900
 3843SOL    HW222989   3.148   2.480   1.691 -1.2840  0.9187 -1.0430
 3844SOL     OW22990   2.545   3.410  17.095  0.7231 -0.2855  0.0345
 3844SOL    HW122991   2.610   3.480  17.101 -1.4900  1.9574 -1.5946
 3844SOL    HW222992   2.543   3.377  17.184  0.3097 -2.1857 -0.6929
 3845SOL     OW22993   0.868   2.068   4.094 -0.1749 -0.1203  0.1688
 3845SOL    HW122994   0.920   2.123   4.036  1.3093 -2.0647 -0.3435
 3845SOL    HW222995   0.831   2.137   4.149  1.8851 -0.8894  2.5550
 3846SOL     OW22996   4.596   2.825  16.996  0.4550  0.3813  0.3970
 3846SOL    HW122997   4.615   2.867  17.080 -0.7410 -1.3586  1.5334
 3846SOL    HW222998   4.677   2.838  16.946  0.3344 -0.2534  0.0451
 3847SOL     OW22999   1.685   2.381   2.139 -0.1580 -0.0132 -0.1207
 3847SOL    HW123000   1.771   2.416   2.116  0.0286 -0.2521  0.2038
 3847SOL    HW223001   1.621   2.442   2.102 -0.8736  0.6978  2.2881
 3848SOL     OW23002   4.409   2.536  11.352 -0.0066 -0.1960 -0.0550
 3848SOL    HW123003   4.490   2.521  11.400 -0.3153 -0.4699  0.3831
 3848SOL    HW223004   4.445   2.541  11.263 -2.6179  0.3987 -1.0740
 3849SOL     OW23005   4.339   3.038  12.073 -0.4788  0.3766  0.5817
 3849SOL    HW123006   4.280   2.998  12.010  0.6515  1.0649 -0.9143
 3849SOL    HW223007   4.284   3.094  12.128  1.4003  2.4760  0.3463
 3850SOL     OW23008   3.361   1.575   2.543  0.1356 -0.4646 -0.4135
 3850SOL    HW123009   3.278   1.527   2.533  0.1170 -0.5716  0.2829
 3850SOL    HW223010   3.351   1.641   2.475 -0.2707 -0.8827 -0.7597
 3851SOL     OW23011   3.290   1.049   5.749  0.8992  0.1226 -0.0990
 3851SOL    HW123012   3.289   1.139   5.779 -3.3178 -0.0980  0.4805
 3851SOL    HW223013   3.376   1.026   5.715  0.0335  0.5057 -2.5296
 3852SOL     OW23014   4.671   0.983   6.370  0.2085  0.1917  0.1811
 3852SOL    HW123015   4.708   1.052   6.314  0.1870  0.1322  0.0933
 3852SOL    HW223016   4.590   0.968   6.321 -0.7188 -3.9471  2.9712
 3853SOL     OW23017   3.714   3.053   3.264 -0.4629 -0.1920  0.3090
 3853SOL    HW123018   3.720   2.997   3.342 -1.6261 -1.4324 -0.4920
 3853SOL    HW223019   3.682   2.996   3.195 -0.5349  0.2933 -0.0553
 3854SOL     OW23020   3.614   3.814   7.523 -0.3109  0.1430  0.1886
 3854SOL    HW123021   3.677   3.884   7.535  0.2567 -0.2593 -0.4546
 3854SOL    HW223022   3.655   3.735   7.557 -0.5467 -0.2029 -0.3279
 3855SOL     OW23023   1.142   0.622   4.539 -0.0177 -0.0928  0.2794
 3855SOL    HW123024   1.088   0.598   4.614  1.5586  1.5736  1.9304
 3855SOL    HW223025   1.085   0.655   4.469  0.3438 -0.2932 -0.1075
 3856SOL     OW23026   2.977   4.151   3.380 -0.1610  0.3161  0.0770
 3856SOL    HW123027   2.919   4.110   3.444  2.5394 -0.8902  1.7648
 3856SOL    HW223028   3.045   4.087   3.361 -0.0507  0.1297  1.0967
 3857SOL     OW23029   2.884   2.148  11.607  0.8906  0.5230 -0.3157
 3857SOL    HW123030   2.944   2.164  11.680  4.0877  0.5761 -2.9159
 3857SOL    HW223031   2.924   2.070  11.568 -0.7395 -0.7632  0.5803
 3858SOL     OW23032   3.381   4.275  15.187  0.2368 -0.2351 -0.1194
 3858SOL    HW123033   3.439   4.199  15.181  0.5267  0.1653 -2.6350
 3858SOL    HW223034   3.322   4.238  15.253  0.0009 -0.4454 -0.4449
 3859SOL     OW23035   2.631   1.746   5.564 -0.3590  0.1833 -0.4079
 3859SOL    HW123036   2.632   1.839   5.541  0.2037 -0.2018 -1.9322
 3859SOL    HW223037   2.680   1.758   5.645 -2.4882  0.7707  0.7952
 3860SOL     OW23038   0.733   3.669   8.525  1.1408 -0.2530 -0.1595
 3860SOL    HW123039   0.684   3.693   8.603  0.5166  1.8020 -1.1882
 3860SOL    HW223040   0.792   3.744   8.519  0.6962  0.1884  1.1376
 3861SOL     OW23041   3.138   0.422   3.556  0.0023  0.1544 -0.3108
 3861SOL    HW123042   3.179   0.379   3.631 -0.1612  1.1344  0.3428
 3861SOL    HW223043   3.188   0.502   3.542  0.3747 -0.0815 -0.3454
 3862SOL     OW23044   4.015   2.765   0.995  0.1824 -0.2108 -0.0683
 3862SOL    HW123045   3.942   2.777   1.055 -0.9177  0.9134 -1.6241
 3862SOL    HW223046   4.077   2.707   1.038 -1.3017  0.1523  2.5818
 3863SOL     OW23047   3.191   3.308   2.993  0.0743 -0.1142 -0.8755
 3863SOL    HW123048   3.172   3.331   2.902  1.4078 -3.6391 -2.0295
 3863SOL    HW223049   3.270   3.360   3.009  0.8794 -1.8489  0.7064
 3864SOL     OW23050   2.651   0.814  10.403 -0.2431 -0.0368  0.4312
 3864SOL    HW123051   2.693   0.770  10.329  0.1157 -2.1361  1.8994
 3864SOL    HW223052   2.686   0.765  10.477 -0.7416  2.2182  2.1634
 3865SOL     OW23053   1.349   0.017   7.624 -0.3175 -0.1227  0.1012
 3865SOL    HW123054   1.304   4.660   7.589 -0.5338 -0.5481  1.3149
 3865SOL    HW223055   1.296   0.085   7.583  0.1351  0.4452  0.4478
 3866SOL     OW23056   0.181   1.690   3.425 -0.5071 -0.0963 -0.1248
 3866SOL    HW123057   0.089   1.713   3.430 -0.7136 -0.6326 -1.3777
 3866SOL    HW223058   0.216   1.769   3.467 -0.7607  0.3096 -0.6714
 3867SOL     OW23059   2.111   3.189   0.585 -0.2849  0.1935  0.8396
 3867SOL    HW123060   2.194   3.174   0.541 -1.6086 -2.1173 -0.8860
 3867SOL    HW223061   2.062   3.116   0.545  1.8895 -0.1048 -1.2955
 3868SOL     OW23062   0.558   3.583   0.836  0.0624 -0.2058 -0.3362
 3868SOL    HW123063   0.587   3.497   0.867  0.1903  0.3862  1.2041
 3868SOL    HW223064   0.474   3.577   0.789 -1.4295  1.0216  2.1749
 3869SOL     OW23065   0.205   0.019   2.301  0.2974  0.2783  0.0743
 3869SOL    HW123066   0.156   0.031   2.221  0.2827 -0.9225 -0.1018
 3869SOL    HW223067   0.267   4.672   2.271 -0.1381 -0.5381  0.9536
 3870SOL     OW23068   0.158   0.941   1.135  0.1065 -0.3257 -0.2784
 3870SOL    HW123069   0.160   0.919   1.228  1.5602 -0.2704 -0.2960
 3870SOL    HW223070   0.064   0.953   1.124 -0.0307  0.0921  1.3899
 3871SOL     OW23071   0.073   0.402   1.954 -0.6036  0.2223  0.6045
 3871SOL    HW123072   0.071   0.454   2.033  1.6908  0.0823  0.7617
 3871SOL    HW223073   4.699   0.380   1.955 -0.6302  0.3296  0.5024
 3872SOL     OW23074   2.474   1.421   3.073 -0.1251  0.2914  0.4273
 3872SOL    HW123075   2.479   1.362   2.998  0.5340 -1.9038  2.2134
 3872SOL    HW223076   2.461   1.511   3.042 -2.2623 -0.1411  0.0182
 3873SOL     OW23077   4.330   3.184   3.392  0.1621  0.2349 -0.4057
 3873SOL    HW123078   4.238   3.213   3.392  0.2863  0.6106 -1.4025
 3873SOL    HW223079   4.370   3.237   3.461 -0.5097 -2.5605  2.1498
 3874SOL     OW23080   2.476   2.982   3.963 -0.0227  0.4130  0.1025
 3874SOL    HW123081   2.473   2.917   3.893 -3.4504  1.5483 -0.8150
 3874SOL    HW223082   2.491   3.052   3.900 -0.2790  0.9545  0.6416
 3875SOL     OW23083   1.145   0.020  14.299  0.1282  0.3465  0.0221
 3875SOL    HW123084   1.075   4.676  14.309  1.2460 -0.4395  2.9395
 3875SOL    HW223085   1.096   0.098  14.323 -0.5316  1.3859 -4.6642
 3876SOL     OW23086   2.984   1.527   2.202 -0.0370  0.4330  0.5656
 3876SOL    HW123087   2.931   1.448   2.197 -0.5225  0.7283  1.1487
 3876SOL    HW223088   3.010   1.525   2.110  0.3279 -1.6177  0.7023
 3877SOL     OW23089   0.388   3.237   5.355 -0.0038 -0.1983  0.0550
 3877SOL    HW123090   0.332   3.312   5.333  0.4648  0.4979  1.2164
 3877SOL    HW223091   0.475   3.262   5.324 -0.0862  0.7293  0.5637
 3878SOL     OW23092   2.542   2.790  17.253 -0.2278  0.0659 -1.1916
 3878SOL    HW123093   2.536   2.708  17.302  0.8056  0.0450 -1.1119
 3878SOL    HW223094   2.636   2.806  17.254 -0.3627  0.8650 -1.2120
 3879SOL     OW23095   4.681   2.531   8.580  0.2981 -0.3113 -0.4496
 3879SOL    HW123096   4.616   2.510   8.646  0.6512 -0.8590 -0.2802
 3879SOL    HW223097   4.638   2.507   8.498 -0.3722  1.1219 -0.5241
 3880SOL     OW23098   1.764   0.988   2.793 -0.2643  0.2076  0.2189
 3880SOL    HW123099   1.732   0.904   2.824  1.7173 -0.6101  0.0534
 3880SOL    HW223100   1.858   0.968   2.793 -0.0857  1.0495 -0.0776
 3881SOL     OW23101   1.772   1.054  10.231 -0.1714 -0.4614 -0.4491
 3881SOL    HW123102   1.772   0.997  10.308  0.8260 -0.4291 -0.4248
 3881SOL    HW223103   1.765   0.988  10.161  1.6198 -0.2590 -0.8155
 3882SOL     OW23104   1.452   0.044   9.423 -0.1536  0.1912  0.1490
 3882SOL    HW123105   1.382   4.708   9.388  0.9922 -1.5889  0.6895
 3882SOL    HW223106   1.502   4.704   9.479 -0.5858 -0.1705  0.1523
 3883SOL     OW23107   4.491   4.318   5.440  0.1295 -0.0742 -0.0674
 3883SOL    HW123108   4.494   4.277   5.526 -0.7918 -1.4926 -0.6979
 3883SOL    HW223109   4.571   4.275   5.410  0.0372 -0.5878  0.4250
 3884SOL     OW23110   4.186   3.746   8.778  0.1712  0.3049 -0.8431
 3884SOL    HW123111   4.244   3.800   8.832  0.6740 -0.8611 -0.1967
 3884SOL    HW223112   4.194   3.794   8.696 -0.2958  1.5604 -0.1520
 3885SOL     OW23113   4.277   1.413  16.342 -0.1135 -0.3393 -1.1364
 3885SOL    HW123114   4.183   1.407  16.357 -0.1702  0.0848 -1.3483
 3885SOL    HW223115   4.312   1.367  16.419  0.9393 -1.9415 -2.5531
 3886SOL     OW23116   1.412   1.327  17.516  0.2321  0.3301  0.3245
 3886SOL    HW123117   1.349   1.382  17.469  2.8734 -0.1001 -3.7404
 3886SOL    HW223118   1.358   1.287  17.584 -0.3916 -1.7835 -1.3725
 3887SOL     OW23119   0.478   0.262   6.911  0.6131 -0.2483 -0.0059
 3887SOL    HW123120   0.557   0.287   6.863 -0.8412  0.7730 -1.8737
 3887SOL    HW223121   0.448   0.348   6.941  0.3986  0.0809 -1.1720
 3888SOL     OW23122   0.003   2.206   3.782 -0.0435  0.3313 -0.0561
 3888SOL    HW123123   0.054   2.137   3.739 -3.4164 -2.4104  0.3253
 3888SOL    HW223124   4.638   2.195   3.739  0.5922 -4.1964 -0.1218
 3889SOL     OW23125   0.402   0.660   9.054  0.3406 -0.1018 -0.1840
 3889SOL    HW123126   0.359   0.674   9.138  1.0278 -1.4988  0.3847
 3889SOL    HW223127   0.324   0.648   8.999 -0.0003 -0.8228  0.4746
 3890SOL     OW23128   3.156   2.463   5.502  0.6552 -0.4552 -0.1370
 3890SOL    HW123129   3.123   2.523   5.569 -0.6706 -0.0497 -1.1478
 3890SOL    HW223130   3.089   2.477   5.435 -0.1775  1.0067  1.0003
 3891SOL     OW23131   0.098   2.043   2.589 -0.6185  0.1821 -0.3165
 3891SOL    HW123132   0.018   1.998   2.562 -0.0168 -0.4145 -1.0995
 3891SOL    HW223133   0.164   2.017   2.525 -1.4069 -1.0195 -0.6370
 3892SOL     OW23134   0.818   3.020   0.064  0.2443  0.1696 -0.4839
 3892SOL    HW123135   0.806   3.088  17.679 -0.1461  0.2623 -0.3140
 3892SOL    HW223136   0.764   2.951   0.026 -0.6432  1.6521 -1.9076
 3893SOL     OW23137   0.649   2.200   9.635  0.1570 -0.5872  0.6851
 3893SOL    HW123138   0.678   2.274   9.689  4.4094 -1.6263 -0.1449
 3893SOL    HW223139   0.558   2.222   9.615  0.4559 -0.4091 -0.4962
 3894SOL     OW23140   1.846   2.446   2.747 -0.0916  0.2305  0.1481
 3894SOL    HW123141   1.827   2.364   2.794 -2.1630  1.0741  0.7558
 3894SOL    HW223142   1.774   2.443   2.685  0.8159  0.9038 -0.9409
 3895SOL     OW23143   4.667   4.400   8.592  0.0186 -0.5098  0.0345
 3895SOL    HW123144   4.662   4.340   8.667  0.9576 -0.3653  0.2101
 3895SOL    HW223145   4.717   4.345   8.533  0.2697  1.6200 -1.7581
 3896SOL     OW23146   1.938   2.197   5.823  0.3056  0.0392 -0.3391
 3896SOL    HW123147   1.968   2.149   5.745  0.0873  0.4977 -0.7027
 3896SOL    HW223148   1.956   2.139   5.897 -0.7135 -0.2465 -0.3134
 3897SOL     OW23149   0.458   4.057   5.939  0.0656  0.3638  0.3209
 3897SOL    HW123150   0.524   4.001   5.978  0.6135  0.7917  0.0163
 3897SOL    HW223151   0.417   3.997   5.876 -0.7053  0.2461  0.9312
 3898SOL     OW23152   1.305   2.786   1.921  0.2313 -0.4293  0.2950
 3898SOL    HW123153   1.394   2.793   1.953  0.9668 -1.9106 -1.4335
 3898SOL    HW223154   1.272   2.875   1.911  1.2607 -0.4044 -2.9226
 3899SOL     OW23155   1.049   3.324  14.946 -0.7802  0.3429  0.3270
 3899SOL    HW123156   0.999   3.276  14.880  0.2484 -2.4145  1.5422
 3899SOL    HW223157   1.025   3.413  14.920  1.9168  0.1932 -2.6081
 3900SOL     OW23158   0.839   1.574   0.117 -0.0772 -0.2401  0.0561
 3900SOL    HW123159   0.900   1.528   0.060  0.0726 -1.3242  1.0766
 3900SOL    HW223160   0.855   1.522   0.196  0.5117 -0.5112 -0.2483
 3901SOL     OW23161   2.764   1.574   3.141  0.6748 -0.6184  0.7938
 3901SOL    HW123162   2.719   1.528   3.070  1.4773 -0.9585  0.5109
 3901SOL    HW223163   2.692   1.627   3.174  0.2658 -2.3937  2.6820
 3902SOL     OW23164   1.871   3.065   1.810  0.0585 -0.6146 -0.0057
 3902SOL    HW123165   1.862   3.033   1.720  1.1523  0.6538 -0.5604
 3902SOL    HW223166   1.933   2.998   1.838 -1.4513 -1.0060  2.4319
 3903SOL     OW23167   3.753   2.529   9.768 -0.1545  0.2017 -0.4205
 3903SOL    HW123168   3.758   2.436   9.790 -0.8665  0.3243  0.2667
 3903SOL    HW223169   3.846   2.539   9.746 -0.4737 -0.0390 -1.8658
 3904SOL     OW23170   1.784   1.791   7.884  0.3687 -0.7910 -0.0718
 3904SOL    HW123171   1.693   1.787   7.913  0.8611 -1.1461  1.4217
 3904SOL    HW223172   1.819   1.707   7.915  0.6479 -1.1663 -1.4152
 3905SOL     OW23173   4.430   0.662   4.465 -0.6808 -0.2285 -0.2387
 3905SOL    HW123174   4.407   0.721   4.536 -1.3928 -1.3757  0.4871
 3905SOL    HW223175   4.397   0.713   4.391 -1.1090  0.8410  0.6886
 3906SOL     OW23176   3.442   4.160   3.962 -0.0830 -0.3617 -0.0025
 3906SOL    HW123177   3.387   4.233   3.935  0.4183  0.0292  0.0384
 3906SOL    HW223178   3.384   4.096   3.921 -0.3834  0.0262 -0.1816
 3907SOL     OW23179   3.428   3.853  17.617 -0.1516 -0.4329  0.7918
 3907SOL    HW123180   3.482   3.924  17.582 -2.1084 -0.4528 -2.2423
 3907SOL    HW223181   3.439   3.877   0.028  1.5188 -1.3336  0.8308
 3908SOL     OW23182   3.170   4.615   4.306 -0.3785 -0.2746 -0.5179
 3908SOL    HW123183   3.198   4.662   4.227 -0.5362 -1.0091 -1.0032
 3908SOL    HW223184   3.218   4.533   4.296  0.0059 -0.3372  2.0509
 3909SOL     OW23185   2.331   3.433  12.573 -0.0179  0.1270  0.5420
 3909SOL    HW123186   2.419   3.405  12.549 -0.9547 -2.2033 -0.1085
 3909SOL    HW223187   2.281   3.433  12.491  0.5088  1.0182  0.2238
 3910SOL     OW23188   0.986   1.145   7.022 -0.6257  0.0389  0.4586
 3910SOL    HW123189   0.968   1.059   7.059 -3.6736  0.2499 -0.5117
 3910SOL    HW223190   1.046   1.196   7.076 -1.1192 -0.3183  1.3341
 3911SOL     OW23191   4.349   4.310   3.304 -0.3467 -0.0237 -0.2368
 3911SOL    HW123192   4.331   4.393   3.261 -0.2174 -0.1363 -0.5107
 3911SOL    HW223193   4.297   4.318   3.384 -0.5615 -2.1169 -0.1692
 3912SOL     OW23194   1.174   2.771  17.051 -0.2485  0.0988  0.2710
 3912SOL    HW123195   1.142   2.811  16.969 -0.3687  1.1620  0.8338
 3912SOL    HW223196   1.258   2.729  17.031 -0.9532 -0.1748 -2.1659
 3913SOL     OW23197   0.979   3.842   3.417  0.1677 -0.1096 -0.1346
 3913SOL    HW123198   0.944   3.767   3.464  0.4422 -0.8148 -1.0547
 3913SOL    HW223199   1.059   3.856   3.467  0.2139 -1.1864  0.0849
 3914SOL     OW23200   2.946   1.679   3.992  0.0192 -0.4308 -0.4853
 3914SOL    HW123201   2.962   1.664   4.086 -0.0321 -2.7734 -0.8521
 3914SOL    HW223202   2.913   1.769   3.995 -0.2820 -0.4475 -3.9199
 3915SOL     OW23203   2.037   3.220   8.214  0.2009 -0.1377 -0.3782
 3915SOL    HW123204   2.030   3.145   8.273 -0.2861 -0.4063 -0.7802
 3915SOL    HW223205   2.129   3.245   8.229 -0.4764  1.3808  1.3550
 3916SOL     OW23206   0.387   4.056   0.612 -0.1347 -0.0856  0.3891
 3916SOL    HW123207   0.358   4.125   0.671  0.2421  0.5960 -0.2211
 3916SOL    HW223208   0.342   3.979   0.646 -1.8362  0.8304  0.2168
 3917SOL     OW23209   3.174   1.397   2.870 -0.0258 -0.0284 -0.3845
 3917SOL    HW123210   3.110   1.468   2.868 -0.4659 -0.4163 -0.1212
 3917SOL    HW223211   3.236   1.421   2.938 -1.0507  1.6917 -0.0556
 3918SOL     OW23212   2.473   2.637   0.852  0.4435  0.2071  0.0442
 3918SOL    HW123213   2.503   2.575   0.786  0.6206 -0.1929  0.4998
 3918SOL    HW223214   2.513   2.599   0.930 -1.9030 -2.2555  0.0522
 3919SOL     OW23215   0.073   3.502  13.295 -0.4885 -0.1786 -0.7101
 3919SOL    HW123216   0.039   3.579  13.341 -2.2315  1.1705 -4.2214
 3919SOL    HW223217   4.718   3.442  13.301  0.0795 -0.7563  0.3987
 3920SOL     OW23218   3.312   4.570  14.483  0.2051 -0.0388 -0.0605
 3920SOL    HW123219   3.363   4.503  14.437 -1.4548 -0.9914 -0.5171
 3920SOL    HW223220   3.237   4.512  14.501 -1.3507  3.0432  3.2059
 3921SOL     OW23221   4.214   1.640   3.147  0.4596  0.3491  0.6117
 3921SOL    HW123222   4.251   1.691   3.076 -0.6034  0.2896  0.0124
 3921SOL    HW223223   4.239   1.555   3.110 -0.5803  2.3175 -4.6265
 3922SOL     OW23224   1.969   2.281  11.453 -0.5033  0.3083  0.0787
 3922SOL    HW123225   1.958   2.344  11.524 -1.6947  3.2102 -2.6974
 3922SOL    HW223226   1.958   2.200  11.503 -0.5315  1.4852  1.9802
 3923SOL     OW23227   3.993   3.230   2.525  0.0982 -0.0653 -0.1818
 3923SOL    HW123228   4.010   3.293   2.454  2.3018 -0.6801 -0.2153
 3923SOL    HW223229   4.013   3.276   2.606  0.4641  1.7165 -1.2763
 3924SOL     OW23230   2.606   2.725   1.213 -0.3370 -0.0465 -0.6587
 3924SOL    HW123231   2.683   2.745   1.267 -0.0524 -0.3067 -0.9726
 3924SOL    HW223232   2.642   2.674   1.141 -2.4228 -2.6410  0.1523
 3925SOL     OW23233   0.356   1.864   2.952 -0.5649  0.0293 -0.0097
 3925SOL    HW123234   0.347   1.941   3.008  0.2704  1.4244 -1.8160
 3925SOL    HW223235   0.370   1.796   3.018  3.8737  0.8469 -0.1434
 3926SOL     OW23236   2.159   1.838  16.467  0.1604 -0.1766  0.0090
 3926SOL    HW123237   2.135   1.906  16.530 -1.7161  0.6894 -1.6480
 3926SOL    HW223238   2.082   1.841  16.411 -0.1459 -0.4371  0.4177
 3927SOL     OW23239   2.575   4.098   8.999  0.4590  0.7856  0.4931
 3927SOL    HW123240   2.557   4.006   9.018  1.1810  0.6004  0.2851
 3927SOL    HW223241   2.664   4.101   8.963 -0.1990  0.1620 -1.1730
 3928SOL     OW23242   1.522   0.356   2.446  0.1933  0.2363 -0.1614
 3928SOL    HW123243   1.540   0.412   2.371  0.3233 -2.8230 -2.4203
 3928SOL    HW223244   1.608   0.364   2.487 -0.2433  0.0054  0.7892
 3929SOL     OW23245   3.161   2.569   8.866 -0.2254 -0.3474 -0.3992
 3929SOL    HW123246   3.096   2.498   8.874 -3.0265  2.3192  0.6960
 3929SOL    HW223247   3.177   2.562   8.772  3.9789  1.3895  0.2089
 3930SOL     OW23248   1.832   1.789   4.851  0.3468  0.3043 -0.1353
 3930SOL    HW123249   1.866   1.871   4.814 -1.4090  0.9548 -0.2733
 3930SOL    HW223250   1.905   1.761   4.907  0.2387  0.9769  0.3470
 3931SOL     OW23251   3.253   1.334  12.848 -0.6942 -0.0746  0.2413
 3931SOL    HW123252   3.236   1.259  12.905 -0.9924  0.1215  0.4099
 3931SOL    HW223253   3.270   1.290  12.765  0.5945  1.3145 -0.2290
 3932SOL     OW23254   3.392   3.483   3.847 -0.3645 -0.7667  0.0168
 3932SOL    HW123255   3.457   3.417   3.822  0.8716  0.7710 -0.7846
 3932SOL    HW223256   3.316   3.441   3.806 -0.5343 -0.5802  0.1407
 3933SOL     OW23257   0.170   1.343   1.621  0.5966 -0.4274 -0.1592
 3933SOL    HW123258   0.083   1.362   1.585  0.1992 -0.9499  0.5399
 3933SOL    HW223259   0.150   1.366   1.712  3.3522  0.5784  0.1852
 3934SOL     OW23260   2.869   3.338  12.332  0.1921 -0.1199  0.4726
 3934SOL    HW123261   2.933   3.293  12.387 -1.0452 -0.1674  1.8685
 3934SOL    HW223262   2.903   3.318  12.244 -0.5964 -0.3854  0.2295
 3935SOL     OW23263   4.496   0.172   7.455 -0.5664  0.1190 -0.2166
 3935SOL    HW123264   4.429   0.186   7.522 -0.4411 -2.0002  0.3406
 3935SOL    HW223265   4.432   0.129   7.398 -0.7775  3.0262 -2.1752
 3936SOL     OW23266   2.744   3.500   5.400  0.0791 -0.1470  0.3953
 3936SOL    HW123267   2.655   3.491   5.367  0.0644  0.1902  0.3451
 3936SOL    HW223268   2.778   3.411   5.393  0.5712  0.1531 -1.1079
 3937SOL     OW23269   2.796   3.334   6.768 -0.2706 -0.0846  1.0566
 3937SOL    HW123270   2.709   3.376   6.774 -0.1867  0.2910 -0.2886
 3937SOL    HW223271   2.848   3.411   6.743  1.8554 -0.9724  2.8237
 3938SOL     OW23272   2.487   4.593   5.950  0.0867  0.2448 -0.0960
 3938SOL    HW123273   2.533   4.676   5.937  0.1210 -0.0353 -1.7873
 3938SOL    HW223274   2.418   4.605   5.885  0.9364  1.5436 -0.7431
 3939SOL     OW23275   4.711   4.200   8.414 -0.6928 -0.0277 -0.8707
 3939SOL    HW123276   4.645   4.146   8.371 -1.9809  0.4346  0.5373
 3939SOL    HW223277   0.052   4.132   8.444 -1.6660  0.1587  1.4655
 3940SOL     OW23278   0.219   3.042   4.456 -0.2313 -0.1777 -0.0091
 3940SOL    HW123279   0.297   3.050   4.402  1.6552  1.8633  2.9715
 3940SOL    HW223280   0.177   3.121   4.420  0.2155  0.7486  1.4919
 3941SOL     OW23281   1.420   3.454   3.993  0.0158  0.1181  0.1340
 3941SOL    HW123282   1.370   3.396   4.051 -0.0663 -0.1918 -0.2489
 3941SOL    HW223283   1.510   3.427   4.012 -0.4634 -0.1517  2.0822
 3942SOL     OW23284   2.949   0.523   0.331 -0.1951  0.5061 -0.0905
 3942SOL    HW123285   2.992   0.490   0.410 -1.7555  2.5126  1.6106
 3942SOL    HW223286   3.020   0.520   0.266  0.7609 -0.8626  1.0252
 3943SOL     OW23287   2.998   3.224   4.267 -0.1979 -0.0012  0.2497
 3943SOL    HW123288   3.092   3.208   4.265  0.5641  4.5116 -0.6669
 3943SOL    HW223289   2.984   3.232   4.173  1.4886  1.8445  0.1467
 3944SOL     OW23290   2.275   4.462   4.637 -0.0019 -0.5764 -0.4741
 3944SOL    HW123291   2.310   4.377   4.661  0.0800  0.4013  2.7584
 3944SOL    HW223292   2.199   4.469   4.695  0.8151  1.4141  0.3530
 3945SOL     OW23293   0.618   4.282  12.532 -0.1476  0.0540  0.7356
 3945SOL    HW123294   0.673   4.210  12.565 -1.4980 -2.1799 -1.8465
 3945SOL    HW223295   0.675   4.358  12.542  0.7578 -0.2583 -2.1070
 3946SOL     OW23296   3.402   4.244   9.912 -0.6552 -0.0747 -0.6441
 3946SOL    HW123297   3.467   4.308   9.884 -2.7260  1.6493 -1.5721
 3946SOL    HW223298   3.319   4.280   9.879 -0.5952  1.0951  0.4865
 3947SOL     OW23299   0.851   0.164   6.554  0.7771  0.1262  0.0494
 3947SOL    HW123300   0.941   0.135   6.543  1.3694  2.1053 -0.3670
 3947SOL    HW223301   0.821   0.166   6.463 -0.9704  0.2602  0.6287
 3948SOL     OW23302   3.202   0.114   9.525 -0.3087 -0.2989  0.3392
 3948SOL    HW123303   3.123   0.068   9.555 -0.8477  0.1633 -0.3958
 3948SOL    HW223304   3.245   0.115   9.611  1.7827  2.0788 -0.7646
 3949SOL     OW23305   3.519   0.839   6.845 -0.5527  0.3002  0.0569
 3949SOL    HW123306   3.596   0.783   6.855  1.1514  2.3457 -1.5874
 3949SOL    HW223307   3.529   0.870   6.755 -1.1427 -1.0671 -0.4721
 3950SOL     OW23308   2.705   0.571   7.902  0.0336  0.2937  0.1253
 3950SOL    HW123309   2.678   0.591   7.991  0.7668  0.2457  0.3607
 3950SOL    HW223310   2.799   0.585   7.908 -0.0988  0.4117  1.8135
 3951SOL     OW23311   3.841   4.514   8.122 -0.4651  0.2645 -0.0040
 3951SOL    HW123312   3.871   4.500   8.032 -2.6310 -2.5452 -0.2981
 3951SOL    HW223313   3.853   4.428   8.161  3.4592  0.4622 -0.7761
 3952SOL     OW23314   0.861   1.736   4.731 -0.2291  0.0224  0.1499
 3952SOL    HW123315   0.938   1.682   4.715  0.3214  0.6678  0.6366
 3952SOL    HW223316   0.843   1.751   4.638 -1.7860  1.6041  0.7055
 3953SOL     OW23317   4.296   2.328   1.992  0.5283 -0.3628 -0.1829
 3953SOL    HW123318   4.200   2.332   1.993  0.6327  1.2926  1.3870
 3953SOL    HW223319   4.314   2.389   2.063  1.6424  1.3207 -1.9153
 3954SOL     OW23320   0.163   3.657  16.181  0.1108  0.1449  0.0696
 3954SOL    HW123321   0.181   3.563  16.194 -1.5586 -0.4026 -1.5656
 3954SOL    HW223322   0.208   3.694  16.257 -1.4695  1.9380  0.1104
 3955SOL     OW23323   3.979   2.259  11.776 -0.5162  0.2239  0.3423
 3955SOL    HW123324   3.993   2.345  11.815  0.4303  1.2184 -2.1383
 3955SOL    HW223325   3.978   2.201  11.851 -2.2269 -0.3122 -0.0827
 3956SOL     OW23326   3.277   0.873   5.217  0.1245  0.4099  0.0309
 3956SOL    HW123327   3.296   0.951   5.166  0.6885 -0.2877 -0.8260
 3956SOL    HW223328   3.184   0.857   5.197  0.6157 -1.7520 -0.5016
 3957SOL     OW23329   3.443   3.078   8.994 -0.3403  0.5364 -0.3705
 3957SOL    HW123330   3.514   3.042   8.943  0.8028  1.0770  0.8219
 3957SOL    HW223331   3.486   3.158   9.024 -1.0301  1.1114 -0.9173
 3958SOL     OW23332   0.795   2.357  12.145 -0.2738  0.0652 -0.5370
 3958SOL    HW123333   0.789   2.445  12.182  1.0701 -1.0296  2.2119
 3958SOL    HW223334   0.726   2.313  12.194  0.8010  0.8271  1.6425
 3959SOL     OW23335   3.831   2.086   7.631 -0.3220 -1.0116 -0.0470
 3959SOL    HW123336   3.746   2.116   7.600  0.0161  0.9592  0.9309
 3959SOL    HW223337   3.814   2.007   7.681  0.8648 -1.9053 -1.0469
 3960SOL     OW23338   3.258   0.514   8.908 -1.0221  0.4392  0.5868
 3960SOL    HW123339   3.242   0.558   8.824  2.0230  2.5190  1.1009
 3960SOL    HW223340   3.170   0.490   8.936 -0.5384 -0.9203  0.9414
 3961SOL     OW23341   2.002   2.454   7.489  0.1846  0.1746  0.5000
 3961SOL    HW123342   1.943   2.478   7.560 -1.0238  0.9203 -0.7628
 3961SOL    HW223343   2.069   2.417   7.547 -1.6066 -0.1318  2.3838
 3962SOL     OW23344   1.163   1.749   4.032 -0.0312 -0.2877  0.7138
 3962SOL    HW123345   1.110   1.782   4.104  1.7617  1.5624  1.1545
 3962SOL    HW223346   1.251   1.786   4.040  1.3640 -2.7566 -2.8714
 3963SOL     OW23347   3.104   0.889   9.955  0.6915 -0.2525  0.3365
 3963SOL    HW123348   3.111   0.851   9.868 -0.5228 -0.1562  0.1902
 3963SOL    HW223349   3.120   0.811  10.008  0.6013  0.3758  1.2831
 3964SOL     OW23350   4.685   1.320  12.876  0.0888 -0.2763  0.4020
 3964SOL    HW123351   0.053   1.299  12.844 -0.3422 -0.6485 -0.5587
 3964SOL    HW223352   4.706   1.339  12.967 -0.9817 -2.7913  1.1785
 3965SOL     OW23353   1.098   1.683   2.463 -0.2863  0.1840  0.9066
 3965SOL    HW123354   1.113   1.652   2.552 -0.2909  0.2196  0.9199
 3965SOL    HW223355   1.061   1.607   2.419  0.5497 -1.2374  2.6498
 3966SOL     OW23356   0.174   3.745   2.440  0.4063  0.0768 -0.0860
 3966SOL    HW123357   0.268   3.757   2.454  1.0901 -2.8728 -2.2166
 3966SOL    HW223358   0.149   3.785   2.356  2.7182  5.0686  1.5857
 3967SOL     OW23359   1.739   1.611   5.126 -0.2166 -0.0667 -0.1269
 3967SOL    HW123360   1.817   1.622   5.180 -0.1643 -1.8266  0.1436
 3967SOL    HW223361   1.677   1.676   5.159 -1.9862 -2.3110  0.9833
 3968SOL     OW23362   1.388   1.098   8.053  0.3236  0.1295 -0.2666
 3968SOL    HW123363   1.424   1.180   8.017 -2.9862  1.3640 -0.7226
 3968SOL    HW223364   1.438   1.099   8.135 -0.0617  1.7148 -0.0476
 3969SOL     OW23365   0.818   3.106   2.168 -0.2079  0.8297  0.0036
 3969SOL    HW123366   0.804   3.063   2.252 -2.3286  0.4362 -0.5328
 3969SOL    HW223367   0.737   3.156   2.179 -0.1955  0.7183  0.6028
 3970SOL     OW23368   0.232   1.963   3.417 -0.5724 -0.3219 -0.3626
 3970SOL    HW123369   0.302   2.028   3.426 -1.6832  0.7191  0.8689
 3970SOL    HW223370   0.241   1.940   3.324 -1.1003  0.0395 -0.5058
 3971SOL     OW23371   3.828   4.105   5.481 -0.0643  0.3839  0.4053
 3971SOL    HW123372   3.888   4.081   5.410  0.8975  0.4428  1.1874
 3971SOL    HW223373   3.753   4.134   5.429  0.6108 -0.9052 -1.2924
 3972SOL     OW23374   4.162   0.940   0.066  0.1241  0.4958  0.5209
 3972SOL    HW123375   4.220   0.989   0.124  0.8644 -0.4142  0.5446
 3972SOL    HW223376   4.219   0.948  17.670  0.3651  0.6395  0.7181
 3973SOL     OW23377   1.981   0.220  15.319 -0.0719 -0.1170  0.4989
 3973SOL    HW123378   1.921   0.292  15.302 -1.1341 -0.6582  1.9336
 3973SOL    HW223379   1.981   0.191  15.410  0.4241  0.0012  0.5334
 3974SOL     OW23380   1.026   2.776   2.167 -0.4475 -0.4055  0.5410
 3974SOL    HW123381   0.992   2.839   2.103 -0.5584 -2.2469 -1.2330
 3974SOL    HW223382   1.045   2.831   2.243  1.5237 -0.9690  0.4628
 3975SOL     OW23383   4.450   0.135   2.995  0.2574 -0.0899  0.4492
 3975SOL    HW123384   4.534   0.178   3.011 -0.6132  1.3655  1.0922
 3975SOL    HW223385   4.470   0.053   2.951 -0.8709  0.1294 -0.4489
 3976SOL     OW23386   0.448   2.767   0.619 -0.4111  0.4524  0.4403
 3976SOL    HW123387   0.514   2.797   0.681  0.7127 -0.7925 -0.1421
 3976SOL    HW223388   0.449   2.845   0.564 -0.9785 -0.5099 -0.9465
 3977SOL     OW23389   0.864   4.589   4.506  0.0824  0.4504  0.0411
 3977SOL    HW123390   0.773   4.582   4.477  0.2877 -0.4787 -0.3599
 3977SOL    HW223391   0.863   4.532   4.583  0.7670 -0.9874 -1.0392
 3978SOL     OW23392   4.620   2.194   8.871 -0.2001  0.3812 -0.6643
 3978SOL    HW123393   4.546   2.136   8.854  2.8826 -3.5490 -0.5337
 3978SOL    HW223394   4.687   2.141   8.829 -1.2424 -2.4314  1.2575
 3979SOL     OW23395   4.520   1.749  14.275 -0.0350  1.1674  0.9378
 3979SOL    HW123396   4.426   1.745  14.292 -0.4488 -1.7517 -1.9955
 3979SOL    HW223397   4.545   1.750  14.368  2.3367  0.2272  0.2902
 3980SOL     OW23398   1.611   0.551   8.648 -0.2190 -0.1170 -0.4419
 3980SOL    HW123399   1.593   0.479   8.709  1.7376 -0.4919 -0.3252
 3980SOL    HW223400   1.635   0.492   8.577  0.1069 -0.1458 -0.3060
 3981SOL     OW23401   1.283   4.418  13.454 -0.1645  0.1121 -0.6736
 3981SOL    HW123402   1.305   4.407  13.361 -0.5147  3.1117 -1.0882
 3981SOL    HW223403   1.234   4.499  13.442 -1.6212 -0.3667  2.0347
 3982SOL     OW23404   4.394   0.392   5.849  1.3334  0.1502 -0.3586
 3982SOL    HW123405   4.362   0.303   5.836  1.1957  0.2188 -0.4767
 3982SOL    HW223406   4.354   0.452   5.786 -0.5741  1.9598  2.5787
 3983SOL     OW23407   3.167   1.867   6.804 -0.2062 -0.1127 -0.0815
 3983SOL    HW123408   3.194   1.959   6.814  1.2514 -0.2923 -2.4101
 3983SOL    HW223409   3.128   1.853   6.890  1.4991  0.2326  0.7537
 3984SOL     OW23410   2.117   1.903   3.856  0.2857 -0.3023 -0.0886
 3984SOL    HW123411   2.045   1.841   3.865 -1.2767  1.5698  0.4199
 3984SOL    HW223412   2.186   1.842   3.832  0.1520 -0.3293 -0.4047
 3985SOL     OW23413   1.432   0.474   2.734 -1.0815 -0.1703 -0.2038
 3985SOL    HW123414   1.353   0.458   2.682 -0.9293 -3.4034  0.5664
 3985SOL    HW223415   1.461   0.386   2.759  1.8517  1.3990  1.9903
 3986SOL     OW23416   0.645   1.902   8.966  0.2946  0.0346 -0.6342
 3986SOL    HW123417   0.627   1.809   8.954  2.9119 -0.8719  2.6069
 3986SOL    HW223418   0.740   1.891   8.976  0.1713 -2.5002 -2.1816
 3987SOL     OW23419   0.409   2.976   5.990 -0.2010  0.0338 -0.3627
 3987SOL    HW123420   0.361   2.899   6.019  0.3266 -0.7627 -1.5718
 3987SOL    HW223421   0.397   2.973   5.895  0.6469 -0.6982 -0.4527
 3988SOL     OW23422   3.555   4.061  17.511  0.4144 -0.1442  0.0369
 3988SOL    HW123423   3.644   4.092  17.495  0.2701  0.9295  1.3967
 3988SOL    HW223424   3.524   4.149  17.488 -3.3567 -1.7216 -1.0232
 3989SOL     OW23425   3.648   4.297   6.088  0.2536  0.0771  0.1406
 3989SOL    HW123426   3.594   4.221   6.111 -1.5362  1.7086  1.3748
 3989SOL    HW223427   3.629   4.304   5.994 -2.3876  0.5767  0.7278
 3990SOL     OW23428   3.815   2.596   1.555 -0.5669  0.4588  0.7137
 3990SOL    HW123429   3.807   2.615   1.462 -0.7004  1.8470  1.0101
 3990SOL    HW223430   3.856   2.676   1.585  2.4130 -0.6883 -0.3163
 3991SOL     OW23431   2.869   4.576   7.789  0.3198  0.3910  1.2380
 3991SOL    HW123432   2.842   4.546   7.702 -0.2519  2.6101  0.6637
 3991SOL    HW223433   2.786   4.581   7.836 -1.2467 -1.5267 -1.2656
 3992SOL     OW23434   1.487   3.474   2.994 -0.1917  0.1766  0.3052
 3992SOL    HW123435   1.471   3.401   2.934  0.4719  0.8521 -0.7040
 3992SOL    HW223436   1.506   3.548   2.935 -0.1390 -0.6410 -0.7040
 3993SOL     OW23437   0.114   1.394  15.019 -0.1885  0.2289 -0.8953
 3993SOL    HW123438   0.173   1.451  14.969 -1.2398  1.3125 -0.8916
 3993SOL    HW223439   0.093   1.451  15.093 -0.7943 -1.3858  0.1750
 3994SOL     OW23440   3.495   4.595  16.692 -0.3062 -0.0964 -0.0023
 3994SOL    HW123441   3.537   4.625  16.773 -1.9459  0.0567  0.7899
 3994SOL    HW223442   3.403   4.602  16.718  0.2730 -0.1655  2.0588
 3995SOL     OW23443   4.325   4.059   5.263  0.1349  0.6074 -0.2593
 3995SOL    HW123444   4.348   4.152   5.266  0.2812  0.6288 -2.7379
 3995SOL    HW223445   4.322   4.034   5.171 -2.1984 -1.6436  0.4168
 3996SOL     OW23446   3.732   2.242   7.002 -0.1766  0.8183  0.5372
 3996SOL    HW123447   3.648   2.199   7.016 -0.5281  1.4138  0.2032
 3996SOL    HW223448   3.723   2.274   6.912  0.4185  0.3520  0.3046
 3997SOL     OW23449   3.327   0.968   2.606  0.7284  0.0228  0.7088
 3997SOL    HW123450   3.289   0.881   2.599  0.6397  0.1683 -0.6501
 3997SOL    HW223451   3.347   0.975   2.513 -1.1830  2.2821  0.4611
 3998SOL     OW23452   4.038   3.043   7.479 -0.2911 -0.4795 -0.3803
 3998SOL    HW123453   3.956   3.004   7.509 -0.9356  2.0732  1.2099
 3998SOL    HW223454   4.009   3.111   7.419  1.5608 -1.3331 -2.2312
 3999SOL     OW23455   3.772   2.813   3.990 -0.3108 -0.3073  0.4823
 3999SOL    HW123456   3.693   2.770   3.958 -1.0409  1.6862 -0.3668
 3999SOL    HW223457   3.826   2.826   3.912 -0.6845 -0.8891  0.1205
 4000SOL     OW23458   3.175   2.913   4.675  0.2233 -0.8714  0.3301
 4000SOL    HW123459   3.233   2.978   4.716 -1.0788  2.6889 -3.4444
 4000SOL    HW223460   3.240   2.847   4.649  0.5689 -0.2076 -0.4966
 4001SOL     OW23461   0.873   4.299   7.011  0.4775 -0.6593  0.4420
 4001SOL    HW123462   0.833   4.222   7.053  1.5685 -0.8346  1.1494
 4001SOL    HW223463   0.957   4.306   7.056  0.0885  1.1138  0.8853
 4002SOL     OW23464   0.064   0.475   3.319  0.2458 -0.2424 -0.3263
 4002SOL    HW123465   0.071   0.550   3.378 -0.0498 -0.3537 -0.1533
 4002SOL    HW223466   4.711   0.505   3.265  0.3635 -0.9586 -0.8871
 4003SOL     OW23467   3.650   1.239   9.487 -0.4678 -0.5518 -0.2620
 4003SOL    HW123468   3.616   1.161   9.444 -1.2966  0.4788 -1.4945
 4003SOL    HW223469   3.641   1.207   9.576  0.4351  2.7249  0.9968
 4004SOL     OW23470   3.985   3.500  15.222 -0.6068  0.4604  0.0265
 4004SOL    HW123471   4.060   3.446  15.247 -0.2601  1.1943  0.5734
 4004SOL    HW223472   3.924   3.444  15.271  0.4744 -1.5744 -0.9280
 4005SOL     OW23473   4.087   1.804   4.650 -0.1521 -0.1144  0.2357
 4005SOL    HW123474   4.159   1.864   4.671  2.4957 -2.8281 -1.0429
 4005SOL    HW223475   4.066   1.769   4.736  1.5061 -0.4042  0.5330
 4006SOL     OW23476   3.456   0.532   2.784  0.2003  0.1231  0.3194
 4006SOL    HW123477   3.364   0.530   2.758  0.2750  0.8640  0.0144
 4006SOL    HW223478   3.451   0.599   2.852  2.0778  0.9652 -0.3814
 4007SOL     OW23479   2.941   2.874   3.503  0.1695 -0.2411  0.0340
 4007SOL    HW123480   2.990   2.883   3.421  0.9144  3.1417  0.8388
 4007SOL    HW223481   2.902   2.962   3.504  0.0849 -0.2870  0.7383
 4008SOL     OW23482   1.996   4.504   2.432  0.4298 -0.2868 -0.3084
 4008SOL    HW123483   2.017   4.519   2.524 -1.5616  3.0270 -0.4094
 4008SOL    HW223484   2.081   4.485   2.391  0.6946 -0.6450  0.3998
 4009SOL     OW23485   2.737   2.691   9.906  0.6287  0.1366 -0.2053
 4009SOL    HW123486   2.687   2.719   9.829 -1.0582  0.6848  1.0861
 4009SOL    HW223487   2.764   2.770   9.953 -1.1698  0.4276  0.3279
 4010SOL     OW23488   0.104   2.994   5.869  0.1598  0.3733  0.3131
 4010SOL    HW123489   0.122   2.927   5.803  1.2912  0.4715  0.5313
 4010SOL    HW223490   0.189   3.037   5.878  0.1913  0.3006  0.3615
 4011SOL     OW23491   0.519   3.663   1.776  0.3649  0.2238 -0.4008
 4011SOL    HW123492   0.436   3.617   1.789 -0.3254  1.6703  0.3616
 4011SOL    HW223493   0.579   3.596   1.809  0.0404  0.3900  0.5320
 4012SOL     OW23494   2.790   4.430   9.427  0.0541 -0.5600  0.4235
 4012SOL    HW123495   2.879   4.454   9.400 -0.4987  1.7147  0.5705
 4012SOL    HW223496   2.754   4.510   9.465 -0.7232 -0.1716 -1.1493
 4013SOL     OW23497   2.039   2.078  16.560  0.3714  0.5829 -0.2951
 4013SOL    HW123498   1.993   2.122  16.489 -1.0992  0.3276  0.5058
 4013SOL    HW223499   2.116   2.136  16.558  1.6852 -1.1401 -0.0700
 4014SOL     OW23500   3.303   1.402   7.325 -0.0204 -0.3548  0.1444
 4014SOL    HW123501   3.272   1.443   7.244  0.1665 -0.4431  0.0263
 4014SOL    HW223502   3.353   1.331   7.284  0.7635 -0.1385  0.7222
 4015SOL     OW23503   3.413   1.869   9.065 -0.1027 -0.0219  0.5566
 4015SOL    HW123504   3.318   1.864   9.059 -0.2607  0.2775  2.8712
 4015SOL    HW223505   3.414   1.859   9.160  0.7252  0.4564  0.5982
 4016SOL     OW23506   0.396   2.597   5.371 -0.2869  0.4172  0.2218
 4016SOL    HW123507   0.319   2.598   5.313 -1.7326  1.1242  2.1576
 4016SOL    HW223508   0.439   2.676   5.338 -2.1194  1.6138  0.6718
 4017SOL     OW23509   2.654   3.512  12.420  0.1256  0.1832  0.1675
 4017SOL    HW123510   2.743   3.480  12.407 -0.1349 -0.0512 -1.0291
 4017SOL    HW223511   2.662   3.527  12.514 -0.9147  0.9208  0.1358
 4018SOL     OW23512   4.643   2.926  17.603 -0.6686  0.3831  0.3618
 4018SOL    HW123513   4.568   2.985  17.606  0.1758  1.5727 -1.3729
 4018SOL    HW223514   4.707   2.998  17.609  1.5256 -1.5554  0.2140
 4019SOL     OW23515   1.970   1.982   2.975 -0.3895 -0.4277  0.0918
 4019SOL    HW123516   2.016   1.938   3.046  1.8016  0.4480 -0.7971
 4019SOL    HW223517   1.933   1.906   2.930 -1.1839 -0.8413  1.4518
 4020SOL     OW23518   4.235   2.626  14.761 -0.2666 -0.4088 -0.3169
 4020SOL    HW123519   4.292   2.655  14.833 -0.7212  0.9494 -0.4954
 4020SOL    HW223520   4.292   2.628  14.684  0.6442  0.7926  0.3877
 4021SOL     OW23521   4.567   3.851   3.917 -0.0305  0.1878  0.2603
 4021SOL    HW123522   4.509   3.844   3.993  0.4300 -2.2624  0.3936
 4021SOL    HW223523   4.547   3.777   3.859 -0.7697 -0.0890  0.8649
 4022SOL     OW23524   2.677   4.100   6.913 -0.3046 -0.0860  0.5756
 4022SOL    HW123525   2.760   4.069   6.876 -0.2559 -0.9633  1.4279
 4022SOL    HW223526   2.708   4.137   6.995 -0.0781 -1.9144  1.3266
 4023SOL     OW23527   1.273   4.166   8.747 -0.4292  0.2992  0.0764
 4023SOL    HW123528   1.250   4.157   8.839  2.4435 -2.1411  0.5315
 4023SOL    HW223529   1.318   4.086   8.723  0.9838  1.0544  0.2217
 4024SOL     OW23530   0.089   1.404   7.327 -0.0583  0.4785  0.0806
 4024SOL    HW123531   0.013   1.435   7.376 -0.9444 -0.1819 -0.8788
 4024SOL    HW223532   0.154   1.407   7.397  1.3234 -0.9263 -1.1285
 4025SOL     OW23533   4.560   2.072   2.168  0.3360  0.2107 -0.2058
 4025SOL    HW123534   4.516   2.106   2.091  0.5673 -0.6383 -0.7146
 4025SOL    HW223535   4.509   1.991   2.175  1.5014 -0.5519 -0.6104
 4026SOL     OW23536   4.012   1.365   3.355 -0.5753 -0.1633  0.4376
 4026SOL    HW123537   4.078   1.386   3.421 -1.2609 -0.2671  1.1588
 4026SOL    HW223538   4.064   1.363   3.275 -1.7587 -1.1757 -0.3042
 4027SOL     OW23539   0.264   1.499   4.273 -0.2380  0.0711  0.3049
 4027SOL    HW123540   0.299   1.410   4.266  0.1935  0.2971 -0.3998
 4027SOL    HW223541   0.179   1.499   4.230  0.1813  0.1257 -0.5263
 4028SOL     OW23542   4.709   3.701  13.472  0.1723 -0.0705 -0.6566
 4028SOL    HW123543   4.708   3.721  13.566 -0.5261 -3.7270  0.0912
 4028SOL    HW223544   4.700   3.790  13.437 -1.0629 -0.6574 -1.8328
 4029SOL     OW23545   4.449   1.995   8.840 -0.0960 -0.6044 -0.4224
 4029SOL    HW123546   4.486   1.954   8.762  0.7519  2.4795 -1.6342
 4029SOL    HW223547   4.374   2.042   8.803 -0.0663  1.0700  1.6339
 4030SOL     OW23548   1.337   2.447  13.459  0.0984  0.3014 -0.1813
 4030SOL    HW123549   1.403   2.466  13.393  0.3310  2.9000  0.8244
 4030SOL    HW223550   1.383   2.474  13.539  2.2717  2.6554 -2.2550
 4031SOL     OW23551   0.556   2.413  12.619  0.0113 -0.2253  0.4544
 4031SOL    HW123552   0.537   2.451  12.704 -0.1422 -0.2947  0.4515
 4031SOL    HW223553   0.649   2.393  12.616 -0.1768 -0.8382 -1.3345
 4032SOL     OW23554   0.855   2.426   0.773 -0.0517  0.7862 -0.6352
 4032SOL    HW123555   0.896   2.422   0.860 -2.5898 -1.2974  0.4832
 4032SOL    HW223556   0.922   2.404   0.709 -0.7998  1.7913 -1.7623
 4033SOL     OW23557   2.660   2.749   4.128  0.0166  0.6711 -0.0189
 4033SOL    HW123558   2.598   2.770   4.197 -0.6003 -1.3914  0.0659
 4033SOL    HW223559   2.609   2.687   4.075  0.4498 -0.6360  1.1047
 4034SOL     OW23560   1.813   0.859   6.051 -0.0214  0.4892  0.4221
 4034SOL    HW123561   1.730   0.901   6.029 -1.0337 -0.6028  2.1566
 4034SOL    HW223562   1.825   0.812   5.969 -0.0477 -0.6249  1.0593
 4035SOL     OW23563   0.921   0.439  12.759  0.3869 -0.0364 -0.2587
 4035SOL    HW123564   0.836   0.431  12.803  0.9558 -0.4603  0.7741
 4035SOL    HW223565   0.987   0.418  12.826  0.2614  0.1580 -0.0755
 4036SOL     OW23566   2.204   1.083   3.354  0.4641  0.4326  0.7663
 4036SOL    HW123567   2.144   1.049   3.287  0.2183  1.0694  0.6630
 4036SOL    HW223568   2.231   1.165   3.312  4.0959  0.4893  3.1563
 4037SOL     OW23569   2.381   3.364   4.670  0.0458 -0.6415  0.0387
 4037SOL    HW123570   2.443   3.387   4.739 -0.6383  0.6119  0.2350
 4037SOL    HW223571   2.430   3.301   4.617  2.0206  1.2926 -0.4673
 4038SOL     OW23572   3.374   4.643   3.208 -0.1347 -0.1519  0.3048
 4038SOL    HW123573   3.424   4.609   3.133  2.4591  3.0074  0.6388
 4038SOL    HW223574   3.337   4.562   3.243 -0.5788 -0.1180 -0.0878
 4039SOL     OW23575   3.701   1.522  12.295  0.4962 -0.1320 -0.1315
 4039SOL    HW123576   3.748   1.500  12.375  0.7073 -0.4652 -0.3467
 4039SOL    HW223577   3.643   1.585  12.337  1.7432 -0.8364  2.6537
 4040SOL     OW23578   0.954   1.343   1.498  0.1033 -0.3478  0.6039
 4040SOL    HW123579   0.893   1.309   1.433  0.2689 -1.1119  0.8520
 4040SOL    HW223580   0.940   1.286   1.574 -0.5992 -2.4719 -1.1601
 4041SOL     OW23581   4.070   3.596   4.033  0.4432 -0.0285 -0.0040
 4041SOL    HW123582   3.998   3.594   4.096  1.0382  0.8310  0.6980
 4041SOL    HW223583   4.038   3.537   3.965  0.3307  0.4179 -0.3386
 4042SOL     OW23584   0.877   0.655   1.242  0.5505  0.4148  0.1470
 4042SOL    HW123585   0.899   0.691   1.156  0.3538  0.0407 -0.0606
 4042SOL    HW223586   0.862   0.565   1.213 -1.2367  0.8159 -0.1483
 4043SOL     OW23587   4.013   1.469  12.984  0.3341 -0.4832  0.0451
 4043SOL    HW123588   3.951   1.428  12.923  0.1168  0.7285 -0.5440
 4043SOL    HW223589   4.099   1.462  12.944  0.5133 -0.5109  0.4354
 4044SOL     OW23590   4.145   0.330   7.964  0.6215 -0.1508  0.0027
 4044SOL    HW123591   4.113   0.305   8.050  0.3555 -1.3444 -0.4509
 4044SOL    HW223592   4.165   0.240   7.940 -1.0891 -0.6237  0.4142
 4045SOL     OW23593   4.443   0.797   4.713 -0.0587 -0.0055  0.0740
 4045SOL    HW123594   4.499   0.862   4.669  1.2633 -0.6158  0.8607
 4045SOL    HW223595   4.388   0.856   4.764  2.2451  2.4856 -0.2887
 4046SOL     OW23596   2.173   4.099   3.945 -0.0177 -0.0771  0.2731
 4046SOL    HW123597   2.174   4.081   3.851 -0.9485 -0.1505  0.2772
 4046SOL    HW223598   2.266   4.123   3.954  0.6100 -2.3060 -0.1690
 4047SOL     OW23599   3.943   3.572   1.647  0.5795  0.5730 -0.1463
 4047SOL    HW123600   3.941   3.478   1.627  0.2362  0.5214  0.1390
 4047SOL    HW223601   3.982   3.553   1.733  1.7398 -0.2951 -0.8599
 4048SOL     OW23602   3.363   1.831   9.333  0.0765  0.5123 -0.2665
 4048SOL    HW123603   3.269   1.842   9.347  0.2644 -0.0906  1.4368
 4048SOL    HW223604   3.378   1.799   9.421 -0.1696  0.5469 -0.2107
 4049SOL     OW23605   2.519   0.141   9.543  0.0092  0.4797  0.5194
 4049SOL    HW123606   2.485   0.225   9.573  1.1430  1.2043 -0.2094
 4049SOL    HW223607   2.445   0.088   9.572  0.8086  0.3478  2.2988
 4050SOL     OW23608   4.304   2.513   3.825  0.1578 -0.4929 -1.1303
 4050SOL    HW123609   4.306   2.539   3.917  0.8066 -0.4195 -1.1613
 4050SOL    HW223610   4.354   2.584   3.784  1.9703 -0.8383  0.5027
 4051SOL     OW23611   0.178   4.337   5.960  0.3360 -0.1656 -0.3352
 4051SOL    HW123612   0.177   4.425   5.999 -1.2505 -0.0382 -0.6720
 4051SOL    HW223613   0.196   4.355   5.867 -1.7698 -3.5027 -1.3990
 4052SOL     OW23614   2.480   1.274   5.959 -0.4527 -0.2418  0.4543
 4052SOL    HW123615   2.558   1.225   5.986 -0.1965  2.0983  3.9586
 4052SOL    HW223616   2.520   1.311   5.880 -0.4517  0.1292  0.6325
 4053SOL     OW23617   4.191   1.101   3.731 -0.2965 -0.4924  0.5552
 4053SOL    HW123618   4.196   1.103   3.636  1.4030  2.9925  0.6967
 4053SOL    HW223619   4.283   1.082   3.751 -0.3302  0.6374  1.8301
 4054SOL     OW23620   1.310   1.418   9.412  0.0593  0.3175  0.0007
 4054SOL    HW123621   1.306   1.502   9.457  1.8620  0.7101 -0.5544
 4054SOL    HW223622   1.306   1.436   9.318  1.8977  1.3872  0.1345
 4055SOL     OW23623   2.678   0.833   8.810  0.3776  0.7402 -0.9706
 4055SOL    HW123624   2.771   0.855   8.813  0.1592  1.8761 -2.7641
 4055SOL    HW223625   2.687   0.741   8.783 -1.8842  0.4194 -0.6872
 4056SOL     OW23626   3.375   0.818  12.964  0.3714  0.1555  0.4081
 4056SOL    HW123627   3.293   0.774  12.987  1.7225 -1.4683  2.1060
 4056SOL    HW223628   3.369   0.843  12.871  0.6890  1.1631  0.6566
 4057SOL     OW23629   2.355   1.960   2.317  0.0157  0.1268  0.1845
 4057SOL    HW123630   2.308   1.905   2.254 -2.0571 -0.3667  2.1937
 4057SOL    HW223631   2.398   1.892   2.369  2.2755  0.9528 -0.5882
 4058SOL     OW23632   3.760   0.474   5.051  0.2012  0.5477 -0.8969
 4058SOL    HW123633   3.828   0.448   5.112  0.2623  1.2115 -0.6774
 4058SOL    HW223634   3.812   0.535   4.998  0.7159  0.1435 -0.8497
 4059SOL     OW23635   1.173   0.787   3.624  0.3403 -0.1641  0.0896
 4059SOL    HW123636   1.136   0.700   3.635 -2.5310  0.7576 -2.1684
 4059SOL    HW223637   1.254   0.752   3.588  1.3492  2.4395 -0.1438
 4060SOL     OW23638   0.593   2.223   9.053 -0.5024  0.0164  0.0708
 4060SOL    HW123639   0.675   2.182   9.025 -1.7420 -3.8381  1.9453
 4060SOL    HW223640   0.544   2.142   9.068  1.0098 -0.9665 -0.2832
 4061SOL     OW23641   4.394   0.735   1.242 -0.5173 -0.4119 -0.2308
 4061SOL    HW123642   4.411   0.686   1.323  1.1343 -1.2860 -1.1120
 4061SOL    HW223643   4.303   0.704   1.240 -1.2491  1.6032  1.3564
 4062SOL     OW23644   1.201   2.528   1.109 -0.9056  0.3937  0.3929
 4062SOL    HW123645   1.255   2.454   1.139  1.9901  1.1834 -2.8071
 4062SOL    HW223646   1.146   2.482   1.045 -1.8634  0.5409  1.1148
 4063SOL     OW23647   0.624   2.002   5.620  0.3068 -0.2002  0.0556
 4063SOL    HW123648   0.558   2.018   5.689 -0.2589 -2.0188 -0.0730
 4063SOL    HW223649   0.699   2.048   5.656  0.2475 -0.9165  1.1023
 4064SOL     OW23650   1.430   2.921   5.655  0.2399 -0.2854 -0.1991
 4064SOL    HW123651   1.421   2.956   5.566  0.9991 -1.0571 -0.5817
 4064SOL    HW223652   1.365   2.851   5.659  0.9705 -0.9316  0.3768
 4065SOL     OW23653   3.395   1.693   5.777  0.3057 -0.2520  0.3161
 4065SOL    HW123654   3.411   1.636   5.852  1.3527  1.1325  1.1526
 4065SOL    HW223655   3.340   1.641   5.718 -0.0700  1.4867 -0.8759
 4066SOL     OW23656   0.300   1.292  15.511 -0.0904 -0.2981 -0.0129
 4066SOL    HW123657   0.307   1.218  15.571 -0.8132 -2.1740 -2.2209
 4066SOL    HW223658   0.205   1.302  15.500 -0.2263  0.9430  2.2753
 4067SOL     OW23659   1.420   3.294   2.783  0.2855 -0.2568 -0.4284
 4067SOL    HW123660   1.374   3.365   2.738 -0.1556 -1.1375 -1.3874
 4067SOL    HW223661   1.346   3.254   2.830 -1.2148  1.3365 -1.4323
 4068SOL     OW23662   2.142   3.586   5.295  0.1739 -0.1038  0.1023
 4068SOL    HW123663   2.055   3.619   5.320 -0.6359 -1.2246 -1.2740
 4068SOL    HW223664   2.113   3.500   5.265 -0.6850  0.3654 -0.4393
 4069SOL     OW23665   2.407   0.184  13.639 -0.6809 -0.8636 -0.4130
 4069SOL    HW123666   2.382   0.273  13.613 -1.3289 -0.8742  0.1735
 4069SOL    HW223667   2.321   0.142  13.645 -0.1856 -1.4391  2.3507
 4070SOL     OW23668   0.223   2.882   1.266 -0.5912 -0.2404 -0.4647
 4070SOL    HW123669   0.180   2.850   1.187  0.6246  0.2289 -1.3143
 4070SOL    HW223670   0.289   2.815   1.286  1.1781  1.8122  0.5126
 4071SOL     OW23671   3.619   3.750  12.080 -0.0281  0.1948 -0.2280
 4071SOL    HW123672   3.576   3.834  12.066 -1.0927 -0.1129  1.2135
 4071SOL    HW223673   3.687   3.746  12.013  0.4877 -2.9018  0.4595
 4072SOL     OW23674   0.065   2.930   5.402 -0.3830 -0.1066  0.4244
 4072SOL    HW123675   0.052   2.990   5.476  0.6290 -0.7403  1.1144
 4072SOL    HW223676   4.699   2.921   5.360 -0.7857  0.2552  1.1710
 4073SOL     OW23677   4.099   3.516   0.954 -0.2732  0.1406  0.1340
 4073SOL    HW123678   4.044   3.590   0.983 -0.6796 -0.5870  1.2539
 4073SOL    HW223679   4.030   3.468   0.907 -1.2855  1.1860  0.5498
 4074SOL     OW23680   0.970   2.442   1.369  0.0463  0.5686 -0.0099
 4074SOL    HW123681   1.023   2.520   1.357 -0.3738  1.0313  1.1931
 4074SOL    HW223682   0.968   2.421   1.462  0.7699  1.2031  0.1402
 4075SOL     OW23683   2.618   1.505  12.799 -0.3250  0.6389 -0.3496
 4075SOL    HW123684   2.527   1.478  12.808 -0.7101  1.1153 -2.9043
 4075SOL    HW223685   2.642   1.441  12.732  1.1572 -1.0172  1.7634
 4076SOL     OW23686   0.820   2.220   2.294  0.3995 -0.7198  0.0963
 4076SOL    HW123687   0.843   2.313   2.296  2.1736 -1.1711  0.7684
 4076SOL    HW223688   0.726   2.209   2.279  0.0422  1.0660  0.9804
 4077SOL     OW23689   1.898   0.680  10.567  0.5322  0.3281  0.1121
 4077SOL    HW123690   1.837   0.683  10.641  0.5821 -0.2848  0.1748
 4077SOL    HW223691   1.955   0.606  10.588 -1.2418 -1.3080 -0.8890
 4078SOL     OW23692   2.107   3.999   6.237 -0.3280 -0.0703  0.0883
 4078SOL    HW123693   2.035   3.974   6.179 -0.9008 -1.1632  1.2745
 4078SOL    HW223694   2.065   4.007   6.323  0.8944 -2.6185  0.9400
 4079SOL     OW23695   3.203   1.041  14.109  0.3858  0.3613 -0.0297
 4079SOL    HW123696   3.163   1.113  14.060  1.9273  2.3217  1.5572
 4079SOL    HW223697   3.207   0.968  14.048  0.6311  0.8008 -0.5313
 4080SOL     OW23698   0.016   3.303   1.522 -0.1842  0.2637  0.2110
 4080SOL    HW123699   4.711   3.342   1.438 -2.2390 -1.1984  0.1234
 4080SOL    HW223700   0.086   3.244   1.493 -0.3599  0.1514  0.0122
 4081SOL     OW23701   1.201   4.509   3.793 -0.5311  0.2300 -0.3246
 4081SOL    HW123702   1.164   4.566   3.861 -0.2202 -1.2870  1.1231
 4081SOL    HW223703   1.136   4.440   3.785 -1.1000  0.8804 -1.3018
 4082SOL     OW23704   3.403   0.030   6.268 -0.1940 -0.1630  0.1417
 4082SOL    HW123705   3.470   0.087   6.230  1.5309 -1.6572  0.9576
 4082SOL    HW223706   3.386   4.679   6.205 -0.6425 -0.8911  1.0833
 4083SOL     OW23707   0.568   2.592   2.229 -0.1821 -0.1267 -0.2372
 4083SOL    HW123708   0.662   2.586   2.244 -0.3518 -3.7450 -0.6449
 4083SOL    HW223709   0.552   2.540   2.150  3.6572 -1.0339 -0.3848
 4084SOL     OW23710   4.570   4.135  10.717 -0.3875  0.0490 -0.1485
 4084SOL    HW123711   4.525   4.124  10.801  0.1515  0.4342  0.1857
 4084SOL    HW223712   4.631   4.062  10.723  0.9046  1.1362 -0.1974
 4085SOL     OW23713   0.461   3.708   6.178 -0.3749 -0.2282 -0.1707
 4085SOL    HW123714   0.521   3.738   6.246 -0.6382 -0.4540  0.1610
 4085SOL    HW223715   0.519   3.711   6.102  2.5561 -0.1703  2.0698
 4086SOL     OW23716   0.129   1.805   2.830 -0.5755  0.0432  0.5973
 4086SOL    HW123717   0.079   1.868   2.778  1.5113  1.5516  0.4246
 4086SOL    HW223718   0.183   1.860   2.887  0.4728 -0.8157  0.4417
 4087SOL     OW23719   3.427   4.057   1.693 -0.0992 -0.2824  0.1681
 4087SOL    HW123720   3.408   4.143   1.732  1.0191 -0.8244  1.9289
 4087SOL    HW223721   3.514   4.077   1.660  0.2200 -0.1970  1.0485
 4088SOL     OW23722   0.286   3.497   5.762  0.1369  0.2368  0.0283
 4088SOL    HW123723   0.368   3.543   5.745 -0.6779  0.2724 -3.8076
 4088SOL    HW223724   0.306   3.489   5.855 -0.3078 -1.9667 -0.0660
 4089SOL     OW23725   1.041   1.184   5.692 -0.2136  0.2236 -0.2971
 4089SOL    HW123726   1.054   1.276   5.716 -1.2544  0.8543 -2.0487
 4089SOL    HW223727   1.100   1.141   5.753  0.5586  0.4166 -0.9108
 4090SOL     OW23728   4.561   0.894   5.594  0.4136 -0.6326 -0.0724
 4090SOL    HW123729   4.587   0.931   5.509  0.4619  1.0172  0.6555
 4090SOL    HW223730   4.481   0.850   5.567  0.3466 -1.2597  1.1437
 4091SOL     OW23731   1.390   0.332   4.965 -0.8210 -0.7451  0.3804
 4091SOL    HW123732   1.416   0.416   5.001 -1.0682 -0.0608 -1.0717
 4091SOL    HW223733   1.452   0.269   5.002 -2.6862 -2.5769  0.3949
 4092SOL     OW23734   0.837   2.430   6.062  0.2038 -0.4987 -0.1595
 4092SOL    HW123735   0.912   2.484   6.086  0.9245 -1.0854 -1.1342
 4092SOL    HW223736   0.856   2.351   6.113 -3.2273 -0.7842  0.7089
 4093SOL     OW23737   1.834   2.164  12.451 -0.2690 -0.3516 -0.1235
 4093SOL    HW123738   1.764   2.220  12.420  0.2716  0.7781  0.6790
 4093SOL    HW223739   1.781   2.085  12.460 -0.1988 -0.5918 -1.8068
 4094SOL     OW23740   0.663   3.547   7.992  0.1768  0.0895 -0.3112
 4094SOL    HW123741   0.603   3.577   7.924 -1.0777 -1.7657 -0.0350
 4094SOL    HW223742   0.618   3.541   8.075 -0.9462  0.6444 -0.8849
 4095SOL     OW23743   2.895   0.600   7.055  0.3651 -0.1534  0.5627
 4095SOL    HW123744   2.877   0.543   6.980 -1.3176  1.5901 -0.3323
 4095SOL    HW223745   2.827   0.568   7.115  0.8763 -1.3006  0.5455
 4096SOL     OW23746   0.275   0.809   6.368  0.0973  0.1819 -0.7131
 4096SOL    HW123747   0.362   0.830   6.404  0.2746  0.5335 -1.3448
 4096SOL    HW223748   0.220   0.859   6.429  2.2931  4.1127 -1.9076
 4097SOL     OW23749   0.698   1.846  17.514  0.0695 -0.4967  0.3743
 4097SOL    HW123750   0.637   1.885  17.452  1.9444 -0.7471 -1.6416
 4097SOL    HW223751   0.783   1.882  17.488  1.3883 -0.0993  5.2464
 4098SOL     OW23752   4.217   2.028   9.444 -0.4806 -0.4578 -0.3415
 4098SOL    HW123753   4.172   2.105   9.409 -1.3012 -0.5547  0.5161
 4098SOL    HW223754   4.187   2.017   9.534 -1.3666  0.5337 -0.5134
 4099SOL     OW23755   3.151   0.216   4.444  0.0824 -0.4552  0.1442
 4099SOL    HW123756   3.208   0.293   4.446 -1.8248  0.9717 -1.2289
 4099SOL    HW223757   3.125   0.211   4.352  2.2988 -2.1974 -0.4043
 4100SOL     OW23758   3.193   3.982   9.533  0.1558 -0.3995 -0.2931
 4100SOL    HW123759   3.146   3.924   9.593  1.2070 -1.5775 -0.6028
 4100SOL    HW223760   3.147   4.066   9.535  1.9670  0.5711  0.6868
 4101SOL     OW23761   4.070   2.976   1.640 -0.0892  0.4723 -0.5036
 4101SOL    HW123762   4.157   2.984   1.681 -0.6283 -3.2185  1.3425
 4101SOL    HW223763   4.077   2.882   1.623  1.6296  0.4133  0.4628
 4102SOL     OW23764   4.474   2.023   2.953 -0.0120  0.0474 -0.3352
 4102SOL    HW123765   4.401   2.016   2.892 -1.0180 -1.1873  1.0061
 4102SOL    HW223766   4.469   2.117   2.969  1.3276  0.0029  0.3225
 4103SOL     OW23767   0.858   3.290   3.679  0.5599  0.2677 -0.3033
 4103SOL    HW123768   0.858   3.232   3.755  0.3290  1.6890  0.7872
 4103SOL    HW223769   0.780   3.345   3.689 -0.7994 -2.1612  2.4828
 4104SOL     OW23770   3.853   2.708   5.423 -0.0972  0.1330  0.5269
 4104SOL    HW123771   3.792   2.696   5.496  0.0524 -0.7295  0.5164
 4104SOL    HW223772   3.824   2.792   5.390  1.4004  0.6370  0.5131
 4105SOL     OW23773   0.947   1.628  11.895 -0.1723 -0.3659  0.7580
 4105SOL    HW123774   0.942   1.612  11.801  2.5869  0.2201  0.5241
 4105SOL    HW223775   1.010   1.701  11.898  0.2370 -0.7119  0.5182
 4106SOL     OW23776   3.414   1.741   9.602 -0.1402  0.3830  0.2417
 4106SOL    HW123777   3.372   1.683   9.666 -2.8842  0.7822 -1.1937
 4106SOL    HW223778   3.420   1.813   9.665  3.8518  0.6327 -0.4226
 4107SOL     OW23779   2.909   0.842   9.316  0.3019 -0.2794 -0.1145
 4107SOL    HW123780   2.933   0.820   9.226  0.7380 -0.5663  0.0765
 4107SOL    HW223781   2.921   0.936   9.320  1.2223 -0.5237  2.7934
 4108SOL     OW23782   0.778   3.647   2.500  0.9750  0.3361  0.4681
 4108SOL    HW123783   0.824   3.571   2.464 -3.2859 -2.3841  0.7331
 4108SOL    HW223784   0.781   3.641   2.595 -1.2760 -1.9880  0.3924
 4109SOL     OW23785   1.015   3.040   5.737  0.1189 -0.5168  0.0318
 4109SOL    HW123786   0.996   2.959   5.689 -0.2542  0.3684 -1.3260
 4109SOL    HW223787   0.929   3.066   5.769  0.3064 -0.0426  0.1525
 4110SOL     OW23788   2.277   2.544   3.932  0.0483 -0.2799 -0.2362
 4110SOL    HW123789   2.372   2.535   3.942  0.1003  0.7603  0.2511
 4110SOL    HW223790   2.264   2.522   3.840  2.1330  0.6142 -0.7577
 4111SOL     OW23791   1.284   0.826   6.040 -0.0796 -0.2136 -0.1248
 4111SOL    HW123792   1.233   0.907   6.033 -0.8849 -0.7122  0.0280
 4111SOL    HW223793   1.223   0.771   6.089  0.1785 -2.1489 -1.9847
 4112SOL     OW23794   2.622   1.918  14.480 -0.0058  0.5105  0.2700
 4112SOL    HW123795   2.637   1.969  14.559 -2.1731  0.2106  0.8520
 4112SOL    HW223796   2.536   1.950  14.454  1.2548  1.6891 -2.4869
 4113SOL     OW23797   3.053   2.618   1.179 -0.1321  0.4780  0.2282
 4113SOL    HW123798   3.107   2.625   1.101  0.5633  1.3839  0.7961
 4113SOL    HW223799   3.022   2.708   1.183 -2.5345 -0.1645 -3.7851
 4114SOL     OW23800   0.861   2.607   7.956  0.1773 -0.1207  0.3789
 4114SOL    HW123801   0.856   2.548   7.881  0.5320  0.4426 -0.0906
 4114SOL    HW223802   0.848   2.689   7.907  2.8235 -0.7219 -1.3190
 4115SOL     OW23803   2.209   3.024   4.357 -0.4005 -0.8272 -0.3568
 4115SOL    HW123804   2.141   3.060   4.299  0.7503  1.0069 -0.5728
 4115SOL    HW223805   2.190   3.078   4.433  1.0507 -1.6585  0.5899
 4116SOL     OW23806   0.500   3.073   3.859 -0.3850  0.7303 -0.0407
 4116SOL    HW123807   0.538   3.030   3.783  1.3490  1.8323  0.1974
 4116SOL    HW223808   0.575   3.114   3.903 -1.5024  2.0382  0.6034
 4117SOL     OW23809   2.596   1.662   4.061 -0.4219  0.0728 -0.2397
 4117SOL    HW123810   2.561   1.679   4.149 -0.8732  2.1627 -0.8360
 4117SOL    HW223811   2.520   1.648   4.006 -1.0043  0.0319  0.5672
 4118SOL     OW23812   4.233   3.559   2.158 -0.0699  0.5258 -0.1747
 4118SOL    HW123813   4.173   3.619   2.114 -1.2229 -0.0108  0.6761
 4118SOL    HW223814   4.188   3.478   2.132 -0.5978  0.2000  1.8133
 4119SOL     OW23815   0.485   0.244  16.695  0.1188  0.1602  0.0637
 4119SOL    HW123816   0.448   0.193  16.767 -1.8768  0.9709 -0.3677
 4119SOL    HW223817   0.409   0.295  16.668  0.3738  1.2828  1.5257
 4120SOL     OW23818   0.646   2.055  15.834  0.0328 -0.0441 -0.5300
 4120SOL    HW123819   0.625   1.976  15.784  0.1828 -0.4466  0.0461
 4120SOL    HW223820   0.727   2.084  15.792  0.4178 -0.3745 -0.0255
 4121SOL     OW23821   0.599   0.214   6.100 -0.4700 -0.5142 -0.4870
 4121SOL    HW123822   0.516   0.242   6.062  0.2660  1.9491 -0.2759
 4121SOL    HW223823   0.654   0.292   6.094  0.5211 -1.0497  1.7905
 4122SOL     OW23824   1.506   0.519  14.804 -0.0803  0.1773  0.6146
 4122SOL    HW123825   1.595   0.485  14.793 -1.3545 -2.0810 -2.8282
 4122SOL    HW223826   1.507   0.510  14.899 -0.1723  1.6417  0.7432
 4123SOL     OW23827   4.467   4.595   9.440 -0.5504 -0.2638  0.2645
 4123SOL    HW123828   4.440   4.513   9.399 -0.5758  0.2005 -0.6598
 4123SOL    HW223829   4.433   4.669   9.389  1.0489 -1.1100 -2.0296
 4124SOL     OW23830   2.441   2.633   2.466 -0.6568 -0.1331 -0.2261
 4124SOL    HW123831   2.365   2.591   2.428  0.9872 -1.0195 -2.5004
 4124SOL    HW223832   2.411   2.722   2.485  0.4726  0.1244  0.3787
 4125SOL     OW23833   1.299   4.330   9.884 -0.2503 -0.5635  0.3139
 4125SOL    HW123834   1.299   4.235   9.892  1.8692 -0.2521  4.2689
 4125SOL    HW223835   1.376   4.350   9.937 -0.0858  1.0708 -0.5511
 4126SOL     OW23836   3.236   0.551   6.625  0.7261 -0.1587 -0.7861
 4126SOL    HW123837   3.175   0.478   6.634 -1.1029  1.6608  1.7711
 4126SOL    HW223838   3.312   0.523   6.675 -0.5578 -0.5509  0.9497
 4127SOL     OW23839   4.369   4.020   3.611  0.0448  0.3025  0.0130
 4127SOL    HW123840   4.415   4.007   3.528 -0.5631 -0.6010 -0.1897
 4127SOL    HW223841   4.344   3.932   3.640  1.7073 -0.1066  0.1926
 4128SOL     OW23842   0.419   4.278  14.306 -0.6701  0.1616 -0.2127
 4128SOL    HW123843   0.445   4.213  14.241  0.4601  0.7209 -0.3191
 4128SOL    HW223844   0.419   4.353  14.247  3.1824 -1.4676 -2.2924
 4129SOL     OW23845   2.061   3.924   4.120  0.4751 -0.1715  0.0767
 4129SOL    HW123846   1.974   3.962   4.131  1.5501  3.2474 -3.1235
 4129SOL    HW223847   2.107   3.988   4.065 -0.8906  1.5345  0.9042
 4130SOL     OW23848   1.012   0.503   8.011  0.3181  0.0698 -0.1369
 4130SOL    HW123849   1.037   0.575   8.068  3.1315 -0.7562 -0.3448
 4130SOL    HW223850   0.997   0.428   8.069  1.2060 -0.5495 -0.7000
 4131SOL     OW23851   3.713   2.361   5.691 -0.0756  0.5641  0.3533
 4131SOL    HW123852   3.714   2.298   5.764  0.0258 -0.3905 -0.4697
 4131SOL    HW223853   3.796   2.347   5.645 -1.2609  0.5955 -1.7844
 4132SOL     OW23854   2.902   2.941   5.586 -0.1407 -0.5251 -0.3518
 4132SOL    HW123855   2.992   2.917   5.607 -0.5429  0.7053  2.7253
 4132SOL    HW223856   2.913   2.987   5.503 -1.2801 -0.7102 -0.6127
 4133SOL     OW23857   2.647   0.790  16.458  0.5542 -0.1491  0.0122
 4133SOL    HW123858   2.697   0.862  16.495 -0.4156 -0.4710  1.9662
 4133SOL    HW223859   2.623   0.842  16.382 -1.2115 -2.2584 -0.8709
 4134SOL     OW23860   0.554   4.380  13.278 -0.3729  0.6906 -0.1094
 4134SOL    HW123861   0.640   4.383  13.319 -0.4579 -2.8369  0.3277
 4134SOL    HW223862   0.511   4.448  13.329  1.2574  1.0144  0.8345
 4135SOL     OW23863   0.605   1.921  10.993  0.9792 -0.3531  0.1243
 4135SOL    HW123864   0.685   1.873  11.015  1.1429 -1.6237 -3.2454
 4135SOL    HW223865   0.536   1.865  11.027  0.3720  1.7523  2.3473
 4136SOL     OW23866   2.232   3.205   6.741  0.2599 -0.7115 -0.4230
 4136SOL    HW123867   2.156   3.171   6.695 -0.7395  0.6458  0.2336
 4136SOL    HW223868   2.295   3.212   6.669 -1.6293 -0.7097 -2.0553
 4137SOL     OW23869   4.646   0.112   4.463  0.3567 -0.0933 -0.1847
 4137SOL    HW123870   4.582   0.178   4.437 -0.4418 -0.6870  0.2420
 4137SOL    HW223871   4.662   0.072   4.378 -0.9603 -0.4005 -0.2874
 4138SOL     OW23872   4.327   2.748   1.357 -0.1806  0.5081 -0.1724
 4138SOL    HW123873   4.232   2.748   1.350 -0.3103  0.5022  1.6080
 4138SOL    HW223874   4.337   2.789   1.443 -0.4787 -2.0311  1.0636
 4139SOL     OW23875   3.861   0.653   9.234  0.1350  0.6117  0.4284
 4139SOL    HW123876   3.867   0.727   9.174  1.4300  0.5558  0.4935
 4139SOL    HW223877   3.767   0.633   9.230  0.3440 -0.4726  1.0660
 4140SOL     OW23878   3.187   4.419  16.514  0.3607 -0.2670  0.2113
 4140SOL    HW123879   3.263   4.455  16.558  1.9137 -1.0848 -1.8381
 4140SOL    HW223880   3.204   4.444  16.423 -1.5383 -0.1807 -0.1366
 4141SOL     OW23881   0.827   0.718   2.551  0.2548 -0.2779 -0.3078
 4141SOL    HW123882   0.737   0.745   2.533  0.3657 -0.4849 -1.1947
 4141SOL    HW223883   0.826   0.702   2.645 -0.3675 -0.0169 -0.2673
 4142SOL     OW23884   3.793   0.246   9.946  0.4645  0.0256  0.0099
 4142SOL    HW123885   3.822   0.178  10.006 -3.4942 -2.0939 -0.4651
 4142SOL    HW223886   3.745   0.190   9.885  1.4862  0.0079 -0.7884
 4143SOL     OW23887   2.914   4.170   9.741 -0.3926 -0.1064 -0.2803
 4143SOL    HW123888   2.830   4.162   9.785  0.0810 -0.5602  0.5454
 4143SOL    HW223889   2.970   4.126   9.805 -1.2300  1.3028  1.4138
 4144SOL     OW23890   1.085   0.027   4.474  0.2773  0.1660  0.2278
 4144SOL    HW123891   1.039   0.106   4.502 -0.9170 -0.3273 -0.2964
 4144SOL    HW223892   1.006   4.692   4.486 -0.1530  0.6133 -0.5842
 4145SOL     OW23893   1.691   4.426   9.576 -0.3513 -0.0719  0.1030
 4145SOL    HW123894   1.660   4.494   9.636  1.6235  0.6020  0.3389
 4145SOL    HW223895   1.686   4.358   9.643  0.7659 -1.0401 -0.8062
 4146SOL     OW23896   2.690   1.710   1.516 -0.2505  0.0123  0.1841
 4146SOL    HW123897   2.597   1.706   1.492 -0.6727  2.0528  1.4660
 4146SOL    HW223898   2.717   1.621   1.496 -1.4256  0.1069 -1.7898
 4147SOL     OW23899   3.067   1.130   8.417  0.4300  0.3384 -0.1744
 4147SOL    HW123900   3.097   1.213   8.453  1.7087  0.4267 -1.4383
 4147SOL    HW223901   2.994   1.157   8.362  0.3000 -1.7152 -1.0177
 4148SOL     OW23902   0.192   3.887  15.214 -0.0274 -0.4732  0.3236
 4148SOL    HW123903   0.158   3.840  15.137 -1.7119  0.8987  0.2309
 4148SOL    HW223904   0.180   3.976  15.181 -3.4313 -0.8753  0.5184
 4149SOL     OW23905   3.534   3.308   4.731  0.2495 -0.1339 -0.7414
 4149SOL    HW123906   3.589   3.268   4.798  0.7126  0.6396 -0.6679
 4149SOL    HW223907   3.592   3.377   4.699 -0.6570  0.0296 -2.0246
 4150SOL     OW23908   3.252   3.269   3.578  0.1330 -0.1489 -0.2210
 4150SOL    HW123909   3.330   3.277   3.523 -0.4038 -0.7740 -1.0677
 4150SOL    HW223910   3.188   3.262   3.508 -1.3586 -0.0218  1.1242
 4151SOL     OW23911   0.507   1.045  12.615 -0.1336 -0.2849  0.1176
 4151SOL    HW123912   0.555   1.120  12.579 -1.8749  1.0371  0.5845
 4151SOL    HW223913   0.439   1.101  12.651  0.0132  0.4218 -0.6886
 4152SOL     OW23914   1.044   0.677   6.643  0.0327 -0.1235  0.1024
 4152SOL    HW123915   1.082   0.590   6.628 -0.4676 -0.5458  1.2018
 4152SOL    HW223916   1.110   0.715   6.702 -0.6180 -1.1096  1.4658
 4153SOL     OW23917   3.989   2.670   3.170 -0.1301  0.4533 -0.1344
 4153SOL    HW123918   4.074   2.627   3.164  0.4716  1.2409  2.6560
 4153SOL    HW223919   3.972   2.708   3.084 -1.7622 -1.9438 -0.8716
 4154SOL     OW23920   1.277   4.091   3.358 -0.3667 -0.4084 -0.3070
 4154SOL    HW123921   1.322   4.112   3.276 -1.3049 -0.0171 -0.7197
 4154SOL    HW223922   1.219   4.017   3.342  0.5270 -0.8916 -1.3032
 4155SOL     OW23923   1.099   0.146   8.770  0.2197 -0.3614 -0.3291
 4155SOL    HW123924   1.187   0.185   8.764 -0.3363  0.8421 -0.6737
 4155SOL    HW223925   1.075   0.144   8.863 -0.6535 -1.2201 -0.5823
 4156SOL     OW23926   1.165   4.234  11.829  0.4893  0.1717  0.1808
 4156SOL    HW123927   1.250   4.252  11.790 -0.8995  0.9157 -2.5208
 4156SOL    HW223928   1.183   4.151  11.873  1.3073  0.9143  1.2661
 4157SOL     OW23929   0.120   3.274   4.324 -0.5135 -0.0065  0.4847
 4157SOL    HW123930   0.047   3.233   4.371 -0.1132  0.4852  1.5248
 4157SOL    HW223931   0.079   3.308   4.244  1.6336  0.2267 -0.5193
 4158SOL     OW23932   3.843   2.080   8.212  0.3629 -0.0071 -0.6249
 4158SOL    HW123933   3.898   2.006   8.183  2.4494  1.5376 -0.6252
 4158SOL    HW223934   3.796   2.101   8.131  0.4698  2.6133  0.0073
 4159SOL     OW23935   1.134   0.436   5.471  0.3868  0.4405  0.3497
 4159SOL    HW123936   1.204   0.446   5.535 -0.1809 -1.6686  1.3015
 4159SOL    HW223937   1.124   0.340   5.467 -2.2436  0.8073 -2.1229
 4160SOL     OW23938   0.655   2.141  13.155 -0.2569 -0.0663 -0.3618
 4160SOL    HW123939   0.630   2.204  13.223 -1.3871 -1.8262  0.8635
 4160SOL    HW223940   0.747   2.165  13.160  0.3196 -1.9211 -2.0891
 4161SOL     OW23941   3.442   2.777   5.950 -0.0045 -0.6240 -0.2954
 4161SOL    HW123942   3.436   2.859   5.900  0.8843  0.6441  1.6734
 4161SOL    HW223943   3.482   2.719   5.885 -2.6948  1.5671 -3.9043
 4162SOL     OW23944   2.449   1.395   9.098 -0.4476  0.0188 -0.3292
 4162SOL    HW123945   2.380   1.448   9.058  0.6543  1.1311 -0.7571
 4162SOL    HW223946   2.495   1.458   9.154  0.7625 -0.6093 -0.6131
 4163SOL     OW23947   1.137   4.625   3.448  0.6689 -0.1419 -0.2473
 4163SOL    HW123948   1.099   4.545   3.482  2.2984 -0.3316  1.1232
 4163SOL    HW223949   1.055   4.666   3.421 -0.4627 -2.0137  0.3242
 4164SOL     OW23950   0.451   1.142   8.398 -0.1318  1.1564  0.3676
 4164SOL    HW123951   0.434   1.228   8.437  0.2908  0.6958  1.5391
 4164SOL    HW223952   0.360   1.110   8.397  0.1810  0.2547  2.7993
 4165SOL     OW23953   4.181   2.160   0.633  0.2768  0.0095 -0.0411
 4165SOL    HW123954   4.086   2.150   0.640  0.1709  0.0840 -1.3665
 4165SOL    HW223955   4.189   2.243   0.586  1.1689 -0.4906 -0.7806
 4166SOL     OW23956   1.223   0.548  10.441  0.1417 -0.0848  0.0724
 4166SOL    HW123957   1.205   0.593  10.524  1.4531  0.6660 -0.0403
 4166SOL    HW223958   1.304   0.594  10.418 -0.5654  0.8987 -0.4472
 4167SOL     OW23959   1.772   2.240  11.238 -0.2412 -0.1620  0.3266
 4167SOL    HW123960   1.798   2.266  11.150 -0.4017  0.2499  0.3977
 4167SOL    HW223961   1.847   2.282  11.280 -0.1800  0.7885 -0.7407
 4168SOL     OW23962   4.506   4.541   0.502 -0.4140  0.1947  0.1769
 4168SOL    HW123963   4.558   4.533   0.582 -1.0689  0.2533  0.6148
 4168SOL    HW223964   4.441   4.471   0.509  0.0341 -0.1958  0.3907
 4169SOL     OW23965   0.170   2.339   5.539  0.2473 -0.3916  0.3778
 4169SOL    HW123966   0.175   2.430   5.511 -2.0184 -0.3071  0.2338
 4169SOL    HW223967   0.260   2.308   5.550 -0.0964 -1.1297  1.1745
 4170SOL     OW23968   2.222   0.011   8.821 -0.1440 -0.3279  0.4100
 4170SOL    HW123969   2.277   0.005   8.899 -0.3436  1.5480  0.6839
 4170SOL    HW223970   2.161   0.081   8.847 -3.4940 -2.4070 -1.8309
 4171SOL     OW23971   1.487   2.481   6.198  0.0468  0.0176 -0.3018
 4171SOL    HW123972   1.433   2.402   6.199  0.7352 -0.4751 -2.4205
 4171SOL    HW223973   1.443   2.548   6.145  0.2938 -0.2188 -0.8043
 4172SOL     OW23974   1.240   2.692  15.066  0.2770  0.0458  0.2008
 4172SOL    HW123975   1.214   2.700  14.974  2.5481  0.7231 -0.3733
 4172SOL    HW223976   1.279   2.778  15.078  0.0095  0.4105 -1.6465
 4173SOL     OW23977   1.176   1.662  12.138 -0.2433 -0.3121  0.2854
 4173SOL    HW123978   1.212   1.750  12.152  0.2638 -0.1853 -1.8359
 4173SOL    HW223979   1.085   1.691  12.131 -0.0738 -0.5077 -2.7260
 4174SOL     OW23980   0.961   2.357   1.633 -0.2798  0.0735 -0.5156
 4174SOL    HW123981   0.929   2.288   1.691  0.9511  0.3599  0.5042
 4174SOL    HW223982   0.903   2.427   1.661  0.5224  0.0719  1.1754
 4175SOL     OW23983   0.920   0.145   7.965  0.0502 -0.4414 -0.5124
 4175SOL    HW123984   0.945   0.199   8.040  1.0133 -1.3980 -0.1455
 4175SOL    HW223985   0.978   0.173   7.895  0.1816  0.6452  0.0248
 4176SOL     OW23986   2.896   3.998   8.083 -0.2273 -0.0603 -0.3677
 4176SOL    HW123987   2.807   4.028   8.103 -0.0284  0.2186  0.0838
 4176SOL    HW223988   2.943   4.013   8.165  0.8864  0.8796 -1.1839
 4177SOL     OW23989   1.449   1.691  13.691  0.3736  0.6449  0.0009
 4177SOL    HW123990   1.435   1.618  13.752 -2.7398  0.4332 -0.9234
 4177SOL    HW223991   1.375   1.744  13.719 -1.1605 -0.4519 -1.9092
 4178SOL     OW23992   4.101   3.440   3.516 -0.3440 -0.1189 -0.6195
 4178SOL    HW123993   4.052   3.369   3.473 -0.3583 -0.5225  0.0719
 4178SOL    HW223994   4.172   3.458   3.454  1.5526 -1.9744  1.0196
 4179SOL     OW23995   3.043   0.061  11.804 -0.4655 -0.2038 -0.0836
 4179SOL    HW123996   2.969   0.071  11.744 -0.0539  0.2160 -0.5129
 4179SOL    HW223997   3.078   0.149  11.815  0.0976 -0.3571 -0.6600
 4180SOL     OW23998   0.989   0.743   2.300  0.7494  0.4199  0.2727
 4180SOL    HW123999   1.070   0.767   2.345  1.0903  0.9475 -0.6183
 4180SOL    HW224000   0.940   0.825   2.300  0.8729  0.4933  0.1744
 4181SOL     OW24001   2.151   4.677   0.921  0.4695  0.3134  0.1307
 4181SOL    HW124002   2.158   4.593   0.966  0.8520  0.0961 -0.3319
 4181SOL    HW224003   2.229   4.665   0.867 -0.1173  0.0849 -0.6543
 4182SOL     OW24004   1.183   1.095   4.687  0.0661 -0.2396  0.8252
 4182SOL    HW124005   1.210   1.064   4.774 -0.1361  2.3249  1.8321
 4182SOL    HW224006   1.207   1.016   4.639 -2.1251 -0.2253 -0.2808
 4183SOL     OW24007   2.978   1.220   2.037 -0.2540  0.2203 -0.1482
 4183SOL    HW124008   3.050   1.272   2.002 -1.6652  1.5850 -0.9951
 4183SOL    HW224009   3.038   1.155   2.075 -1.5285 -0.8266  0.0879
 4184SOL     OW24010   0.639   0.383   8.106  0.3584 -0.5409  0.0036
 4184SOL    HW124011   0.662   0.427   8.188 -0.0232 -1.2985  0.5083
 4184SOL    HW224012   0.587   0.452   8.064  1.4964  1.1433  1.3283
 4185SOL     OW24013   3.621   4.622  13.135  0.0559 -0.3168  0.2133
 4185SOL    HW124014   3.682   4.553  13.163 -0.1121 -1.2614 -1.7854
 4185SOL    HW224015   3.687   4.684  13.105 -0.7551 -0.5258 -1.9906
 4186SOL     OW24016   3.362   3.715   3.714 -0.3920  0.5684 -0.4488
 4186SOL    HW124017   3.303   3.667   3.655 -0.1953 -2.0594  1.4822
 4186SOL    HW224018   3.378   3.642   3.775 -1.2175  1.1676  0.4972
 4187SOL     OW24019   3.093   4.273  17.213 -0.1086  0.2921 -0.4131
 4187SOL    HW124020   3.169   4.324  17.186  0.4545 -0.1312  0.3893
 4187SOL    HW224021   3.068   4.326  17.289 -1.8533  0.2331 -0.9393
 4188SOL     OW24022   3.964   0.689   8.915  0.4431  0.0227  0.1883
 4188SOL    HW124023   3.923   0.603   8.909  1.3509 -0.5381  1.9918
 4188SOL    HW224024   3.892   0.751   8.929  0.8282  0.1894  1.4031
 4189SOL     OW24025   1.598   0.281   7.321 -0.3470 -0.5008  0.0994
 4189SOL    HW124026   1.597   0.192   7.357  2.5376  0.0245  1.4742
 4189SOL    HW224027   1.639   0.335   7.389 -2.0112  0.1094  0.6160
 4190SOL     OW24028   0.726   3.856  12.594 -0.1524  0.0035 -0.0430
 4190SOL    HW124029   0.802   3.857  12.535 -1.1329 -0.2394 -1.3107
 4190SOL    HW224030   0.702   3.765  12.576  0.3231 -0.2417  0.5562
 4191SOL     OW24031   4.494   3.681   6.273  0.2455  0.2434 -0.4856
 4191SOL    HW124032   4.490   3.587   6.291  1.9017 -0.3731 -3.3088
 4191SOL    HW224033   4.468   3.674   6.181 -0.4711  0.3819 -0.2924
 4192SOL     OW24034   1.943   3.807   2.116 -0.2448 -0.1466 -0.0655
 4192SOL    HW124035   1.868   3.867   2.115 -0.7068 -0.6902  2.8216
 4192SOL    HW224036   2.000   3.835   2.044  2.8698 -3.6804  1.0559
 4193SOL     OW24037   0.203   0.214   5.426 -0.8743  0.2062 -0.1989
 4193SOL    HW124038   0.119   0.229   5.470 -1.1357 -0.3642 -0.4965
 4193SOL    HW224039   0.180   0.134   5.378  0.0110 -0.6041  0.7402
 4194SOL     OW24040   0.171   3.539   7.742  0.7848 -0.1232 -0.0556
 4194SOL    HW124041   0.192   3.460   7.692  1.9136  0.0227  0.1831
 4194SOL    HW224042   0.127   3.503   7.820 -0.8803 -0.2766 -1.0800
 4195SOL     OW24043   2.425   1.491  11.913 -0.2493 -0.4139  0.8217
 4195SOL    HW124044   2.344   1.532  11.946 -0.7749  0.3247 -1.3754
 4195SOL    HW224045   2.467   1.573  11.888 -1.1212  0.7803  3.3250
 4196SOL     OW24046   3.778   1.913  12.754  0.9285 -1.0283 -0.1806
 4196SOL    HW124047   3.826   1.870  12.683  0.0800 -0.0889 -1.3241
 4196SOL    HW224048   3.803   2.005  12.746 -1.6451 -0.4158 -1.2228
 4197SOL     OW24049   3.754   0.462   6.098 -0.3156 -0.0202  0.2770
 4197SOL    HW124050   3.829   0.404   6.084  0.8178  1.6461 -0.7061
 4197SOL    HW224051   3.709   0.462   6.013  1.4131  1.8170 -0.6619
 4198SOL     OW24052   2.606   0.192   7.950  0.0757  0.0210  0.7831
 4198SOL    HW124053   2.542   0.262   7.963  0.3156  0.1507  1.2420
 4198SOL    HW224054   2.667   0.203   8.022  1.1616  4.0764 -0.7762
 4199SOL     OW24055   3.775   4.084   4.937 -0.0082  0.1715 -0.3941
 4199SOL    HW124056   3.749   4.146   5.006  2.5325  0.9317 -0.1120
 4199SOL    HW224057   3.731   4.002   4.961  0.3627 -0.4983 -2.0630
 4200SOL     OW24058   3.741   0.019   8.715 -0.4296  0.1748 -0.3997
 4200SOL    HW124059   3.663   4.705   8.757  0.2158 -2.2987 -1.1849
 4200SOL    HW224060   3.706   0.043   8.629 -0.2455 -1.0196 -0.8004
 4201SOL     OW24061   2.039   2.617  17.213 -0.3604  0.1110 -0.6861
 4201SOL    HW124062   1.945   2.611  17.227 -0.2974 -0.3692 -0.4705
 4201SOL    HW224063   2.057   2.583  17.301 -1.8733  0.8328 -0.1033
 4202SOL     OW24064   0.204   2.935   7.793  0.4249 -0.8881 -0.2216
 4202SOL    HW124065   0.247   2.945   7.878  1.6171 -0.2168 -0.9069
 4202SOL    HW224066   0.129   2.991   7.811  1.1976  0.0285  0.1395
 4203SOL     OW24067   1.597   3.515   3.273 -0.2827  0.0415 -0.2508
 4203SOL    HW124068   1.691   3.519   3.254 -0.1197 -2.9721 -0.1713
 4203SOL    HW224069   1.564   3.499   3.184 -0.9796 -2.5106  0.4571
 4204SOL     OW24070   2.455   0.371   7.441  0.7170 -0.0861  0.3654
 4204SOL    HW124071   2.439   0.463   7.420 -0.8777 -0.2674  0.7563
 4204SOL    HW224072   2.525   0.385   7.504 -0.0627  1.8608  0.7887
 4205SOL     OW24073   1.905   1.486  17.057 -0.4852  0.0962  0.0427
 4205SOL    HW124074   1.829   1.490  17.000  0.4329 -1.4560 -1.2999
 4205SOL    HW224075   1.871   1.528  17.136 -0.2993  0.3276 -0.0013
 4206SOL     OW24076   3.295   4.413  15.477 -0.0730 -0.3406  0.1405
 4206SOL    HW124077   3.242   4.477  15.429  1.4322  0.8018  0.0211
 4206SOL    HW224078   3.256   4.326  15.472  0.9622 -0.7424 -0.8193
 4207SOL     OW24079   4.219   3.278  13.384  0.3387  0.1075  0.1350
 4207SOL    HW124080   4.237   3.354  13.329  0.6472 -0.4141 -0.4781
 4207SOL    HW224081   4.308   3.245  13.397  0.8890  0.9529 -1.5247
 4208SOL     OW24082   3.013   2.722   5.373  0.3766 -0.4317  0.0008
 4208SOL    HW124083   2.942   2.779   5.341 -0.8966 -1.9035  0.1758
 4208SOL    HW224084   3.018   2.745   5.465  0.3271 -2.2259  0.4537
 4209SOL     OW24085   2.553   3.036   4.969 -0.2664 -0.1660  0.1916
 4209SOL    HW124086   2.475   3.090   4.976  0.2629  0.4234  1.5213
 4209SOL    HW224087   2.543   2.987   4.887  1.4551 -0.7111  0.3069
 4210SOL     OW24088   0.799   2.976  13.696 -0.2520  0.0431  0.5210
 4210SOL    HW124089   0.892   2.953  13.704 -0.1483  0.3328  0.1174
 4210SOL    HW224090   0.791   2.988  13.601 -1.0224 -0.1066  0.5686
 4211SOL     OW24091   0.817   3.210   6.092 -0.7272 -0.3299 -0.3636
 4211SOL    HW124092   0.831   3.212   5.997  1.5920 -2.7687 -0.0916
 4211SOL    HW224093   0.800   3.303   6.100 -0.6447 -0.5761  2.4384
 4212SOL     OW24094   0.367   4.021   1.449  0.3980 -0.4552  0.4030
 4212SOL    HW124095   0.312   3.960   1.498  0.2761 -1.5277 -1.0783
 4212SOL    HW224096   0.452   3.977   1.452  0.4332 -0.5180 -2.1380
 4213SOL     OW24097   0.214   2.089  13.192 -0.4858 -0.3107  0.1933
 4213SOL    HW124098   0.136   2.076  13.246 -0.7606  0.1389 -0.0948
 4213SOL    HW224099   0.285   2.072  13.254 -0.4873 -2.8215 -0.4988
 4214SOL     OW24100   0.443   3.869   6.626 -0.5577  0.2595  0.3339
 4214SOL    HW124101   0.499   3.940   6.596  0.8091 -2.1906 -2.9093
 4214SOL    HW224102   0.449   3.803   6.557 -0.9737  0.5526  0.0118
 4215SOL     OW24103   2.113   2.885   9.112  0.3543  0.8851 -0.3400
 4215SOL    HW124104   2.076   2.925   9.191 -0.7266 -0.8104 -0.0037
 4215SOL    HW224105   2.043   2.825   9.090 -0.4999  1.3497  1.1180
 4216SOL     OW24106   1.883   1.308   7.448  0.0068 -0.7226 -1.2010
 4216SOL    HW124107   1.794   1.319   7.481  0.7186  1.9606 -0.1893
 4216SOL    HW224108   1.881   1.388   7.396 -0.4836 -0.2760 -0.4907
 4217SOL     OW24109   4.257   0.528  15.032  0.0095  0.2229  0.4430
 4217SOL    HW124110   4.207   0.454  15.068 -0.5209  0.0949 -0.5744
 4217SOL    HW224111   4.202   0.565  14.964  0.7304  0.3088 -0.0930
 4218SOL     OW24112   1.718   0.524   0.813 -0.3008 -0.4020  0.5218
 4218SOL    HW124113   1.624   0.537   0.810 -0.4836 -1.7674 -0.0638
 4218SOL    HW224114   1.752   0.612   0.826  1.9011 -0.7151 -2.9629
 4219SOL     OW24115   4.412   0.977   0.439 -0.1254 -0.0652  0.4889
 4219SOL    HW124116   4.499   1.011   0.462  0.7840 -0.9422 -1.6689
 4219SOL    HW224117   4.408   1.014   0.351  2.3289  0.0837  0.4246
 4220SOL     OW24118   1.451   2.508   8.514  0.4515  0.1906 -0.3701
 4220SOL    HW124119   1.547   2.506   8.520  0.3038 -0.0674  1.6864
 4220SOL    HW224120   1.425   2.417   8.531  0.3504  0.2313 -0.3111
 4221SOL     OW24121   2.377   0.504   3.956 -0.0502 -0.3704 -0.2735
 4221SOL    HW124122   2.285   0.530   3.962  0.4064  0.9438  0.9768
 4221SOL    HW224123   2.374   0.419   3.912  1.5764 -1.4556  1.6968
 4222SOL     OW24124   1.943   0.265  16.177  0.0286 -0.3042  0.2667
 4222SOL    HW124125   1.859   0.225  16.196  0.3111 -0.7173  0.6398
 4222SOL    HW224126   1.934   0.340  16.235 -1.1012  0.9572 -1.5261
 4223SOL     OW24127   0.012   0.213   8.331  0.2521 -0.2268 -0.3130
 4223SOL    HW124128   4.670   0.171   8.272 -0.1714 -0.4132  0.2671
 4223SOL    HW224129   4.679   0.200   8.409  1.2884 -2.3781  0.0444
 4224SOL     OW24130   4.457   1.821   1.128  0.0043  0.2036  0.0456
 4224SOL    HW124131   4.543   1.781   1.138 -0.8378 -1.5126  0.5157
 4224SOL    HW224132   4.486   1.896   1.179  3.0374  0.0897 -1.5573
 4225SOL     OW24133   1.108   2.964   5.031  0.0041  0.3310 -0.5560
 4225SOL    HW124134   1.078   3.037   4.976 -0.2130  1.8228  1.5369
 4225SOL    HW224135   1.134   2.899   4.965  1.0562 -0.1231  0.3192
 4226SOL     OW24136   0.292   0.995   9.393  0.1457 -0.3022 -0.0636
 4226SOL    HW124137   0.213   0.967   9.346 -0.1815 -1.6332  1.2791
 4226SOL    HW224138   0.269   1.087   9.404 -0.7461 -0.3983 -1.0931
 4227SOL     OW24139   0.372   2.606   7.591 -0.6164  0.4462 -0.3845
 4227SOL    HW124140   0.445   2.612   7.652 -0.3291  1.0183 -0.7768
 4227SOL    HW224141   0.419   2.670   7.537  0.5982  0.2233  0.4241
 4228SOL     OW24142   2.038   0.183   7.621 -0.0947  0.2988  0.7183
 4228SOL    HW124143   2.057   0.089   7.625  0.6068  0.4315  0.4835
 4228SOL    HW224144   2.009   0.196   7.711  0.7885 -0.9575  1.1920
 4229SOL     OW24145   0.924   4.478   1.361  0.4143 -0.4893  0.2746
 4229SOL    HW124146   0.830   4.484   1.379  0.7812  1.1418  1.5989
 4229SOL    HW224147   0.963   4.509   1.442  0.0888 -1.7174  0.9038
 4230SOL     OW24148   2.571   1.486   0.622  0.3065  0.2950  0.0833
 4230SOL    HW124149   2.538   1.440   0.699  1.3577  1.5233  1.2695
 4230SOL    HW224150   2.655   1.440   0.618 -0.6765 -1.5769  0.8078
 4231SOL     OW24151   4.143   1.662  12.317 -0.2897 -0.5031 -0.1000
 4231SOL    HW124152   4.133   1.580  12.366  0.1335 -0.5867 -0.1589
 4231SOL    HW224153   4.082   1.640  12.247 -1.7829 -2.5131  1.8500
 4232SOL     OW24154   2.665   1.159   6.128 -0.4562 -0.3827 -0.2394
 4232SOL    HW124155   2.633   1.239   6.170 -2.5129 -0.7133 -1.1863
 4232SOL    HW224156   2.696   1.102   6.199  0.5645  2.5193  1.6263
 4233SOL     OW24157   0.506   1.780   5.506 -0.1067 -0.2623 -0.2740
 4233SOL    HW124158   0.560   1.849   5.543 -1.2904  1.6429 -2.1245
 4233SOL    HW224159   0.426   1.822   5.473  0.7822  2.3992  1.0717
 4234SOL     OW24160   4.062   1.760   2.682 -0.1576 -0.0627 -0.1836
 4234SOL    HW124161   3.969   1.785   2.681 -0.5965 -1.5278  3.3109
 4234SOL    HW224162   4.099   1.835   2.636 -0.4515 -0.6423 -1.3559
 4235SOL     OW24163   4.483   1.590   4.067  0.5868 -0.0117  0.1612
 4235SOL    HW124164   4.459   1.540   3.989 -0.5091  1.6049 -0.5422
 4235SOL    HW224165   4.397   1.618   4.098  0.1588  1.2173 -2.1507
 4236SOL     OW24166   0.907   4.345   7.571 -0.2350 -0.1074  0.0638
 4236SOL    HW124167   0.817   4.329   7.544  0.0026  0.0903 -0.8259
 4236SOL    HW224168   0.938   4.255   7.582 -0.1123  0.0456  1.0255
 4237SOL     OW24169   0.172   3.025   8.091 -0.2459 -0.0803  0.0678
 4237SOL    HW124170   0.093   2.987   8.130  0.7791 -1.1167  1.1605
 4237SOL    HW224171   0.232   2.953   8.111 -3.4484 -3.2683 -1.6099
 4238SOL     OW24172   2.128   2.935   1.773 -0.0102  1.0540  0.6222
 4238SOL    HW124173   2.198   2.935   1.708 -1.5441  0.6119 -1.0319
 4238SOL    HW224174   2.149   2.863   1.833 -0.4790  0.2837 -0.1382
 4239SOL     OW24175   4.470   4.561  16.552 -0.1082  0.1290  0.0907
 4239SOL    HW124176   4.523   4.612  16.613  0.4272 -0.8139  0.4226
 4239SOL    HW224177   4.383   4.581  16.586 -0.0342 -2.2170  1.6276
 4240SOL     OW24178   2.907   4.058   8.369  0.4808  0.1545 -0.0310
 4240SOL    HW124179   2.864   4.130   8.323 -0.0277 -0.0357  0.1580
 4240SOL    HW224180   2.973   4.104   8.422  1.6117 -3.0863  1.3397
 4241SOL     OW24181   0.480   2.293  15.710  0.4619  0.4830  0.0981
 4241SOL    HW124182   0.530   2.273  15.631 -0.2596 -0.6708 -0.0734
 4241SOL    HW224183   0.503   2.210  15.751 -0.7703 -0.5708 -1.3247
 4242SOL     OW24184   1.051   1.686  11.648 -0.0994  0.2673  0.5472
 4242SOL    HW124185   1.132   1.737  11.651 -0.7898  1.3429  1.3981
 4242SOL    HW224186   0.986   1.750  11.617  0.3619 -0.4384 -1.8367
 4243SOL     OW24187   3.354   3.012   8.058 -0.6537 -0.2690  0.2022
 4243SOL    HW124188   3.361   3.102   8.090  4.7957 -0.8108  0.6457
 4243SOL    HW224189   3.273   2.982   8.099 -1.2128 -3.0600 -2.8880
 4244SOL     OW24190   1.491   1.335   8.681 -0.3277 -0.3388  0.1591
 4244SOL    HW124191   1.502   1.242   8.698 -0.9609 -0.3027  0.7716
 4244SOL    HW224192   1.567   1.379   8.718 -0.9965  2.2703 -1.5743
 4245SOL     OW24193   0.329   3.872   4.689  0.0973 -0.2361 -0.0043
 4245SOL    HW124194   0.234   3.870   4.676  0.3713  0.2827 -2.0916
 4245SOL    HW224195   0.353   3.787   4.651  1.8708  0.6224 -0.8316
 4246SOL     OW24196   1.186   2.353   8.109  0.0393  0.3494  0.3144
 4246SOL    HW124197   1.116   2.413   8.135 -1.0812 -1.5717  1.7377
 4246SOL    HW224198   1.263   2.397   8.144 -0.2966  0.1991  1.2578
 4247SOL     OW24199   0.264   4.106  13.544  0.1167  0.3284 -0.4533
 4247SOL    HW124200   0.180   4.137  13.510  1.2876  1.0174 -2.7122
 4247SOL    HW224201   0.241   4.029  13.596 -2.4627  2.0308  0.9382
 4248SOL     OW24202   4.192   1.286   0.562  0.1623  0.0086 -0.3208
 4248SOL    HW124203   4.274   1.237   0.567 -0.1560 -0.3038  1.5822
 4248SOL    HW224204   4.137   1.221   0.518 -0.4972  0.3491  0.0014
 4249SOL     OW24205   3.913   2.560   6.453 -0.1824  0.4875  0.3894
 4249SOL    HW124206   3.946   2.526   6.370  0.4983 -2.0858  1.6893
 4249SOL    HW224207   3.833   2.604   6.425 -0.4892 -1.6661 -2.1297
 4250SOL     OW24208   1.142   1.795  12.476  0.1844 -0.7076 -0.5087
 4250SOL    HW124209   1.111   1.865  12.418 -2.0657 -0.9477  0.4291
 4250SOL    HW224210   1.238   1.795  12.471  0.0927 -0.2862 -2.1913
 4251SOL     OW24211   2.279   4.093  14.295  0.6063  0.0816  0.0022
 4251SOL    HW124212   2.331   4.012  14.293  2.6964  1.4929 -2.7996
 4251SOL    HW224213   2.250   4.096  14.204 -2.3299  2.8537  1.0398
 4252SOL     OW24214   4.580   2.707  17.286 -0.7036  0.4195 -0.3109
 4252SOL    HW124215   4.655   2.760  17.260 -1.9184  1.8553 -0.9028
 4252SOL    HW224216   4.605   2.621  17.252  0.0837  0.8654 -0.8393
 4253SOL     OW24217   4.717   3.757  13.728 -0.1996  0.0386 -0.0947
 4253SOL    HW124218   4.710   3.709  13.811  1.3189  2.6679  1.5277
 4253SOL    HW224219   4.658   3.832  13.736 -0.6412 -0.1998 -1.1308
 4254SOL     OW24220   1.015   4.042   8.230  0.0960  0.1984 -0.4941
 4254SOL    HW124221   0.958   3.986   8.176  1.3200 -0.8177 -0.7243
 4254SOL    HW224222   1.070   3.971   8.260 -1.8602 -1.0734  0.0488
 4255SOL     OW24223   3.643   4.551   1.841 -0.0833  0.3029 -0.1189
 4255SOL    HW124224   3.568   4.552   1.900  0.0681 -3.4523  0.0966
 4255SOL    HW224225   3.598   4.548   1.756  0.6424  1.7004 -0.5667
 4256SOL     OW24226   4.543   2.122  17.445 -0.0264  0.0529  0.6394
 4256SOL    HW124227   4.458   2.152  17.415 -0.0699  0.5914  1.3021
 4256SOL    HW224228   4.548   2.033  17.410  0.8995  1.2467 -2.2964
 4257SOL     OW24229   4.601   0.526   1.210 -0.1185  0.1496  0.3242
 4257SOL    HW124230   4.674   0.539   1.269  0.0600 -0.9313  0.3338
 4257SOL    HW224231   4.619   0.596   1.147 -1.4759  1.5322  1.4594
 4258SOL     OW24232   1.408   3.312  13.925 -0.0936  0.9771  0.0025
 4258SOL    HW124233   1.434   3.343  14.012  1.3632 -0.5955  0.1217
 4258SOL    HW224234   1.349   3.383  13.899  1.1916  2.1024  0.1820
 4259SOL     OW24235   2.092   0.443   5.994  0.0986 -0.5384  0.8681
 4259SOL    HW124236   2.002   0.467   6.017 -0.0375 -0.0614 -0.1654
 4259SOL    HW224237   2.144   0.464   6.072  2.7853 -2.1452 -0.4849
 4260SOL     OW24238   4.089   1.034   6.096  0.3599 -0.9615  0.0841
 4260SOL    HW124239   4.071   1.118   6.138  0.3709 -0.0866 -1.6488
 4260SOL    HW224240   4.104   1.065   6.007 -0.5331 -0.6261  0.0479
 4261SOL     OW24241   2.581   4.476   3.025 -0.0417 -1.1387  0.0880
 4261SOL    HW124242   2.577   4.545   3.091 -0.3476 -0.8470 -0.2320
 4261SOL    HW224243   2.676   4.464   3.014 -0.1453 -0.1291 -2.0751
 4262SOL     OW24244   3.172   1.029   2.089  0.1985 -0.3482  0.0937
 4262SOL    HW124245   3.134   0.942   2.085 -0.1885 -0.2446  1.6226
 4262SOL    HW224246   3.220   1.025   2.006  0.8895  1.1209  0.4042
 4263SOL     OW24247   3.345   3.629   6.371  0.2769 -0.1482  0.1893
 4263SOL    HW124248   3.299   3.613   6.289  1.5264  0.0440 -0.5462
 4263SOL    HW224249   3.348   3.539   6.405 -0.7327 -0.3502 -0.2570
 4264SOL     OW24250   1.063   2.694   0.771  0.3433 -0.1722 -0.0490
 4264SOL    HW124251   1.047   2.697   0.865 -1.2316  0.3390 -0.3372
 4264SOL    HW224252   1.132   2.629   0.756 -0.0622 -0.5338 -0.3281
 4265SOL     OW24253   0.392   2.112  12.989  0.2263 -0.5087  0.0551
 4265SOL    HW124254   0.316   2.122  13.047 -1.6526  1.9782 -2.8570
 4265SOL    HW224255   0.458   2.100  13.057 -0.3059 -2.7465  0.1910
 4266SOL     OW24256   1.426   4.491   7.345 -0.3267 -0.2297 -0.2022
 4266SOL    HW124257   1.359   4.492   7.413 -1.3652  0.7341 -1.2276
 4266SOL    HW224258   1.487   4.557   7.378 -0.5895  0.6389 -1.4431
 4267SOL     OW24259   4.514   3.102   0.642 -0.2032 -0.0243  0.1271
 4267SOL    HW124260   4.570   3.111   0.565 -2.3268 -1.4885 -1.5648
 4267SOL    HW224261   4.564   3.042   0.698  1.6228  0.6717 -0.7615
 4268SOL     OW24262   0.613   4.091   1.156  0.6871  0.0559 -0.0397
 4268SOL    HW124263   0.555   4.031   1.203 -0.5848 -1.0969 -3.1368
 4268SOL    HW224264   0.546   4.154   1.129  1.0849  0.8317  0.7415
 4269SOL     OW24265   2.921   0.432   6.476 -0.0923  0.6696 -0.1502
 4269SOL    HW124266   2.969   0.467   6.401 -2.6615 -0.9538 -2.5659
 4269SOL    HW224267   2.996   0.409   6.531  0.0945  2.3240  0.2880
 4270SOL     OW24268   0.318   4.676   4.082  0.2869 -0.3182 -0.7606
 4270SOL    HW124269   0.270   4.655   4.002 -2.0457 -1.0626  0.8461
 4270SOL    HW224270   0.272   0.038   4.103  0.2233 -0.2617 -1.1154
 4271SOL     OW24271   1.407   4.141  14.775  0.7380 -0.0513 -0.1039
 4271SOL    HW124272   1.434   4.112  14.687 -0.3481 -1.3130 -0.0156
 4271SOL    HW224273   1.475   4.207  14.791  0.0234  0.9302 -1.1511
 4272SOL     OW24274   4.489   3.822   4.192  0.4302  0.3194 -0.6553
 4272SOL    HW124275   4.564   3.856   4.241 -1.3370  3.9110 -0.4493
 4272SOL    HW224276   4.441   3.792   4.269 -0.9301  0.2476 -1.5270
 4273SOL     OW24277   2.887   2.021  14.410  0.1420 -0.0018  0.3523
 4273SOL    HW124278   2.833   2.099  14.424  0.4495 -0.0620  1.9008
 4273SOL    HW224279   2.826   1.955  14.442  0.2972 -0.6126 -0.6096
 4274SOL     OW24280   1.301   0.417   5.674  0.4432  0.1851  0.1657
 4274SOL    HW124281   1.296   0.490   5.735  0.7025 -0.3213  0.7865
 4274SOL    HW224282   1.293   0.344   5.735  2.3600 -0.0756  0.1044
 4275SOL     OW24283   1.560   2.491   8.828  0.8745  0.5233 -0.3834
 4275SOL    HW124284   1.560   2.433   8.751 -2.1069  0.7557 -0.5602
 4275SOL    HW224285   1.646   2.471   8.863  0.8413 -1.3360 -1.3401
 4276SOL     OW24286   1.846   1.737   3.514  0.4423  0.3994 -0.3367
 4276SOL    HW124287   1.887   1.673   3.456  0.8849 -0.9856  1.5221
 4276SOL    HW224288   1.861   1.822   3.474  1.6942 -0.8496 -2.5602
 4277SOL     OW24289   3.180   2.875   5.616  0.1116  0.2638 -0.0752
 4277SOL    HW124290   3.244   2.935   5.652 -0.7666  1.1738 -0.0318
 4277SOL    HW224291   3.216   2.862   5.529 -0.2818 -1.6718  0.0424
 4278SOL     OW24292   3.096   4.571   9.875 -0.4648 -0.4173 -0.2861
 4278SOL    HW124293   3.131   4.648   9.919  0.8647 -0.1870 -1.7466
 4278SOL    HW224294   3.061   4.525   9.951 -1.7109 -1.6696 -1.6034
 4279SOL     OW24295   0.312   0.823  14.486  0.0926  0.3232 -0.4363
 4279SOL    HW124296   0.349   0.878  14.417 -1.7344 -1.3261 -2.7592
 4279SOL    HW224297   0.230   0.805  14.441  0.3710 -0.2273 -0.7235
 4280SOL     OW24298   1.949   0.539   4.959  0.6051  0.2605  0.0302
 4280SOL    HW124299   1.954   0.572   5.049 -2.6475 -2.6832  1.2878
 4280SOL    HW224300   2.041   0.526   4.933  0.0203  0.8077 -2.2934
 4281SOL     OW24301   4.487   2.920   7.036  0.2310  0.0118  0.1795
 4281SOL    HW124302   4.520   2.903   7.124 -1.8085 -0.3938  0.8517
 4281SOL    HW224303   4.482   3.016   7.032  2.3880  0.0339 -2.0583
 4282SOL     OW24304   1.382   3.919   8.660 -0.6428  0.4913  0.2870
 4282SOL    HW124305   1.471   3.891   8.638 -0.5323  0.9096  0.1826
 4282SOL    HW224306   1.333   3.848   8.619  1.4460 -1.8542  1.8602
 4283SOL     OW24307   2.349   3.009  12.244  0.2056  0.2612  0.1102
 4283SOL    HW124308   2.309   3.037  12.326 -2.8006 -2.2570 -0.5143
 4283SOL    HW224309   2.436   3.040  12.271  0.3237  0.2052 -0.2027
 4284SOL     OW24310   0.632   1.702   5.243  0.5321  0.1754 -0.2482
 4284SOL    HW124311   0.594   1.616   5.224  2.8551 -0.7004 -0.9825
 4284SOL    HW224312   0.628   1.735   5.153 -2.9469 -0.6291 -0.3940
 4285SOL     OW24313   3.543   1.994   3.360 -0.1291  0.7795  0.0703
 4285SOL    HW124314   3.565   1.918   3.307  0.9169  0.9866  0.2150
 4285SOL    HW224315   3.472   1.956   3.412 -0.0084 -2.9951 -2.5077
 4286SOL     OW24316   1.088   1.369   5.916 -0.1823 -0.4773 -0.4025
 4286SOL    HW124317   1.066   1.415   5.835  1.9547  0.6391 -0.3605
 4286SOL    HW224318   1.106   1.445   5.972 -1.8499 -0.1682 -0.2921
 4287SOL     OW24319   2.072   0.077   0.656 -0.2036 -0.0501  0.4042
 4287SOL    HW124320   1.999   0.102   0.600 -0.1051  1.3205  0.8890
 4287SOL    HW224321   2.041   4.713   0.693 -2.3805  0.4889 -0.1990
 4288SOL     OW24322   2.455   2.188   2.770  0.0097 -0.0601  0.2610
 4288SOL    HW124323   2.462   2.106   2.818 -0.6041 -1.5717 -2.2108
 4288SOL    HW224324   2.364   2.189   2.738  0.1030 -1.2150 -0.0164
 4289SOL     OW24325   4.045   1.002  13.301  0.5848  0.1917  0.4575
 4289SOL    HW124326   3.999   1.008  13.385 -1.4888  1.9525 -0.8133
 4289SOL    HW224327   4.131   0.976  13.334 -0.1499 -1.9177  0.7018
 4290SOL     OW24328   0.603   3.206   2.306 -0.2554 -0.4572  0.3033
 4290SOL    HW124329   0.584   3.291   2.346 -1.6715 -0.8356  0.4497
 4290SOL    HW224330   0.520   3.162   2.324 -0.7879  0.2418 -0.4224
 4291SOL     OW24331   4.237   1.539   2.642  0.0210 -0.3288  0.1888
 4291SOL    HW124332   4.152   1.581   2.630  0.3040  0.4260  0.8532
 4291SOL    HW224333   4.231   1.486   2.722 -1.7791 -2.7101 -1.5207
 4292SOL     OW24334   3.731   1.370   4.926  0.2481 -0.3932  0.6729
 4292SOL    HW124335   3.728   1.333   4.837  1.8035 -0.7628  0.7700
 4292SOL    HW224336   3.734   1.462   4.898 -0.7892 -0.4546  0.3534
 4293SOL     OW24337   3.142   2.197   5.523 -0.0496  0.0163  0.4940
 4293SOL    HW124338   3.171   2.287   5.514  0.5965 -0.0443  1.9955
 4293SOL    HW224339   3.169   2.168   5.436 -1.5118 -2.6261  0.9097
 4294SOL     OW24340   0.318   1.257   5.273 -0.6673 -0.4830 -0.1973
 4294SOL    HW124341   0.352   1.209   5.348  0.8181 -0.1661 -0.6538
 4294SOL    HW224342   0.380   1.330   5.281  0.2861 -1.2178 -0.8033
 4295SOL     OW24343   0.613   3.748  11.255 -0.3178  0.7023 -0.0512
 4295SOL    HW124344   0.692   3.768  11.305 -0.8640 -1.2838  1.6119
 4295SOL    HW224345   0.570   3.685  11.313 -1.9181  0.2749 -1.6917
 4296SOL     OW24346   3.440   0.142   8.909 -0.0099 -0.1885 -0.0237
 4296SOL    HW124347   3.520   0.107   8.947 -0.2664 -1.5054 -0.7099
 4296SOL    HW224348   3.421   0.099   8.826 -0.9232 -1.7145  0.9897
 4297SOL     OW24349   0.935   1.563   4.187 -0.3840  0.2329  0.2659
 4297SOL    HW124350   0.978   1.647   4.202  1.2109 -0.4101 -0.7805
 4297SOL    HW224351   0.880   1.595   4.116 -0.1569  1.2494  0.5438
 4298SOL     OW24352   0.902   2.728   0.546 -0.5610 -0.5307 -0.0990
 4298SOL    HW124353   0.845   2.794   0.585 -2.1206 -0.6660 -2.1299
 4298SOL    HW224354   0.964   2.708   0.616 -0.8928 -0.3306  0.2536
 4299SOL     OW24355   4.061   2.298   8.023 -0.1127  0.6894 -0.0997
 4299SOL    HW124356   4.004   2.221   8.031 -0.4883  0.6060 -3.6011
 4299SOL    HW224357   4.018   2.332   7.945 -0.2041 -1.3751 -0.9529
 4300SOL     OW24358   1.026   0.413   5.055  0.3460 -0.0286 -0.0766
 4300SOL    HW124359   0.968   0.488   5.038  0.4799  0.4545  1.6430
 4300SOL    HW224360   1.101   0.454   5.012  0.6892 -1.7299 -1.0979
 4301SOL     OW24361   1.013   3.568  14.808  0.3324  0.0694 -0.0688
 4301SOL    HW124362   0.998   3.567  14.714 -1.4601 -2.4887  0.2481
 4301SOL    HW224363   1.104   3.595  14.816  0.4264 -0.4623  0.6837
 4302SOL     OW24364   4.323   4.405   4.153 -0.5169 -0.3456 -0.4651
 4302SOL    HW124365   4.242   4.387   4.106 -0.7206  3.4861 -1.5965
 4302SOL    HW224366   4.332   4.316   4.187 -1.3880 -1.0701 -2.1175
 4303SOL     OW24367   0.942   0.068  15.114  0.2275  0.1397 -0.4658
 4303SOL    HW124368   0.919   4.705  15.072  1.5803 -1.4707  2.0372
 4303SOL    HW224369   0.908   0.049  15.201 -0.2503  4.2172  0.2645
 4304SOL     OW24370   2.741   3.704  11.320 -0.0323  0.0646 -0.5140
 4304SOL    HW124371   2.662   3.758  11.314  0.4923  1.0933  2.0029
 4304SOL    HW224372   2.771   3.717  11.230  0.0817 -1.1861 -0.6579
 4305SOL     OW24373   2.100   0.839   7.494 -0.2225 -0.0704 -0.3215
 4305SOL    HW124374   2.139   0.843   7.581 -0.8887 -0.2245 -0.0164
 4305SOL    HW224375   2.116   0.931   7.474 -1.3613  0.2218  0.1023
 4306SOL     OW24376   0.246   1.816   4.075 -0.1456  0.5134 -0.1290
 4306SOL    HW124377   0.201   1.895   4.043  1.9056  0.9612 -1.9003
 4306SOL    HW224378   0.204   1.753   4.016 -0.1403  1.6587 -1.3612
 4307SOL     OW24379   0.874   4.309   2.554 -0.0623 -0.0454  0.5753
 4307SOL    HW124380   0.852   4.218   2.537 -0.7257  0.1174  0.5807
 4307SOL    HW224381   0.951   4.309   2.611  0.5611  1.1172 -0.2407
 4308SOL     OW24382   4.091   2.770   5.585  0.6356  0.7902  0.5091
 4308SOL    HW124383   4.014   2.751   5.531  1.7423  0.5536 -0.9931
 4308SOL    HW224384   4.097   2.695   5.644 -0.2087 -0.4316 -0.9628
 4309SOL     OW24385   4.319   2.325   4.749  0.0573 -0.0321 -0.4530
 4309SOL    HW124386   4.339   2.347   4.658  1.0334  1.2161  0.0701
 4309SOL    HW224387   4.344   2.407   4.790 -2.3109  1.2272 -1.4993
 4310SOL     OW24388   3.903   1.841   8.103  0.1566 -0.6752 -0.1378
 4310SOL    HW124389   3.809   1.841   8.117  0.0031 -2.2235 -1.2298
 4310SOL    HW224390   3.905   1.772   8.037 -0.3036 -0.4618 -0.3684
 4311SOL     OW24391   1.317   1.727   5.347  0.0756 -1.0969 -0.6220
 4311SOL    HW124392   1.284   1.704   5.260  0.8843  0.2639 -1.2771
 4311SOL    HW224393   1.238   1.708   5.398  0.7707  3.4494  2.0926
 4312SOL     OW24394   1.265   0.436  10.864  0.0974  0.1244  0.7402
 4312SOL    HW124395   1.195   0.397  10.916 -1.9375  1.8878 -0.6669
 4312SOL    HW224396   1.212   0.500  10.817  2.1189  0.6215 -0.8821
 4313SOL     OW24397   0.031   4.024   3.841 -0.7825 -0.2800  0.0942
 4313SOL    HW124398   0.066   4.075   3.914 -0.6255  1.9235 -1.5070
 4313SOL    HW224399   4.675   3.976   3.874  0.7866 -1.4604  1.9461
 4314SOL     OW24400   4.369   0.686   2.680 -0.1644  0.0870 -0.6664
 4314SOL    HW124401   4.283   0.727   2.676 -0.2505  0.0644  0.8002
 4314SOL    HW224402   4.345   0.593   2.678 -0.4953  0.1808 -1.0407
 4315SOL     OW24403   3.721   3.123   6.523 -0.2626  0.3433 -0.2824
 4315SOL    HW124404   3.775   3.123   6.444  0.9399  3.5637  0.5350
 4315SOL    HW224405   3.778   3.180   6.575  0.0316 -0.0454 -0.1760
 4316SOL     OW24406   1.115   0.462   1.256 -0.3905  0.4975 -0.2418
 4316SOL    HW124407   1.029   0.446   1.217  0.1344 -0.6671 -0.9236
 4316SOL    HW224408   1.087   0.479   1.346  0.5721 -3.0767  0.7387
 4317SOL     OW24409   0.497   3.093   1.374  0.3796  0.2542 -0.3384
 4317SOL    HW124410   0.410   3.119   1.406  0.3368 -2.1211  1.4492
 4317SOL    HW224411   0.505   3.131   1.287  0.8983  0.2815 -0.2749
 4318SOL     OW24412   2.122   2.499   6.299 -0.6574  0.1316 -0.6296
 4318SOL    HW124413   2.145   2.454   6.218 -0.9137 -0.2197 -0.5087
 4318SOL    HW224414   2.027   2.504   6.305 -0.4908  3.2815 -0.9348
 4319SOL     OW24415   4.044   1.998   7.848 -0.3082  0.0196  0.4205
 4319SOL    HW124416   3.956   1.986   7.884 -0.6356  0.8352 -0.1032
 4319SOL    HW224417   4.032   1.951   7.766 -1.8656 -2.8969  2.3503
 4320SOL     OW24418   2.191   0.344   2.666  0.3889  0.9484 -0.5594
 4320SOL    HW124419   2.171   0.364   2.575  2.9948  0.9348 -1.1370
 4320SOL    HW224420   2.253   0.271   2.663  0.0683  0.6150  0.8046
 4321SOL     OW24421   3.442   1.626   8.087 -0.3801 -0.6407  0.2288
 4321SOL    HW124422   3.402   1.698   8.038  0.0770  0.3274  1.2575
 4321SOL    HW224423   3.361   1.587   8.120  0.0823  0.0432  2.2039
 4322SOL     OW24424   4.159   2.047   5.819 -0.2136  0.9543 -0.2685
 4322SOL    HW124425   4.170   2.075   5.728 -0.7962  0.9988 -0.3281
 4322SOL    HW224426   4.063   2.046   5.824 -0.3449  1.7639 -2.5929
 4323SOL     OW24427   3.358   1.972  13.615 -0.0108  0.4631  0.1472
 4323SOL    HW124428   3.310   1.972  13.532  1.0172  3.0334 -0.4493
 4323SOL    HW224429   3.446   1.968  13.576 -0.0555  0.1632  0.0767
 4324SOL     OW24430   4.703   2.507   3.027 -0.6528  0.0237  0.0668
 4324SOL    HW124431   4.682   2.498   3.120 -1.9016 -1.3245 -0.3397
 4324SOL    HW224432   4.713   2.602   3.019  0.1697 -0.1350 -0.7314
 4325SOL     OW24433   2.530   4.414   6.191  0.1197 -0.1942 -0.2400
 4325SOL    HW124434   2.506   4.469   6.116 -1.5522  0.7668  1.0084
 4325SOL    HW224435   2.618   4.447   6.209 -0.2143  0.6178 -0.1277
 4326SOL     OW24436   3.186   3.427   7.538  0.0305 -0.0533  0.2588
 4326SOL    HW124437   3.115   3.480   7.502  0.2625 -0.5954 -0.9914
 4326SOL    HW224438   3.261   3.472   7.500  0.9166  0.0559  2.1139
 4327SOL     OW24439   0.165   0.610   9.563  0.1913 -0.5049 -0.3856
 4327SOL    HW124440   0.149   0.678   9.629  1.5334 -1.3499  0.7970
 4327SOL    HW224441   0.258   0.591   9.572 -0.2429 -2.6031 -0.2713
 4328SOL     OW24442   3.130   1.477   5.250  1.0802 -0.5389 -0.3822
 4328SOL    HW124443   3.066   1.549   5.252  0.6202 -0.9943  1.4899
 4328SOL    HW224444   3.148   1.483   5.157  3.4919 -0.8517  0.0796
 4329SOL     OW24445   2.132   3.162   4.135 -0.7828 -0.4910 -0.3288
 4329SOL    HW124446   2.169   3.248   4.112  1.0699 -0.4826  2.5930
 4329SOL    HW224447   2.086   3.149   4.052 -1.3572  0.4654 -0.1730
 4330SOL     OW24448   3.947   3.257  10.051 -0.1223  0.3784 -0.6312
 4330SOL    HW124449   3.949   3.269   9.957  2.9054  1.0037 -0.4733
 4330SOL    HW224450   3.974   3.343  10.083  0.0388 -0.7620  2.3110
 4331SOL     OW24451   0.745   2.132   4.876 -0.0212 -0.2554 -0.9741
 4331SOL    HW124452   0.667   2.094   4.836 -0.4665  1.2231 -1.5082
 4331SOL    HW224453   0.750   2.097   4.965 -0.5614  0.8762 -0.4962
 4332SOL     OW24454   2.215   2.149   6.255  0.2114 -0.9291 -0.3716
 4332SOL    HW124455   2.232   2.243   6.266  2.1812 -1.2928 -0.3315
 4332SOL    HW224456   2.302   2.109   6.247  1.2219  1.1818  0.1152
 4333SOL     OW24457   1.094   0.811  12.935 -0.3431 -0.3065 -0.2102
 4333SOL    HW124458   1.167   0.794  12.876  0.3255  1.9671 -0.0204
 4333SOL    HW224459   1.062   0.893  12.899  0.3291  0.0523  0.0199
 4334SOL     OW24460   4.099   2.697   1.665  0.0344 -0.9148 -0.5026
 4334SOL    HW124461   4.160   2.630   1.635 -0.8367 -2.4288  1.1735
 4334SOL    HW224462   4.089   2.669   1.756 -1.0621 -0.1464 -0.3962
 4335SOL     OW24463   2.641   1.310   8.105 -0.0566  0.3262 -0.1632
 4335SOL    HW124464   2.725   1.312   8.060  0.3876 -0.8914  0.6296
 4335SOL    HW224465   2.581   1.268   8.043 -1.3555 -0.2085  1.4772
 4336SOL     OW24466   1.882   3.309   2.140  0.3863 -0.3277 -0.2191
 4336SOL    HW124467   1.910   3.304   2.231 -0.3023 -0.9483 -0.0344
 4336SOL    HW224468   1.863   3.217   2.119 -1.0652  0.2256 -1.3504
 4337SOL     OW24469   4.659   2.487  11.424 -0.1435  0.4155 -0.1860
 4337SOL    HW124470   4.705   2.407  11.452 -1.0021 -1.0487 -2.9181
 4337SOL    HW224471   0.018   2.523  11.382 -1.6370  2.2864 -1.3263
 4338SOL     OW24472   0.788   2.405   2.614 -0.2848 -0.1586 -0.2816
 4338SOL    HW124473   0.854   2.366   2.672  0.1414  0.2003 -0.5273
 4338SOL    HW224474   0.854   2.439   2.553 -0.5920 -0.3205 -0.7060
 4339SOL     OW24475   3.406   2.113   7.849 -0.4525  0.4040  0.0838
 4339SOL    HW124476   3.325   2.070   7.877  0.3977  0.2290  2.2808
 4339SOL    HW224477   3.439   2.172   7.917  2.0374 -0.8986 -0.0068
 4340SOL     OW24478   0.358   2.781  17.102 -0.2316  0.6831 -0.4031
 4340SOL    HW124479   0.410   2.705  17.079 -0.0128  0.4467  0.8791
 4340SOL    HW224480   0.351   2.762  17.195  3.5032  1.1376 -0.0430
 4341SOL     OW24481   4.489   1.240   6.629 -0.2575 -0.2894  0.7061
 4341SOL    HW124482   4.578   1.206   6.619 -0.0590 -0.2566  2.3172
 4341SOL    HW224483   4.447   1.188   6.560 -1.5524  1.7866 -0.0503
 4342SOL     OW24484   0.091   2.019   3.993 -0.5338  0.0556  0.1254
 4342SOL    HW124485   0.025   1.986   3.932 -0.3211 -0.3382  0.1107
 4342SOL    HW224486   0.071   2.112   3.986 -0.3080  0.0371 -0.6722
 4343SOL     OW24487   4.047   3.527   5.672 -0.2156 -0.0372 -0.1610
 4343SOL    HW124488   4.106   3.461   5.707 -0.9178 -1.5446 -1.8345
 4343SOL    HW224489   4.091   3.613   5.669 -3.3372  1.5385 -0.5978
 4344SOL     OW24490   4.499   2.888   5.334  0.5525  0.2075  0.5833
 4344SOL    HW124491   4.477   2.800   5.305  4.2910  0.1556 -2.1177
 4344SOL    HW224492   4.458   2.939   5.264  2.6020  0.5901 -0.3461
 4345SOL     OW24493   4.271   1.421   5.815 -0.7318 -0.4210 -0.0746
 4345SOL    HW124494   4.248   1.491   5.753  0.0615  0.8837  1.1211
 4345SOL    HW224495   4.231   1.448   5.897  1.2655 -1.4025  1.2124
 4346SOL     OW24496   4.547   0.273   6.277 -0.1107  0.2853 -0.0248
 4346SOL    HW124497   4.464   0.225   6.284  0.3335 -0.5284 -0.2714
 4346SOL    HW224498   4.610   0.202   6.294  0.2755  0.7294  0.4214
 4347SOL     OW24499   0.771   3.181   2.921  0.2494  0.0719  0.0576
 4347SOL    HW124500   0.774   3.228   3.004 -0.0578  2.2708 -1.1564
 4347SOL    HW224501   0.733   3.247   2.863  0.6209 -0.0444 -0.3285
 4348SOL     OW24502   0.674   2.542   3.527 -0.2115  0.3539 -0.2424
 4348SOL    HW124503   0.708   2.455   3.509  0.3323  0.2207  1.4107
 4348SOL    HW224504   0.638   2.574   3.444 -1.3342 -0.9604 -0.2637
 4349SOL     OW24505   3.478   0.280   3.073  0.2128  0.6776 -0.5259
 4349SOL    HW124506   3.556   0.224   3.069 -0.0851  0.3589 -1.9625
 4349SOL    HW224507   3.519   0.359   3.039  3.2899 -0.4681  0.4742
 4350SOL     OW24508   4.104   2.515   2.505 -0.4733 -0.1373 -0.2551
 4350SOL    HW124509   4.035   2.505   2.570  0.0108  1.8802  0.5871
 4350SOL    HW224510   4.175   2.564   2.549 -1.2137  3.0836 -2.6123
 4351SOL     OW24511   0.222   4.624   7.544 -0.4335 -0.1746 -0.0806
 4351SOL    HW124512   0.197   4.550   7.489  1.3466 -0.7104 -0.1544
 4351SOL    HW224513   0.314   4.604   7.560 -0.1849  0.5608 -0.5481
 4352SOL     OW24514   0.851   2.201   6.245  0.2420  0.0724  0.2941
 4352SOL    HW124515   0.827   2.222   6.336  1.8711 -2.9862  1.4270
 4352SOL    HW224516   0.917   2.133   6.257  0.7115  0.6337  0.8988
 4353SOL     OW24517   3.982   0.289   6.111  0.2985  0.0805  0.4313
 4353SOL    HW124518   3.994   0.251   6.198 -0.3035  1.1417  0.9802
 4353SOL    HW224519   4.026   0.372   6.128 -1.3037  1.2263 -1.0328
 4354SOL     OW24520   4.633   2.086   1.061  0.2338 -0.3664 -0.3085
 4354SOL    HW124521   4.593   2.173   1.059 -1.2048 -1.0806 -2.5616
 4354SOL    HW224522   4.613   2.069   1.153  1.4902  1.1119  0.2603
 4355SOL     OW24523   0.083   4.248   7.987  0.7047  0.2390 -0.0385
 4355SOL    HW124524   0.105   4.155   7.986 -0.2289  0.0165 -0.1958
 4355SOL    HW224525   0.013   4.257   8.052  1.5852  1.9869  0.6713
 4356SOL     OW24526   0.705   0.582  17.047  0.0177 -0.3213 -0.2589
 4356SOL    HW124527   0.688   0.496  17.007  0.3266 -0.8976  0.8507
 4356SOL    HW224528   0.626   0.631  17.024 -0.1738  0.5620  2.3092
 4357SOL     OW24529   1.607   1.385   9.549 -0.4692  0.8512  0.1312
 4357SOL    HW124530   1.679   1.328   9.575 -0.9517  1.2891  2.5095
 4357SOL    HW224531   1.583   1.348   9.465 -1.9859  0.0818  0.8934
 4358SOL     OW24532   4.226   1.404   5.518 -0.0236 -0.9832  0.2500
 4358SOL    HW124533   4.320   1.416   5.508 -0.3611  0.3421 -1.2925
 4358SOL    HW224534   4.190   1.425   5.432 -1.9797  0.7382  1.4761
 4359SOL     OW24535   0.132   0.289   1.455 -0.3458  0.2644 -0.3119
 4359SOL    HW124536   0.178   0.271   1.536  2.0054  0.3705 -1.6198
 4359SOL    HW224537   0.113   0.382   1.462 -1.4724 -0.1890  2.6121
 4360SOL     OW24538   4.231   1.728   4.967  0.2453 -0.2024  0.1415
 4360SOL    HW124539   4.147   1.774   4.973 -0.7732 -2.0658  0.3427
 4360SOL    HW224540   4.283   1.773   5.033 -0.7764  2.2986 -0.7569
 4361SOL     OW24541   4.476   3.167   5.847 -0.7058  0.0199  0.5211
 4361SOL    HW124542   4.482   3.076   5.878 -2.0857  0.3711  1.8529
 4361SOL    HW224543   4.440   3.215   5.922  1.8852  1.0291  1.0987
 4362SOL     OW24544   2.155   2.551  14.002 -0.1551  0.2933 -0.2111
 4362SOL    HW124545   2.146   2.539  13.907 -0.8760 -0.5584 -0.0391
 4362SOL    HW224546   2.082   2.492  14.019  0.4267 -0.2768  0.3088
 4363SOL     OW24547   2.404   0.216   4.716 -0.1100  0.4159 -0.1242
 4363SOL    HW124548   2.389   0.129   4.753  0.3292  0.4852  0.2105
 4363SOL    HW224549   2.462   0.185   4.647  0.0635 -1.4833  0.8700
 4364SOL     OW24550   0.105   0.085   7.335 -0.4355  0.3533 -1.0656
 4364SOL    HW124551   0.041   0.033   7.286 -1.0809  1.7383 -1.6977
 4364SOL    HW224552   0.152   0.024   7.391  1.1234  2.2286 -0.3279
 4365SOL     OW24553   1.880   1.560  13.279 -0.1884  0.0739 -0.0585
 4365SOL    HW124554   1.827   1.639  13.271  2.3140  1.8058  0.5235
 4365SOL    HW224555   1.829   1.498  13.227  1.9853 -3.3417  1.8365
 4366SOL     OW24556   2.855   3.348   7.298  0.4180  0.6859 -0.3230
 4366SOL    HW124557   2.879   3.291   7.371 -1.1884 -0.7097 -0.9083
 4366SOL    HW224558   2.943   3.384   7.285  0.4557  0.2535 -1.3054
 4367SOL     OW24559   2.337   3.206   5.010 -0.2415 -0.2407 -0.0321
 4367SOL    HW124560   2.260   3.249   5.046  0.5463  0.5513  0.7097
 4367SOL    HW224561   2.314   3.209   4.917 -1.6940  1.0719  0.3811
 4368SOL     OW24562   3.559   3.124  10.822 -0.3359  0.4611 -0.1487
 4368SOL    HW124563   3.641   3.094  10.783 -0.7002  0.5816 -0.9974
 4368SOL    HW224564   3.594   3.189  10.883 -0.2101  1.2783 -1.0895
 4369SOL     OW24565   1.144   4.547  10.641  0.0137 -0.0736  0.4516
 4369SOL    HW124566   1.148   4.611  10.570  1.0489 -2.4296 -1.6004
 4369SOL    HW224567   1.224   4.568  10.690 -0.3836  1.3473  0.4822
 4370SOL     OW24568   4.624   3.691   7.956 -0.0804  0.0170 -0.0671
 4370SOL    HW124569   4.562   3.733   7.897 -0.0130 -0.3675 -0.4171
 4370SOL    HW224570   4.569   3.680   8.033  0.5311 -0.7628  0.2712
 4371SOL     OW24571   4.587   1.283  14.915  0.2079  0.2479  0.0244
 4371SOL    HW124572   4.639   1.326  14.982 -1.4024  3.6976 -0.9024
 4371SOL    HW224573   4.586   1.348  14.844  0.0983 -1.1255 -1.2415
 4372SOL     OW24574   4.489   3.298   4.701  0.6120 -0.2649  0.0799
 4372SOL    HW124575   4.565   3.353   4.721  1.3743 -1.1619 -0.3743
 4372SOL    HW224576   4.505   3.242   4.625  1.2808  1.0129 -0.7249
 4373SOL     OW24577   0.088   2.597   1.307 -0.2868 -0.7343 -0.2612
 4373SOL    HW124578   0.183   2.608   1.318 -0.6052  0.3190  1.3108
 4373SOL    HW224579   0.091   2.636   1.219 -0.9320  1.7876  0.8571
 4374SOL     OW24580   2.916   1.815   6.717  0.4016 -0.1544  0.0240
 4374SOL    HW124581   2.930   1.793   6.625  1.5379 -0.1861  0.2111
 4374SOL    HW224582   3.005   1.829   6.748  0.1076  0.8256  0.4397
 4375SOL     OW24583   2.818   1.283   6.725 -0.1527  0.4835  0.3789
 4375SOL    HW124584   2.812   1.192   6.751  0.5426  1.1369  2.8081
 4375SOL    HW224585   2.773   1.278   6.641  0.0638 -0.3755  0.3141
 4376SOL     OW24586   2.611   1.636   8.125  0.5760 -0.8291 -0.3499
 4376SOL    HW124587   2.596   1.579   8.050 -1.7153 -2.1413  1.1269
 4376SOL    HW224588   2.704   1.618   8.140  0.5761 -0.8774 -0.4064
 4377SOL     OW24589   0.559   3.785   3.990  0.1682 -0.0892 -0.6950
 4377SOL    HW124590   0.651   3.806   3.973  0.2999  0.0353  0.2086
 4377SOL    HW224591   0.513   3.868   3.984  1.2279  0.6859  2.1859
 4378SOL     OW24592   3.337   2.383   9.017  0.2593 -0.5573  0.0490
 4378SOL    HW124593   3.268   2.360   9.079  0.4945 -1.5035 -0.0363
 4378SOL    HW224594   3.339   2.479   9.026  0.2160 -0.7266  1.8671
 4379SOL     OW24595   4.316   3.799   6.436  0.7226  0.1379 -0.0747
 4379SOL    HW124596   4.251   3.820   6.370 -2.0719  0.6982  2.8480
 4379SOL    HW224597   4.390   3.770   6.383  1.0806 -1.2463  1.1774
 4380SOL     OW24598   4.030   0.775   8.360 -0.2819  0.1128 -0.4246
 4380SOL    HW124599   3.966   0.709   8.336  2.3760 -2.6367  0.0641
 4380SOL    HW224600   4.067   0.802   8.276 -0.6484 -1.5702 -1.1120
 4381SOL     OW24601   4.062   4.034   2.625  0.1303 -0.0073 -0.1961
 4381SOL    HW124602   3.981   3.987   2.643  0.1462  0.5295  1.2867
 4381SOL    HW224603   4.053   4.110   2.683 -1.3399  1.2702 -2.1275
 4382SOL     OW24604   2.849   4.104   8.933  0.3064 -0.0070 -0.2329
 4382SOL    HW124605   2.899   4.185   8.939 -3.1966  2.2157 -0.7974
 4382SOL    HW224606   2.901   4.060   9.000  0.8312  0.0512 -0.6004
 4383SOL     OW24607   4.387   2.357   7.421 -0.4968 -0.4419  0.6686
 4383SOL    HW124608   4.396   2.340   7.515  3.0536  0.0501  0.4361
 4383SOL    HW224609   4.384   2.452   7.410  1.1275 -0.4934 -0.2909
 4384SOL     OW24610   2.449   1.002   2.969 -0.2277  0.3119 -0.6486
 4384SOL    HW124611   2.386   0.942   2.930  1.3106 -1.1525 -0.8755
 4384SOL    HW224612   2.491   0.942   3.031  2.2838  0.9474 -1.7419
 4385SOL     OW24613   4.312   2.017  16.770 -0.1299  0.7276  0.0678
 4385SOL    HW124614   4.364   1.994  16.693  0.1435  1.4976  0.0239
 4385SOL    HW224615   4.305   1.926  16.800 -0.3829  0.8792  0.4733
 4386SOL     OW24616   0.723   0.159   8.793  0.1104  0.6827 -0.1936
 4386SOL    HW124617   0.724   0.109   8.712  1.1652 -0.0633  0.2780
 4386SOL    HW224618   0.649   0.116   8.837 -0.0527  0.4969 -0.6577
 4387SOL     OW24619   4.443   3.855   7.382  0.4908 -0.6903 -0.1716
 4387SOL    HW124620   4.462   3.772   7.425  0.5453 -0.8487 -0.5015
 4387SOL    HW224621   4.380   3.899   7.439  0.1073  0.8548 -1.7700
 4388SOL     OW24622   3.313   3.943  14.240 -0.4719  0.2016 -0.0114
 4388SOL    HW124623   3.361   3.922  14.320  2.1474 -0.0764 -1.6533
 4388SOL    HW224624   3.326   4.037  14.231  1.0764 -0.0259 -0.0316
 4389SOL     OW24625   3.027   0.715  13.738 -0.2661  0.0277  0.0265
 4389SOL    HW124626   3.051   0.805  13.759  0.2997  0.1719 -1.2312
 4389SOL    HW224627   3.071   0.706  13.654  1.2023  0.1954  0.7873
 4390SOL     OW24628   4.208   3.329   7.395 -0.0429  0.5445 -0.2370
 4390SOL    HW124629   4.177   3.393   7.459  1.7253  0.3552  0.7835
 4390SOL    HW224630   4.121   3.295   7.372  0.6324 -1.6468  0.4483
 4391SOL     OW24631   3.319   4.609  13.409 -0.2391 -0.3456  0.1249
 4391SOL    HW124632   3.260   4.660  13.465  1.0710  2.8065 -1.3786
 4391SOL    HW224633   3.339   4.672  13.341 -2.6379 -1.6336 -1.8017
 4392SOL     OW24634   3.025   2.030  11.849 -0.3831 -0.3338 -0.4477
 4392SOL    HW124635   2.989   2.014  11.936  1.9171  1.1224  0.7717
 4392SOL    HW224636   3.100   2.085  11.869  1.2904 -2.0786 -1.9324
 4393SOL     OW24637   2.226   1.558  17.047  0.1605 -0.0277  0.5016
 4393SOL    HW124638   2.133   1.540  17.061 -0.4824  1.3616 -1.9392
 4393SOL    HW224639   2.270   1.563  17.132 -2.4112  1.3530  1.7253
 4394SOL     OW24640   0.587   1.293   5.606 -0.6483 -0.1635 -0.7180
 4394SOL    HW124641   0.679   1.281   5.629 -0.6091  0.3885 -0.5929
 4394SOL    HW224642   0.583   1.378   5.563 -1.6151  0.0357 -0.2326
 4395SOL     OW24643   3.863   3.859  10.731  0.1856  0.1328  0.2294
 4395SOL    HW124644   3.883   3.793  10.797 -1.0697 -0.2332  0.2455
 4395SOL    HW224645   3.832   3.800  10.662  1.5086 -1.1128  0.7105
 4396SOL     OW24646   1.320   4.282  10.795  0.1086  0.0832  0.5214
 4396SOL    HW124647   1.409   4.290  10.763 -0.1986  0.0884 -0.3328
 4396SOL    HW224648   1.325   4.336  10.875  1.7663 -0.1732  0.5804
 4397SOL     OW24649   0.491   3.053   4.329  0.0135 -0.3631 -0.4450
 4397SOL    HW124650   0.531   2.967   4.337  0.0987 -0.2252  0.6773
 4397SOL    HW224651   0.477   3.050   4.235 -1.0468  0.1380 -0.2990
 4398SOL     OW24652   0.679   3.369   0.968  0.1166 -0.7917  0.1278
 4398SOL    HW124653   0.660   3.277   0.947 -1.8989 -0.8741  2.2742
 4398SOL    HW224654   0.763   3.375   0.921 -0.3464  0.8618 -0.4498
 4399SOL     OW24655   2.142   2.911   5.173 -0.0043  0.0457  0.1383
 4399SOL    HW124656   2.107   2.987   5.219  1.8900  1.6773 -1.1312
 4399SOL    HW224657   2.222   2.882   5.215  1.2002  0.8652 -1.5686
 4400SOL     OW24658   4.419   3.433   4.300  0.0431  0.2887 -0.3963
 4400SOL    HW124659   4.366   3.485   4.240 -0.0942  1.9214  1.1289
 4400SOL    HW224660   4.490   3.490   4.329  0.7167  0.2306 -1.9236
 4401SOL     OW24661   3.432   1.749  15.569 -0.5990 -0.2891  0.6188
 4401SOL    HW124662   3.392   1.814  15.627 -5.0829 -3.2910  0.9366
 4401SOL    HW224663   3.428   1.665  15.615 -0.8393 -0.2897  0.5963
 4402SOL     OW24664   1.498   2.660   1.354 -0.0614 -0.3540  0.1543
 4402SOL    HW124665   1.533   2.744   1.382  1.1189 -0.5605 -0.6758
 4402SOL    HW224666   1.414   2.662   1.400 -0.0333 -1.4630  0.2567
 4403SOL     OW24667   3.179   3.708  14.290 -0.4969  0.3436 -0.8683
 4403SOL    HW124668   3.230   3.788  14.279  0.8616 -0.6916 -2.2638
 4403SOL    HW224669   3.241   3.650  14.335 -1.7864 -0.2573  0.1211
 4404SOL     OW24670   4.659   0.909   5.284  0.2427  0.1126  0.5104
 4404SOL    HW124671   0.033   0.909   5.264  0.5631 -0.1886  1.9878
 4404SOL    HW224672   4.637   0.999   5.258 -2.2742 -1.0463 -1.3259
 4405SOL     OW24673   4.239   4.110   5.841  0.5383  0.6398 -0.3923
 4405SOL    HW124674   4.206   4.053   5.772  0.4617  2.0611 -1.5260
 4405SOL    HW224675   4.245   4.046   5.912 -0.7786 -0.6040 -1.4027
 4406SOL     OW24676   3.897   2.971  14.757 -0.5431 -0.2002 -0.2765
 4406SOL    HW124677   3.983   2.952  14.794 -0.9401 -0.6998  0.3871
 4406SOL    HW224678   3.883   2.888  14.711  0.3000 -0.9458  0.8141
 4407SOL     OW24679   3.218   3.027   1.261  0.3382 -0.4191 -0.1940
 4407SOL    HW124680   3.299   3.033   1.211 -0.8018  1.6375 -1.7952
 4407SOL    HW224681   3.206   3.114   1.301  1.3798  0.2906 -1.4085
 4408SOL     OW24682   4.066   3.343  15.602 -0.0452  1.0525 -0.6478
 4408SOL    HW124683   4.161   3.337  15.589 -0.3019  0.0078 -2.0080
 4408SOL    HW224684   4.062   3.409  15.671  0.9017  0.9897 -0.5227
 4409SOL     OW24685   3.313   2.875  10.405  0.4085 -0.0321 -0.1129
 4409SOL    HW124686   3.297   2.941  10.337  0.0679 -0.5929 -0.5803
 4409SOL    HW224687   3.287   2.922  10.485  2.5688  0.0781  0.5315
 4410SOL     OW24688   0.234   2.482  16.535  0.1450 -0.0519 -0.0382
 4410SOL    HW124689   0.284   2.463  16.615 -2.4711 -0.5407  1.4677
 4410SOL    HW224690   0.203   2.393  16.516  0.3391 -0.6528  2.5327
 4411SOL     OW24691   2.875   3.129   1.751  0.8098 -0.0045 -0.3329
 4411SOL    HW124692   2.957   3.136   1.800 -0.6884  0.9196  2.0684
 4411SOL    HW224693   2.833   3.060   1.801 -0.5973 -0.3205 -1.9531
 4412SOL     OW24694   1.143   3.086  12.529  0.0260 -0.4605  0.1009
 4412SOL    HW124695   1.084   3.151  12.566  0.8231  0.7943 -0.7872
 4412SOL    HW224696   1.218   3.101  12.586 -0.3691  0.6018  0.3420
 4413SOL     OW24697   3.588   3.723   7.235  0.5128 -0.0747  0.3833
 4413SOL    HW124698   3.595   3.777   7.313  0.2991 -0.0013  0.3538
 4413SOL    HW224699   3.558   3.777   7.162 -1.3871  0.6727  1.7315
 4414SOL     OW24700   3.644   1.638  11.468 -0.3354 -0.2094  0.0063
 4414SOL    HW124701   3.739   1.634  11.484 -0.2038 -1.1549 -1.0120
 4414SOL    HW224702   3.648   1.661  11.375 -0.0906 -0.3864 -0.0262
 4415SOL     OW24703   2.660   4.639   7.924 -0.5578  0.1543  0.2893
 4415SOL    HW124704   2.656   4.640   8.019 -2.3103  1.7314  0.2009
 4415SOL    HW224705   2.651   0.013   7.906  1.4243  0.8894  3.1251
 4416SOL     OW24706   0.927   2.554   6.428  0.1340  0.3149  0.2353
 4416SOL    HW124707   0.942   2.509   6.511 -0.8807 -0.6945 -0.1307
 4416SOL    HW224708   0.900   2.639   6.463 -0.3152  0.8888 -1.5168
 4417SOL     OW24709   0.167   1.164   7.012 -0.4438 -0.2944  0.0059
 4417SOL    HW124710   0.261   1.186   7.009 -0.2450 -1.3187 -1.4352
 4417SOL    HW224711   0.129   1.252   7.010  0.5150  0.1637  2.4852
 4418SOL     OW24712   1.568   0.230   5.693  0.2015  0.6088  0.5737
 4418SOL    HW124713   1.484   0.202   5.655  0.4085 -1.0001  1.3086
 4418SOL    HW224714   1.584   0.313   5.647  1.5535 -0.3115 -0.5987
 4419SOL     OW24715   4.605   1.184   4.392  0.3865 -0.3645 -0.1363
 4419SOL    HW124716   4.669   1.223   4.452 -0.5687 -0.1640  0.7598
 4419SOL    HW224717   4.631   1.208   4.304  3.1656  0.0061  0.7887
 4420SOL     OW24718   0.957   2.771   4.214  0.1447  0.4140  0.2310
 4420SOL    HW124719   0.961   2.688   4.167  0.3380  0.5245  0.0499
 4420SOL    HW224720   0.986   2.836   4.150  3.1982  0.4326  1.6408
 4421SOL     OW24721   2.224   2.551   6.970 -0.3021  0.0571  0.5044
 4421SOL    HW124722   2.280   2.624   6.941 -0.3631  0.3708  1.1639
 4421SOL    HW224723   2.140   2.592   6.990  0.1656  2.2382 -1.9647
 4422SOL     OW24724   2.075   2.876   6.444  0.5577  0.1800  0.1571
 4422SOL    HW124725   2.009   2.876   6.373 -1.5184 -1.8724  2.0552
 4422SOL    HW224726   2.061   2.794   6.491  0.5690  0.3331  0.4223
 4423SOL     OW24727   0.031   1.150   5.609 -0.3075  0.1782  0.2171
 4423SOL    HW124728   0.057   1.075   5.556 -2.4301  1.3523 -2.4722
 4423SOL    HW224729   0.113   1.167   5.655 -0.7603  1.2111  0.6388
 4424SOL     OW24730   1.725   0.386  10.869  1.1351 -0.6517 -0.4214
 4424SOL    HW124731   1.774   0.307  10.892 -0.0811 -1.5098 -0.7990
 4424SOL    HW224732   1.681   0.360  10.788 -3.5957 -0.0649  1.9681
 4425SOL     OW24733   0.659   0.047   4.024 -0.0022  0.3954 -0.3227
 4425SOL    HW124734   0.605   0.071   3.949  0.7483 -0.2066 -1.0640
 4425SOL    HW224735   0.604   0.069   4.099 -0.7395  0.4136 -0.8740
 4426SOL     OW24736   0.768   2.048  10.214  0.3420  0.1429 -0.4445
 4426SOL    HW124737   0.750   2.055  10.308  0.8805 -1.4422 -0.2105
 4426SOL    HW224738   0.686   2.085  10.182 -0.5867  0.3128  2.1472
 4427SOL     OW24739   1.954   4.311  11.049  0.0412  0.2796 -0.2226
 4427SOL    HW124740   1.938   4.314  11.143 -0.7308  0.0220 -0.3378
 4427SOL    HW224741   2.046   4.335  11.059  0.3497 -1.0188  0.0886
 4428SOL     OW24742   4.561   4.628  13.475 -0.4359  0.4599 -0.2031
 4428SOL    HW124743   4.532   4.670  13.556 -2.2476 -0.8898 -0.1399
 4428SOL    HW224744   4.557   4.538  13.509 -1.2750  0.8357  0.6787
 4429SOL     OW24745   0.819   3.059   1.641  0.0901 -0.0927 -0.3914
 4429SOL    HW124746   0.884   3.006   1.687  0.5066  1.1815  0.4617
 4429SOL    HW224747   0.741   3.014   1.675 -0.4056  1.3700  0.4058
 4430SOL     OW24748   0.715   0.992  17.253  0.0494 -0.4279  0.1579
 4430SOL    HW124749   0.668   1.046  17.190  1.4433  0.3782 -0.1945
 4430SOL    HW224750   0.806   1.023  17.255 -0.7927  1.8771  2.6628
 4431SOL     OW24751   3.036   1.645   4.249  0.2267 -0.8301  0.1260
 4431SOL    HW124752   2.995   1.580   4.306 -0.1182 -0.2840  0.5046
 4431SOL    HW224753   3.128   1.620   4.257  0.6705  0.6174 -0.4251
 4432SOL     OW24754   2.979   0.166   8.542 -0.0180 -0.2490 -0.3820
 4432SOL    HW124755   2.946   0.076   8.541  0.5712 -0.4524 -1.7490
 4432SOL    HW224756   2.905   0.213   8.503 -0.9494 -1.3279  0.0817
 4433SOL     OW24757   4.326   0.408   8.599  0.1071 -0.1335  0.7239
 4433SOL    HW124758   4.387   0.479   8.618 -2.2513  1.3369  2.8747
 4433SOL    HW224759   4.259   0.438   8.661 -1.0510 -1.6905  0.2476
 4434SOL     OW24760   1.504   3.197  10.164 -0.0571  0.1054  0.3251
 4434SOL    HW124761   1.418   3.196  10.206 -1.1562  0.2465 -1.9420
 4434SOL    HW224762   1.507   3.108  10.130 -2.3953  0.7205 -1.5176
 4435SOL     OW24763   1.190   2.161   3.607 -0.1128 -0.2032  0.3749
 4435SOL    HW124764   1.198   2.080   3.555 -0.1636  0.5193 -0.7708
 4435SOL    HW224765   1.275   2.158   3.651  1.2405  1.6341 -2.0669
 4436SOL     OW24766   2.161   0.405   5.229  0.3210 -0.0144 -0.1977
 4436SOL    HW124767   2.241   0.365   5.196  0.9499  1.1525 -0.0881
 4436SOL    HW224768   2.109   0.327   5.210 -2.5844  1.5883  1.0836
 4437SOL     OW24769   0.133   3.086  11.290  0.5366  0.1645  0.4677
 4437SOL    HW124770   0.154   3.057  11.201 -0.5837  1.5744 -0.2522
 4437SOL    HW224771   0.208   3.144  11.299  0.9875 -0.3511  0.0683
 4438SOL     OW24772   0.475   3.528   3.746 -0.4595 -0.3566 -0.3788
 4438SOL    HW124773   0.485   3.441   3.708 -0.7855 -0.7573  0.4461
 4438SOL    HW224774   0.435   3.586   3.682 -0.9694  1.2031  1.3352
 4439SOL     OW24775   0.403   2.049   3.689  0.3572  0.2624  0.1995
 4439SOL    HW124776   0.435   1.986   3.625 -1.5649 -1.1987  0.6542
 4439SOL    HW224777   0.309   2.032   3.689  0.5982 -1.0257 -1.6250
 4440SOL     OW24778   4.145   3.487   6.164 -0.1758  0.4475 -0.2645
 4440SOL    HW124779   4.077   3.425   6.138 -2.2021  2.3925  0.4864
 4440SOL    HW224780   4.126   3.521   6.251 -0.0682  1.0073 -0.4637
 4441SOL     OW24781   0.212   3.155   8.551  0.0541 -0.1150 -0.1179
 4441SOL    HW124782   0.127   3.113   8.537  0.4728 -0.4271 -1.7166
 4441SOL    HW224783   0.214   3.147   8.647 -0.1185  2.3517  0.0954
 4442SOL     OW24784   0.966   4.350  11.955  0.0745 -0.4391  0.0670
 4442SOL    HW124785   1.020   4.289  11.904 -1.5580 -1.3753 -0.5283
 4442SOL    HW224786   0.997   4.334  12.044 -0.5875  2.8178  0.8912
 4443SOL     OW24787   3.268   3.145   4.341 -0.0760 -0.2279 -0.8077
 4443SOL    HW124788   3.208   3.113   4.408  0.5667 -1.7652 -0.9486
 4443SOL    HW224789   3.344   3.100   4.378  0.7720  1.4347 -0.5348
 4444SOL     OW24790   0.045   0.803   0.919 -0.5357  0.0060  0.4743
 4444SOL    HW124791   0.104   0.791   0.845 -0.1687  1.2683  0.5600
 4444SOL    HW224792   0.110   0.843   0.977 -0.8205  1.0201  0.1002
 4445SOL     OW24793   2.102   3.544   2.778  0.2725  0.2919 -0.0106
 4445SOL    HW124794   2.018   3.513   2.744  0.1840  0.4142  0.0939
 4445SOL    HW224795   2.139   3.582   2.698 -0.0041  0.1523 -0.2044
 4446SOL     OW24796   2.900   3.143  10.788 -0.1254  0.0810 -0.1507
 4446SOL    HW124797   2.859   3.228  10.774 -0.2685 -0.3572 -2.5045
 4446SOL    HW224798   2.861   3.109  10.868  1.1705 -1.5364 -0.1870
 4447SOL     OW24799   4.000   4.311   3.305  0.4595 -0.0459 -0.2096
 4447SOL    HW124800   4.072   4.327   3.243  0.1083  1.8725 -0.1305
 4447SOL    HW224801   3.995   4.401   3.336  1.8447  0.6612 -1.9787
 4448SOL     OW24802   3.686   0.611   2.589 -0.3181  0.0743  0.3555
 4448SOL    HW124803   3.612   0.594   2.647  1.0196 -1.0709  1.7113
 4448SOL    HW224804   3.639   0.648   2.515 -0.4070 -1.0673 -0.1568
 4449SOL     OW24805   4.432   1.396   3.351 -0.7906  0.2623 -0.1139
 4449SOL    HW124806   4.520   1.428   3.332 -0.5362  0.3452  1.1873
 4449SOL    HW224807   4.439   1.412   3.445 -2.8535 -2.1890  0.4436
 4450SOL     OW24808   3.908   0.933   5.271 -0.3558  0.1351 -0.4679
 4450SOL    HW124809   3.849   0.990   5.321 -0.7826  0.8704 -1.7989
 4450SOL    HW224810   3.849   0.913   5.199  0.4656 -1.0181 -0.8086
 4451SOL     OW24811   4.164   1.787   1.566 -0.7558  0.2471 -0.2522
 4451SOL    HW124812   4.164   1.881   1.552  0.8693  0.5731  1.9509
 4451SOL    HW224813   4.084   1.764   1.518 -1.4666  0.8768  0.6285
 4452SOL     OW24814   1.174   3.868  13.502 -0.2460  0.7431  0.5600
 4452SOL    HW124815   1.209   3.790  13.547 -0.2933 -0.8939 -2.2323
 4452SOL    HW224816   1.179   3.927  13.577 -0.1314  1.0278  0.3288
 4453SOL     OW24817   0.488   0.986   2.335 -0.1496  0.3685  0.2250
 4453SOL    HW124818   0.398   0.953   2.332 -0.9482  2.4142  1.1540
 4453SOL    HW224819   0.489   1.061   2.275  0.2363  1.0602  1.0767
 4454SOL     OW24820   2.058   0.573   3.932 -0.0084 -0.3055  0.4225
 4454SOL    HW124821   2.024   0.484   3.923 -1.8554  0.3597  0.7338
 4454SOL    HW224822   2.029   0.620   3.854  3.2810  1.5365  0.3128
 4455SOL     OW24823   1.422   3.131  15.235  0.3242  0.2944  0.3647
 4455SOL    HW124824   1.347   3.100  15.288 -0.5839 -0.5310 -1.4019
 4455SOL    HW224825   1.396   3.220  15.213  1.5093  0.2046 -1.3937
 4456SOL     OW24826   0.389   4.342   3.620  0.1240 -0.3674 -0.1918
 4456SOL    HW124827   0.354   4.307   3.702  2.9576  2.2544  2.1266
 4456SOL    HW224828   0.380   4.270   3.559 -0.2138  0.9265 -1.6710
 4457SOL     OW24829   1.044   0.457   8.999 -0.4410 -0.3422  0.2463
 4457SOL    HW124830   1.096   0.474   9.077  0.3143 -1.0209 -0.1147
 4457SOL    HW224831   1.026   0.364   9.015 -0.5210 -0.1392  1.3677
 4458SOL     OW24832   0.066   2.500   3.930  0.1970 -0.1655  0.2474
 4458SOL    HW124833   0.024   2.580   3.897 -2.4707 -1.7295 -0.1397
 4458SOL    HW224834   0.065   2.448   3.850  0.1371  1.3342 -0.7150
 4459SOL     OW24835   4.459   2.379   5.487 -0.0877  0.0271  0.0851
 4459SOL    HW124836   4.405   2.331   5.424  2.1262 -0.7565 -1.1853
 4459SOL    HW224837   4.419   2.466   5.482  1.6928  0.8519  0.0835
 4460SOL     OW24838   3.673   3.069  11.626  0.0577  0.2828 -0.0959
 4460SOL    HW124839   3.736   3.080  11.698 -0.3486 -1.0988  0.4704
 4460SOL    HW224840   3.714   3.122  11.558 -1.6803  0.3414 -1.0865
 4461SOL     OW24841   1.234   2.936   1.331 -0.5877  0.1847  0.3972
 4461SOL    HW124842   1.286   2.974   1.260  0.2804 -0.4788  0.6855
 4461SOL    HW224843   1.194   3.017   1.363 -2.6609 -0.6937  0.0362
 4462SOL     OW24844   2.025   3.872   7.511  1.1267  0.2050 -0.3429
 4462SOL    HW124845   2.031   3.777   7.516  2.9210  0.2747 -1.5118
 4462SOL    HW224846   2.079   3.882   7.433 -0.6277 -0.1554 -1.6107
 4463SOL     OW24847   0.395   2.221  12.488 -0.9805  0.0337  0.3692
 4463SOL    HW124848   0.440   2.289  12.538  1.8294 -0.7283 -1.1258
 4463SOL    HW224849   0.377   2.156  12.555  0.3170 -0.2623  0.4317
 4464SOL     OW24850   2.090   1.096   7.356  0.0247  0.4724 -0.2381
 4464SOL    HW124851   2.009   1.124   7.312 -2.5722  1.9228  5.4116
 4464SOL    HW224852   2.151   1.112   7.284  0.0615  3.5732  0.4682
 4465SOL     OW24853   2.423   1.742   7.368  0.4197 -0.3420 -0.1949
 4465SOL    HW124854   2.433   1.650   7.392 -0.2876 -0.9108 -2.0255
 4465SOL    HW224855   2.385   1.775   7.449 -1.5716 -1.3841 -0.7257
 4466SOL     OW24856   3.177   1.468   9.267 -0.1553 -0.0915 -0.9635
 4466SOL    HW124857   3.175   1.540   9.330 -0.3234 -0.0811 -0.9802
 4466SOL    HW224858   3.137   1.400   9.321  0.3462 -0.9154 -1.6375
 4467SOL     OW24859   0.877   1.921   3.339 -0.4810 -0.4133 -0.5185
 4467SOL    HW124860   0.791   1.885   3.321  0.3867 -1.7834 -1.8665
 4467SOL    HW224861   0.918   1.911   3.253 -0.5060 -0.5815 -0.5091
 4468SOL     OW24862   2.797   2.120   5.148  0.1066 -0.0738 -0.2699
 4468SOL    HW124863   2.804   2.046   5.088 -1.3965 -0.9944  0.6822
 4468SOL    HW224864   2.728   2.091   5.208 -0.7618 -0.0310 -1.2614
 4469SOL     OW24865   2.952   0.319  15.900 -0.6969  0.0387 -0.1618
 4469SOL    HW124866   2.989   0.352  15.982 -3.0327 -0.9186  1.3010
 4469SOL    HW224867   2.902   0.245  15.935 -0.8880  0.2209 -0.0510
 4470SOL     OW24868   2.832   0.436   6.855 -0.2895 -0.8475 -0.3271
 4470SOL    HW124869   2.843   0.341   6.846 -0.1654 -0.8092 -0.6057
 4470SOL    HW224870   2.804   0.454   6.765 -1.1068  0.7294  0.2385
 4471SOL     OW24871   0.639   2.079  10.454  0.2403 -0.0838 -0.1917
 4471SOL    HW124872   0.592   2.055  10.534 -0.7217  0.4878 -0.5916
 4471SOL    HW224873   0.567   2.116  10.403 -0.3908 -1.1809 -0.0905
 4472SOL     OW24874   1.288   3.090  10.328  0.3336  0.2947 -0.7381
 4472SOL    HW124875   1.198   3.090  10.360  0.2439  1.2325 -1.0019
 4472SOL    HW224876   1.330   3.051  10.405 -0.1954  0.1560 -0.5174
 4473SOL     OW24877   0.726   2.112  17.329 -0.5363  0.2502  0.2042
 4473SOL    HW124878   0.813   2.076  17.346 -0.3633 -0.1635 -1.5017
 4473SOL    HW224879   0.719   2.207  17.336 -1.4563  0.2600 -0.8006
 4474SOL     OW24880   1.735   3.570   4.474 -0.0729 -0.2051  0.3075
 4474SOL    HW124881   1.772   3.647   4.518 -1.0940  0.6552 -0.3269
 4474SOL    HW224882   1.639   3.577   4.481 -0.1976  0.3310 -1.8480
 4475SOL     OW24883   1.563   3.099  14.653  0.3740  0.1725  0.1961
 4475SOL    HW124884   1.567   3.031  14.585  0.2746 -0.3279  0.6931
 4475SOL    HW224885   1.643   3.090  14.705  1.3281  1.1439 -1.1039
 4476SOL     OW24886   1.837   2.019  12.029  0.2362 -0.3303  0.3391
 4476SOL    HW124887   1.814   1.972  12.109 -1.0458 -1.6289 -0.7919
 4476SOL    HW224888   1.768   1.977  11.977  0.8751 -2.0775  0.8759
 4477SOL     OW24889   0.558   1.855   4.317 -0.2976  0.2068 -0.3279
 4477SOL    HW124890   0.490   1.922   4.317  1.0828  1.5912  2.1173
 4477SOL    HW224891   0.587   1.857   4.226  0.9535  0.5987  0.0737
 4478SOL     OW24892   1.205   2.631   4.005  0.1632  0.1537 -0.4565
 4478SOL    HW124893   1.256   2.555   3.978  0.8691  0.3790  0.2502
 4478SOL    HW224894   1.205   2.686   3.926  1.2248 -0.3902 -0.8302
 4479SOL     OW24895   1.501   0.486   4.010  0.0522  0.1812 -0.2381
 4479SOL    HW124896   1.570   0.425   4.035 -1.2511 -1.8236 -1.5244
 4479SOL    HW224897   1.548   0.569   4.011  1.8000 -0.8356  1.1298
 4480SOL     OW24898   3.095   3.698  11.378 -0.0012 -0.2417  0.7921
 4480SOL    HW124899   3.111   3.669  11.467  1.4992  0.4579  0.7505
 4480SOL    HW224900   3.017   3.650  11.351 -0.4667  0.5567  0.6908
 4481SOL     OW24901   4.461   1.200   5.624  0.0217 -0.4699  0.0946
 4481SOL    HW124902   4.452   1.214   5.530 -4.4044  0.2772  0.6163
 4481SOL    HW224903   4.550   1.167   5.633 -0.4274 -1.3856  1.3516
 4482SOL     OW24904   3.633   0.089   5.029 -0.1811  0.9633  0.2928
 4482SOL    HW124905   3.613   4.715   5.036  1.0313  0.4003 -3.8725
 4482SOL    HW224906   3.720   0.080   4.990  0.8903  0.4412  2.8009
 4483SOL     OW24907   0.574   0.782   4.029  0.2399 -0.0110 -0.0196
 4483SOL    HW124908   0.637   0.713   4.008 -1.2723 -1.0326 -1.2346
 4483SOL    HW224909   0.563   0.761   4.122 -2.4205 -0.1489 -0.3694
 4484SOL     OW24910   1.143   3.958   2.798 -0.2441 -0.0689 -0.6109
 4484SOL    HW124911   1.197   3.974   2.875 -0.6890 -1.2156 -0.0639
 4484SOL    HW224912   1.120   3.866   2.815  0.8072 -0.1035  0.6455
 4485SOL     OW24913   2.759   3.189   2.291 -0.0663 -0.1875 -0.5449
 4485SOL    HW124914   2.681   3.181   2.236  0.8444 -1.3757 -1.6284
 4485SOL    HW224915   2.827   3.208   2.227 -1.5350 -1.4501 -2.4549
 4486SOL     OW24916   0.610   2.498   6.526 -0.3690 -0.2920  0.6586
 4486SOL    HW124917   0.530   2.550   6.516 -0.6555 -0.3373  2.8304
 4486SOL    HW224918   0.683   2.559   6.509 -0.7375  0.3990  1.5855
 4487SOL     OW24919   4.004   2.228   8.821 -0.0331 -0.2035 -0.3150
 4487SOL    HW124920   3.978   2.136   8.819  0.0204 -0.2704  2.4971
 4487SOL    HW224921   3.986   2.252   8.912  0.2078  0.1029 -0.3476
 4488SOL     OW24922   3.781   3.812   9.185  0.8218  0.1896  0.3363
 4488SOL    HW124923   3.851   3.872   9.211  0.7685  0.1559  0.5560
 4488SOL    HW224924   3.732   3.862   9.120  0.9971 -0.6706 -0.4591
 4489SOL     OW24925   4.469   4.483   3.663  0.4583  0.2953 -0.0549
 4489SOL    HW124926   4.449   4.574   3.641  0.4461  0.3797  0.3025
 4489SOL    HW224927   4.483   4.491   3.757 -1.4460 -0.9448  0.3466
 4490SOL     OW24928   2.217   3.363   9.104 -0.9255  0.8606  0.1817
 4490SOL    HW124929   2.159   3.438   9.121 -0.0211  2.0638 -2.1183
 4490SOL    HW224930   2.217   3.363   9.009 -1.5459 -0.7248  0.1873
 4491SOL     OW24931   1.737   1.305   4.399  0.1838 -0.3930 -0.0510
 4491SOL    HW124932   1.773   1.268   4.318  0.2599 -3.7419  1.5175
 4491SOL    HW224933   1.688   1.235   4.441 -2.2317 -0.3042 -2.6803
 4492SOL     OW24934   0.071   0.062   5.000 -0.4260  0.4644 -0.2063
 4492SOL    HW124935   0.162   0.059   4.973 -0.3637 -0.0215  0.0534
 4492SOL    HW224936   0.020   0.046   4.921 -1.1974 -1.0347  0.5794
 4493SOL     OW24937   4.571   1.339   2.689  0.8009  0.0704 -0.1541
 4493SOL    HW124938   4.659   1.369   2.664  1.8532 -1.7803  1.3228
 4493SOL    HW224939   4.531   1.422   2.717  4.7453  1.8513  0.2472
 4494SOL     OW24940   3.859   2.613   4.458 -0.2641  0.3595 -0.3185
 4494SOL    HW124941   3.835   2.633   4.548  2.0776 -0.5160  0.5020
 4494SOL    HW224942   3.875   2.697   4.416 -1.3293  0.7383  0.0224
 4495SOL     OW24943   1.592   4.055   5.319  0.4540  0.1574  0.4368
 4495SOL    HW124944   1.498   4.057   5.301  0.6025  0.5851 -0.2930
 4495SOL    HW224945   1.624   4.093   5.237 -1.7833 -2.1823 -1.5107
 4496SOL     OW24946   3.358   1.384  13.131 -0.1230 -1.0798 -0.3938
 4496SOL    HW124947   3.451   1.379  13.109 -0.3033  0.8794 -1.5592
 4496SOL    HW224948   3.331   1.392  13.040  3.5903  0.3222 -1.3852
 4497SOL     OW24949   0.850   0.991   5.860  0.3937  0.2400 -0.1322
 4497SOL    HW124950   0.848   1.080   5.824 -1.2837  0.2365 -0.0146
 4497SOL    HW224951   0.814   1.020   5.943 -1.3992 -1.6778 -0.2522
 4498SOL     OW24952   2.267   3.254   7.189  0.2027 -0.2606 -0.0017
 4498SOL    HW124953   2.186   3.236   7.142 -0.0061  0.8291 -0.0716
 4498SOL    HW224954   2.322   3.254   7.110 -0.8519  1.7152 -0.7378
 4499SOL     OW24955   4.492   2.400   9.871 -0.0215 -0.3606  0.7713
 4499SOL    HW124956   4.496   2.317   9.919  0.1675  0.9104  2.9368
 4499SOL    HW224957   4.498   2.464   9.942  0.9585  0.1982  0.1937
 4500SOL     OW24958   3.828   1.983  10.223 -0.2228  0.4512  0.2618
 4500SOL    HW124959   3.833   2.016  10.312 -2.5269  0.4797  0.3808
 4500SOL    HW224960   3.919   1.957  10.208 -0.0190  1.1195  0.3806
 4501SOL     OW24961   0.979   3.518   7.289  0.2311 -0.3312 -0.4255
 4501SOL    HW124962   1.049   3.475   7.339 -0.1704  1.0047  1.3022
 4501SOL    HW224963   1.037   3.558   7.225  0.9960 -3.0060 -1.4147
 4502SOL     OW24964   3.856   3.293   1.533  0.2088 -0.5007  0.5255
 4502SOL    HW124965   3.946   3.261   1.529  0.0376 -0.7724 -1.3315
 4502SOL    HW224966   3.844   3.310   1.439  0.9263  0.5128  0.6127
 4503SOL     OW24967   3.810   4.379   8.768 -0.0078 -0.3047 -0.4643
 4503SOL    HW124968   3.844   4.466   8.792  0.5888 -0.4621 -0.7475
 4503SOL    HW224969   3.794   4.357   8.860 -0.9135 -1.9608 -1.0223
 4504SOL     OW24970   0.235   4.530   9.474  0.1327  0.0038 -0.0438
 4504SOL    HW124971   0.156   4.581   9.491 -1.2416 -2.3838  0.7594
 4504SOL    HW224972   0.265   4.577   9.397 -4.2032  0.4052 -1.4862
 4505SOL     OW24973   0.962   2.701   2.730  0.6477 -0.0987  0.5949
 4505SOL    HW124974   1.005   2.653   2.659  3.4483 -1.3398  3.1111
 4505SOL    HW224975   0.879   2.725   2.689  0.3237 -1.6014  0.3778
 4506SOL     OW24976   1.886   0.906   4.158  0.1123  0.0790  0.0290
 4506SOL    HW124977   1.805   0.862   4.133 -0.1010 -1.2000  3.0294
 4506SOL    HW224978   1.959   0.853   4.126 -0.0190 -0.5258  0.7465
 4507SOL     OW24979   4.001   1.304   9.775 -0.0202  0.3603 -0.1421
 4507SOL    HW124980   3.957   1.385   9.799 -0.4807  0.0397  0.0932
 4507SOL    HW224981   3.930   1.253   9.814  0.5857 -2.1208 -2.3045
 4508SOL     OW24982   2.916   3.429   2.577  0.3274  0.2513  0.0991
 4508SOL    HW124983   2.952   3.517   2.583  1.2552 -0.2132  1.3229
 4508SOL    HW224984   2.911   3.413   2.482 -0.8286 -0.5803  0.3071
 4509SOL     OW24985   4.333   2.002   3.732 -0.1393 -0.3561  0.0245
 4509SOL    HW124986   4.241   2.021   3.750 -0.3758 -1.7326  0.2680
 4509SOL    HW224987   4.329   1.977   3.640 -0.1582  1.1585 -0.4003
 4510SOL     OW24988   4.305   3.840  11.222 -0.3839 -0.2866  0.1366
 4510SOL    HW124989   4.387   3.816  11.266 -0.5226  0.5068  0.8300
 4510SOL    HW224990   4.348   3.871  11.142 -3.5587  1.3624 -0.9217
 4511SOL     OW24991   3.962   3.620   8.333 -0.0355 -0.2985 -0.2297
 4511SOL    HW124992   3.973   3.543   8.388 -1.3603 -1.3093 -1.3907
 4511SOL    HW224993   3.923   3.588   8.252  0.1770  0.7461 -0.7524
 4512SOL     OW24994   2.134   4.707  15.468  0.0002  0.9334  0.5931
 4512SOL    HW124995   2.120   4.683  15.376  0.4468 -0.8429  0.9924
 4512SOL    HW224996   2.223   0.019  15.454 -0.8994  3.3820  0.5173
 4513SOL     OW24997   1.303   1.487  11.934  0.1409 -0.1928 -0.3698
 4513SOL    HW124998   1.243   1.423  11.896  0.6376  0.7139 -2.6843
 4513SOL    HW224999   1.251   1.537  11.997 -1.7422 -0.2894 -1.8569
 4514SOL     OW25000   4.138   4.185  15.288 -0.3783  0.3037 -0.4316
 4514SOL    HW125001   4.061   4.154  15.242  1.1689 -0.5168 -2.4743
 4514SOL    HW225002   4.107   4.168  15.377  0.3929 -3.0378 -0.7747
 4515SOL     OW25003   4.679   3.096  14.467 -0.0778  0.2096 -0.1711
 4515SOL    HW125004   4.590   3.084  14.433  0.7516 -0.7146 -2.0134
 4515SOL    HW225005   0.015   3.040  14.412 -1.3585 -1.6255  0.3698
 4516SOL     OW25006   1.817   3.707   9.882 -0.9194 -0.4694 -0.1497
 4516SOL    HW125007   1.734   3.728   9.925 -0.6000 -0.1747  0.3170
 4516SOL    HW225008   1.835   3.619   9.915  0.2772 -0.4649 -0.8016
 4517SOL     OW25009   3.788   0.414   9.630 -0.2549  0.3652 -0.2995
 4517SOL    HW125010   3.809   0.323   9.609 -0.7974 -0.4485  2.7030
 4517SOL    HW225011   3.729   0.393   9.702  0.2099 -0.3157 -0.1100
 4518SOL     OW25012   1.130   0.237  13.687 -0.3841 -0.2469 -0.3120
 4518SOL    HW125013   1.070   0.312  13.687  1.0243  0.9028 -3.4755
 4518SOL    HW225014   1.135   0.225  13.782  2.0858 -0.1708 -0.4362
 4519SOL     OW25015   1.742   0.657   0.564  0.5523 -0.4921 -0.1966
 4519SOL    HW125016   1.703   0.572   0.541  1.8927 -0.4123 -2.6913
 4519SOL    HW225017   1.732   0.664   0.659 -2.5721 -4.9146 -0.1786
 4520SOL     OW25018   0.300   1.516   3.657  0.0514 -0.1055 -0.2944
 4520SOL    HW125019   0.378   1.498   3.710 -1.2364 -4.1850  0.1810
 4520SOL    HW225020   0.338   1.553   3.577  0.1092  3.0894  1.2187
 4521SOL     OW25021   1.251   3.508   5.552 -0.0256 -0.0895  0.0627
 4521SOL    HW125022   1.248   3.503   5.647 -0.1691 -1.9352 -0.0406
 4521SOL    HW225023   1.296   3.425   5.538  0.0254 -0.4034  2.0516
 4522SOL     OW25024   4.242   1.909   9.712  0.5505  0.6606  0.1123
 4522SOL    HW125025   4.192   1.977   9.756 -0.6702  1.1347 -2.0161
 4522SOL    HW225026   4.175   1.840   9.709  0.3869  0.8532 -0.5850
 4523SOL     OW25027   2.405   2.586  12.318  0.3021 -0.4554  0.3268
 4523SOL    HW125028   2.417   2.602  12.411 -0.7163  1.0094  0.2046
 4523SOL    HW225029   2.369   2.497  12.319  0.9767 -0.7659 -1.5749
 4524SOL     OW25030   1.480   4.516   5.607 -0.4619 -0.0490 -0.5153
 4524SOL    HW125031   1.438   4.534   5.523  2.4820 -2.8147 -2.5848
 4524SOL    HW225032   1.415   4.452   5.633 -0.5724  0.8365  1.3919
 4525SOL     OW25033   1.482   2.077   0.517  0.2401 -0.1147 -0.0777
 4525SOL    HW125034   1.513   2.001   0.567  0.9329 -0.6968 -1.4080
 4525SOL    HW225035   1.500   2.152   0.573  1.0746 -0.3057 -0.0999
 4526SOL     OW25036   3.100   4.432   7.747  0.0018 -0.0776  0.3348
 4526SOL    HW125037   3.008   4.447   7.768 -0.1907 -1.8343  0.7686
 4526SOL    HW225038   3.132   4.515   7.781  2.6328 -1.6425  1.6515
 4527SOL     OW25039   1.906   0.870  14.545 -0.3677 -0.3539  0.3506
 4527SOL    HW125040   1.896   0.917  14.628 -1.4645  1.4707 -0.8194
 4527SOL    HW225041   1.873   0.937  14.486 -1.0437 -0.2111  0.8898
 4528SOL     OW25042   0.281   3.591   8.490  0.0537  0.1284 -0.0670
 4528SOL    HW125043   0.283   3.601   8.585  0.1288  0.7967 -0.1392
 4528SOL    HW225044   0.190   3.567   8.472  0.8151 -1.5950 -1.6110
 4529SOL     OW25045   2.277   0.434   0.425 -0.4900 -0.1387 -0.1359
 4529SOL    HW125046   2.367   0.466   0.431 -0.6235  0.1520  0.3415
 4529SOL    HW225047   2.292   0.341   0.442 -1.3066 -0.7059 -2.6073
 4530SOL     OW25048   1.011   2.650   7.546 -0.0827  1.2413 -0.1381
 4530SOL    HW125049   1.042   2.633   7.457 -3.0588  0.6054 -1.0631
 4530SOL    HW225050   1.084   2.701   7.580 -0.1515  1.3791 -0.1957
 4531SOL     OW25051   2.651   0.264   6.166  0.2218 -0.3278 -0.3439
 4531SOL    HW125052   2.701   0.190   6.132 -0.4409 -0.5739 -0.7603
 4531SOL    HW225053   2.662   0.253   6.261 -1.5872  0.1078 -0.0921
 4532SOL     OW25054   3.259   2.504   4.996 -0.0170  0.4698  0.3839
 4532SOL    HW125055   3.246   2.541   4.908  0.1886 -1.9241 -0.6714
 4532SOL    HW225056   3.174   2.532   5.031  0.1394 -0.5565  1.5565
 4533SOL     OW25057   3.609   0.889   9.574  0.2868  0.1340 -0.1095
 4533SOL    HW125058   3.628   0.795   9.581 -1.6556 -0.0355  3.0561
 4533SOL    HW225059   3.620   0.904   9.480 -2.2508 -1.5402 -0.6951
 4534SOL     OW25060   0.434   2.566  12.844  0.4091  0.4099  0.6614
 4534SOL    HW125061   0.464   2.492  12.898 -1.7431 -1.2592 -0.4498
 4534SOL    HW225062   0.423   2.640  12.904  2.2161  0.1423  1.3316
 4535SOL     OW25063   3.095   1.779  12.631 -0.1935 -0.3335 -0.1780
 4535SOL    HW125064   3.146   1.699  12.622  0.3692  0.1227 -1.0830
 4535SOL    HW225065   3.012   1.757  12.674 -0.1128  0.2186  0.2633
 4536SOL     OW25066   0.547   4.462   8.042 -0.4952 -0.1388  0.1225
 4536SOL    HW125067   0.563   4.503   8.127 -2.7910 -0.7731  0.8557
 4536SOL    HW225068   0.534   4.372   8.072  0.3779 -1.1143 -2.4325
 4537SOL     OW25069   0.464   1.995   0.407 -0.1718  0.2870 -0.2850
 4537SOL    HW125070   0.506   1.916   0.374 -1.1434 -0.3280 -0.0578
 4537SOL    HW225071   0.523   2.065   0.379  0.6019  0.6104  2.1444
 4538SOL     OW25072   1.528   4.421   6.628 -0.4064 -0.3351  0.0856
 4538SOL    HW125073   1.586   4.495   6.615  0.4797 -1.4946 -2.4883
 4538SOL    HW225074   1.578   4.343   6.604 -1.3274 -1.5301  2.0300
 4539SOL     OW25075   1.206   0.149   9.589 -0.3663 -0.3766 -0.0052
 4539SOL    HW125076   1.185   0.238   9.560  1.9154 -0.3523 -1.5903
 4539SOL    HW225077   1.258   0.126   9.512 -1.4604  0.8271 -1.0933
 4540SOL     OW25078   1.240   0.918   2.705  0.0576  0.0479  0.7808
 4540SOL    HW125079   1.188   0.987   2.665 -0.3373  0.3278  1.7809
 4540SOL    HW225080   1.314   0.971   2.735 -0.1044  0.1449  1.0118
 4541SOL     OW25081   0.331   3.455  15.796 -0.5183 -0.1021  0.4512
 4541SOL    HW125082   0.307   3.365  15.819 -2.1465 -0.6255 -3.3485
 4541SOL    HW225083   0.328   3.449  15.701 -0.0688 -0.4588  0.4607
 4542SOL     OW25084   1.628   3.783   4.060 -0.4367 -0.1994  0.0204
 4542SOL    HW125085   1.540   3.746   4.061 -0.5302  0.0458  0.9069
 4542SOL    HW225086   1.617   3.850   3.993 -0.9981  2.0741  2.4189
 4543SOL     OW25087   3.617   3.398   5.117 -0.7352  0.5320 -0.4233
 4543SOL    HW125088   3.617   3.377   5.211 -1.0918 -1.4018 -0.8446
 4543SOL    HW225089   3.664   3.319   5.091 -0.3971 -0.0235  1.8570
 4544SOL     OW25090   2.852   3.586  12.150  0.0802  0.4188 -0.1578
 4544SOL    HW125091   2.871   3.506  12.102 -1.2957  0.7286 -1.2100
 4544SOL    HW225092   2.775   3.625  12.108  0.2044 -1.6151 -2.2601
 4545SOL     OW25093   2.416   1.751  16.916  0.3384  0.1848  0.1226
 4545SOL    HW125094   2.391   1.663  16.889 -1.7692  1.3794 -1.7646
 4545SOL    HW225095   2.339   1.779  16.966  0.2290 -3.4450  2.0413
 4546SOL     OW25096   2.349   0.287   6.186 -0.4020  0.0587 -0.3568
 4546SOL    HW125097   2.426   0.234   6.206  0.5261  1.0701 -1.2249
 4546SOL    HW225098   2.315   0.245   6.106  0.7970 -1.2665 -0.1717
 4547SOL     OW25099   1.706   1.767   2.137 -0.6223  0.1925 -0.1023
 4547SOL    HW125100   1.679   1.859   2.139  0.5158  0.5630 -1.4086
 4547SOL    HW225101   1.714   1.749   2.230 -2.6000 -3.8488 -0.7067
 4548SOL     OW25102   4.263   3.718   1.265  0.2022 -0.4960  0.2952
 4548SOL    HW125103   4.335   3.666   1.301  2.0741  0.5204 -2.0067
 4548SOL    HW225104   4.296   3.736   1.177 -0.0861  0.7121  0.4310
 4549SOL     OW25105   3.620   1.400   7.415  0.0362  0.6397  0.4689
 4549SOL    HW125106   3.710   1.377   7.391  0.3042  2.0919  0.0170
 4549SOL    HW225107   3.577   1.345   7.349 -0.5650 -1.7107  2.8418
 4550SOL     OW25108   4.448   0.682   4.087  0.5047  0.2941 -0.2798
 4550SOL    HW125109   4.368   0.732   4.105 -0.4496 -1.2822 -0.1484
 4550SOL    HW225110   4.491   0.747   4.031  1.2835  0.9899  1.1298
 4551SOL     OW25111   0.933   0.549  16.906 -0.1090 -0.4090 -0.0042
 4551SOL    HW125112   0.845   0.556  16.944  0.0804  1.7644  0.0261
 4551SOL    HW225113   0.903   0.583  16.822  0.4726 -0.7738 -0.3595
 4552SOL     OW25114   2.699   2.194  15.959 -0.2689 -0.6381 -0.4578
 4552SOL    HW125115   2.755   2.272  15.965  0.6910 -1.3257 -0.4156
 4552SOL    HW225116   2.703   2.159  16.048 -1.0530 -1.3597 -0.7087
 4553SOL     OW25117   3.807   0.624  13.318  0.4054  0.8681  0.4618
 4553SOL    HW125118   3.894   0.587  13.331  0.1553 -0.1834 -0.8410
 4553SOL    HW225119   3.829   0.677  13.241  0.0916 -0.1518 -0.3337
 4554SOL     OW25120   1.779   4.344   3.042 -0.5155  0.2269  0.3147
 4554SOL    HW125121   1.768   4.350   3.137 -2.5979 -0.5903  0.1061
 4554SOL    HW225122   1.723   4.415   3.012 -0.6679  0.4100  1.0329
 4555SOL     OW25123   4.607   1.147   3.493  0.5496  0.0728 -0.6758
 4555SOL    HW125124   4.662   1.222   3.471  2.9863 -2.3288 -2.9340
 4555SOL    HW225125   4.660   1.082   3.446  0.8495  0.0714 -0.3346
 4556SOL     OW25126   3.913   1.837   6.722  0.3084  0.0754  0.6789
 4556SOL    HW125127   3.950   1.873   6.803  2.8487 -2.4056  0.6102
 4556SOL    HW225128   3.820   1.831   6.745 -0.0513 -0.4260 -0.8651
 4557SOL     OW25129   3.540   3.380  15.793  0.0216 -0.0288  0.1657
 4557SOL    HW125130   3.551   3.408  15.702  0.1011 -0.9985 -0.1230
 4557SOL    HW225131   3.538   3.286  15.774 -2.2524 -0.1783  1.2039
 4558SOL     OW25132   2.126   4.700   9.143  0.6755 -0.2965 -0.1149
 4558SOL    HW125133   2.154   4.634   9.207 -0.6964 -0.2333  0.5547
 4558SOL    HW225134   2.053   0.019   9.192  0.3164 -1.8063  0.5369
 4559SOL     OW25135   0.988   0.200  13.449  0.3756 -0.4721  0.2251
 4559SOL    HW125136   1.041   0.194  13.528 -2.3114  0.5543  2.0971
 4559SOL    HW225137   0.936   0.120  13.452  1.7395 -1.3545  0.4184
 4560SOL     OW25138   3.858   4.098   6.391  0.2030 -0.1863  0.5501
 4560SOL    HW125139   3.902   4.026   6.438  0.2492 -0.9335 -0.6252
 4560SOL    HW225140   3.870   4.074   6.299  0.2524  0.6608  0.3438
 4561SOL     OW25141   3.892   0.950   9.212  0.3452 -0.1866 -0.1372
 4561SOL    HW125142   3.961   0.917   9.269  0.9307  0.0928 -0.6810
 4561SOL    HW225143   3.921   1.040   9.200 -1.6238  0.6409  1.3708
 4562SOL     OW25144   3.750   0.800   4.370 -0.8282 -0.5093 -0.2442
 4562SOL    HW125145   3.656   0.788   4.363 -0.8706 -0.1762 -0.2614
 4562SOL    HW225146   3.767   0.710   4.342  2.2751  0.8150 -2.6806
 4563SOL     OW25147   3.888   4.095   4.442  0.1438  0.3762 -0.4160
 4563SOL    HW125148   3.889   4.104   4.538 -1.2780  1.1634 -0.4740
 4563SOL    HW225149   3.839   4.167   4.402 -2.3451 -0.2863  1.4607
 4564SOL     OW25150   3.505   2.338   9.630  0.2146  0.3957 -0.6857
 4564SOL    HW125151   3.567   2.407   9.604  0.4228 -0.5587 -2.7465
 4564SOL    HW225152   3.551   2.310   9.708 -0.6216 -1.7394 -0.9676
 4565SOL     OW25153   3.236   2.062   4.277  0.9295 -0.3757 -0.7455
 4565SOL    HW125154   3.178   1.985   4.276  1.9891 -1.1905  0.8524
 4565SOL    HW225155   3.280   2.054   4.193  0.4179  0.7222 -1.1250
 4566SOL     OW25156   2.044   3.433   0.745  0.2059 -0.5065  0.7157
 4566SOL    HW125157   2.134   3.422   0.714 -0.6948  0.3159 -2.2468
 4566SOL    HW225158   2.004   3.346   0.739 -0.3131 -0.1571 -0.8655
 4567SOL     OW25159   3.098   1.758   8.124 -0.2526 -0.1646  0.4733
 4567SOL    HW125160   3.100   1.738   8.030  3.5948  2.5992 -0.0653
 4567SOL    HW225161   3.151   1.684   8.155  1.1724  0.4050 -0.5623
 4568SOL     OW25162   2.210   1.223   3.688  0.0561  0.6410  0.4788
 4568SOL    HW125163   2.285   1.175   3.654 -0.6430 -1.1027  1.3674
 4568SOL    HW225164   2.144   1.193   3.626  1.5233 -0.9941 -0.2834
 4569SOL     OW25165   1.233   1.222   1.499 -0.8139 -0.2748  0.1038
 4569SOL    HW125166   1.147   1.263   1.494 -0.1856  1.0352  0.0391
 4569SOL    HW225167   1.259   1.206   1.408  1.2927 -1.4582  0.9070
 4570SOL     OW25168   1.102   2.462  10.091  0.1900 -0.1137 -0.2084
 4570SOL    HW125169   1.031   2.504  10.042 -1.1548 -0.7322  1.1834
 4570SOL    HW225170   1.060   2.397  10.148 -0.9639  0.1572 -0.7459
 4571SOL     OW25171   0.006   2.804   2.924 -0.2689  0.5088  0.2641
 4571SOL    HW125172   0.038   2.871   2.864 -1.9793  0.6092 -0.5334
 4571SOL    HW225173   0.059   2.827   3.000 -2.2003  0.4513  1.6254
 4572SOL     OW25174   1.053   3.685   2.866 -0.6544  0.2621  0.2521
 4572SOL    HW125175   1.053   3.699   2.961 -1.2068 -1.2101  0.4638
 4572SOL    HW225176   1.016   3.598   2.852 -0.4934  0.4368 -1.2590
 4573SOL     OW25177   4.607   1.349   6.286 -0.6598 -0.9789 -0.2417
 4573SOL    HW125178   4.553   1.290   6.234 -0.4552  0.4999 -2.1204
 4573SOL    HW225179   4.651   1.383   6.208 -0.7886 -1.1105 -0.3721
 4574SOL     OW25180   4.326   3.256  11.450 -0.9026  0.3834  0.6160
 4574SOL    HW125181   4.400   3.244  11.391  0.2188  2.8727  1.5233
 4574SOL    HW225182   4.294   3.338  11.411  0.5752  0.4123 -0.5625
 4575SOL     OW25183   0.749   3.629   0.301 -0.2081 -0.3009 -0.6720
 4575SOL    HW125184   0.658   3.615   0.277 -0.0756 -1.4001 -0.5051
 4575SOL    HW225185   0.736   3.714   0.343 -0.8798 -0.1321 -1.2223
 4576SOL     OW25186   2.243   3.157   6.169  0.2585 -0.4952 -0.0109
 4576SOL    HW125187   2.266   3.114   6.252  0.8057  0.9081  0.5554
 4576SOL    HW225188   2.222   3.078   6.119 -1.9708 -0.1275  0.3301
 4577SOL     OW25189   3.587   3.496  15.556 -0.7075 -0.5941 -0.0028
 4577SOL    HW125190   3.651   3.553  15.513 -0.8539 -0.9024 -0.6365
 4577SOL    HW225191   3.531   3.484  15.479  0.8819  0.5051 -1.3227
 4578SOL     OW25192   0.467   0.512  12.642  0.0655  0.4734  0.6571
 4578SOL    HW125193   0.385   0.495  12.687 -0.3793  0.2756 -0.2278
 4578SOL    HW225194   0.524   0.451  12.689  1.3762 -0.5285 -2.2568
 4579SOL     OW25195   1.241   4.249  11.436  0.2035  0.4563  0.2278
 4579SOL    HW125196   1.224   4.307  11.362 -0.3699  1.2766  1.0157
 4579SOL    HW225197   1.285   4.182  11.384 -1.1143 -0.0592 -0.2192
 4580SOL     OW25198   4.261   2.797   3.709  0.0720 -0.2731 -0.1009
 4580SOL    HW125199   4.245   2.858   3.781  0.6065 -1.9114  1.3886
 4580SOL    HW225200   4.329   2.848   3.664  0.8345  1.5593  3.1401
 4581SOL     OW25201   1.980   3.902   2.728  0.5818 -0.4607 -0.0436
 4581SOL    HW125202   2.075   3.889   2.726  0.5955 -0.2625 -0.6006
 4581SOL    HW225203   1.978   3.964   2.801  1.1306  0.7994 -1.0902
 4582SOL     OW25204   1.374   0.413   1.183 -0.0713  0.3114  0.5270
 4582SOL    HW125205   1.414   0.412   1.269 -0.1176 -1.0982  0.5304
 4582SOL    HW225206   1.281   0.430   1.201 -0.2944 -1.7817  1.4296
 4583SOL     OW25207   2.725   0.601   8.688  0.4794  0.0890  0.3704
 4583SOL    HW125208   2.686   0.574   8.605 -1.5213  2.3852  0.5588
 4583SOL    HW225209   2.814   0.622   8.658  1.3077 -4.0074  0.0543
 4584SOL     OW25210   2.422   0.940   7.550  0.0839  1.1117  0.4502
 4584SOL    HW125211   2.375   0.980   7.623  1.5867 -0.7505  2.4463
 4584SOL    HW225212   2.467   0.869   7.596 -3.2670 -1.2567  0.0838
 4585SOL     OW25213   0.020   3.785   3.155  0.0208  0.5378  0.0719
 4585SOL    HW125214   4.665   3.804   3.097  1.1967  3.6331 -0.4493
 4585SOL    HW225215   0.002   3.858   3.215  0.8360  0.2659  0.6395
 4586SOL     OW25216   1.984   3.644  12.088  0.6645  0.1170 -0.3257
 4586SOL    HW125217   1.926   3.664  12.161  0.1991 -1.2062 -0.3381
 4586SOL    HW225218   1.924   3.668  12.017 -0.2974  0.3912  0.5919
 4587SOL     OW25219   0.839   3.735   4.957  0.4515  0.3494  0.6084
 4587SOL    HW125220   0.865   3.648   4.988  1.4783 -0.7517 -3.3792
 4587SOL    HW225221   0.853   3.731   4.862  1.4887 -2.3710  0.8432
 4588SOL     OW25222   0.551   0.758  15.824 -0.8206 -0.3761  0.5377
 4588SOL    HW125223   0.512   0.681  15.783 -1.5889 -0.0946  0.7447
 4588SOL    HW225224   0.478   0.820  15.831 -0.7203 -0.2129  0.1694
 4589SOL     OW25225   2.757   0.119   7.667 -0.1648 -0.4058  0.3663
 4589SOL    HW125226   2.807   0.066   7.730  1.1590  0.1941 -0.1833
 4589SOL    HW225227   2.823   0.125   7.599 -0.7276 -0.1561 -0.1520
 4590SOL     OW25228   0.644   1.714   7.194  0.1505 -0.0782 -0.0899
 4590SOL    HW125229   0.616   1.631   7.155  0.5561 -0.1645 -0.2005
 4590SOL    HW225230   0.579   1.722   7.264 -1.2332  2.7167 -1.6945
 4591SOL     OW25231   3.315   2.724   7.832  0.4151 -0.0835  0.7144
 4591SOL    HW125232   3.394   2.700   7.784 -0.1197 -0.3614 -0.0194
 4591SOL    HW225233   3.310   2.650   7.894  2.7391  0.9492  2.1323
 4592SOL     OW25234   3.931   4.071  12.809 -0.1842  0.4301  0.5279
 4592SOL    HW125235   3.925   4.025  12.892  0.2723  0.5380  0.6209
 4592SOL    HW225236   4.026   4.083  12.806 -0.4504  2.1218 -1.7259
 4593SOL     OW25237   0.748   3.652   2.772  0.0556  0.3627  0.4280
 4593SOL    HW125238   0.661   3.620   2.797  0.4246 -1.2664 -0.3242
 4593SOL    HW225239   0.772   3.705   2.848 -0.5694  0.0735  0.8304
 4594SOL     OW25240   3.819   2.933   7.905 -0.2334  0.5445  0.2333
 4594SOL    HW125241   3.730   2.904   7.925 -0.0915 -1.3296 -1.8914
 4594SOL    HW225242   3.812   2.937   7.810  1.3329  0.9376  0.1318
 4595SOL     OW25243   2.932   2.754   4.111  0.6544  0.6491 -0.2578
 4595SOL    HW125244   2.917   2.787   4.022  1.4783 -0.7534 -0.9163
 4595SOL    HW225245   2.844   2.724   4.130 -0.0724  1.1788 -2.7337
 4596SOL     OW25246   2.578   2.800  16.709  0.2076  0.1681  0.0339
 4596SOL    HW125247   2.496   2.754  16.730  0.7852 -0.7852  0.2080
 4596SOL    HW225248   2.602   2.831  16.796  3.7471 -0.3956 -0.7677
 4597SOL     OW25249   0.352   1.565   9.463 -0.4267 -0.4522  0.2915
 4597SOL    HW125250   0.389   1.565   9.551 -1.5444 -1.7385  0.7767
 4597SOL    HW225251   0.378   1.651   9.432 -1.2976 -0.5142 -0.5918
 4598SOL     OW25252   3.725   1.749  13.017  0.5989  0.1790  0.3295
 4598SOL    HW125253   3.768   1.737  12.932  1.3359 -1.3390  0.9099
 4598SOL    HW225254   3.799   1.748  13.078 -0.2023 -3.6511  1.2377
 4599SOL     OW25255   1.746   4.206   6.024  1.0190 -0.1583  0.6200
 4599SOL    HW125256   1.716   4.199   5.933  0.2816 -0.7439  0.9049
 4599SOL    HW225257   1.826   4.258   6.022 -0.4150  1.9557 -1.6231
 4600SOL     OW25258   2.494   3.887   3.198 -0.3849 -0.2576  0.0352
 4600SOL    HW125259   2.572   3.938   3.219  0.5155 -2.6532  2.5373
 4600SOL    HW225260   2.463   3.917   3.113 -0.8240 -1.6203 -0.2939
 4601SOL     OW25261   0.812   1.111   9.255 -0.1769  0.3228  0.3164
 4601SOL    HW125262   0.762   1.159   9.322 -0.6030 -0.7129  0.7343
 4601SOL    HW225263   0.829   1.179   9.189 -0.8889 -0.8399 -1.0616
 4602SOL     OW25264   1.219   3.346   4.164 -0.1614 -0.0756  0.2610
 4602SOL    HW125265   1.150   3.319   4.104  0.0426  0.1167 -0.0625
 4602SOL    HW225266   1.280   3.272   4.163  0.5119  0.5625 -3.1791
 4603SOL     OW25267   2.578   2.147   3.748 -0.0882  0.4444 -0.2294
 4603SOL    HW125268   2.532   2.118   3.827 -0.0482 -1.8632 -1.0655
 4603SOL    HW225269   2.507   2.197   3.706 -1.4797 -1.2237  0.1190
 4604SOL     OW25270   3.811   4.217  15.823  0.2868 -0.4619 -1.0489
 4604SOL    HW125271   3.882   4.275  15.795  0.2646 -1.2135 -2.6920
 4604SOL    HW225272   3.859   4.137  15.843 -0.7631 -0.9206 -0.3307
 4605SOL     OW25273   3.811   0.323   8.220  0.3301  0.4574  0.3332
 4605SOL    HW125274   3.896   0.298   8.184  0.7710 -0.2905  1.8897
 4605SOL    HW225275   3.817   0.306   8.314 -4.1679 -0.7791  0.4035
 4606SOL     OW25276   1.697   0.444   4.835  0.6017 -0.0107  0.2821
 4606SOL    HW125277   1.782   0.489   4.832 -0.0380  1.2610  1.3998
 4606SOL    HW225278   1.724   0.352   4.834  1.2598  0.1924 -0.6752
 4607SOL     OW25279   3.534   4.584   5.387  0.1983  0.3904  0.0660
 4607SOL    HW125280   3.502   4.496   5.369  2.6432 -0.5121  0.2404
 4607SOL    HW225281   3.491   4.599   5.471 -0.2882 -0.3073 -0.0547
 4608SOL     OW25282   1.709   0.562  16.106 -0.3153  0.3285  0.0136
 4608SOL    HW125283   1.774   0.536  16.172 -1.2977  2.3489  1.7658
 4608SOL    HW225284   1.758   0.539  16.027 -2.0182 -1.0375 -0.6459
 4609SOL     OW25285   1.453   3.996  12.758 -0.1327  0.1456  0.0988
 4609SOL    HW125286   1.403   3.972  12.680 -1.8232  0.1859  1.1593
 4609SOL    HW225287   1.424   4.086  12.773  3.1874  0.9255  1.7810
 4610SOL     OW25288   1.429   3.587   4.287  0.1342 -0.5564  0.4872
 4610SOL    HW125289   1.353   3.530   4.272 -1.7599  1.3235  2.8268
 4610SOL    HW225290   1.463   3.608   4.200  0.1100 -0.1652  0.5720
 4611SOL     OW25291   3.301   1.265   5.923  0.6479 -0.0946 -0.3913
 4611SOL    HW125292   3.357   1.285   5.998 -0.0592 -1.2088  0.4276
 4611SOL    HW225293   3.223   1.241   5.974  0.8103  0.7411  0.2663
 4612SOL     OW25294   1.941   2.732  10.126 -0.1429 -0.0955  0.2677
 4612SOL    HW125295   1.858   2.738  10.172  1.0004  1.8728  2.0723
 4612SOL    HW225296   1.954   2.637  10.131  0.3131 -0.0193  0.5687
 4613SOL     OW25297   1.579   0.237   6.586  0.1149 -0.1677  0.1020
 4613SOL    HW125298   1.494   0.273   6.559 -0.0750 -0.7357 -0.0534
 4613SOL    HW225299   1.586   0.153   6.541 -1.5207 -0.2965  0.0574
 4614SOL     OW25300   1.786   3.201   6.213 -0.6982 -0.2801  0.0301
 4614SOL    HW125301   1.881   3.192   6.214 -0.7267 -0.8291 -1.9561
 4614SOL    HW225302   1.768   3.131   6.275  1.4266  1.5151  2.6799
 4615SOL     OW25303   0.640   4.069   1.541  0.4739 -0.3090 -0.1719
 4615SOL    HW125304   0.697   4.041   1.469  1.7505  0.7342  0.4371
 4615SOL    HW225305   0.675   4.015   1.612  0.2340  1.4511  1.2833
 4616SOL     OW25306   2.890   0.498   5.576  0.2282  0.3709 -0.4224
 4616SOL    HW125307   2.814   0.541   5.536  1.0006  2.0664 -0.0485
 4616SOL    HW225308   2.916   0.551   5.651  1.9163 -1.1912  0.0982
 4617SOL     OW25309   4.573   2.544  11.119  0.2013 -0.0173 -0.5580
 4617SOL    HW125310   4.567   2.612  11.052 -0.8003  0.6228  0.1908
 4617SOL    HW225311   4.666   2.522  11.113  0.6892  1.4977  1.4475
 4618SOL     OW25312   4.394   4.222   6.289  0.1702 -0.2293  0.0458
 4618SOL    HW125313   4.449   4.260   6.357  2.0545  0.8513 -2.0623
 4618SOL    HW225314   4.457   4.220   6.217 -1.0118 -0.9806 -0.9702
 4619SOL     OW25315   4.255   2.623   6.451  0.0568  0.2026  0.2172
 4619SOL    HW125316   4.226   2.684   6.519 -0.1688 -0.9622  1.1671
 4619SOL    HW225317   4.244   2.542   6.499  1.9580  1.3493  2.5959
 4620SOL     OW25318   2.098   3.859   1.872  0.7374 -0.2682  0.1386
 4620SOL    HW125319   2.192   3.879   1.873  1.1407 -1.8742 -4.4473
 4620SOL    HW225320   2.065   3.909   1.797  2.5694 -0.2169 -0.6351
 4621SOL     OW25321   4.060   3.426   4.327 -0.4229 -0.2921  0.4217
 4621SOL    HW125322   3.975   3.433   4.284 -0.7424  1.2077  1.3175
 4621SOL    HW225323   4.078   3.516   4.353  2.5998 -1.4554  2.4189
 4622SOL     OW25324   1.617   2.223   1.056  0.6217  0.4470 -0.1920
 4622SOL    HW125325   1.594   2.147   1.109 -2.1575  1.0916 -0.4812
 4622SOL    HW225326   1.628   2.175   0.974  2.0262 -2.5779  1.7802
 4623SOL     OW25327   1.615   2.001   1.905  0.5566 -0.2046 -0.5520
 4623SOL    HW125328   1.585   1.995   1.996  2.1907 -0.8641 -0.0644
 4623SOL    HW225329   1.595   1.918   1.863 -2.3233  0.5198 -0.6022
 4624SOL     OW25330   2.350   3.063   3.041  0.0099 -0.6967 -0.0562
 4624SOL    HW125331   2.278   3.021   3.088 -0.3091 -2.2405 -1.9196
 4624SOL    HW225332   2.339   3.154   3.068 -1.9541 -0.8632 -0.2693
 4625SOL     OW25333   3.765   1.311  17.374  0.4655 -0.4287  0.0700
 4625SOL    HW125334   3.674   1.311  17.406  0.2834  0.3215 -0.4385
 4625SOL    HW225335   3.809   1.307  17.459 -0.3133  2.0051  0.5959
 4626SOL     OW25336   3.288   0.078   7.159  0.5623 -0.3352  0.0158
 4626SOL    HW125337   3.268   4.710   7.127  1.5776 -0.6356  0.2008
 4626SOL    HW225338   3.210   0.133   7.148  1.1316  0.7455  1.3012
 4627SOL     OW25339   3.261   2.379   9.564 -0.4373 -0.1498 -0.1915
 4627SOL    HW125340   3.261   2.344   9.475 -2.3029 -0.7660  0.0580
 4627SOL    HW225341   3.354   2.387   9.587 -0.7899  0.6098  0.9964
 4628SOL     OW25342   1.587   1.994   5.949  0.2423  0.2912 -0.2652
 4628SOL    HW125343   1.642   2.041   6.013  1.8568 -0.1997 -1.2759
 4628SOL    HW225344   1.654   1.941   5.905  0.1304 -0.6121  0.6593
 4629SOL     OW25345   4.107   1.901   6.349  0.2478 -0.0215  0.1184
 4629SOL    HW125346   4.186   1.849   6.363 -0.1778 -0.0503  2.3784
 4629SOL    HW225347   4.134   1.953   6.273  2.7327 -0.3605  0.7672
 4630SOL     OW25348   3.464   3.978  16.920  0.3177  0.2988  0.1517
 4630SOL    HW125349   3.421   4.045  16.867  3.0490  0.6593 -1.6054
 4630SOL    HW225350   3.550   4.020  16.922  0.1507  0.6364  0.4919
 4631SOL     OW25351   2.882   3.770   5.661 -0.2533  0.8929  0.3182
 4631SOL    HW125352   2.862   3.846   5.715 -1.5980  0.1391  0.8799
 4631SOL    HW225353   2.897   3.809   5.574 -1.5195  0.0790 -0.2678
 4632SOL     OW25354   3.508   4.430   8.080  0.5607 -0.2094 -0.0518
 4632SOL    HW125355   3.462   4.367   8.136 -0.1805  0.3408 -0.0347
 4632SOL    HW225356   3.538   4.492   8.147 -2.2183  0.6890  0.3761
 4633SOL     OW25357   4.706   0.956   7.082  0.2392 -0.1127 -0.1167
 4633SOL    HW125358   4.665   1.016   7.145 -2.4798 -1.2788 -0.7712
 4633SOL    HW225359   0.050   1.013   7.039 -0.4351  0.3766 -0.4575
 4634SOL     OW25360   3.235   4.597  16.757  0.0724  0.0146 -0.4152
 4634SOL    HW125361   3.174   4.531  16.789 -2.7186  3.2812  1.0185
 4634SOL    HW225362   3.199   4.680  16.788 -3.1383 -1.5865  0.1809
 4635SOL     OW25363   0.581   2.759   5.209  0.6638  0.4262  0.7139
 4635SOL    HW125364   0.566   2.822   5.139 -2.7571  1.6606  2.5422
 4635SOL    HW225365   0.618   2.688   5.157 -1.2182  0.1289 -0.2303
 4636SOL     OW25366   0.729   3.418   8.443 -0.3682  0.6186 -0.2299
 4636SOL    HW125367   0.727   3.503   8.489 -1.4524 -0.4995  1.7727
 4636SOL    HW225368   0.781   3.365   8.504 -1.2495  1.2471  1.0865
 4637SOL     OW25369   3.657   4.528  16.228  0.0491 -0.0940  0.2082
 4637SOL    HW125370   3.645   4.621  16.247  1.0628  0.5563 -2.3377
 4637SOL    HW225371   3.660   4.503  16.320 -1.0896 -0.2876  0.1952
 4638SOL     OW25372   0.029   0.186  15.021 -0.1197  0.0621  0.0688
 4638SOL    HW125373   0.104   0.185  14.961  0.3187  0.8479  0.6098
 4638SOL    HW225374   0.069   0.191  15.108  1.6835  1.0856 -0.8162
 4639SOL     OW25375   1.836   1.861   0.941 -0.1064  0.0292 -0.1391
 4639SOL    HW125376   1.795   1.842   1.026 -1.3534 -0.8929 -0.9479
 4639SOL    HW225377   1.767   1.905   0.892 -1.7143 -0.4119  1.7189
 4640SOL     OW25378   0.785   0.249   4.539  0.2986  0.4216 -0.8176
 4640SOL    HW125379   0.729   0.310   4.587  0.4240  0.6211 -0.9263
 4640SOL    HW225380   0.872   0.286   4.553 -0.1808  0.4314  2.0636
 4641SOL     OW25381   0.553   4.368   1.014  0.9395  0.4573 -0.3038
 4641SOL    HW125382   0.523   4.356   0.924 -2.1438 -1.3913  1.0001
 4641SOL    HW225383   0.585   4.458   1.013 -1.1553  1.2483  2.8601
 4642SOL     OW25384   2.024   3.262  11.354  0.1110 -0.2897  0.1155
 4642SOL    HW125385   2.019   3.357  11.338  0.9112 -0.6855 -2.5657
 4642SOL    HW225386   1.961   3.263  11.425  1.1914 -0.7356  1.0867
 4643SOL     OW25387   4.007   3.759   6.058 -0.4896  0.2390  0.5679
 4643SOL    HW125388   3.956   3.732   6.135  0.1914  1.7887  1.5631
 4643SOL    HW225389   4.023   3.675   6.016 -2.0047  0.7778 -1.0980
 4644SOL     OW25390   3.603   0.351   6.636  0.0647 -0.4576  0.2889
 4644SOL    HW125391   3.534   0.327   6.698  0.5941  0.1281  1.1101
 4644SOL    HW225392   3.586   0.442   6.613 -1.8318 -0.9917 -0.5069
 4645SOL     OW25393   2.017   2.027   7.487  0.1989 -0.4727 -0.5191
 4645SOL    HW125394   2.108   2.031   7.516  0.3841  0.4755 -1.2235
 4645SOL    HW225395   1.978   2.066   7.565 -0.5560 -2.9755  0.3628
 4646SOL     OW25396   3.498   0.242   7.289  0.0595  0.0002 -0.3137
 4646SOL    HW125397   3.473   0.334   7.281  2.1070  0.3994 -1.9653
 4646SOL    HW225398   3.433   0.202   7.231 -0.4702  1.7693 -0.9544
 4647SOL     OW25399   4.717   0.370   6.944 -0.7056 -1.1388  0.0584
 4647SOL    HW125400   4.683   0.291   6.903 -1.5979 -0.0888 -1.2351
 4647SOL    HW225401   0.041   0.338   7.023  1.0801 -0.1627 -0.5316
 4648SOL     OW25402   3.873   3.360   4.610  0.0922 -0.1187  0.3555
 4648SOL    HW125403   3.832   3.435   4.567 -0.1976  0.9036  2.4020
 4648SOL    HW225404   3.944   3.404   4.656  0.5024 -0.4854  0.0776
 4649SOL     OW25405   3.801   3.718   3.822  0.4227  0.2224  0.2124
 4649SOL    HW125406   3.811   3.809   3.793  1.0411  0.1525  0.2012
 4649SOL    HW225407   3.716   3.714   3.866 -0.4246 -0.8675 -1.5023
 4650SOL     OW25408   3.497   1.390   5.239 -0.3587  0.0857 -0.8773
 4650SOL    HW125409   3.578   1.345   5.215  1.3285  1.1282  2.8025
 4650SOL    HW225410   3.523   1.421   5.326 -1.6797 -2.4594  0.4103
 4651SOL     OW25411   0.507   4.203   3.352 -0.6342  0.2364 -0.0661
 4651SOL    HW125412   0.564   4.270   3.389 -0.8381  0.3089  0.1184
 4651SOL    HW225413   0.475   4.148   3.424  0.9395 -1.8056 -0.9146
 4652SOL     OW25414   0.028   0.834   4.560 -0.1586 -0.5963  0.1019
 4652SOL    HW125415   4.683   0.898   4.590  0.1605 -1.4483  2.6436
 4652SOL    HW225416   0.106   0.874   4.598  0.6067 -0.7942 -1.2636
 4653SOL     OW25417   2.591   2.254  10.683  0.9404 -0.4222  0.3033
 4653SOL    HW125418   2.612   2.165  10.654 -2.0268 -1.7883  2.3184
 4653SOL    HW225419   2.656   2.308  10.637 -0.3763  2.3741  1.7137
 4654SOL     OW25420   4.058   0.761   6.859 -0.2853 -0.4526 -0.0877
 4654SOL    HW125421   4.101   0.691   6.909  0.1001  0.1196  0.3820
 4654SOL    HW225422   4.125   0.819   6.823 -0.1761 -1.1644 -1.0264
 4655SOL     OW25423   3.263   3.578   8.436 -0.7227  0.2749  0.6163
 4655SOL    HW125424   3.293   3.639   8.369  0.7858  0.2314  1.2595
 4655SOL    HW225425   3.172   3.570   8.406  0.1182  0.3487 -1.9051
 4656SOL     OW25426   4.573   1.407   7.457 -0.6131  0.0105 -0.2377
 4656SOL    HW125427   4.524   1.473   7.507  1.2412  0.4594  0.9968
 4656SOL    HW225428   4.602   1.353   7.530 -1.9656 -1.7227 -0.9994
 4657SOL     OW25429   3.331   4.585  16.213 -0.0163 -0.1149 -0.4594
 4657SOL    HW125430   3.344   4.637  16.293 -1.4744  0.4013 -0.5702
 4657SOL    HW225431   3.417   4.554  16.184  1.6587  3.7079  0.3580
 4658SOL     OW25432   1.471   0.682   6.575 -0.0749 -0.5863 -0.1822
 4658SOL    HW125433   1.376   0.681   6.557 -0.2719  0.6136  0.8134
 4658SOL    HW225434   1.487   0.671   6.669 -0.3529  1.6040  0.1283
 4659SOL     OW25435   1.374   0.246   8.048  0.2148 -0.2426 -0.3015
 4659SOL    HW125436   1.283   0.226   8.069  0.6762 -0.6465  1.3035
 4659SOL    HW225437   1.362   0.261   7.954  0.3811 -1.4666 -0.5124
 4660SOL     OW25438   0.090   0.881  11.741  0.3620  0.3798 -0.1206
 4660SOL    HW125439   0.119   0.821  11.672  2.2185 -0.3723  1.3410
 4660SOL    HW225440   0.133   0.841  11.816 -1.0971 -0.7189  0.1373
 4661SOL     OW25441   3.623   4.225   9.338  0.1227  0.2791  0.1472
 4661SOL    HW125442   3.591   4.172   9.410  0.1217 -0.1647 -0.1817
 4661SOL    HW225443   3.716   4.225   9.363 -0.2593  1.2274  1.5230
 4662SOL     OW25444   3.672   0.798  12.704 -0.3792 -0.7036  0.0068
 4662SOL    HW125445   3.671   0.882  12.659 -1.4751 -1.9711 -2.3190
 4662SOL    HW225446   3.664   0.826  12.795  1.6442 -1.0609  0.3127
 4663SOL     OW25447   4.544   3.197   4.356 -0.1051  0.2105  0.2446
 4663SOL    HW125448   4.501   3.278   4.329 -1.6048 -0.2611  1.2386
 4663SOL    HW225449   4.585   3.161   4.278 -1.7035 -1.0764  0.0048
 4664SOL     OW25450   0.612   1.318   2.157 -0.6040  0.5104  0.0475
 4664SOL    HW125451   0.678   1.289   2.093 -0.6043  1.8595 -0.5716
 4664SOL    HW225452   0.558   1.370   2.098 -1.2637 -0.0898  0.1226
 4665SOL     OW25453   3.622   3.353   9.962 -0.4157  0.6565 -0.0378
 4665SOL    HW125454   3.650   3.263   9.978 -0.3379  0.7072  0.1179
 4665SOL    HW225455   3.679   3.397  10.026  0.6499 -1.6565  0.6096
 4666SOL     OW25456   3.426   2.448  15.664 -0.2194 -0.7158 -0.0188
 4666SOL    HW125457   3.405   2.407  15.580 -0.1387 -1.3952  0.2972
 4666SOL    HW225458   3.355   2.411  15.717 -0.0370  1.9504  2.0838
 4667SOL     OW25459   4.264   0.805  13.150  0.1559  0.0498 -0.3632
 4667SOL    HW125460   4.247   0.712  13.167  0.2240  0.0661 -0.2068
 4667SOL    HW225461   4.269   0.837  13.240 -2.3027 -0.6417  0.0151
 4668SOL     OW25462   1.452   3.865  16.462 -0.2723  0.2724 -0.2394
 4668SOL    HW125463   1.436   3.831  16.550 -2.9268  0.4313 -0.6627
 4668SOL    HW225464   1.450   3.785  16.409 -0.8535 -0.5494  1.0395
 4669SOL     OW25465   1.757   0.936  15.019  0.2773  0.0755 -0.0866
 4669SOL    HW125466   1.769   0.864  15.081 -1.0639 -0.0653 -0.0032
 4669SOL    HW225467   1.735   1.001  15.085 -0.4201 -0.0257 -0.2197
 4670SOL     OW25468   4.550   0.947  16.107  0.1227 -0.1438  0.4041
 4670SOL    HW125469   4.586   1.028  16.144 -0.9014  0.1209  0.8172
 4670SOL    HW225470   4.639   0.913  16.099  1.3612  2.7754  1.5210
 4671SOL     OW25471   0.257   2.510   2.511  0.3321 -0.0483 -0.3336
 4671SOL    HW125472   0.229   2.591   2.467  1.2766 -0.1891 -1.1746
 4671SOL    HW225473   0.343   2.523   2.551  0.7944 -0.7675 -1.0977
 4672SOL     OW25474   2.318   2.192  16.117  0.0965 -0.5039  0.2609
 4672SOL    HW125475   2.253   2.203  16.186 -2.0167 -0.0833 -1.8028
 4672SOL    HW225476   2.266   2.141  16.055 -1.1587  0.2192  0.7345
 4673SOL     OW25477   4.385   1.839   6.090  0.2293 -0.2557  0.9013
 4673SOL    HW125478   4.410   1.756   6.049 -1.2729 -1.2292  1.9579
 4673SOL    HW225479   4.397   1.828   6.185 -3.3108 -2.7783  1.0769
 4674SOL     OW25480   1.330   3.875   3.040  0.3871  0.1109 -0.2285
 4674SOL    HW125481   1.359   3.830   3.120 -0.3851 -0.7296 -0.4143
 4674SOL    HW225482   1.403   3.841   2.988  0.7108  0.2001  0.1679
 4675SOL     OW25483   2.997   0.795   4.898  0.0067  0.1918 -0.3766
 4675SOL    HW125484   2.944   0.716   4.908  1.0107 -0.1837  1.9782
 4675SOL    HW225485   3.048   0.782   4.978 -0.2075  0.6420 -0.1662
 4676SOL     OW25486   1.674   1.495  11.702  0.2280  0.5657  0.4257
 4676SOL    HW125487   1.751   1.551  11.710  0.1226  0.7758 -0.0177
 4676SOL    HW225488   1.723   1.413  11.712 -0.0649  0.4141  0.6247
 4677SOL     OW25489   4.458   0.361   1.365 -0.3761 -0.8565  0.6389
 4677SOL    HW125490   4.365   0.384   1.355 -0.0455  0.0185 -0.5043
 4677SOL    HW225491   4.509   0.418   1.307 -0.5801 -2.4078 -1.0736
 4678SOL     OW25492   0.096   0.203  13.726  0.4282  0.0932 -0.1578
 4678SOL    HW125493   0.067   0.230  13.639 -0.6790  1.5356  0.6564
 4678SOL    HW225494   0.031   0.136  13.744  0.4640  0.4310  1.1842
 4679SOL     OW25495   4.397   0.052   3.901  0.2956 -0.1516  0.8145
 4679SOL    HW125496   4.484   0.029   3.933  1.4323  2.8933 -0.0559
 4679SOL    HW225497   4.415   0.041   3.807  0.7844  1.8842  0.6623
 4680SOL     OW25498   4.021   2.120   8.441 -0.6061  0.0894  0.1048
 4680SOL    HW125499   4.042   2.026   8.435  1.1956  0.5595 -0.8047
 4680SOL    HW225500   3.962   2.127   8.366  0.3063 -1.1342 -0.7419
 4681SOL     OW25501   0.941   4.012   7.500  0.1597 -0.1450  0.0918
 4681SOL    HW125502   0.989   4.063   7.434 -1.9752  1.2593 -0.3686
 4681SOL    HW225503   0.899   3.948   7.443  1.4923  0.5221 -1.6563
 4682SOL     OW25504   2.756   3.598  17.035  0.0455 -0.9817  0.0074
 4682SOL    HW125505   2.847   3.572  17.045  0.4928  0.3175 -0.7063
 4682SOL    HW225506   2.750   3.686  17.071  2.5009 -0.2581 -1.3772
 4683SOL     OW25507   3.419   1.118   8.167  0.2145 -0.4662 -0.6000
 4683SOL    HW125508   3.507   1.079   8.167  0.6282  0.4848  2.4608
 4683SOL    HW225509   3.423   1.178   8.241  1.9163 -1.2413 -0.0666
 4684SOL     OW25510   2.593   1.042   1.354  0.6809 -0.2639 -0.8763
 4684SOL    HW125511   2.654   1.108   1.388  1.2699 -0.5417 -1.4058
 4684SOL    HW225512   2.582   0.978   1.425 -0.3696  0.6299 -0.2247
 4685SOL     OW25513   1.445   0.576   7.506 -0.2868  0.3922 -1.0158
 4685SOL    HW125514   1.518   0.520   7.533 -0.6979 -0.6305 -2.0317
 4685SOL    HW225515   1.442   0.642   7.575  2.9458 -0.4125 -0.1050
 4686SOL     OW25516   4.446   2.524   4.867  0.0967  0.5337 -0.3842
 4686SOL    HW125517   4.400   2.587   4.922 -0.0109 -0.4460  0.6269
 4686SOL    HW225518   4.536   2.533   4.898  0.3081 -1.8342 -0.2944
 4687SOL     OW25519   4.355   2.341  15.312  0.1186 -0.3687  0.0275
 4687SOL    HW125520   4.373   2.267  15.370 -0.3622 -2.2435 -2.2170
 4687SOL    HW225521   4.273   2.386  15.333 -0.0092 -0.0428 -1.1516
 4688SOL     OW25522   4.439   3.746   4.925 -0.2228  0.3420 -0.2251
 4688SOL    HW125523   4.530   3.730   4.904  0.3724  0.4388  2.3316
 4688SOL    HW225524   4.415   3.682   4.992 -1.0180  1.1861  0.3046
 4689SOL     OW25525   2.007   1.590   7.702  0.3657  0.8535  0.1382
 4689SOL    HW125526   2.030   1.594   7.609  0.8966 -1.0058  0.1880
 4689SOL    HW225527   1.919   1.620   7.677 -0.8855 -1.8517  1.3152
 4690SOL     OW25528   1.114   0.505   3.645  0.3429 -0.2904  0.5772
 4690SOL    HW125529   1.174   0.468   3.709  1.3284 -1.0999 -0.8240
 4690SOL    HW225530   1.105   0.442   3.573  0.0814 -0.1293  0.4702
 4691SOL     OW25531   2.829   4.297   3.832  0.4767  0.8968  0.5911
 4691SOL    HW125532   2.749   4.292   3.781 -1.4299 -0.6554  3.7205
 4691SOL    HW225533   2.808   4.237   3.903  0.5633 -0.9318 -0.9389
 4692SOL     OW25534   1.915   4.150   9.441  0.3570 -0.3859  0.0320
 4692SOL    HW125535   1.978   4.221   9.456  0.1651 -0.0232 -0.8456
 4692SOL    HW225536   1.959   4.092   9.379 -1.5942 -0.8696 -0.9022
 4693SOL     OW25537   3.744   2.726   8.940 -0.2519 -0.0496 -0.3662
 4693SOL    HW125538   3.708   2.793   8.882  1.3627  0.3414 -0.9199
 4693SOL    HW225539   3.708   2.649   8.894 -2.0450 -0.0339  1.0237
 4694SOL     OW25540   3.855   0.438   8.866 -0.9539 -0.0305  0.6179
 4694SOL    HW125541   3.887   0.352   8.840 -0.0924  0.9745 -1.6349
 4694SOL    HW225542   3.773   0.427   8.819 -1.3810 -0.3395  1.4425
 4695SOL     OW25543   4.646   2.028   1.610 -0.7139  0.2707 -0.7153
 4695SOL    HW125544   4.707   1.961   1.640 -1.9733 -0.6357 -0.1530
 4695SOL    HW225545   4.700   2.070   1.544 -0.2894  0.2509 -0.3800
 4696SOL     OW25546   3.574   4.586   8.896  0.3767 -0.5750 -0.1173
 4696SOL    HW125547   3.581   4.523   8.968  0.4187 -3.0964 -2.3114
 4696SOL    HW225548   3.491   4.560   8.856 -0.4258  0.9055  0.5971
 4697SOL     OW25549   3.867   1.282   7.718  0.5453  0.1339 -0.2589
 4697SOL    HW125550   3.937   1.236   7.672 -1.2132 -1.3140 -1.4711
 4697SOL    HW225551   3.831   1.210   7.769  2.6358  0.1955  1.2889
 4698SOL     OW25552   3.074   1.795  12.945 -0.3117 -0.2199  0.4113
 4698SOL    HW125553   3.051   1.708  12.912  3.1077 -0.3568 -1.6003
 4698SOL    HW225554   3.070   1.778  13.039  0.6620 -1.0178  0.2977
 4699SOL     OW25555   0.089   0.885   5.991  0.9079 -0.0878  0.4698
 4699SOL    HW125556   0.093   0.800   6.035  2.0061  0.1815  0.9142
 4699SOL    HW225557   0.164   0.885   5.931  1.8506  1.5256  1.6318
 4700SOL     OW25558   2.702   0.266   4.956 -0.5248 -0.5073 -0.5900
 4700SOL    HW125559   2.699   0.176   4.988  0.0348 -0.0877  0.6593
 4700SOL    HW225560   2.667   0.309   5.034 -1.4294 -1.2562 -0.5835
 4701SOL     OW25561   1.356   4.539   6.308 -0.9537  0.4406  0.2152
 4701SOL    HW125562   1.271   4.543   6.264 -0.1043 -1.1185 -1.5305
 4701SOL    HW225563   1.379   4.446   6.312  0.7707  0.8517 -0.4181
 4702SOL     OW25564   2.445   2.384   7.204  0.1691  0.3419 -0.0695
 4702SOL    HW125565   2.427   2.312   7.264  0.0363  0.3560 -0.0932
 4702SOL    HW225566   2.411   2.346   7.123  1.4374  3.8683 -2.2562
 4703SOL     OW25567   1.954   3.613   6.722  0.8979  0.2169  0.5261
 4703SOL    HW125568   1.957   3.555   6.646 -0.0957 -0.5689  1.0893
 4703SOL    HW225569   1.864   3.599   6.753  0.3151 -0.6527 -1.5458
 4704SOL     OW25570   1.577   1.719   3.513 -0.1928  0.3546  0.4388
 4704SOL    HW125571   1.672   1.704   3.521 -0.1784 -0.6234 -1.8401
 4704SOL    HW225572   1.550   1.713   3.605 -1.5178  0.5358  0.0569
 4705SOL     OW25573   0.276   1.981   7.035 -0.1031  0.1635 -0.0827
 4705SOL    HW125574   0.239   1.898   7.004 -0.6312  0.2149  0.4177
 4705SOL    HW225575   0.273   1.959   7.128  2.8671 -1.6866 -0.4184
 4706SOL     OW25576   1.417   4.237   3.772  0.2957 -0.4583 -0.3377
 4706SOL    HW125577   1.384   4.291   3.699 -3.5265 -1.9147  0.2889
 4706SOL    HW225578   1.511   4.235   3.758  0.2332 -0.3583 -0.7818
 4707SOL     OW25579   0.314   0.832  12.585 -0.0254  0.5818  0.1056
 4707SOL    HW125580   0.315   0.747  12.542  0.5236 -0.5456  2.3439
 4707SOL    HW225581   0.376   0.881  12.531  1.1934 -0.7121  0.3300
 4708SOL     OW25582   2.749   3.096   7.210  0.3451 -0.4270 -0.2003
 4708SOL    HW125583   2.737   3.001   7.219  0.3827 -0.1199  3.1275
 4708SOL    HW225584   2.780   3.124   7.296 -1.1950  0.9569 -0.1101
 4709SOL     OW25585   3.018   3.651   7.710  0.2788  0.3523  0.1199
 4709SOL    HW125586   2.981   3.676   7.794 -0.1230  1.3924 -0.3716
 4709SOL    HW225587   2.938   3.614   7.671  1.8387 -1.8933 -0.9463
 4710SOL     OW25588   1.412   1.111  14.910  0.7323  0.3105 -0.2301
 4710SOL    HW125589   1.449   1.028  14.939 -0.3076 -0.2959 -0.6199
 4710SOL    HW225590   1.488   1.168  14.916  0.8899  0.0659  0.0915
 4711SOL     OW25591   3.670   1.596   4.473 -0.4891 -0.1991  0.1445
 4711SOL    HW125592   3.698   1.682   4.442 -1.2449  0.0120  0.0511
 4711SOL    HW225593   3.734   1.549   4.419 -0.6834 -0.0308 -0.2320
 4712SOL     OW25594   1.569   4.316   6.207 -0.4366 -0.5134  0.5534
 4712SOL    HW125595   1.606   4.275   6.129  1.3083  3.5988 -0.8170
 4712SOL    HW225596   1.626   4.278   6.274  0.2821  1.7170  1.2182
 4713SOL     OW25597   1.270   2.876   7.261 -0.5616 -0.6397 -0.4169
 4713SOL    HW125598   1.316   2.876   7.344 -0.3437 -1.0344 -0.5333
 4713SOL    HW225599   1.330   2.819   7.212 -1.0873 -0.7349 -0.9547
 4714SOL     OW25600   3.746   2.233  15.358  0.2104  0.4070 -0.5127
 4714SOL    HW125601   3.706   2.318  15.371 -0.2010  0.1179  0.1060
 4714SOL    HW225602   3.676   2.179  15.396 -0.6449  1.0714 -1.1522
 4715SOL     OW25603   2.231   3.399   4.075 -0.0648  0.3000 -0.3159
 4715SOL    HW125604   2.170   3.473   4.070 -2.8688 -1.8874  1.4027
 4715SOL    HW225605   2.265   3.419   4.162 -1.0869 -1.9432  0.5928
 4716SOL     OW25606   3.533   3.250   5.682 -0.5470  0.1384  0.2972
 4716SOL    HW125607   3.504   3.333   5.645 -0.8536  0.4216  1.1710
 4716SOL    HW225608   3.572   3.283   5.763 -2.1695  2.5100  0.0942
 4717SOL     OW25609   3.592   0.514   3.630  0.4104  0.3244 -0.1944
 4717SOL    HW125610   3.555   0.582   3.686  1.2129  0.4830  0.1376
 4717SOL    HW225611   3.654   0.474   3.690  0.2912 -0.0147 -0.2953
 4718SOL     OW25612   2.066   2.412   4.077 -0.2153 -0.3600 -0.3414
 4718SOL    HW125613   2.126   2.475   4.037  2.7966  0.1210  5.0108
 4718SOL    HW225614   2.095   2.333   4.031 -0.8560  0.4643 -2.1699
 4719SOL     OW25615   2.946   3.751   5.195 -0.0352  0.2780  0.1405
 4719SOL    HW125616   2.859   3.789   5.206 -0.2856 -0.1187 -0.4634
 4719SOL    HW225617   2.939   3.697   5.117 -2.0087  0.8135 -0.0300
 4720SOL     OW25618   3.503   0.567  13.666 -0.0749  0.1612 -1.0883
 4720SOL    HW125619   3.514   0.481  13.707 -0.8880  0.1988 -0.8094
 4720SOL    HW225620   3.447   0.545  13.592 -0.7034 -1.8735 -0.0269
 4721SOL     OW25621   3.424   1.022  15.085  0.3309  0.1362  0.4087
 4721SOL    HW125622   3.439   0.985  15.172  0.8285  1.1231  0.7479
 4721SOL    HW225623   3.472   1.105  15.088  0.1553  0.2321  0.5383
 4722SOL     OW25624   0.636   2.319   8.643 -0.7588  0.0384 -0.6830
 4722SOL    HW125625   0.615   2.246   8.700 -1.0368  1.2236  0.7153
 4722SOL    HW225626   0.700   2.364   8.697  0.9127 -2.3479 -0.6607
 4723SOL     OW25627   2.237   2.309   5.778  0.1501  0.3249  0.3772
 4723SOL    HW125628   2.261   2.277   5.691 -1.4825 -2.9917  1.1542
 4723SOL    HW225629   2.191   2.236   5.819 -1.5382  0.4473 -1.2544
 4724SOL     OW25630   2.785   0.889   3.341  0.8130 -0.4123  0.1346
 4724SOL    HW125631   2.843   0.827   3.298  1.4091  0.1477  0.1286
 4724SOL    HW225632   2.735   0.841   3.407  1.7108 -0.4835  0.7595
 4725SOL     OW25633   3.016   2.179   6.735 -0.0797  0.2251  0.1831
 4725SOL    HW125634   3.073   2.190   6.658 -1.5745  0.1072 -0.9290
 4725SOL    HW225635   2.939   2.134   6.702  0.2457 -1.0977  1.2238
 4726SOL     OW25636   4.220   4.620  17.041 -0.2187 -0.2258 -0.2190
 4726SOL    HW125637   4.198   4.528  17.055  1.7466 -0.6319  0.0993
 4726SOL    HW225638   4.247   4.627  16.949 -1.1511  0.8576 -0.4010
 4727SOL     OW25639   0.919   1.915   8.635  0.4546  0.2095  0.4745
 4727SOL    HW125640   0.910   1.997   8.684  1.2561  0.8113 -0.3947
 4727SOL    HW225641   0.935   1.861   8.712  0.0752 -0.5486  0.0171
 4728SOL     OW25642   0.072   0.766   0.018  0.3404 -0.1607  0.5661
 4728SOL    HW125643   0.132   0.837   0.041  1.5092 -0.8818 -0.3097
 4728SOL    HW225644   0.084   0.714   0.097  1.5682 -1.3000 -0.3704
 4729SOL     OW25645   2.900   1.787   2.246 -0.2326  0.1148 -0.6441
 4729SOL    HW125646   2.941   1.709   2.209  0.4916  0.0485  0.3041
 4729SOL    HW225647   2.808   1.765   2.234  0.1398 -1.7427 -0.1477
 4730SOL     OW25648   3.196   2.323  13.898 -0.3039  0.1278  0.5362
 4730SOL    HW125649   3.212   2.255  13.963  1.7935  0.9278  0.8339
 4730SOL    HW225650   3.260   2.297  13.831  0.4905  0.5324  1.1446
 4731SOL     OW25651   0.398   3.398   1.154  0.2603 -0.0876  0.2634
 4731SOL    HW125652   0.486   3.432   1.167  0.4983 -0.7025  0.2438
 4731SOL    HW225653   0.415   3.304   1.146 -0.5191 -0.2916  0.8890
 4732SOL     OW25654   0.101   0.425  17.297 -0.9465 -0.0388 -0.2769
 4732SOL    HW125655   0.168   0.487  17.270 -0.0591 -0.6307  0.6025
 4732SOL    HW225656   0.078   0.460  17.383  1.2009 -0.2819  0.3798
 4733SOL     OW25657   2.381   2.828   3.485 -0.7169 -0.5501  0.2263
 4733SOL    HW125658   2.419   2.794   3.403  0.1329 -3.0919  1.6820
 4733SOL    HW225659   2.421   2.915   3.478 -0.8851 -0.4925 -0.0402
 4734SOL     OW25660   2.925   4.671   4.852  0.0290  0.1644 -0.7314
 4734SOL    HW125661   2.909   4.612   4.778  1.4183 -1.5319  0.3310
 4734SOL    HW225662   2.916   0.035   4.806 -2.2490 -0.6730 -1.8242
 4735SOL     OW25663   0.477   2.868   8.367  0.1305  0.0675  0.3023
 4735SOL    HW125664   0.458   2.882   8.460  1.2839  2.1548  0.2053
 4735SOL    HW225665   0.568   2.895   8.378 -0.4678  0.7398  3.5913
 4736SOL     OW25666   0.377   4.277   4.411  0.0820  0.3496 -0.3333
 4736SOL    HW125667   0.368   4.363   4.452 -2.1353  0.6136 -1.3475
 4736SOL    HW225668   0.379   4.295   4.317 -0.0826  0.6547 -0.2776
 4737SOL     OW25669   1.016   3.285   2.206  0.8807 -0.0771  0.2042
 4737SOL    HW125670   0.949   3.220   2.227  0.2605  0.5378  0.1251
 4737SOL    HW225671   1.040   3.257   2.118 -0.5487 -0.6949  0.0034
 4738SOL     OW25672   3.839   1.290   6.875  0.0780  0.2477  0.1616
 4738SOL    HW125673   3.885   1.214   6.912 -1.1915 -0.6081 -0.0022
 4738SOL    HW225674   3.872   1.353   6.938 -3.5221  0.7137  1.5600
 4739SOL     OW25675   4.361   3.724   8.309 -0.0784  0.3800 -0.2984
 4739SOL    HW125676   4.342   3.640   8.267  0.5293 -0.2260  0.6570
 4739SOL    HW225677   4.358   3.694   8.400 -1.1639 -0.6556 -0.6716
 4740SOL     OW25678   1.793   4.364  13.856  0.0314 -0.1087  0.0239
 4740SOL    HW125679   1.730   4.332  13.792  0.9379 -1.3575 -0.2659
 4740SOL    HW225680   1.802   4.457  13.839 -0.4299 -0.3780 -1.6882
 4741SOL     OW25681   0.245   1.768   6.464  0.0631 -0.4172  0.5106
 4741SOL    HW125682   0.203   1.786   6.380 -1.5567  1.6316  1.7603
 4741SOL    HW225683   0.251   1.672   6.468  0.7932 -0.3766  0.2712
 4742SOL     OW25684   3.065   3.341   7.769 -0.1440 -0.8669  0.1446
 4742SOL    HW125685   3.125   3.350   7.695 -0.3448  1.0732  0.2018
 4742SOL    HW225686   2.992   3.296   7.726 -0.2805  0.4478 -0.9829
 4743SOL     OW25687   1.064   2.179   9.819 -0.8100  0.1886 -0.8486
 4743SOL    HW125688   0.999   2.175   9.890 -0.3155 -1.7055 -0.5151
 4743SOL    HW225689   1.044   2.093   9.783  1.6764 -0.2109 -1.2386
 4744SOL     OW25690   0.637   3.898   0.391  0.2669 -0.5176  0.1975
 4744SOL    HW125691   0.567   3.846   0.429 -0.6060 -0.8248 -1.8387
 4744SOL    HW225692   0.676   3.931   0.472  0.4356 -0.5860  0.1435
 4745SOL     OW25693   3.235   3.570   3.166  0.3450 -0.3395 -0.2815
 4745SOL    HW125694   3.328   3.548   3.176  0.6311  0.2475 -1.5385
 4745SOL    HW225695   3.247   3.664   3.157 -1.2145 -0.2180 -1.0241
 4746SOL     OW25696   1.268   2.163  10.173  0.3314  1.0135  0.1287
 4746SOL    HW125697   1.174   2.179  10.168 -0.0490 -0.8415  1.2771
 4746SOL    HW225698   1.283   2.107  10.250  2.0727  0.8563 -0.3161
 4747SOL     OW25699   4.092   2.154   3.728  0.0358  0.9339 -0.1492
 4747SOL    HW125700   4.118   2.168   3.637 -3.1861  0.5974 -1.1402
 4747SOL    HW225701   4.015   2.211   3.731 -0.0737  0.7738  0.0328
 4748SOL     OW25702   0.112   2.267   5.816  0.3079 -0.5669 -0.0957
 4748SOL    HW125703   0.064   2.251   5.897  0.9085 -3.3722 -0.3016
 4748SOL    HW225704   0.049   2.314   5.761 -0.2758 -0.6840  0.4721
 4749SOL     OW25705   1.989   0.261   5.695  0.0028 -0.0194  0.0692
 4749SOL    HW125706   2.082   0.277   5.705 -0.3552  1.0141  1.6924
 4749SOL    HW225707   1.963   0.349   5.667  0.9252  0.4251  0.6290
 4750SOL     OW25708   2.821   3.575   8.625  0.2390  0.0486  0.2939
 4750SOL    HW125709   2.822   3.669   8.606 -0.8124  0.2404  1.2342
 4750SOL    HW225710   2.755   3.557   8.558  0.2351  0.6418  0.1427
 4751SOL     OW25711   3.846   4.165   1.427  0.6449 -0.9279 -0.3374
 4751SOL    HW125712   3.936   4.199   1.428  0.3753 -0.2681  1.8352
 4751SOL    HW225713   3.824   4.183   1.336 -2.2231  1.0976  0.7707
 4752SOL     OW25714   3.899   0.985   4.808 -0.3941 -0.8602 -0.2527
 4752SOL    HW125715   3.837   0.951   4.743  0.2843 -1.5807 -0.5270
 4752SOL    HW225716   3.936   1.048   4.746  1.0051 -1.4372 -0.0114
 4753SOL     OW25717   3.771   0.258   2.782 -0.1756  0.0426  1.1852
 4753SOL    HW125718   3.820   0.194   2.730 -0.0527 -0.5433  2.0183
 4753SOL    HW225719   3.835   0.263   2.852  2.7847 -0.5368 -1.4944
 4754SOL     OW25720   3.474   4.667   2.732 -0.3009  0.3611  0.9259
 4754SOL    HW125721   3.436   0.022   2.777  0.7496  1.4556  0.0217
 4754SOL    HW225722   3.450   4.693   2.643  1.2756 -1.6444 -0.0989
 4755SOL     OW25723   0.535   1.274   4.380  0.2403 -0.4515 -0.2367
 4755SOL    HW125724   0.564   1.239   4.465  1.0537 -0.1446 -0.3902
 4755SOL    HW225725   0.521   1.367   4.401 -0.1093 -0.9705  1.8604
 4756SOL     OW25726   3.194   4.448   6.761  0.0298  0.3305  0.3431
 4756SOL    HW125727   3.233   4.521   6.714 -1.4328 -0.6410 -2.4347
 4756SOL    HW225728   3.237   4.375   6.716  1.5838 -0.4397  3.0642
 4757SOL     OW25729   3.480   2.257   3.245 -0.2829  0.2910  0.0415
 4757SOL    HW125730   3.393   2.229   3.216 -0.2679  1.4892 -1.1059
 4757SOL    HW225731   3.514   2.174   3.280 -1.9720  1.0656  3.4850
 4758SOL     OW25732   0.986   2.837   7.253 -0.9672  0.7790  0.0206
 4758SOL    HW125733   0.972   2.904   7.186  0.1218  1.6927  0.6983
 4758SOL    HW225734   1.081   2.835   7.257 -0.9993  1.6575  1.2108
 4759SOL     OW25735   4.098   0.092   9.793 -0.2049 -0.0577 -0.1705
 4759SOL    HW125736   4.125   0.030   9.861 -2.3436 -0.6644  0.1441
 4759SOL    HW225737   4.003   0.105   9.802 -0.1075  0.7479 -0.3195
 4760SOL     OW25738   4.631   3.167   2.117 -0.0393 -0.2026  0.1085
 4760SOL    HW125739   4.673   3.180   2.032 -2.0014  0.1452 -0.7840
 4760SOL    HW225740   4.626   3.259   2.141 -0.1476 -0.1493 -0.1176
 4761SOL     OW25741   2.575   0.599   2.176  0.1661  0.4613 -0.1190
 4761SOL    HW125742   2.564   0.530   2.241 -0.3678  1.7211  1.1164
 4761SOL    HW225743   2.553   0.674   2.231  0.9238 -0.0399  0.8623
 4762SOL     OW25744   4.003   4.708   3.427 -0.7154 -0.0947  0.4580
 4762SOL    HW125745   3.970   4.630   3.382 -0.2767 -0.2640  0.4208
 4762SOL    HW225746   3.972   4.699   3.517  1.9652 -0.7088  1.3471
 4763SOL     OW25747   3.550   1.993   8.863 -0.3739  0.0150  0.3635
 4763SOL    HW125748   3.592   1.915   8.897  3.2482  1.1995 -1.2440
 4763SOL    HW225749   3.473   1.994   8.919 -1.0046  0.3274 -0.5051
 4764SOL     OW25750   1.789   0.103   6.098  0.3247  0.2032 -0.2270
 4764SOL    HW125751   1.745   0.109   6.013 -0.7473  0.3760  0.3277
 4764SOL    HW225752   1.749   0.020   6.124 -0.5864  0.3517 -1.1674
 4765SOL     OW25753   2.503   4.372   9.042  0.0452  0.4279  0.0566
 4765SOL    HW125754   2.569   4.313   9.007  0.4281 -0.7847  2.8114
 4765SOL    HW225755   2.461   4.316   9.108  0.1675 -0.1814 -0.3867
 4766SOL     OW25756   1.530   1.090   8.349 -0.4374  0.1220 -0.5003
 4766SOL    HW125757   1.581   1.015   8.379 -0.1308  1.0682  1.3011
 4766SOL    HW225758   1.444   1.059   8.377  1.4466 -2.5602  2.2950
 4767SOL     OW25759   4.526   3.899  11.659  0.1517 -0.1215 -0.5142
 4767SOL    HW125760   4.504   3.806  11.655 -0.7442  0.0522  0.2064
 4767SOL    HW225761   4.438   3.936  11.669  0.2674 -0.5408  2.0448
 4768SOL     OW25762   4.212   1.074   0.823  0.0120  0.0820 -0.5412
 4768SOL    HW125763   4.281   1.132   0.793  1.0191 -0.7743  0.1354
 4768SOL    HW225764   4.240   0.984   0.841 -2.2155  0.0950  2.9873
 4769SOL     OW25765   0.942   1.777   8.876 -0.8176  0.0497 -0.0013
 4769SOL    HW125766   0.905   1.712   8.936  0.9442 -0.1454  0.8413
 4769SOL    HW225767   0.998   1.829   8.932 -0.8111 -2.4157  2.3133
 4770SOL     OW25768   3.062   4.316   4.333  0.2188  0.5213 -0.3847
 4770SOL    HW125769   3.120   4.352   4.266 -1.3871  2.0053 -0.9686
 4770SOL    HW225770   2.978   4.361   4.325 -0.0376  0.6584  2.9347
 4771SOL     OW25771   2.752   1.833   7.955 -0.7913 -0.5309  0.2814
 4771SOL    HW125772   2.662   1.831   7.924 -0.9541  0.0146  0.7229
 4771SOL    HW225773   2.767   1.744   7.988  1.7092  0.2941  1.4367
 4772SOL     OW25774   1.822   0.895   1.808  0.2582 -0.1829 -0.1806
 4772SOL    HW125775   1.776   0.906   1.725 -2.0058 -0.2930  1.0709
 4772SOL    HW225776   1.768   0.838   1.863  0.5949 -1.0079 -0.7044
 4773SOL     OW25777   3.431   0.793   4.969  0.3664  0.0016  0.5025
 4773SOL    HW125778   3.458   0.703   4.950 -1.2365 -0.0487 -1.5348
 4773SOL    HW225779   3.423   0.792   5.065  1.2621 -1.2873  0.5588
 4774SOL     OW25780   1.147   3.995  16.473  0.2376 -0.3278  0.1540
 4774SOL    HW125781   1.215   4.061  16.488 -0.5184  0.2202  1.1392
 4774SOL    HW225782   1.125   3.967  16.562 -0.5225 -0.6215 -0.1209
 4775SOL     OW25783   2.942   1.710   5.257 -0.1420 -0.2545  0.5923
 4775SOL    HW125784   2.933   1.766   5.179 -1.3420 -0.4529  0.5863
 4775SOL    HW225785   2.850   1.683   5.252  0.4572 -2.5910  2.1812
 4776SOL     OW25786   4.257   2.956   0.634  0.3507  0.1044  0.5491
 4776SOL    HW125787   4.325   3.019   0.659  1.1383 -0.9398  1.0389
 4776SOL    HW225788   4.205   2.960   0.714  0.9148  0.1948  0.9074
 4777SOL     OW25789   3.942   1.172   0.904  0.1143 -0.2769  0.7695
 4777SOL    HW125790   4.017   1.120   0.873  0.1944  1.0705 -1.2880
 4777SOL    HW225791   3.916   1.220   0.826  0.5049 -1.5117 -0.1210
 4778SOL     OW25792   1.377   0.003   8.393  0.3441  0.0503  0.0876
 4778SOL    HW125793   1.401   0.092   8.370  1.8181 -0.5971 -0.8533
 4778SOL    HW225794   1.349   4.689   8.307 -1.4556  1.1852  0.2323
 4779SOL     OW25795   0.005   3.288   9.470  0.3179 -0.1155  0.4316
 4779SOL    HW125796   4.645   3.274   9.419  0.2767 -2.9359  1.2749
 4779SOL    HW225797   0.041   3.200   9.480 -0.5964 -0.4639  0.6186
 4780SOL     OW25798   0.631   2.625  13.932  0.3523 -0.4270 -0.5373
 4780SOL    HW125799   0.654   2.625  13.839  0.7536 -0.1869 -0.4390
 4780SOL    HW225800   0.537   2.630  13.913 -0.2610  1.2734  2.9556
 4781SOL     OW25801   3.571   0.420   4.022 -0.0035 -0.5868 -0.0183
 4781SOL    HW125802   3.573   0.353   3.953  0.0937 -0.7988  0.1917
 4781SOL    HW225803   3.517   0.375   4.087  0.1558  3.7405  3.0599
 4782SOL     OW25804   0.706   4.542   5.967  0.3011 -0.1186  0.0010
 4782SOL    HW125805   0.620   4.501   5.978 -0.1114  0.9576  0.8751
 4782SOL    HW225806   0.741   4.481   5.903  1.6611 -0.2216  0.8512
 4783SOL     OW25807   2.170   3.092  17.260  0.9340 -0.5051 -0.3889
 4783SOL    HW125808   2.108   3.040  17.208  1.1610 -0.2944 -0.8598
 4783SOL    HW225809   2.144   3.179  17.229 -0.5651  0.0094  2.3252
 4784SOL     OW25810   1.069   2.607  16.062  0.0177 -0.2796 -0.1239
 4784SOL    HW125811   1.026   2.671  16.119 -1.8965 -0.2292 -1.6494
 4784SOL    HW225812   1.089   2.673  15.996 -0.0544  1.5212  1.6292
 4785SOL     OW25813   4.434   1.322   7.235  0.1932  0.5431 -0.6576
 4785SOL    HW125814   4.500   1.253   7.243 -0.3868  0.1024  0.3212
 4785SOL    HW225815   4.473   1.397   7.278 -1.5937 -0.2616  2.3983
 4786SOL     OW25816   2.237   0.423   0.716 -0.4534  0.2814 -0.1735
 4786SOL    HW125817   2.190   0.506   0.722  1.7875  1.4344  1.3494
 4786SOL    HW225818   2.267   0.429   0.626 -1.9297  1.9337 -0.5599
 4787SOL     OW25819   3.124   0.280   7.545  0.4611  0.1172  0.5009
 4787SOL    HW125820   3.212   0.272   7.583  1.6118  1.1192 -1.9059
 4787SOL    HW225821   3.073   0.335   7.604  0.7743 -0.4799  1.3197
 4788SOL     OW25822   4.667   2.497   5.678 -0.1915  0.5473  0.2099
 4788SOL    HW125823   4.711   2.531   5.600  0.0715 -2.2603 -0.8881
 4788SOL    HW225824   4.600   2.439   5.642  0.8999  1.1316 -2.7653
 4789SOL     OW25825   2.477   4.415   0.427 -0.0478  0.6296  0.0578
 4789SOL    HW125826   2.423   4.459   0.492  1.3355  2.3061  0.0814
 4789SOL    HW225827   2.491   4.327   0.462 -3.9676 -0.1953 -0.4341
 4790SOL     OW25828   4.115   1.422   8.297 -0.3676  0.0513  0.2577
 4790SOL    HW125829   4.208   1.409   8.314 -0.1596  0.2596 -0.7043
 4790SOL    HW225830   4.097   1.335   8.261 -0.5446 -0.1240  0.7848
 4791SOL     OW25831   4.047   3.159   6.540 -0.3094  0.0912  0.1825
 4791SOL    HW125832   4.119   3.215   6.567  0.8860 -1.3443 -0.0590
 4791SOL    HW225833   3.990   3.179   6.614  0.9884  0.1358  1.1683
 4792SOL     OW25834   3.936   1.709  10.395 -0.0823 -0.0751 -0.4641
 4792SOL    HW125835   3.934   1.627  10.444 -0.5713  0.1993 -0.0180
 4792SOL    HW225836   3.980   1.680  10.315  0.1324 -1.4758  0.1657
 4793SOL     OW25837   2.474   2.608   3.122 -0.2341 -0.5768  0.4805
 4793SOL    HW125838   2.427   2.533   3.087 -0.9075 -1.5177  3.3941
 4793SOL    HW225839   2.461   2.667   3.048 -0.1649  0.9004  1.6577
 4794SOL     OW25840   0.894   0.873   7.757 -0.4307 -0.5132 -0.5227
 4794SOL    HW125841   0.915   0.879   7.664 -0.6828  2.6058 -0.3573
 4794SOL    HW225842   0.982   0.847   7.783 -0.9587 -1.8642 -0.0862
 4795SOL     OW25843   1.403   2.499  10.079  0.5015 -0.3214 -0.1174
 4795SOL    HW125844   1.427   2.431  10.017  1.4131 -0.0083 -0.1145
 4795SOL    HW225845   1.311   2.475  10.080  0.2289  0.6445 -1.6790
 4796SOL     OW25846   2.221   3.866   4.332  0.0355  1.0375 -0.2921
 4796SOL    HW125847   2.160   3.932   4.365 -1.5834  0.4613 -2.1790
 4796SOL    HW225848   2.190   3.864   4.242  1.4391  0.6051 -0.7684
 4797SOL     OW25849   0.844   0.919   5.425  0.3277 -0.0273  0.4663
 4797SOL    HW125850   0.930   0.876   5.429  0.2328 -0.3323 -0.7270
 4797SOL    HW225851   0.799   0.835   5.426 -0.7615  0.5167 -2.7422
 4798SOL     OW25852   0.675   1.290   3.915  0.9092  0.3534 -0.2771
 4798SOL    HW125853   0.751   1.342   3.889  0.7658 -0.1196 -1.6679
 4798SOL    HW225854   0.704   1.202   3.892  0.2936 -0.4043  1.8731
 4799SOL     OW25855   4.675   2.285   1.475  0.7382  0.7465  0.1699
 4799SOL    HW125856   0.043   2.258   1.446 -0.2054 -1.7992 -0.2577
 4799SOL    HW225857   4.657   2.369   1.433  0.7461  0.7901  0.2526
 4800SOL     OW25858   4.266   1.197   7.553 -0.3357 -0.0020 -0.5570
 4800SOL    HW125859   4.250   1.286   7.520  1.4903 -0.2427 -2.0969
 4800SOL    HW225860   4.291   1.228   7.640 -1.7403 -0.2615 -0.0633
 4801SOL     OW25861   3.652   2.083   4.623  0.6046  0.1770  0.3320
 4801SOL    HW125862   3.574   2.120   4.665 -0.3397 -1.0392 -0.3693
 4801SOL    HW225863   3.711   2.158   4.615 -1.0164  1.7704  3.3014
 4802SOL     OW25864   0.398   4.195  17.422  0.2400 -0.0654  0.4515
 4802SOL    HW125865   0.323   4.144  17.453  0.9501 -1.3510  0.0928
 4802SOL    HW225866   0.464   4.127  17.410  0.8082  0.8472 -1.6349
 4803SOL     OW25867   3.487   2.693   3.435 -0.5834 -0.3994  0.3041
 4803SOL    HW125868   3.408   2.669   3.484  0.6580 -2.1547  1.4304
 4803SOL    HW225869   3.519   2.605   3.417 -1.8740 -0.9424  0.6095
 4804SOL     OW25870   3.100   1.541   8.595 -0.0358  0.3778 -0.3414
 4804SOL    HW125871   3.020   1.589   8.572 -1.1993 -1.4573 -0.0962
 4804SOL    HW225872   3.130   1.603   8.662  0.3778  0.2371 -0.3964
 4805SOL     OW25873   2.111   1.677   8.676  0.0003 -0.2668  0.3116
 4805SOL    HW125874   2.065   1.632   8.605  0.1578 -0.5145  0.3655
 4805SOL    HW225875   2.070   1.636   8.752  1.8699 -2.4249  0.1786
 4806SOL     OW25876   4.029   2.182  15.319  0.2103 -0.0018  0.0825
 4806SOL    HW125877   4.064   2.235  15.247  0.4637 -0.5573 -0.2016
 4806SOL    HW225878   3.935   2.199  15.320  0.2464  0.1371  1.4147
 4807SOL     OW25879   2.804   3.769   3.684 -0.4217 -0.4297  0.5343
 4807SOL    HW125880   2.891   3.756   3.720  0.2628  1.5029 -0.4419
 4807SOL    HW225881   2.758   3.769   3.768 -0.4275 -1.4960  0.5366
 4808SOL     OW25882   2.845   0.088   6.059 -0.3667  0.9230 -0.0727
 4808SOL    HW125883   2.932   0.079   6.098 -0.5823  1.8404  0.6450
 4808SOL    HW225884   2.867   0.143   5.984  0.1986  0.7125 -0.0641
 4809SOL     OW25885   3.168   3.139  14.997 -0.1168  0.0233  0.8031
 4809SOL    HW125886   3.196   3.056  15.034 -2.4239 -1.4032 -0.6623
 4809SOL    HW225887   3.073   3.132  14.992 -0.1777 -0.4443  2.8819
 4810SOL     OW25888   3.531   3.020   2.671  0.3552 -0.1364 -0.4954
 4810SOL    HW125889   3.478   2.970   2.609 -0.0945  1.1845 -1.1771
 4810SOL    HW225890   3.595   3.063   2.615  1.4198  0.1865  0.9667
 4811SOL     OW25891   3.892   4.503   1.200  0.3271 -0.0335  0.3633
 4811SOL    HW125892   3.832   4.431   1.220  0.5015 -0.3603 -0.2812
 4811SOL    HW225893   3.935   4.510   1.285 -1.4194  1.1765  1.1618
 4812SOL     OW25894   2.442   1.949   8.854 -0.0852 -0.7000 -0.5973
 4812SOL    HW125895   2.462   1.883   8.786 -2.1726 -1.3851 -0.5367
 4812SOL    HW225896   2.518   1.932   8.910 -0.2461  1.8182  0.3818
 4813SOL     OW25897   3.886   2.147  12.956 -0.4395  0.0324  0.4095
 4813SOL    HW125898   3.972   2.107  12.972 -1.4018 -1.5832  1.4607
 4813SOL    HW225899   3.883   2.140  12.860  1.5437  1.1763  0.2654
 4814SOL     OW25900   3.388   1.566  15.768 -0.6187 -0.0041  0.3909
 4814SOL    HW125901   3.301   1.577  15.807 -1.0523 -0.3878 -0.4840
 4814SOL    HW225902   3.448   1.603  15.834  0.6030  0.4037 -0.9401
 4815SOL     OW25903   3.645   3.078   3.994  0.3971  0.0164 -0.2173
 4815SOL    HW125904   3.726   3.128   3.985 -1.4995  3.0032 -0.6075
 4815SOL    HW225905   3.674   2.987   3.983  0.3450 -0.0673  0.3375
 4816SOL     OW25906   1.430   0.098   2.363  0.3465  0.0614 -0.1832
 4816SOL    HW125907   1.465   0.185   2.377  0.7730 -0.3948  1.5708
 4816SOL    HW225908   1.459   0.091   2.272 -0.8375 -1.0813 -0.4732
 4817SOL     OW25909   2.405   0.564   9.197 -0.2337 -0.1100  0.1115
 4817SOL    HW125910   2.474   0.626   9.174 -1.8477  1.5605 -0.3274
 4817SOL    HW225911   2.407   0.524   9.110  0.2765  0.5632 -0.1894
 4818SOL     OW25912   3.269   3.976  11.162 -0.0163  0.1269  0.2901
 4818SOL    HW125913   3.349   4.018  11.194 -1.1032  3.3447 -1.1928
 4818SOL    HW225914   3.270   4.008  11.072  0.1932 -0.1483  0.1944
 4819SOL     OW25915   1.305   4.302   4.024 -0.0730 -0.3730  0.1466
 4819SOL    HW125916   1.217   4.281   3.992 -0.4263 -0.8687  1.4211
 4819SOL    HW225917   1.340   4.304   3.935 -0.5150  1.9240  0.0372
 4820SOL     OW25918   4.370   1.964   9.113  0.1615  0.1277  0.3140
 4820SOL    HW125919   4.396   1.984   9.023  0.7064 -0.1910  0.4006
 4820SOL    HW225920   4.409   1.877   9.119  0.2657  0.1182 -0.5144
 4821SOL     OW25921   0.297   2.174   6.831 -0.3416 -0.5150 -0.0276
 4821SOL    HW125922   0.203   2.179   6.815  0.0530 -0.0426 -2.2693
 4821SOL    HW225923   0.292   2.106   6.898  1.6908 -0.4445  0.2008
 4822SOL     OW25924   1.206   1.112   2.036 -0.1049 -0.4954  0.2934
 4822SOL    HW125925   1.264   1.072   1.971 -2.9036 -3.2996 -0.4404
 4822SOL    HW225926   1.130   1.058   2.017 -0.7341 -0.3773  2.4589
 4823SOL     OW25927   2.465   2.332   5.240  0.0507  0.3294  0.3124
 4823SOL    HW125928   2.527   2.386   5.191  0.6027 -0.9569 -0.4098
 4823SOL    HW225929   2.500   2.245   5.219  2.9624  1.3419  1.0011
 4824SOL     OW25930   2.032   3.294   3.225 -0.1481 -0.9727  0.0946
 4824SOL    HW125931   1.954   3.348   3.211 -0.3446 -0.4061  3.2175
 4824SOL    HW225932   2.102   3.358   3.242 -2.2834  1.1119  1.0081
 4825SOL     OW25933   3.341   4.150   6.164  0.5766 -0.2004  0.1255
 4825SOL    HW125934   3.296   4.141   6.248 -1.5101 -2.2891 -1.2048
 4825SOL    HW225935   3.383   4.065   6.150  0.1282 -0.1796 -1.3710
 4826SOL     OW25936   3.242   4.546   8.417  0.1267  0.0902 -0.8258
 4826SOL    HW125937   3.281   4.461   8.440 -1.0227  0.3754  2.1018
 4826SOL    HW225938   3.150   4.524   8.406 -0.3800  0.2380  3.0783
 4827SOL     OW25939   1.568   1.912   8.511  0.3399  0.0066  0.6710
 4827SOL    HW125940   1.534   1.826   8.488  1.1742 -0.3816  0.9114
 4827SOL    HW225941   1.547   1.907   8.604 -2.5140 -0.4089  0.0196
 4828SOL     OW25942   3.765   2.191   7.329 -0.1197 -0.7888  0.4278
 4828SOL    HW125943   3.741   2.100   7.314  1.2828 -1.3012  1.2578
 4828SOL    HW225944   3.743   2.227   7.243  1.7981  0.1490  0.3235
 4829SOL     OW25945   4.115   2.526   8.211 -0.2452  0.3096  0.0277
 4829SOL    HW125946   4.079   2.583   8.144  0.0713 -0.0058 -0.4111
 4829SOL    HW225947   4.086   2.441   8.181  0.1173  0.3900 -0.5443
 4830SOL     OW25948   0.329   1.534  10.524 -0.3374 -0.2328  0.3649
 4830SOL    HW125949   0.295   1.524  10.612  1.0773  1.4004  1.0880
 4830SOL    HW225950   0.409   1.585  10.532  0.2955 -1.2744  0.7599
 4831SOL     OW25951   0.424   0.720  15.148 -0.2937 -0.3933  0.2253
 4831SOL    HW125952   0.463   0.692  15.231  0.2367 -1.0350 -0.2454
 4831SOL    HW225953   0.463   0.657  15.088  0.9910  0.5068  0.1131
 4832SOL     OW25954   0.832   1.466   4.449 -0.2722  0.5399  0.3347
 4832SOL    HW125955   0.866   1.498   4.366  2.5962 -1.6801  0.6472
 4832SOL    HW225956   0.901   1.501   4.506  2.3597 -1.6331 -1.5203
 4833SOL     OW25957   1.823   0.127   7.460  0.2196 -0.0363 -0.5026
 4833SOL    HW125958   1.898   0.128   7.519  1.5168 -1.3371 -2.1620
 4833SOL    HW225959   1.864   0.115   7.374  0.2220 -0.7080 -0.4036
 4834SOL     OW25960   3.342   0.473   7.361 -1.0315 -0.1037 -0.6783
 4834SOL    HW125961   3.297   0.437   7.438 -0.6789 -1.0029 -0.9030
 4834SOL    HW225962   3.368   0.561   7.391 -0.0472  0.1131 -2.1799
 4835SOL     OW25963   1.360   0.935   7.224 -1.0218 -0.2777  0.3118
 4835SOL    HW125964   1.286   0.940   7.285 -0.8016  2.1724  0.3730
 4835SOL    HW225965   1.341   0.843   7.207  0.5270 -0.6761  0.7896
 4836SOL     OW25966   3.375   3.425   5.528  0.2802 -0.0173 -0.3800
 4836SOL    HW125967   3.364   3.515   5.496 -1.5217 -0.8034 -1.9359
 4836SOL    HW225968   3.404   3.379   5.449  1.0670  0.0214 -0.1144
 4837SOL     OW25969   1.743   2.848   2.555  0.1736  0.0932  0.3090
 4837SOL    HW125970   1.816   2.787   2.556  0.9197  0.9535 -2.7916
 4837SOL    HW225971   1.687   2.797   2.615 -0.4261 -1.4910 -1.6011
 4838SOL     OW25972   2.420   0.401   8.972 -0.6577  0.4302  0.1102
 4838SOL    HW125973   2.410   0.316   8.930 -1.6152  0.1843  0.8506
 4838SOL    HW225974   2.511   0.422   8.949 -1.4924  5.3954  1.4041
 4839SOL     OW25975   4.056   0.172   2.852  0.6690 -0.4747 -0.0588
 4839SOL    HW125976   4.123   0.161   2.919 -0.9001 -1.2110  1.3921
 4839SOL    HW225977   4.033   0.084   2.823  0.9684 -0.4793 -0.2731
 4840SOL     OW25978   0.237   1.784   4.369  0.3719  0.4061 -0.0192
 4840SOL    HW125979   0.219   1.814   4.280  0.9539 -0.1405 -0.3220
 4840SOL    HW225980   0.255   1.691   4.354 -0.9182  0.0859  0.3784
 4841SOL     OW25981   3.845   4.460   1.507  0.8269  0.5639  0.1113
 4841SOL    HW125982   3.859   4.519   1.581  0.6444  1.7454 -0.7983
 4841SOL    HW225983   3.870   4.378   1.548 -1.7738  0.3916  1.3690
 4842SOL     OW25984   0.105   2.987   6.679  0.3339  0.5649  0.0813
 4842SOL    HW125985   0.154   2.909   6.654  0.7675  0.7904  0.2267
 4842SOL    HW225986   0.029   2.941   6.714 -0.5441 -0.0859 -2.6488
 4843SOL     OW25987   0.468   0.493   2.799  0.2794  0.0844  0.2504
 4843SOL    HW125988   0.465   0.412   2.749 -0.1118 -1.0239  2.0609
 4843SOL    HW225989   0.395   0.484   2.860 -0.4706 -0.5370 -0.7416
 4844SOL     OW25990   1.156   3.142   3.722 -0.1962 -0.2089 -0.2361
 4844SOL    HW125991   1.251   3.151   3.727 -0.2262 -0.7220  1.0494
 4844SOL    HW225992   1.142   3.164   3.630  4.0451  0.4594 -0.7214
 4845SOL     OW25993   2.806   0.952   5.288 -0.0994 -0.0829 -0.0514
 4845SOL    HW125994   2.738   1.012   5.317 -0.0303 -0.3632  0.6964
 4845SOL    HW225995   2.872   1.017   5.266 -1.0823  0.9683  0.1150
 4846SOL     OW25996   1.874   4.007   3.321 -0.4816 -0.4697  0.1077
 4846SOL    HW125997   1.801   3.948   3.341 -2.0087  1.2847 -0.2047
 4846SOL    HW225998   1.950   3.953   3.302  1.2764  2.6030 -1.4729
 4847SOL     OW25999   0.566   3.954   8.602 -0.5390  0.4341 -0.7647
 4847SOL    HW126000   0.509   3.918   8.534 -2.8813 -0.4844  1.6429
 4847SOL    HW226001   0.649   3.951   8.555 -0.2222  2.0199 -0.2904
 4848SOL     OW26002   3.211   0.548   1.760  0.6171  0.3199 -0.1390
 4848SOL    HW126003   3.299   0.534   1.725  1.3726 -0.0905  1.9106
 4848SOL    HW226004   3.194   0.630   1.714  0.5882 -0.6619 -1.8571
 4849SOL     OW26005   0.718   0.185   3.026 -0.1746 -0.5733 -0.8422
 4849SOL    HW126006   0.804   0.167   3.066 -0.8707  0.8995  1.3193
 4849SOL    HW226007   0.669   0.116   3.070  0.9963  0.0158  1.3794
 4850SOL     OW26008   3.233   1.826   2.459 -0.8250 -0.2762 -0.4365
 4850SOL    HW126009   3.259   1.887   2.391 -2.6627  1.4524  0.4052
 4850SOL    HW226010   3.139   1.842   2.452 -0.6894  0.1008 -1.3646
 4851SOL     OW26011   3.940   1.847   0.733  0.2774 -0.0796  0.3729
 4851SOL    HW126012   3.951   1.825   0.640 -1.6988 -2.3936  0.6812
 4851SOL    HW226013   3.849   1.865   0.757  0.7867  2.2629  0.5431
 4852SOL     OW26014   2.886   0.366   3.728  0.2884 -0.5416 -0.7017
 4852SOL    HW126015   2.975   0.347   3.700  0.0411 -0.7557 -1.3441
 4852SOL    HW226016   2.909   0.445   3.776 -1.1130 -1.7845  2.0255
 4853SOL     OW26017   0.103   4.107  15.655 -0.0669 -0.1955 -0.2201
 4853SOL    HW126018   0.082   4.038  15.718 -1.8868 -0.3741 -1.0158
 4853SOL    HW226019   0.111   4.047  15.580 -1.8890  1.0281 -1.4050
 4854SOL     OW26020   2.677   3.946   6.568  0.7351  0.1167  0.0107
 4854SOL    HW126021   2.769   3.919   6.563  0.7351  0.2133 -0.5110
 4854SOL    HW226022   2.638   3.885   6.630  1.1397  0.1048  0.2589
 4855SOL     OW26023   2.512   1.665   8.814  0.3553  0.2492 -0.4866
 4855SOL    HW126024   2.485   1.623   8.896  1.6693 -0.2319 -0.2997
 4855SOL    HW226025   2.565   1.596   8.774 -0.3871 -0.0934 -0.8900
 4856SOL     OW26026   0.314   4.234   3.893  0.2306 -0.1974  0.2343
 4856SOL    HW126027   0.352   4.290   3.961 -0.7988  2.1647 -1.1142
 4856SOL    HW226028   0.231   4.221   3.940 -0.0187  0.6593  0.0347
 4857SOL     OW26029   0.290   1.833   2.475  0.0641  0.1296 -0.1112
 4857SOL    HW126030   0.342   1.873   2.406 -1.7140  2.5761 -0.0270
 4857SOL    HW226031   0.341   1.862   2.551 -2.1295 -0.0912  1.4713
 4858SOL     OW26032   3.484   3.021   1.196 -0.0367 -0.2924  0.5218
 4858SOL    HW126033   3.568   3.033   1.150  0.2114  0.7574  1.2756
 4858SOL    HW226034   3.495   3.075   1.274  0.0557  0.9521 -0.3532
 4859SOL     OW26035   0.846   2.711  16.868  0.4965  0.4463  0.7648
 4859SOL    HW126036   0.811   2.748  16.950  0.9308  1.9002  0.3015
 4859SOL    HW226037   0.779   2.704  16.800  3.5362 -0.5534 -2.1053
 4860SOL     OW26038   0.021   0.631  15.333 -0.2034 -0.5535 -0.2322
 4860SOL    HW126039   0.018   0.617  15.238 -2.9328 -0.9883 -0.0726
 4860SOL    HW226040   4.652   0.658  15.356  1.4619  3.5278  1.4696
 4861SOL     OW26041   2.283   4.064   9.383 -0.0932  0.2794  0.0548
 4861SOL    HW126042   2.293   3.979   9.427 -0.0178 -0.2078 -0.9223
 4861SOL    HW226043   2.202   4.041   9.336 -0.3250 -0.3386  0.7460
 4862SOL     OW26044   1.160   0.437   8.366  0.5544  0.2864 -0.5255
 4862SOL    HW126045   1.094   0.407   8.429  2.0807  0.3766  1.1124
 4862SOL    HW226046   1.145   0.531   8.362 -1.8845 -0.2551 -3.7541
 4863SOL     OW26047   1.040   0.449   5.887  0.3152  0.1176 -0.2910
 4863SOL    HW126048   1.112   0.513   5.890  0.1818  0.3030 -1.1892
 4863SOL    HW226049   1.087   0.366   5.890 -1.5305 -0.9844 -2.5364
 4864SOL     OW26050   0.974   2.731   5.888 -0.0740  0.2246 -0.0456
 4864SOL    HW126051   1.017   2.815   5.905 -0.8758  1.0455 -2.0844
 4864SOL    HW226052   1.048   2.689   5.845  1.1417  4.1330 -1.7703
 4865SOL     OW26053   0.197   0.903   1.419  0.5923 -0.2290 -0.4114
 4865SOL    HW126054   0.208   0.956   1.498  3.2047  1.2307 -1.7619
 4865SOL    HW226055   0.280   0.856   1.424  0.6972 -0.0496 -0.4669
 4866SOL     OW26056   2.641   2.126  12.851 -0.5026 -0.5329 -0.5910
 4866SOL    HW126057   2.733   2.102  12.839 -0.2305  0.8801 -1.3820
 4866SOL    HW226058   2.635   2.216  12.818  1.3406  0.1257  0.8327
 4867SOL     OW26059   0.834   3.785  10.352 -0.2859 -0.1282 -0.4193
 4867SOL    HW126060   0.888   3.752  10.280  0.5494 -1.2305  0.7327
 4867SOL    HW226061   0.746   3.761  10.323 -0.2026  1.5778 -2.0671
 4868SOL     OW26062   2.461   2.056   0.170 -0.4550  0.4593 -0.2706
 4868SOL    HW126063   2.479   2.104   0.250  1.0115 -0.1298 -0.2620
 4868SOL    HW226064   2.530   1.990   0.170  0.1313  1.0735 -1.3130
 4869SOL     OW26065   1.010   4.204   1.260 -0.3420  0.2746 -0.6638
 4869SOL    HW126066   0.975   4.210   1.171  2.7101 -0.5313 -1.9201
 4869SOL    HW226067   0.981   4.285   1.300 -1.0160 -0.5973  0.6234
 4870SOL     OW26068   0.278   0.399   0.484  0.5285 -0.0680 -0.0423
 4870SOL    HW126069   0.295   0.332   0.418  0.8236  2.5876 -2.6647
 4870SOL    HW226070   0.327   0.359   0.555  0.4990  1.0283  0.5955
 4871SOL     OW26071   4.159   1.334   5.042 -0.0769 -0.2436 -0.2062
 4871SOL    HW126072   4.135   1.251   5.083 -1.2677 -0.4097 -1.2343
 4871SOL    HW226073   4.217   1.370   5.109  3.2406 -1.8003 -2.2620
 4872SOL     OW26074   0.235   1.177  15.140 -0.6131 -0.1189  0.6291
 4872SOL    HW126075   0.179   1.240  15.094  0.6655  0.4437 -0.1380
 4872SOL    HW226076   0.318   1.219  15.119 -0.9867 -0.0561 -0.7307
 4873SOL     OW26077   1.275   3.315   2.403  0.5106  0.5303  0.1127
 4873SOL    HW126078   1.320   3.230   2.403  5.0402  2.9452  0.1043
 4873SOL    HW226079   1.263   3.325   2.308  1.0477  1.1988  0.1180
 4874SOL     OW26080   3.602   3.415   2.658  0.2795 -0.2241 -0.6084
 4874SOL    HW126081   3.592   3.322   2.680 -2.7424  0.3866  0.6020
 4874SOL    HW226082   3.693   3.432   2.681  0.6806  0.4820 -2.7882
 4875SOL     OW26083   4.325   1.170   4.911 -0.6004 -0.0800 -0.0327
 4875SOL    HW126084   4.351   1.200   4.824 -1.0092  1.5025  0.3982
 4875SOL    HW226085   4.300   1.253   4.952 -1.1228 -0.9328  1.3737
 4876SOL     OW26086   0.964   3.705  15.462 -0.6683  0.0640 -0.4429
 4876SOL    HW126087   0.912   3.662  15.394 -0.3171  1.8367 -1.8035
 4876SOL    HW226088   0.938   3.797  15.455  0.2794  0.3029 -0.7411
 4877SOL     OW26089   3.197   2.429   7.623  0.2462  0.0581 -0.7651
 4877SOL    HW126090   3.279   2.394   7.589  1.4023 -0.6806  2.7978
 4877SOL    HW226091   3.173   2.350   7.671  1.4379  0.0565 -0.1666
 4878SOL     OW26092   1.545   1.171   7.397  0.0872 -0.3482 -0.6997
 4878SOL    HW126093   1.452   1.158   7.415 -0.4439  2.3530 -1.3839
 4878SOL    HW226094   1.563   1.242   7.459  0.1893 -1.4762  0.5694
 4879SOL     OW26095   3.992   3.257   4.908  0.1431  0.2288 -0.1903
 4879SOL    HW126096   4.084   3.248   4.881 -0.3332  1.0891 -2.1761
 4879SOL    HW226097   3.995   3.351   4.923 -1.4172  0.1113  0.8408
 4880SOL     OW26098   1.905   0.174  16.839  0.3164 -0.1101  0.4944
 4880SOL    HW126099   1.819   0.174  16.880  0.0341 -0.9323 -0.1043
 4880SOL    HW226100   1.887   0.145  16.750  0.8479 -1.3194  0.7772
 4881SOL     OW26101   4.196   2.590   6.178 -0.0084 -0.6902 -0.0023
 4881SOL    HW126102   4.231   2.615   6.264 -0.1529  0.3525 -0.2476
 4881SOL    HW226103   4.264   2.530   6.148 -0.6310 -0.1254 -2.5015
 4882SOL     OW26104   0.479   3.876   0.891 -0.3080  0.4083  0.8203
 4882SOL    HW126105   0.512   3.799   0.937  2.1654 -0.5508 -2.5900
 4882SOL    HW226106   0.411   3.844   0.832 -0.8957  0.4863  1.4530
 4883SOL     OW26107   0.081   4.273   2.427  0.4007  0.4125 -0.4948
 4883SOL    HW126108   0.086   4.208   2.357  0.7943 -1.0914  0.9244
 4883SOL    HW226109   0.132   4.344   2.388  0.1606  0.8355 -0.0536
 4884SOL     OW26110   2.822   1.018   6.783  0.8635 -0.6258  0.2674
 4884SOL    HW126111   2.869   0.947   6.826  0.2855 -0.6416  0.8713
 4884SOL    HW226112   2.794   0.982   6.699 -1.0034  1.0593  0.1484
 4885SOL     OW26113   3.472   1.401  17.372 -0.2086  0.7353 -0.3369
 4885SOL    HW126114   3.507   1.313  17.365 -1.2452  0.3821 -1.1608
 4885SOL    HW226115   3.471   1.428  17.280  0.3318  2.5550  0.1812
 4886SOL     OW26116   1.020   3.247   3.483  0.2271  0.1731  0.0978
 4886SOL    HW126117   1.006   3.154   3.465  2.5033 -0.2513  0.5063
 4886SOL    HW226118   0.956   3.267   3.551 -0.0276  0.5700 -0.2590
 4887SOL     OW26119   3.938   3.715   5.116  0.2589  0.6897 -0.1657
 4887SOL    HW126120   3.983   3.632   5.130  1.0568  0.9899 -0.9678
 4887SOL    HW226121   3.856   3.686   5.077 -0.7823  0.3444  2.2928
 4888SOL     OW26122   3.816   0.245   3.494  0.1023  0.5518  0.1313
 4888SOL    HW126123   3.884   0.311   3.508  0.2444  0.7776 -1.6220
 4888SOL    HW226124   3.834   0.183   3.564 -0.8168 -1.3968 -1.3731
 4889SOL     OW26125   3.516   4.150  10.225 -0.1076  0.9585 -0.4423
 4889SOL    HW126126   3.589   4.211  10.237  0.3002  0.8088 -2.1916
 4889SOL    HW226127   3.486   4.174  10.138 -1.1962  1.7053  0.1387
 4890SOL     OW26128   2.982   0.204  15.288  0.2294 -0.0656 -0.3596
 4890SOL    HW126129   3.019   0.209  15.376 -1.6293 -0.2260  0.4405
 4890SOL    HW226130   2.935   0.123  15.309  0.0416  0.0827 -0.2076
 4891SOL     OW26131   1.627   1.181   3.854  0.0765  0.0534 -0.6435
 4891SOL    HW126132   1.582   1.223   3.781 -0.9663  0.5805  0.3047
 4891SOL    HW226133   1.717   1.208   3.835 -0.7135  3.3120  0.3117
 4892SOL     OW26134   0.335   0.815  12.876  0.6520 -0.2968  0.1157
 4892SOL    HW126135   0.425   0.832  12.902  1.2632 -0.4057 -1.8965
 4892SOL    HW226136   0.335   0.822  12.780 -1.0308 -2.2036 -0.0364
 4893SOL     OW26137   3.378   0.287   5.368  0.5492 -0.0569 -0.4136
 4893SOL    HW126138   3.342   0.218   5.314 -1.3263 -0.5973  1.5120
 4893SOL    HW226139   3.467   0.293   5.333  1.1134 -2.7669  0.5575
 4894SOL     OW26140   4.160   4.327   3.907 -0.0758 -0.2273  0.1427
 4894SOL    HW126141   4.233   4.267   3.894 -0.3513 -0.3676 -0.7378
 4894SOL    HW226142   4.106   4.264   3.956  0.0794  0.3172  1.0251
 4895SOL     OW26143   3.206   4.359   9.768  0.4015 -0.5374 -0.1579
 4895SOL    HW126144   3.171   4.443   9.798 -2.3141 -2.1456  1.1544
 4895SOL    HW226145   3.129   4.304   9.758  0.4516 -0.5656 -0.3805
 4896SOL     OW26146   2.184   3.130  12.439 -0.3838  0.1703  0.1790
 4896SOL    HW126147   2.172   3.223  12.420  0.2573  0.2448  0.1453
 4896SOL    HW226148   2.158   3.124  12.531 -1.5469 -3.7170 -0.3739
 4897SOL     OW26149   0.995   0.072   8.331 -0.0265 -0.6510  0.0830
 4897SOL    HW126150   1.010   4.700   8.308  0.0853 -0.9568  1.3585
 4897SOL    HW226151   0.986   0.067   8.426  0.3411 -0.7527  0.1133
 4898SOL     OW26152   0.526   4.272   5.287 -0.0427 -0.3127  0.2800
 4898SOL    HW126153   0.550   4.310   5.203 -1.0721  0.1682  0.1979
 4898SOL    HW226154   0.460   4.215   5.247 -1.6147  1.8573 -0.2412
 4899SOL     OW26155   2.713   2.110   2.678  0.5671 -0.0894  0.3988
 4899SOL    HW126156   2.624   2.131   2.706  0.4311 -0.9157  0.5790
 4899SOL    HW226157   2.698   2.022   2.644  1.3561  0.1041 -0.4704
 4900SOL     OW26158   2.111   3.135   9.243  0.0487 -0.5378  0.2445
 4900SOL    HW126159   2.159   3.204   9.197  0.1103 -0.4367  0.4629
 4900SOL    HW226160   2.174   3.110   9.311  0.0434 -2.0481 -0.2984
 4901SOL     OW26161   0.607   3.122  16.305  0.0137 -0.3973  0.5265
 4901SOL    HW126162   0.658   3.184  16.253 -0.2391 -1.2395 -0.7306
 4901SOL    HW226163   0.577   3.061  16.237  1.2534 -0.6002  0.1587
 4902SOL     OW26164   3.956   4.615   3.002  0.0187 -0.7968  0.9184
 4902SOL    HW126165   4.038   4.570   2.982  0.5663  2.1884 -3.6797
 4902SOL    HW226166   3.890   4.550   2.978 -0.8436 -0.1898  1.6572
 4903SOL     OW26167   0.316   4.617   2.527 -0.4056  0.2252  0.0875
 4903SOL    HW126168   0.252   4.563   2.573 -0.3015  0.7897  0.8936
 4903SOL    HW226169   0.261   4.675   2.475 -0.8622  0.4459  0.8175
 4904SOL     OW26170   1.855   4.401   5.252 -0.3446 -0.2603 -0.0144
 4904SOL    HW126171   1.883   4.363   5.336 -1.3995  0.7538  0.8003
 4904SOL    HW226172   1.760   4.405   5.263 -0.6449  1.6715 -3.3186
 4905SOL     OW26173   3.968   3.142   7.958  0.3036 -0.0677  0.3326
 4905SOL    HW126174   3.912   3.065   7.958  1.2672 -0.7819  1.1665
 4905SOL    HW226175   4.037   3.118   7.897 -1.8965 -1.5940 -1.5192
 4906SOL     OW26176   1.421   1.580   3.327  0.0370  0.0660 -0.3431
 4906SOL    HW126177   1.475   1.628   3.390 -1.0431  0.7919  0.0156
 4906SOL    HW226178   1.382   1.644   3.267  1.5247  0.1074 -1.2795
 4907SOL     OW26179   4.072   2.351   4.497 -0.3904 -0.7609  0.2459
 4907SOL    HW126180   4.055   2.257   4.506 -1.2845 -0.5033  1.1607
 4907SOL    HW226181   4.163   2.364   4.526 -1.7083  1.8915  3.1619
 4908SOL     OW26182   3.595   1.463   2.624  0.1447 -0.3517  0.1378
 4908SOL    HW126183   3.503   1.490   2.628  0.7886  1.9925 -0.5846
 4908SOL    HW226184   3.644   1.511   2.691 -0.2101  0.1940  0.0076
 4909SOL     OW26185   1.156   4.415   9.012  0.4894 -0.4310 -0.0149
 4909SOL    HW126186   1.185   4.325   8.998  1.8628  0.1287 -0.8427
 4909SOL    HW226187   1.062   4.409   9.026  0.5105  3.9477  2.0552
 4910SOL     OW26188   4.335   0.707  16.520 -0.1620  0.0334  0.3405
 4910SOL    HW126189   4.301   0.797  16.519 -0.7726 -0.2451 -2.4897
 4910SOL    HW226190   4.294   0.662  16.446  0.3152 -0.9532  0.6779
 4911SOL     OW26191   4.145   3.655   7.971  0.0343 -0.5353 -0.5700
 4911SOL    HW126192   4.068   3.693   7.928  0.9476  0.5205 -1.2859
 4911SOL    HW226193   4.201   3.618   7.902  2.4846  1.6688  0.2236
 4912SOL     OW26194   0.841   2.775   7.732 -0.0633  0.1348 -0.1954
 4912SOL    HW126195   0.808   2.838   7.668  0.5036 -0.3672 -0.9845
 4912SOL    HW226196   0.904   2.730   7.675  0.8140  1.8305 -0.5513
 4913SOL     OW26197   1.351   4.477  10.993 -0.2656  0.1070 -0.5546
 4913SOL    HW126198   1.400   4.484  10.911 -0.0852 -0.5533 -0.5045
 4913SOL    HW226199   1.310   4.563  11.001 -0.4725 -0.0070 -0.4019
 4914SOL     OW26200   1.487   0.841   9.124  0.3784  0.2599  0.0462
 4914SOL    HW126201   1.575   0.803   9.120 -0.1039 -0.6260 -2.0144
 4914SOL    HW226202   1.510   0.926   9.087 -0.2043  0.1122 -0.6386
 4915SOL     OW26203   2.835   1.374   4.635 -0.0988  0.1433  0.1954
 4915SOL    HW126204   2.908   1.318   4.609 -0.8967 -1.0907  0.5512
 4915SOL    HW226205   2.874   1.441   4.690  1.5693 -0.1981 -0.5977
 4916SOL     OW26206   1.135   0.117   9.849  0.0363  0.0466 -0.1249
 4916SOL    HW126207   1.179   0.032   9.861  0.8790  0.7244  1.5757
 4916SOL    HW226208   1.143   0.128   9.754  3.1874  3.0514  0.4771
 4917SOL     OW26209   3.126   2.637   9.546  0.5196  0.2869  0.0055
 4917SOL    HW126210   3.135   2.728   9.517  0.5429  0.3909  0.3492
 4917SOL    HW226211   3.167   2.588   9.474  0.6600  1.8749 -1.0147
 4918SOL     OW26212   3.551   2.091  11.867  0.2999  0.0310 -0.2300
 4918SOL    HW126213   3.563   2.002  11.835 -0.3845 -0.3126  0.4888
 4918SOL    HW226214   3.583   2.152  11.800 -0.3453  0.5529 -0.0627
 4919SOL     OW26215   4.166   2.161   5.547  0.7746  0.0201  0.6061
 4919SOL    HW126216   4.211   2.215   5.613  1.8404 -1.4885  1.1200
 4919SOL    HW226217   4.221   2.160   5.469 -0.8383  3.1783 -0.5797
 4920SOL     OW26218   2.886   1.595   8.105  0.3292 -0.0531 -0.0776
 4920SOL    HW126219   2.933   1.512   8.115  0.6576  0.0253 -0.9549
 4920SOL    HW226220   2.959   1.657   8.105  0.0097  0.3200 -0.9385
 4921SOL     OW26221   1.253   2.042   5.520 -0.3684  0.0220  0.6434
 4921SOL    HW126222   1.327   2.025   5.578 -1.3619 -4.4791  0.6270
 4921SOL    HW226223   1.272   1.981   5.449 -0.9721 -0.5676  0.9894
 4922SOL     OW26224   3.706   4.136  15.424  0.1738  0.0527 -0.2750
 4922SOL    HW126225   3.696   4.194  15.500 -2.6869 -0.6129 -0.1421
 4922SOL    HW226226   3.800   4.139  15.406  0.6380 -0.5554  2.0179
 4923SOL     OW26227   2.752   2.372   6.161 -0.2982 -0.6952 -0.0118
 4923SOL    HW126228   2.769   2.278   6.148  0.0694 -0.8263  1.4422
 4923SOL    HW226229   2.792   2.379   6.248  0.1103  1.5371 -0.3946
 4924SOL     OW26230   1.004   0.526   4.128 -0.1537  0.0733  0.0625
 4924SOL    HW126231   1.094   0.504   4.154 -0.2527 -0.9423 -0.4719
 4924SOL    HW226232   1.027   0.589   4.060  1.6857 -0.4586  0.1860
 4925SOL     OW26233   3.595   2.457   5.205  0.1080 -0.7720 -0.4392
 4925SOL    HW126234   3.544   2.456   5.287  1.9920  1.1058  0.7633
 4925SOL    HW226235   3.552   2.386   5.158  0.6373  0.0117 -2.1187
 4926SOL     OW26236   1.573   3.715   9.966 -0.0350  0.3110  0.2594
 4926SOL    HW126237   1.521   3.795   9.975  0.5113  0.7504 -0.4577
 4926SOL    HW226238   1.560   3.684  10.055 -0.0858  0.3080  0.2508
 4927SOL     OW26239   1.416   3.734   3.270 -0.3237 -0.6440 -0.6874
 4927SOL    HW126240   1.426   3.639   3.272 -0.5216 -0.6841 -1.6766
 4927SOL    HW226241   1.400   3.762   3.361 -0.0434 -0.2736 -0.7505
 4928SOL     OW26242   3.398   0.645   4.131 -0.5928  0.0405 -0.0757
 4928SOL    HW126243   3.487   0.610   4.125 -0.5528 -0.0593  1.2715
 4928SOL    HW226244   3.351   0.562   4.121  0.0702 -0.1929 -1.3734
 4929SOL     OW26245   3.180   0.141  16.888 -0.5464  0.1569 -0.7523
 4929SOL    HW126246   3.158   0.232  16.910 -0.7589  0.3058 -1.5690
 4929SOL    HW226247   3.254   0.122  16.946  0.1674  0.6956 -1.4896
 4930SOL     OW26248   0.219   3.290   3.912 -0.9276  0.1259 -0.5790
 4930SOL    HW126249   0.145   3.289   3.973 -0.5850  0.2961 -0.1637
 4930SOL    HW226250   0.251   3.200   3.907 -0.7818  0.0985  1.0159
 4931SOL     OW26251   1.026   0.876  10.710 -0.2776  0.3464 -0.1681
 4931SOL    HW126252   1.101   0.900  10.763 -0.6523  1.3375 -0.0775
 4931SOL    HW226253   1.030   0.781  10.698  0.2194  0.8570 -4.0095
 4932SOL     OW26254   2.921   2.912   9.421  0.0665  0.2188 -0.0959
 4932SOL    HW126255   2.997   2.953   9.461 -0.7013  1.0886  0.4710
 4932SOL    HW226256   2.873   2.995   9.413 -3.0286 -1.6664 -1.2963
 4933SOL     OW26257   2.319   1.471   1.822  0.0196 -0.3798  0.3437
 4933SOL    HW126258   2.278   1.415   1.888 -1.4184  1.0789  0.6842
 4933SOL    HW226259   2.370   1.407   1.773  1.4186  1.7785 -1.0201
 4934SOL     OW26260   2.241   1.616   4.381  0.0763 -0.0266  0.2692
 4934SOL    HW126261   2.308   1.667   4.336  0.5197 -0.8837 -0.0528
 4934SOL    HW226262   2.235   1.527   4.344 -1.1386 -1.5777  4.1722
 4935SOL     OW26263   0.012   4.455   2.175 -0.0959  0.0655  0.2851
 4935SOL    HW126264   4.675   4.395   2.125 -0.1137 -0.4428  0.9124
 4935SOL    HW226265   0.096   4.454   2.130  0.0363  1.4040  0.4992
 4936SOL     OW26266   0.913   1.220   1.736 -0.1514  0.0922  0.1523
 4936SOL    HW126267   0.885   1.245   1.824  1.9667  1.5938  0.3818
 4936SOL    HW226268   0.912   1.125   1.747  0.3303  0.0707  0.0029
 4937SOL     OW26269   0.022   0.047   3.413 -0.5584  0.6588  0.4842
 4937SOL    HW126270   0.064   0.089   3.338 -2.6626 -0.0731 -1.1070
 4937SOL    HW226271   0.026   4.673   3.392  0.7942  0.7451  0.3364
 4938SOL     OW26272   0.425   1.824   9.417  0.5479  0.2791 -0.0583
 4938SOL    HW126273   0.461   1.910   9.442  0.5144  0.9745 -2.3781
 4938SOL    HW226274   0.342   1.860   9.387  0.8857  2.3285  1.4115
 4939SOL     OW26275   3.851   2.601  12.018  0.0190  0.1898  0.4641
 4939SOL    HW126276   3.881   2.658  11.947  0.4884 -1.9528 -1.0366
 4939SOL    HW226277   3.879   2.659  12.089  0.3787  1.5062 -0.7573
 4940SOL     OW26278   0.828   3.675   4.692  0.2237  0.2400 -0.1715
 4940SOL    HW126279   0.750   3.728   4.679  0.6243  1.3691  2.0428
 4940SOL    HW226280   0.827   3.622   4.612  1.0673 -0.1944  0.1017
 4941SOL     OW26281   3.506   4.196  16.066 -0.1210 -0.0883 -0.0710
 4941SOL    HW126282   3.470   4.241  15.990 -1.0699  1.9863  1.5731
 4941SOL    HW226283   3.440   4.129  16.083 -0.2538  0.0988  0.1631
 4942SOL     OW26284   4.083   2.105   9.798  0.0055  0.3186  0.3170
 4942SOL    HW126285   4.114   2.193   9.778  1.0211 -0.2557 -0.6733
 4942SOL    HW226286   3.989   2.121   9.799  0.5107  3.2099  0.8138
 4943SOL     OW26287   1.554   2.537   3.672  0.2457 -0.6324 -0.1062
 4943SOL    HW126288   1.472   2.495   3.646 -0.8805  0.2856  1.9511
 4943SOL    HW226289   1.585   2.479   3.742  0.0923  1.5335  1.7488
 4944SOL     OW26290   1.856   4.411   0.176  0.0773  0.0257 -0.2238
 4944SOL    HW126291   1.764   4.388   0.163  0.0760  0.2958 -0.6999
 4944SOL    HW226292   1.871   4.419   0.082 -1.6618  0.7410 -0.4554
 4945SOL     OW26293   4.326   1.461   6.276  0.2612  0.3645 -0.5190
 4945SOL    HW126294   4.408   1.436   6.319 -1.1237  1.0016  2.5183
 4945SOL    HW226295   4.269   1.441   6.351 -1.0820  0.6258 -1.4777
 4946SOL     OW26296   0.995   2.200  10.245 -0.2509  0.1062 -0.4378
 4946SOL    HW126297   0.932   2.135  10.213  0.7105 -1.0739  0.0806
 4946SOL    HW226298   0.984   2.181  10.338  1.6512  0.7295 -0.0852
 4947SOL     OW26299   1.641   0.270   3.103  0.2021  0.2401 -0.0445
 4947SOL    HW126300   1.723   0.271   3.152  0.1613  0.7403  0.0146
 4947SOL    HW226301   1.579   0.244   3.171 -1.1307  0.6927 -1.0762
 4948SOL     OW26302   0.902   2.498  13.665 -0.4392  0.0176  0.4353
 4948SOL    HW126303   0.871   2.414  13.630  1.1286 -0.1083 -0.6472
 4948SOL    HW226304   0.988   2.505  13.622 -0.6188  0.7729  0.2122
 4949SOL     OW26305   4.170   1.186  17.550  0.7068 -0.1742 -0.5323
 4949SOL    HW126306   4.155   1.205  17.642  1.1288 -2.1535 -0.0473
 4949SOL    HW226307   4.242   1.124  17.547  2.1788  1.5001  0.2643
 4950SOL     OW26308   1.247   2.593   5.993 -0.0249  0.0071 -0.5083
 4950SOL    HW126309   1.257   2.502   5.962 -1.2713 -1.0194  2.1068
 4950SOL    HW226310   1.167   2.583   6.044  1.9332  1.5748  2.8844
 4951SOL     OW26311   4.685   1.896   9.141 -0.5066 -0.4477 -0.2990
 4951SOL    HW126312   4.649   1.812   9.110  3.0853 -2.3280  0.6227
 4951SOL    HW226313   4.621   1.965   9.122 -1.3559  0.0392  4.3029
 4952SOL     OW26314   3.140   1.783   7.816 -0.5102  0.1493 -0.9599
 4952SOL    HW126315   3.112   1.693   7.800  0.3023 -0.2534 -0.0946
 4952SOL    HW226316   3.217   1.779   7.759  0.2601  2.0422 -0.0529
 4953SOL     OW26317   2.262   0.988   6.684 -0.2939  0.1074  0.3142
 4953SOL    HW126318   2.250   0.919   6.749  1.5277 -1.3928 -0.9524
 4953SOL    HW226319   2.334   0.953   6.632  0.7168  0.0559  1.7305
 4954SOL     OW26320   0.445   2.385   7.207 -0.2082  0.5948 -0.3908
 4954SOL    HW126321   0.358   2.413   7.234 -0.5992  1.7900 -2.9045
 4954SOL    HW226322   0.498   2.464   7.195  0.4507  0.3841  1.0579
 4955SOL     OW26323   0.008   1.728   7.855  0.4474  0.5784 -0.1220
 4955SOL    HW126324   0.084   1.727   7.914 -0.1276 -1.5595  0.5636
 4955SOL    HW226325   4.667   1.783   7.905  1.3033  0.4386  1.0780
 4956SOL     OW26326   0.522   4.459  11.336 -0.0915  0.1193  0.0365
 4956SOL    HW126327   0.470   4.423  11.408 -0.6956 -0.0537 -0.4835
 4956SOL    HW226328   0.592   4.395  11.341 -0.0035  0.3658  1.7175
 4957SOL     OW26329   0.102   0.348   3.570 -0.2094 -0.3954  0.3624
 4957SOL    HW126330   0.090   0.373   3.479 -0.3516 -2.4501 -0.1935
 4957SOL    HW226331   0.184   0.299   3.578  0.7098  1.2875  1.1799
 4958SOL     OW26332   4.233   1.949   0.787  0.2742  0.2525  0.2583
 4958SOL    HW126333   4.211   2.005   0.713  1.1869  0.1146 -0.1160
 4958SOL    HW226334   4.149   1.905   0.794 -0.0340  0.6892 -0.7968
 4959SOL     OW26335   0.238   0.878   2.260 -0.3826 -0.5261 -0.6211
 4959SOL    HW126336   0.240   0.826   2.180 -2.1060 -0.3373 -0.7988
 4959SOL    HW226337   0.149   0.911   2.272  0.2153  0.7876  0.1780
 4960SOL     OW26338   4.306   0.968  10.528  0.1364 -0.1393  0.0496
 4960SOL    HW126339   4.365   0.896  10.552 -0.4946 -0.4810  0.5658
 4960SOL    HW226340   4.360   1.044  10.552  0.2922 -0.8780  2.0028
 4961SOL     OW26341   0.133   3.914  15.472  0.1119 -0.1696  0.0021
 4961SOL    HW126342   0.176   3.892  15.390 -3.6975 -1.7074 -1.5848
 4961SOL    HW226343   0.042   3.920  15.443  0.8520  1.6374 -1.8955
 4962SOL     OW26344   4.243   2.823   4.310  0.2116  0.2183 -0.1487
 4962SOL    HW126345   4.155   2.842   4.343 -1.0984 -0.3980 -3.2372
 4962SOL    HW226346   4.299   2.866   4.374 -0.1012  0.6471 -0.1664
 4963SOL     OW26347   1.817   3.506   4.782  0.3854  0.5959  0.4805
 4963SOL    HW126348   1.731   3.549   4.776 -0.0443 -0.3221  0.1601
 4963SOL    HW226349   1.799   3.414   4.801  2.1849 -0.2943 -2.3174
 4964SOL     OW26350   2.991   4.529  11.949 -0.3052 -0.0593 -0.1565
 4964SOL    HW126351   3.052   4.530  12.022  1.7078  1.8981 -1.8604
 4964SOL    HW226352   3.000   4.618  11.913 -0.7346  0.2863  0.5912
 4965SOL     OW26353   1.286   2.580  14.521  0.6008 -0.1047 -0.0235
 4965SOL    HW126354   1.378   2.555  14.531  1.2632  3.2526  2.0085
 4965SOL    HW226355   1.305   2.662  14.475 -3.1029  1.6095  1.5483
 4966SOL     OW26356   1.620   1.250  10.057  0.4131 -0.0895  0.1946
 4966SOL    HW126357   1.699   1.249  10.112 -0.1197  0.8243  0.9818
 4966SOL    HW226358   1.643   1.181   9.995  0.6231  0.0214  0.1513
 4967SOL     OW26359   4.654   0.351   5.927  0.2006  0.1183 -0.5368
 4967SOL    HW126360   4.563   0.359   5.900  0.1118 -1.4501 -0.7284
 4967SOL    HW226361   4.693   0.404   5.857  0.3319  0.7635  0.0270
 4968SOL     OW26362   0.287   4.594  15.690  0.4847  0.3131  1.0549
 4968SOL    HW126363   0.361   4.534  15.682  1.9322  2.3870 -1.3648
 4968SOL    HW226364   0.320   4.658  15.753  0.8807  0.2336  0.9296
 4969SOL     OW26365   2.636   0.230   3.345  0.1957 -0.0339  0.3870
 4969SOL    HW126366   2.654   0.322   3.362  0.4978 -0.5127  2.6101
 4969SOL    HW226367   2.693   0.186   3.408 -1.2010 -0.0262  1.6469
 4970SOL     OW26368   3.651   0.980   9.341  0.2919 -0.3220  0.1498
 4970SOL    HW126369   3.739   0.987   9.304  0.0799  0.2060 -0.2635
 4970SOL    HW226370   3.599   0.992   9.261  3.3958  0.5852 -1.7432
 4971SOL     OW26371   3.682   3.334   7.518  0.5035  0.4436 -0.4060
 4971SOL    HW126372   3.592   3.307   7.498  1.2926 -1.9853 -0.7615
 4971SOL    HW226373   3.710   3.283   7.595  2.0973  1.5828 -0.2310
 4972SOL     OW26374   2.488   0.939  15.442  0.9375  0.0494  0.0168
 4972SOL    HW126375   2.463   0.998  15.513  1.5475  0.8470 -0.4247
 4972SOL    HW226376   2.435   0.971  15.369  1.0698 -0.1052 -0.1469
 4973SOL     OW26377   1.683   1.323   5.323  0.2911  0.2202  0.0069
 4973SOL    HW126378   1.672   1.283   5.409  1.4001 -2.4235 -1.0782
 4973SOL    HW226379   1.756   1.279   5.279  0.8826  0.5013  0.7246
 4974SOL     OW26380   2.134   0.486   8.511  0.2621 -0.4279  0.1633
 4974SOL    HW126381   2.199   0.553   8.488  0.2993 -0.8440 -0.9879
 4974SOL    HW226382   2.157   0.477   8.603  0.0342 -0.3693  0.2257
 4975SOL     OW26383   4.645   1.422  11.891  0.0322 -0.0540  0.1367
 4975SOL    HW126384   4.564   1.374  11.909 -0.1633 -0.5973 -2.0942
 4975SOL    HW226385   4.636   1.483  11.964  3.6470 -2.1498  2.3375
 4976SOL     OW26386   3.395   0.545  14.794 -0.1278 -0.5140 -0.0821
 4976SOL    HW126387   3.414   0.639  14.795 -0.7902 -0.4070  2.3322
 4976SOL    HW226388   3.369   0.541  14.702  2.7368 -2.6078 -0.7941
 4977SOL     OW26389   4.025   4.425   8.363  0.2940  0.4062 -0.1757
 4977SOL    HW126390   4.002   4.471   8.444  0.0581 -4.8864  2.7731
 4977SOL    HW226391   3.945   4.379   8.337  0.1218  0.3275  0.4811
 4978SOL     OW26392   1.127   1.182   4.316  0.4577  0.2751  0.4176
 4978SOL    HW126393   1.099   1.182   4.225 -0.3697  1.4681  0.6676
 4978SOL    HW226394   1.218   1.152   4.311  0.9149  1.7024  0.2587
 4979SOL     OW26395   4.225   2.158   4.319  0.1585  0.1200  0.3624
 4979SOL    HW126396   4.298   2.199   4.365  0.5996  1.9276 -1.9670
 4979SOL    HW226397   4.159   2.226   4.330 -1.0252 -0.4280 -3.2066
 4980SOL     OW26398   1.604   0.884   7.544  0.2746 -0.4415 -0.0319
 4980SOL    HW126399   1.685   0.837   7.522  1.1863  1.0042  0.2279
 4980SOL    HW226400   1.601   0.941   7.467 -1.1656 -1.1460 -0.5028
 4981SOL     OW26401   4.072   3.441   0.591  0.7783 -0.8474  0.4469
 4981SOL    HW126402   4.156   3.399   0.612  1.5077  0.8152  0.8198
 4981SOL    HW226403   4.051   3.413   0.503 -1.1902  0.4438  0.5161
 4982SOL     OW26404   1.117   1.729   5.795 -0.0100 -0.0652  0.1009
 4982SOL    HW126405   1.154   1.765   5.714  0.2662 -0.9777 -0.1882
 4982SOL    HW226406   1.120   1.634   5.782  2.3750 -0.1328  1.1829
 4983SOL     OW26407   4.196   3.281   5.747 -0.1535  0.3360 -0.4026
 4983SOL    HW126408   4.185   3.188   5.728 -1.7464  0.7105 -1.2942
 4983SOL    HW226409   4.290   3.298   5.742 -0.3099  1.1309 -0.7596
 4984SOL     OW26410   1.134   4.270   7.096  0.6727 -0.1917 -0.0712
 4984SOL    HW126411   1.225   4.298   7.107 -0.5019  3.7998 -0.4441
 4984SOL    HW226412   1.154   4.226   7.013  3.0827  0.0964  0.3689
 4985SOL     OW26413   4.586   3.013  12.188 -0.0556  0.4787  0.2598
 4985SOL    HW126414   4.507   3.000  12.135  1.0864  1.3190 -1.6622
 4985SOL    HW226415   4.558   3.078  12.253 -1.6747 -2.3834  2.4007
 4986SOL     OW26416   0.050   0.988   3.368 -0.4076 -0.4228 -0.7312
 4986SOL    HW126417   0.065   0.977   3.274 -2.0087  1.2104 -1.1589
 4986SOL    HW226418   0.077   0.904   3.406  1.6526  0.4175 -0.3474
 4987SOL     OW26419   1.679   0.812   8.106 -0.2343  0.5391 -0.2254
 4987SOL    HW126420   1.754   0.840   8.054 -0.4037 -1.9472 -1.7857
 4987SOL    HW226421   1.603   0.827   8.050 -0.2758 -0.5881 -0.4734
 4988SOL     OW26422   2.387   1.447   6.661 -0.4215 -0.8388 -0.2369
 4988SOL    HW126423   2.332   1.482   6.731  1.3575  1.9271 -0.2210
 4988SOL    HW226424   2.473   1.428   6.699  0.1625 -0.0604 -1.1693
 4989SOL     OW26425   4.120   3.057   5.978  0.3844 -0.3241 -0.1735
 4989SOL    HW126426   4.211   3.034   5.962  0.8291 -1.3300  3.6979
 4989SOL    HW226427   4.083   2.975   6.012 -1.6453 -0.3797 -2.5511
 4990SOL     OW26428   3.388   3.772  17.350  0.7089 -0.5602  0.2298
 4990SOL    HW126429   3.418   3.768  17.441  2.3232  0.0227 -0.2847
 4990SOL    HW226430   3.311   3.828  17.363  0.2917 -1.1635  0.3814
 4991SOL     OW26431   2.446   3.535   8.281 -0.4742 -0.1525 -0.6161
 4991SOL    HW126432   2.504   3.540   8.357 -1.1467 -1.1865 -0.0340
 4991SOL    HW226433   2.405   3.450   8.297 -3.1187  0.8114 -2.2794
 4992SOL     OW26434   2.890   1.548  16.585 -0.5896  0.2144 -0.5807
 4992SOL    HW126435   2.813   1.502  16.550 -0.2907  0.0949 -1.0726
 4992SOL    HW226436   2.894   1.626  16.529  0.4097  2.5411  2.7304
 4993SOL     OW26437   2.407   0.993  17.169  0.4943 -0.0772 -0.0619
 4993SOL    HW126438   2.334   1.039  17.212 -0.9912 -0.6170 -2.0128
 4993SOL    HW226439   2.360   0.969  17.089  0.7962  2.2187 -0.9369
 4994SOL     OW26440   3.715   0.772   7.930 -0.6055  0.9314  0.3659
 4994SOL    HW126441   3.777   0.717   7.882  0.3652  0.0280  2.6758
 4994SOL    HW226442   3.635   0.722   7.916 -0.8973  1.8326 -1.1723
 4995SOL     OW26443   4.337   1.034   5.809  1.1092  0.0110 -0.1243
 4995SOL    HW126444   4.431   1.049   5.805  1.1546 -0.5024 -0.9369
 4995SOL    HW226445   4.326   0.943   5.836  1.0241  0.3798  1.0883
 4996SOL     OW26446   3.613   2.928   8.607 -0.4402  0.0141  0.4911
 4996SOL    HW126447   3.661   2.857   8.564 -3.8833 -0.5443 -2.3919
 4996SOL    HW226448   3.527   2.930   8.566 -0.8499 -2.6514  1.1785
 4997SOL     OW26449   2.712   3.635  15.120 -0.1616  0.1385 -0.5821
 4997SOL    HW126450   2.670   3.627  15.206  2.2279  0.5177  0.6033
 4997SOL    HW226451   2.801   3.657  15.148  0.0446 -1.2073 -0.1517
 4998SOL     OW26452   1.893   4.459  17.198  0.3401  0.1376 -0.0277
 4998SOL    HW126453   1.849   4.506  17.269 -1.4567 -0.6542 -0.6063
 4998SOL    HW226454   1.903   4.376  17.245 -0.4547  0.7456  1.2214
 4999SOL     OW26455   4.232   0.109   1.720 -0.7305 -0.0063 -0.1784
 4999SOL    HW126456   4.223   0.024   1.764  0.7308 -0.5302 -0.9013
 4999SOL    HW226457   4.324   0.123   1.741 -1.2470 -0.1648  2.2898
 5000SOL     OW26458   0.838   0.946  15.413  0.5055 -0.0885 -0.4598
 5000SOL    HW126459   0.884   1.001  15.351 -1.5209  1.1191 -0.8703
 5000SOL    HW226460   0.911   0.892  15.443 -1.7247 -2.9518 -0.1546
 5001SOL     OW26461   1.189   0.355   2.208  0.1157 -0.6787  0.5085
 5001SOL    HW126462   1.095   0.372   2.215  0.2316  0.5645 -1.0701
 5001SOL    HW226463   1.211   0.362   2.301  1.9561  2.4141 -0.1599
 5002SOL     OW26464   4.650   4.284  15.727 -0.0704 -0.2603 -0.0061
 5002SOL    HW126465   4.591   4.296  15.652  2.1520 -0.7895 -1.8194
 5002SOL    HW226466   4.706   4.213  15.697  2.7629  2.3968 -0.9684
 5003SOL     OW26467   3.180   0.294   1.799 -0.1667  0.3458 -0.0404
 5003SOL    HW126468   3.195   0.389   1.794  0.0471  0.4557  2.3994
 5003SOL    HW226469   3.169   0.287   1.894  2.3777 -1.1219  0.1252
 5004SOL     OW26470   0.426   1.469   3.396 -0.0497 -0.0854  0.5454
 5004SOL    HW126471   0.455   1.415   3.470  0.8890  0.4270  0.5512
 5004SOL    HW226472   0.514   1.492   3.366  0.8586 -1.1698  2.3996
 5005SOL     OW26473   1.759   3.648  12.260  0.7705  0.6722 -0.0034
 5005SOL    HW126474   1.708   3.567  12.267 -1.9541  2.4262  0.6196
 5005SOL    HW226475   1.700   3.707  12.307 -0.4427 -1.7264  1.5168
 5006SOL     OW26476   0.580   1.579   8.695 -0.3040  0.1473  0.2468
 5006SOL    HW126477   0.499   1.628   8.679 -1.8476 -2.4611  0.1911
 5006SOL    HW226478   0.607   1.589   8.603  0.5936  1.6542  0.6735
 5007SOL     OW26479   3.946   4.336   6.437 -0.6816 -0.1816 -0.2579
 5007SOL    HW126480   3.906   4.249   6.437  1.5033 -1.1789 -0.9570
 5007SOL    HW226481   4.022   4.325   6.380 -0.3297 -0.2928  0.2275
 5008SOL     OW26482   2.661   0.738   7.426  0.0249 -0.1181 -0.4041
 5008SOL    HW126483   2.659   0.697   7.339  0.8385  0.1953 -0.5729
 5008SOL    HW226484   2.710   0.817   7.401  2.3705 -1.1155  1.0584
 5009SOL     OW26485   3.723   2.596   3.213 -0.1735  0.0394 -0.4941
 5009SOL    HW126486   3.799   2.545   3.238  0.2340  1.5915  1.4237
 5009SOL    HW226487   3.652   2.552   3.260  0.5419  0.0715  0.5839
 5010SOL     OW26488   4.589   3.445   9.683 -0.1642  0.4424 -0.0157
 5010SOL    HW126489   4.598   3.392   9.762 -0.8515  0.9749  0.4205
 5010SOL    HW226490   4.622   3.389   9.612 -0.8671 -1.0958  0.8860
 5011SOL     OW26491   2.132   2.228   4.773 -0.3322 -0.2885  0.5636
 5011SOL    HW126492   2.178   2.254   4.853 -1.2076  0.1227  0.9368
 5011SOL    HW226493   2.124   2.314   4.731  2.8108  0.1769  0.8686
 5012SOL     OW26494   0.019   1.789   7.574 -0.2379 -0.3886 -0.6850
 5012SOL    HW126495   0.014   1.810   7.667  0.0376 -0.9895 -0.5340
 5012SOL    HW226496   0.094   1.729   7.571 -0.3186 -0.4991 -0.4234
 5013SOL     OW26497   3.837   2.497   9.130  0.3355 -0.9874  0.0297
 5013SOL    HW126498   3.761   2.461   9.086 -0.1545  0.4237 -0.2650
 5013SOL    HW226499   3.850   2.574   9.075 -0.6736 -1.2907 -0.6170
 5014SOL     OW26500   0.854   3.858   6.365  0.2819 -0.5476 -0.5440
 5014SOL    HW126501   0.854   3.953   6.378  2.0257 -0.8531  1.6315
 5014SOL    HW226502   0.946   3.833   6.373  0.1709 -0.7577  0.0647
 5015SOL     OW26503   0.535   2.279   4.105 -0.0318  0.2562 -0.2419
 5015SOL    HW126504   0.456   2.316   4.064  0.7987 -0.4806 -2.5441
 5015SOL    HW226505   0.601   2.277   4.035  0.4367  0.0947  0.2101
 5016SOL     OW26506   4.039   4.399   9.672  0.1800  0.4819 -0.3958
 5016SOL    HW126507   4.078   4.322   9.715  0.9302  1.0822 -0.0039
 5016SOL    HW226508   3.975   4.429   9.737  0.7961  0.3930  0.2474
 5017SOL     OW26509   2.767   0.978   6.319  0.1231  0.4086  0.5789
 5017SOL    HW126510   2.858   0.953   6.299 -0.0419  0.1186  0.1943
 5017SOL    HW226511   2.737   0.892   6.350 -1.8521  2.0157  3.1268
 5018SOL     OW26512   4.267   4.104   2.889  0.7054 -0.0925 -0.0624
 5018SOL    HW126513   4.192   4.091   2.946 -0.5684  1.6209 -1.3642
 5018SOL    HW226514   4.218   4.151   2.822 -1.8881 -1.3080  0.9993
 5019SOL     OW26515   1.472   2.755   7.088 -0.1740  0.1253  0.5241
 5019SOL    HW126516   1.415   2.740   7.013  0.5547  2.2352 -0.4748
 5019SOL    HW226517   1.560   2.741   7.053 -1.0652  0.2757 -1.7852
 5020SOL     OW26518   1.770   2.122   2.622 -0.5424  0.4398  0.0748
 5020SOL    HW126519   1.850   2.142   2.574 -1.9660  0.6599 -2.2096
 5020SOL    HW226520   1.747   2.048   2.566 -0.5120  0.0798  0.5421
 5021SOL     OW26521   3.307   2.528   8.037 -0.1935 -0.1147  0.4462
 5021SOL    HW126522   3.383   2.474   8.061 -0.2811 -1.0769 -1.4475
 5021SOL    HW226523   3.244   2.505   8.105 -0.0640 -2.3229 -0.1735
 5022SOL     OW26524   0.021   3.946   6.754 -0.2257  0.0529  0.2023
 5022SOL    HW126525   4.691   3.899   6.822  0.1130  1.3974  1.4027
 5022SOL    HW226526   4.687   4.026   6.746  0.6086  0.7265  1.3354
 5023SOL     OW26527   4.336   0.890   9.230 -0.1057 -0.0634  0.0232
 5023SOL    HW126528   4.309   0.869   9.141  0.6416  2.0976 -0.7182
 5023SOL    HW226529   4.262   0.857   9.280 -0.1481  0.5994  0.4016
 5024SOL     OW26530   2.546   1.838  16.686 -0.2526 -0.2011 -0.5943
 5024SOL    HW126531   2.483   1.790  16.739  0.7260 -1.8774 -0.9544
 5024SOL    HW226532   2.622   1.838  16.744 -2.5124  0.8208  2.3446
 5025SOL     OW26533   2.017   3.574   7.564 -0.1539  0.2112  0.1647
 5025SOL    HW126534   2.000   3.547   7.654  2.7419 -0.7542  0.4354
 5025SOL    HW226535   2.060   3.496   7.529 -0.1235  0.2269  0.1667
 5026SOL     OW26536   2.365   2.223   5.551 -0.0475  0.0674  0.1697
 5026SOL    HW126537   2.352   2.137   5.512  1.8379  0.5058 -1.4051
 5026SOL    HW226538   2.447   2.264   5.525  0.3900 -0.7192  0.3167
 5027SOL     OW26539   1.913   0.764   2.088 -0.2816  0.0955 -0.2393
 5027SOL    HW126540   1.911   0.684   2.141 -2.1754 -1.4570 -2.6577
 5027SOL    HW226541   1.982   0.747   2.024 -0.7780  3.1332 -1.5802
 5028SOL     OW26542   4.221   0.561  11.101 -0.2083  0.0417 -0.1738
 5028SOL    HW126543   4.294   0.622  11.088 -0.6491  0.3666 -1.1303
 5028SOL    HW226544   4.155   0.629  11.107 -1.4223 -1.1348 -0.2673
 5029SOL     OW26545   2.264   0.587   7.987  0.4348  0.1145  0.2276
 5029SOL    HW126546   2.169   0.600   7.983  0.6464  0.5663 -3.3590
 5029SOL    HW226547   2.284   0.541   7.906 -1.1155  1.2528 -0.8065
 5030SOL     OW26548   3.779   2.206   6.657 -0.1172 -0.3126 -0.4255
 5030SOL    HW126549   3.839   2.281   6.654  1.3296 -1.4286  0.5474
 5030SOL    HW226550   3.834   2.143   6.611  1.3319 -0.0533  0.9602
 5031SOL     OW26551   3.923   1.231   5.358 -0.4529  0.0251  0.1166
 5031SOL    HW126552   3.852   1.246   5.295  2.0217  0.0370 -2.6886
 5031SOL    HW226553   3.866   1.198   5.428  1.1797 -3.3633 -0.1539
 5032SOL     OW26554   2.628   2.181  11.169 -0.1977  0.1829  0.3889
 5032SOL    HW126555   2.645   2.172  11.076 -2.1929 -0.1577  0.0596
 5032SOL    HW226556   2.601   2.273  11.172 -0.6580  0.1246 -1.9737
 5033SOL     OW26557   1.191   0.032   2.068 -0.2528 -0.4098 -0.3488
 5033SOL    HW126558   1.136   0.055   2.143  1.0786 -0.9730  0.8226
 5033SOL    HW226559   1.187   0.108   2.010 -3.1719 -0.8714 -0.7466
 5034SOL     OW26560   0.748   1.866   4.503  0.0444 -0.2639 -0.2017
 5034SOL    HW126561   0.694   1.858   4.425 -1.6960  2.7670  0.6607
 5034SOL    HW226562   0.824   1.909   4.463  0.5433  0.0869  1.1150
 5035SOL     OW26563   3.175   2.607   3.368 -0.7967  0.2701  0.0135
 5035SOL    HW126564   3.206   2.522   3.336  0.1044  0.7879 -0.4853
 5035SOL    HW226565   3.132   2.579   3.448  1.6525 -2.8290  0.2458
 5036SOL     OW26566   0.339   4.373   1.190  0.1585  0.2622 -0.0779
 5036SOL    HW126567   0.284   4.298   1.213 -0.5670  1.1010  0.9355
 5036SOL    HW226568   0.388   4.341   1.115 -0.4867  0.0612 -0.4126
 5037SOL     OW26569   1.606   1.098   4.628 -0.8367 -0.3036  0.0385
 5037SOL    HW126570   1.665   1.127   4.698  1.0087 -1.5594 -1.0101
 5037SOL    HW226571   1.642   1.024   4.580  1.6714  0.1364  1.2224
 5038SOL     OW26572   0.715   1.705   7.730  0.2714 -0.7815  0.6651
 5038SOL    HW126573   0.656   1.630   7.731  0.3186 -0.7871  2.1338
 5038SOL    HW226574   0.682   1.765   7.797 -1.2306  0.9700 -1.6232
 5039SOL     OW26575   2.556   2.495   0.006  0.4546 -0.3795  0.6035
 5039SOL    HW126576   2.567   2.400   0.018  1.0557 -0.3759  0.0602
 5039SOL    HW226577   2.618   2.528   0.071  0.8860  1.0601 -0.5541
 5040SOL     OW26578   3.495   1.131  10.767  0.0652  0.8091  0.0076
 5040SOL    HW126579   3.478   1.107  10.858  1.8526  0.6410  0.3032
 5040SOL    HW226580   3.469   1.222  10.784 -0.6140  0.9597 -1.8465
 5041SOL     OW26581   1.057   4.054   0.697 -1.0312 -0.2594  0.0666
 5041SOL    HW126582   0.987   4.096   0.647 -0.2809  0.6714 -0.1929
 5041SOL    HW226583   1.005   4.008   0.763 -0.9938 -1.2336 -0.5953
 5042SOL     OW26584   1.267   2.296   6.228  0.6478  0.3745 -0.4066
 5042SOL    HW126585   1.260   2.259   6.316 -1.2400 -0.6014 -0.9570
 5042SOL    HW226586   1.261   2.220   6.169  1.4142 -0.4619  0.5935
 5043SOL     OW26587   0.168   4.586   4.466 -0.4337 -0.0631 -0.2212
 5043SOL    HW126588   0.079   4.604   4.434 -0.2862 -0.5210 -0.8636
 5043SOL    HW226589   0.168   4.656   4.532 -0.5287 -1.1651  0.9527
 5044SOL     OW26590   2.986   3.970   9.134 -0.1315 -0.2078  0.3014
 5044SOL    HW126591   3.081   3.961   9.137  0.0764  1.9127 -0.0018
 5044SOL    HW226592   2.960   3.881   9.109 -3.6718  1.0605 -0.5180
 5045SOL     OW26593   0.211   4.615   6.028  0.2883 -0.2405  0.2892
 5045SOL    HW126594   0.279   4.648   6.088  1.6028 -1.0663 -0.7505
 5045SOL    HW226595   0.159   4.691   6.001 -0.4368 -0.1625  1.9053
 5046SOL     OW26596   1.233   0.151   9.166 -0.5487  0.2097  0.0182
 5046SOL    HW126597   1.139   0.140   9.179 -0.9044  2.1460 -0.9266
 5046SOL    HW226598   1.253   0.245   9.161  1.1051 -0.1821 -0.6004
 5047SOL     OW26599   0.027   2.657   0.811  0.2295 -1.0338  0.3887
 5047SOL    HW126600   0.044   2.728   0.750  0.2435 -0.2987  1.2346
 5047SOL    HW226601   0.014   2.584   0.751 -3.3980 -0.7402  0.7802
 5048SOL     OW26602   4.653   3.067   4.643 -0.5032  0.6694 -0.3666
 5048SOL    HW126603   0.003   3.055   4.578 -0.4352  1.5467 -0.4608
 5048SOL    HW226604   4.703   3.124   4.702  0.0762 -0.0174 -0.1935
 5049SOL     OW26605   2.958   1.271  17.247 -0.2747  0.9660  0.2125
 5049SOL    HW126606   3.009   1.308  17.175 -1.1795 -1.5592 -1.7223
 5049SOL    HW226607   3.021   1.253  17.317 -0.4265 -2.7769 -0.5999
 5050SOL     OW26608   1.271   1.227   2.852  0.3887  0.5159  0.5202
 5050SOL    HW126609   1.335   1.213   2.783 -0.1259 -2.7377  0.7114
 5050SOL    HW226610   1.242   1.315   2.827 -1.0631 -0.7459 -2.2430
 5051SOL     OW26611   4.695   1.245   4.124  0.2793 -0.3572 -0.0216
 5051SOL    HW126612   4.693   1.247   4.028  0.4536 -1.0752 -0.0351
 5051SOL    HW226613   0.015   1.331   4.143  0.2348 -0.6523  1.3649
 5052SOL     OW26614   3.917   1.467   5.883 -0.3935 -0.1322  0.0905
 5052SOL    HW126615   4.000   1.482   5.928 -1.0193  0.0677  1.1774
 5052SOL    HW226616   3.860   1.452   5.958 -1.9572  1.8991 -0.6865
 5053SOL     OW26617   0.275   0.254   9.336 -0.0020  0.0568 -0.5357
 5053SOL    HW126618   0.234   0.323   9.285  3.0701  2.4786  0.2699
 5053SOL    HW226619   0.258   0.283   9.425  2.4691  0.8024 -0.2912
 5054SOL     OW26620   1.373   4.562   8.954  0.3270 -0.1515  0.1416
 5054SOL    HW126621   1.293   4.523   8.989 -0.2513  1.4241  0.5716
 5054SOL    HW226622   1.345   4.598   8.870  0.6743  2.9297  1.3591
 5055SOL     OW26623   4.327   2.604   7.291  0.2829  0.4112  0.8368
 5055SOL    HW126624   4.260   2.667   7.265  1.2464  0.0693 -2.6060
 5055SOL    HW226625   4.404   2.658   7.308  0.4328  0.7662 -0.9305
 5056SOL     OW26626   2.297   1.889   0.703  0.1307  0.8509 -0.5125
 5056SOL    HW126627   2.208   1.891   0.740  0.5952 -1.7731  0.7641
 5056SOL    HW226628   2.280   1.922   0.615  1.5790  0.2726 -0.9994
 5057SOL     OW26629   3.180   0.023   5.550  0.1246  0.1022 -0.4873
 5057SOL    HW126630   3.271   0.003   5.573  0.6842  2.1901 -0.8902
 5057SOL    HW226631   3.181   0.118   5.559  1.3113 -0.0733  1.1866
 5058SOL     OW26632   1.963   2.126   8.648  0.1951  0.2247 -0.1686
 5058SOL    HW126633   1.878   2.103   8.611 -0.2071  1.2801  0.0997
 5058SOL    HW226634   1.974   2.215   8.615  0.4911  0.3954  0.3928
 5059SOL     OW26635   2.565   2.324   3.018  0.3422 -0.4314 -0.0739
 5059SOL    HW126636   2.658   2.326   2.993  0.1148 -1.9642 -1.0291
 5059SOL    HW226637   2.518   2.349   2.938  1.9048 -0.8036 -1.1227
 5060SOL     OW26638   3.402   1.001   2.330  0.3164  0.5223 -0.3019
 5060SOL    HW126639   3.344   0.953   2.271  1.5743 -0.2894 -0.8635
 5060SOL    HW226640   3.491   0.981   2.304  1.4173  3.1369  1.4239
 5061SOL     OW26641   3.820   4.098  11.237  0.3226 -0.3864  1.1866
 5061SOL    HW126642   3.887   4.131  11.178  0.2796 -2.3179  0.0654
 5061SOL    HW226643   3.852   4.119  11.325 -0.0998 -1.1039  1.5215
 5062SOL     OW26644   2.213   3.460  14.926 -0.1295 -0.4315  0.1903
 5062SOL    HW126645   2.148   3.511  14.974  0.4648  3.1121 -2.8129
 5062SOL    HW226646   2.233   3.516  14.851  1.1226  0.0733  0.9043
 5063SOL     OW26647   0.042   0.434   8.072 -0.5719  0.4912 -0.1554
 5063SOL    HW126648   0.124   0.483   8.068 -1.1508  1.4170 -0.6926
 5063SOL    HW226649   0.043   0.424   8.167 -0.0943  0.5615 -0.1538
 5064SOL     OW26650   3.951   2.775   3.439  0.0403 -0.0437 -0.8579
 5064SOL    HW126651   3.859   2.799   3.432  0.0333  0.8763  2.3321
 5064SOL    HW226652   3.962   2.732   3.354 -0.4420  1.0607 -1.4884
 5065SOL     OW26653   0.847   0.410   8.364 -0.3557 -0.0292 -0.2903
 5065SOL    HW126654   0.848   0.323   8.323 -2.0455 -0.0808 -0.2012
 5065SOL    HW226655   0.851   0.381   8.455 -1.4767  0.3924 -0.1173
 5066SOL     OW26656   3.589   0.934   3.607  0.4815 -0.4328  1.0374
 5066SOL    HW126657   3.603   0.913   3.514  1.6549 -0.4622  1.2201
 5066SOL    HW226658   3.683   0.948   3.619  0.5275 -0.6766  0.9697
 5067SOL     OW26659   1.869   3.078  12.205 -1.1338  0.2924  0.1174
 5067SOL    HW126660   1.867   3.039  12.293  0.6883  0.3768  0.2116
 5067SOL    HW226661   1.802   3.022  12.166 -0.3298 -0.9313  0.4602
 5068SOL     OW26662   2.452   0.547   6.495 -0.7529 -0.3560  0.6700
 5068SOL    HW126663   2.462   0.452   6.496  2.5756  0.0175  1.8954
 5068SOL    HW226664   2.377   0.564   6.438  1.2456  2.1193 -1.2177
 5069SOL     OW26665   2.366   1.400  15.931 -0.0894 -0.0636 -0.2240
 5069SOL    HW126666   2.284   1.416  15.883  0.0773  0.9201 -0.1760
 5069SOL    HW226667   2.382   1.488  15.965  1.5130  0.4314 -2.2950
 5070SOL     OW26668   0.353   2.421   4.566  0.6169  0.1859  0.7921
 5070SOL    HW126669   0.359   2.516   4.553 -1.8499  0.1000 -0.9471
 5070SOL    HW226670   0.260   2.403   4.553  0.3222  0.3562  2.7548
 5071SOL     OW26671   1.905   4.663   0.253  0.3793 -0.7740  0.2463
 5071SOL    HW126672   1.895   4.569   0.239 -0.9206 -0.1854 -2.7677
 5071SOL    HW226673   1.848   4.672   0.329 -0.5166  1.4841 -0.7039
 5072SOL     OW26674   3.596   2.632   8.574  0.3846  0.1795 -0.5803
 5072SOL    HW126675   3.653   2.562   8.606 -0.9296 -1.3158 -1.4454
 5072SOL    HW226676   3.543   2.657   8.649  1.0765  0.2164 -0.1078
 5073SOL     OW26677   4.668   4.494   0.747 -0.0206 -0.0721 -0.2112
 5073SOL    HW126678   4.623   4.572   0.779 -1.6611 -0.8698 -0.5710
 5073SOL    HW226679   4.679   4.452   0.832 -3.3144  0.3779  0.4654
 5074SOL     OW26680   1.023   0.382  14.089 -0.2877  0.2215 -0.0742
 5074SOL    HW126681   0.970   0.441  14.036 -0.4556  0.8902  0.8383
 5074SOL    HW226682   1.055   0.307  14.038 -0.7102  1.0969 -1.6165
 5075SOL     OW26683   1.526   3.473   5.339 -0.2409 -0.0181 -0.5041
 5075SOL    HW126684   1.520   3.455   5.245  1.1720  0.3281 -0.6685
 5075SOL    HW226685   1.484   3.398   5.382 -1.6971  0.3339 -1.3163
 5076SOL     OW26686   0.151   4.705   5.282  0.2950  0.5664 -0.0469
 5076SOL    HW126687   0.112   4.617   5.286  1.0550  0.1771 -1.4733
 5076SOL    HW226688   0.149   0.003   5.188  1.1693 -0.1250 -0.1998
 5077SOL     OW26689   3.480   4.266   1.116  0.2002  0.7156  0.2427
 5077SOL    HW126690   3.394   4.232   1.091  0.4327 -1.5259  2.4404
 5077SOL    HW226691   3.477   4.258   1.211 -1.0050  0.3024  0.1727
 5078SOL     OW26692   4.458   3.642   2.297  0.0504 -0.6378 -0.1218
 5078SOL    HW126693   4.531   3.581   2.302 -0.4570 -1.4947 -3.2212
 5078SOL    HW226694   4.404   3.599   2.230 -0.4832 -0.6365  0.3081
 5079SOL     OW26695   3.601   3.886   5.051 -0.2433  0.1305 -0.2917
 5079SOL    HW126696   3.549   3.917   4.976 -1.2953  0.4420  0.5592
 5079SOL    HW226697   3.623   3.797   5.022  0.2732  0.6673 -1.5587
 5080SOL     OW26698   4.135   2.280   7.382 -0.0973 -0.0361  0.0269
 5080SOL    HW126699   4.118   2.320   7.296  1.1003 -0.1890 -0.2820
 5080SOL    HW226700   4.225   2.300   7.406 -0.6207  0.0390  1.8845
 5081SOL     OW26701   1.535   4.393   3.397 -0.2672 -0.4807  0.4415
 5081SOL    HW126702   1.616   4.366   3.354  0.1830 -0.1804  1.0942
 5081SOL    HW226703   1.557   4.354   3.482 -1.0434  1.0639  1.3653
 5082SOL     OW26704   2.367   3.931   1.845  0.4315  0.0918  0.9038
 5082SOL    HW126705   2.389   4.016   1.808  0.0033  0.1760  0.8483
 5082SOL    HW226706   2.378   3.872   1.771 -1.3816  0.7417  0.1186
 5083SOL     OW26707   0.911   1.280   3.619  0.6145 -0.1649  0.1577
 5083SOL    HW126708   0.914   1.343   3.691 -1.3215  1.3497 -1.0763
 5083SOL    HW226709   0.951   1.203   3.658 -0.3521 -1.1678 -0.8350
 5084SOL     OW26710   1.898   2.140   5.121  0.2004 -0.6494 -0.7976
 5084SOL    HW126711   1.886   2.230   5.090  0.8917  0.0050  0.8492
 5084SOL    HW226712   1.929   2.100   5.039  0.4470  0.6677 -1.3461
 5085SOL     OW26713   0.037   4.143  14.823 -0.8924  0.0124 -0.2682
 5085SOL    HW126714   0.063   4.089  14.748 -1.3396 -1.2164  0.4514
 5085SOL    HW226715   0.101   4.213  14.811 -3.0246  2.1901  1.1172
 5086SOL     OW26716   1.919   1.606   1.163 -0.4442  0.5431 -0.0070
 5086SOL    HW126717   1.954   1.642   1.244  0.0823 -2.4162  1.0461
 5086SOL    HW226718   1.829   1.637   1.154 -0.5366 -0.7192 -3.5280
 5087SOL     OW26719   2.879   4.087   4.182  0.5156  0.0814 -0.2976
 5087SOL    HW126720   2.960   4.102   4.231  0.2588  2.4505 -0.6264
 5087SOL    HW226721   2.913   4.026   4.116 -1.9173  2.2543 -3.5754
 5088SOL     OW26722   3.059   2.748   3.781 -0.8820  0.4574 -0.0294
 5088SOL    HW126723   2.975   2.794   3.785  0.4478  2.7752  1.2322
 5088SOL    HW226724   3.116   2.799   3.724  0.3735 -1.4408 -0.4647
 5089SOL     OW26725   4.524   2.451   8.773  0.3111  0.6490 -0.1079
 5089SOL    HW126726   4.525   2.368   8.820  2.3435  0.1186 -1.0921
 5089SOL    HW226727   4.525   2.512   8.846  0.6088 -3.8130  3.5743
 5090SOL     OW26728   3.614   0.293   5.222 -0.4066 -0.1777 -0.0511
 5090SOL    HW126729   3.666   0.368   5.194 -0.4858 -0.4564 -0.9430
 5090SOL    HW226730   3.630   0.237   5.146 -0.1602  0.1751 -0.2604
 5091SOL     OW26731   4.129   1.119   5.225  0.3464 -0.5571 -0.5470
 5091SOL    HW126732   4.075   1.163   5.291  1.0602 -1.5644  0.7036
 5091SOL    HW226733   4.070   1.047   5.203 -0.3844 -1.0876  3.0848
 5092SOL     OW26734   0.242   0.777   1.963  0.2011 -0.9433  0.1675
 5092SOL    HW126735   0.265   0.692   2.001  0.7532 -1.5964 -1.6127
 5092SOL    HW226736   0.193   0.754   1.884 -3.3012  2.5032  1.3619
 5093SOL     OW26737   1.424   0.477  16.858 -0.1250  0.2333 -0.0128
 5093SOL    HW126738   1.340   0.491  16.903  0.9380 -0.2939  2.1565
 5093SOL    HW226739   1.459   0.562  16.833 -0.1107 -0.0527 -0.9714
 5094SOL     OW26740   0.711   4.380   6.556 -0.6321  0.1475 -0.5713
 5094SOL    HW126741   0.670   4.410   6.475 -0.6006  1.3292 -0.1442
 5094SOL    HW226742   0.797   4.422   6.549 -0.1142 -0.5992  1.2043
 5095SOL     OW26743   0.574   3.377   6.208  0.0150 -0.0385  0.2672
 5095SOL    HW126744   0.599   3.300   6.259  2.3590  1.6042  1.6187
 5095SOL    HW226745   0.551   3.433   6.282  1.7613 -0.8774  1.4399
 5096SOL     OW26746   4.649   3.502   4.480  0.2269  0.5201  0.3052
 5096SOL    HW126747   4.718   3.563   4.456 -1.4801  1.5049 -1.9870
 5096SOL    HW226748   4.698   3.438   4.533 -1.8147 -0.1268  1.4287
 5097SOL     OW26749   1.711   4.614   4.351  0.2315  0.3553 -0.0477
 5097SOL    HW126750   1.803   4.628   4.326  0.4674  0.0732  0.6681
 5097SOL    HW226751   1.664   4.623   4.268  0.7932 -0.1965 -0.4306
 5098SOL     OW26752   0.873   4.041   2.528  0.5018  0.3150 -0.0348
 5098SOL    HW126753   0.788   4.008   2.497 -1.3585  5.5732 -0.6978
 5098SOL    HW226754   0.931   4.031   2.454 -0.6249 -0.4819 -0.8052
 5099SOL     OW26755   1.647   1.582   9.745  0.3510  0.4558  0.1878
 5099SOL    HW126756   1.735   1.551   9.765  0.0316 -1.7507 -1.8587
 5099SOL    HW226757   1.621   1.517   9.680 -2.0799  3.0614 -1.4706
 5100SOL     OW26758   1.444   1.643   6.235  0.5077 -0.3658 -0.0985
 5100SOL    HW126759   1.402   1.647   6.149  1.9871 -2.1251 -0.8999
 5100SOL    HW226760   1.520   1.591   6.208 -0.4313 -2.3928  1.1549
 5101SOL     OW26761   2.448   1.844   8.183 -0.0081 -0.0535  0.4854
 5101SOL    HW126762   2.413   1.801   8.261  2.8118 -1.1833  1.1355
 5101SOL    HW226763   2.518   1.783   8.158 -0.3789 -0.5139  0.5775
 5102SOL     OW26764   2.725   4.595   2.426  0.4182  0.0164  0.3629
 5102SOL    HW126765   2.805   4.583   2.373 -0.3611 -0.8715 -0.6148
 5102SOL    HW226766   2.667   4.551   2.363  0.9981 -2.2061  1.3969
 5103SOL     OW26767   1.642   4.013   0.366 -0.0672  0.1766  0.5365
 5103SOL    HW126768   1.717   3.968   0.405 -0.5632 -0.3572  0.8811
 5103SOL    HW226769   1.687   4.028   0.283 -1.2220  1.4387  0.1446
 5104SOL     OW26770   4.548   3.463  15.143  0.6477  0.0784  0.8286
 5104SOL    HW126771   4.585   3.551  15.156 -1.2530  0.8438  1.0925
 5104SOL    HW226772   4.606   3.406  15.093  1.7909 -1.2669  3.7070
 5105SOL     OW26773   2.678   4.299   2.671  0.1219  0.3440  0.3107
 5105SOL    HW126774   2.722   4.377   2.705 -1.5154  2.0949 -1.5366
 5105SOL    HW226775   2.748   4.235   2.658 -1.1802 -1.0568  0.1853
 5106SOL     OW26776   0.491   3.248  15.565 -0.2263 -0.2810 -0.7466
 5106SOL    HW126777   0.539   3.287  15.493 -1.8268  2.1904 -0.4998
 5106SOL    HW226778   0.404   3.278  15.538  0.4334  2.5348  0.1896
 5107SOL     OW26779   3.599   2.238  14.365 -0.0067 -0.6301 -0.2445
 5107SOL    HW126780   3.632   2.148  14.367 -0.5624 -0.8430 -0.6623
 5107SOL    HW226781   3.518   2.233  14.314 -0.0864 -1.7761 -0.0002
 5108SOL     OW26782   2.055   3.498   3.027  0.4356 -0.0209  0.4685
 5108SOL    HW126783   2.083   3.507   2.936 -0.1233  0.7741  0.3740
 5108SOL    HW226784   2.081   3.406   3.028 -1.1411 -0.4742  0.0356
 5109SOL     OW26785   0.323   3.689  16.390  0.3812 -0.5130  0.2277
 5109SOL    HW126786   0.312   3.724  16.479  1.3481  0.2113  0.0677
 5109SOL    HW226787   0.405   3.732  16.364  0.5712 -1.8289 -1.3642
 5110SOL     OW26788   2.163   1.742   7.135  0.4802  0.0552 -0.0504
 5110SOL    HW126789   2.143   1.785   7.052  0.5300 -2.3015 -1.2831
 5110SOL    HW226790   2.186   1.822   7.183 -1.6590  0.8847 -0.3738
 5111SOL     OW26791   2.029   2.503   4.624 -0.6842 -0.0592 -0.1216
 5111SOL    HW126792   2.038   2.549   4.707 -1.9491 -0.9218  0.4910
 5111SOL    HW226793   2.114   2.518   4.582 -0.9549  4.3705  0.9764
 5112SOL     OW26794   4.235   2.363   9.723 -0.4846  0.4001  0.2725
 5112SOL    HW126795   4.317   2.391   9.763 -0.6615 -1.1171  1.7183
 5112SOL    HW226796   4.263   2.329   9.638  0.2916  0.8274  0.3617
 5113SOL     OW26797   3.408   1.587   5.469 -0.3947 -0.6374  0.1419
 5113SOL    HW126798   3.422   1.543   5.553 -0.3219  1.6092  1.3010
 5113SOL    HW226799   3.491   1.582   5.423 -1.5378  0.2290 -2.0258
 5114SOL     OW26800   3.766   0.440   1.382 -0.1284  0.4689 -0.5814
 5114SOL    HW126801   3.693   0.501   1.371 -0.4407  0.4395  1.5052
 5114SOL    HW226802   3.789   0.437   1.474 -0.3021 -1.6564 -0.5900
 5115SOL     OW26803   3.493   2.079   2.949 -0.2666 -0.7739 -0.3404
 5115SOL    HW126804   3.548   2.071   2.871  0.1850  2.7245 -0.3965
 5115SOL    HW226805   3.504   1.996   2.995  0.4187 -2.3343 -3.2871
 5116SOL     OW26806   4.003   2.373  13.736  0.6623 -0.2378 -0.6702
 5116SOL    HW126807   4.073   2.394  13.674  0.7546  1.5148  0.0200
 5116SOL    HW226808   3.925   2.380  13.681 -1.0489 -0.4012  1.7253
 5117SOL     OW26809   1.247   3.849   5.527  0.8838 -0.1775  0.2831
 5117SOL    HW126810   1.154   3.856   5.505  1.1065  1.0575 -0.2529
 5117SOL    HW226811   1.283   3.792   5.458 -1.3904 -2.2309  0.7903
 5118SOL     OW26812   0.299   3.182   5.819  0.2432  0.1002  0.2588
 5118SOL    HW126813   0.389   3.178   5.788  0.4190 -0.6158  0.8450
 5118SOL    HW226814   0.268   3.265   5.784  1.2189 -0.8761 -2.8572
 5119SOL     OW26815   2.046   1.465  10.748 -0.0307 -0.3347 -0.4154
 5119SOL    HW126816   2.046   1.420  10.664 -1.4849  0.1805 -0.6893
 5119SOL    HW226817   1.973   1.526  10.734  1.5640  1.9969  1.4441
 5120SOL     OW26818   2.559   0.053   2.907 -0.7489 -0.0554 -0.6777
 5120SOL    HW126819   2.550   0.044   3.002 -0.0518 -0.7424 -0.6679
 5120SOL    HW226820   2.607   4.691   2.891 -1.5435 -0.7367  0.3587
 5121SOL     OW26821   0.876   0.989   2.296 -0.2909 -0.1959 -0.0101
 5121SOL    HW126822   0.936   1.061   2.277  1.2632 -1.3344  0.5935
 5121SOL    HW226823   0.810   1.031   2.352 -1.2222 -1.7248  0.0082
 5122SOL     OW26824   0.639   1.241  16.838 -0.1514 -0.0966 -0.6709
 5122SOL    HW126825   0.680   1.196  16.764 -0.2995 -1.0648 -0.1694
 5122SOL    HW226826   0.613   1.319  16.789 -1.4917 -0.3535 -0.3570
 5123SOL     OW26827   1.724   0.205  15.899 -0.2355  0.2407  0.2727
 5123SOL    HW126828   1.711   0.174  15.988 -0.1963 -0.6399 -0.0226
 5123SOL    HW226829   1.763   0.292  15.907  1.0536 -0.2592 -0.5158
 5124SOL     OW26830   0.656   3.400   4.261  0.4292  0.7327 -0.3393
 5124SOL    HW126831   0.636   3.493   4.256  0.3988  0.7090 -0.6935
 5124SOL    HW226832   0.599   3.367   4.330 -0.5652 -0.1704 -1.5834
 5125SOL     OW26833   1.342   3.246  13.168 -0.1793 -0.0349 -0.3358
 5125SOL    HW126834   1.407   3.313  13.188  2.0135 -2.4862  0.7140
 5125SOL    HW226835   1.323   3.206  13.253 -1.2257  1.1000 -0.0424
 5126SOL     OW26836   2.466   1.070   3.679 -0.6267 -0.3659 -0.0582
 5126SOL    HW126837   2.450   1.111   3.764 -0.5283  3.3998 -1.8503
 5126SOL    HW226838   2.555   1.037   3.690 -0.6956 -0.8913 -1.0480
 5127SOL     OW26839   0.723   3.577   5.336  0.2155 -0.0948  0.1662
 5127SOL    HW126840   0.818   3.563   5.335  0.1753 -0.1963 -2.4841
 5127SOL    HW226841   0.691   3.504   5.389 -0.5724 -0.2817 -0.5604
 5128SOL     OW26842   0.229   0.225  11.775  0.6281 -0.2656  0.0589
 5128SOL    HW126843   0.184   0.141  11.764  1.9872 -1.2927  2.4389
 5128SOL    HW226844   0.252   0.217  11.867 -3.9096 -1.6912  1.0765
 5129SOL     OW26845   1.441   0.278  14.456 -0.2889  0.4370  0.4806
 5129SOL    HW126846   1.442   0.183  14.453  0.0927  0.4163  1.1975
 5129SOL    HW226847   1.496   0.276  14.535 -0.9188 -0.6952  0.8910
 5130SOL     OW26848   3.347   0.627   9.722  0.0883  0.0682 -0.6343
 5130SOL    HW126849   3.436   0.618   9.687  0.8578  0.4784  1.2164
 5130SOL    HW226850   3.360   0.686   9.796 -1.0660 -1.2673  0.6172
 5131SOL     OW26851   2.862   1.586   4.956 -0.2860 -0.3365  0.0181
 5131SOL    HW126852   2.947   1.563   4.919 -0.1001 -1.4855  1.1483
 5131SOL    HW226853   2.817   1.504   4.938 -2.2303  0.5751  0.7603
 5132SOL     OW26854   1.289   3.317   1.212 -0.7364 -0.2566  0.0202
 5132SOL    HW126855   1.338   3.365   1.145 -2.0148 -1.4941 -1.8059
 5132SOL    HW226856   1.307   3.226   1.187 -1.8756 -0.3518 -0.4781
 5133SOL     OW26857   2.856   1.280   0.915 -0.1875 -0.5778 -0.0317
 5133SOL    HW126858   2.763   1.267   0.935 -0.1463  0.5953  0.9647
 5133SOL    HW226859   2.886   1.330   0.991 -1.9819  2.8483 -1.5669
 5134SOL     OW26860   1.388   2.553   7.903 -0.0389  0.1278  0.3347
 5134SOL    HW126861   1.295   2.573   7.908 -0.0684 -1.0048  4.3246
 5134SOL    HW226862   1.386   2.499   7.982 -0.0923 -1.4340 -0.7356
 5135SOL     OW26863   2.905   1.589  12.798 -0.0502 -0.0453  0.0210
 5135SOL    HW126864   2.809   1.589  12.793 -0.0592 -1.1028  0.3800
 5135SOL    HW226865   2.920   1.515  12.856  0.1611  0.6450  0.8529
 5136SOL     OW26866   0.809   2.993   1.105  0.4518  0.5749  0.6800
 5136SOL    HW126867   0.789   3.079   1.141 -0.6131  0.4635  0.3668
 5136SOL    HW226868   0.831   2.957   1.191 -0.5217 -2.5084 -0.3431
 5137SOL     OW26869   3.981   1.708  13.139  0.0534 -0.4707  0.6621
 5137SOL    HW126870   4.067   1.745  13.123  0.6153 -2.9230 -1.9971
 5137SOL    HW226871   3.973   1.623  13.094  0.4488  0.2870 -0.8378
 5138SOL     OW26872   0.819   2.629   6.851  0.5314  0.2365 -0.3626
 5138SOL    HW126873   0.765   2.623   6.930  1.0545 -0.2987 -0.0545
 5138SOL    HW226874   0.801   2.719   6.823 -0.3788 -1.3447 -4.7722
 5139SOL     OW26875   2.029   1.649   7.426  0.0889 -0.3232 -0.5722
 5139SOL    HW126876   2.059   1.609   7.344  0.4849 -1.1370 -0.0351
 5139SOL    HW226877   1.935   1.662   7.415  0.2987  1.2940 -0.3646
 5140SOL     OW26878   1.252   1.974   4.657 -0.1796 -0.0381  0.0150
 5140SOL    HW126879   1.246   2.035   4.731 -0.2649  1.2379 -1.0384
 5140SOL    HW226880   1.159   1.954   4.644  0.1378 -1.8582  0.5622
 5141SOL     OW26881   4.286   0.541   9.277 -0.0238 -0.3135 -0.4314
 5141SOL    HW126882   4.253   0.467   9.226 -0.1454 -1.3396  1.1397
 5141SOL    HW226883   4.239   0.612   9.233 -2.0846 -1.6158 -0.3045
 5142SOL     OW26884   0.497   1.712   2.290  0.2514 -0.3758 -0.4949
 5142SOL    HW126885   0.529   1.692   2.203 -0.8801 -0.0816 -0.9750
 5142SOL    HW226886   0.483   1.807   2.287 -0.1106 -0.3453  2.0681
 5143SOL     OW26887   4.654   2.608  14.792 -0.1015 -0.0871 -0.2339
 5143SOL    HW126888   4.587   2.561  14.741 -0.7374 -0.0292  0.5443
 5143SOL    HW226889   4.666   2.689  14.742  1.1922  0.9268  1.7548
 5144SOL     OW26890   3.540   4.468   9.120  0.0697 -0.5425 -0.1108
 5144SOL    HW126891   3.564   4.505   9.205  0.6967 -0.3969 -0.3527
 5144SOL    HW226892   3.446   4.487   9.127  0.3589  0.8078  0.0861
 5145SOL     OW26893   2.394   3.141   7.392 -0.0893  0.0159  0.2551
 5145SOL    HW126894   2.374   3.048   7.384 -1.2957  0.3865 -0.9875
 5145SOL    HW226895   2.349   3.172   7.313  3.0123 -1.1894 -1.9840
 5146SOL     OW26896   2.325   0.891   0.230  0.0484  0.0007  0.1769
 5146SOL    HW126897   2.367   0.824   0.284  1.0580 -0.6954 -1.5062
 5146SOL    HW226898   2.251   0.836   0.204  0.6654 -0.0266 -1.5367
 5147SOL     OW26899   1.649   3.061   8.332 -0.2842  0.1091  0.5767
 5147SOL    HW126900   1.706   3.110   8.391 -0.3716  1.2452 -0.2752
 5147SOL    HW226901   1.716   3.005   8.293 -0.6261 -0.0731  0.2513
 5148SOL     OW26902   1.669   1.059   9.271 -0.5173 -0.0679 -0.3227
 5148SOL    HW126903   1.648   1.011   9.351 -0.2872  3.7825  2.0384
 5148SOL    HW226904   1.689   0.987   9.211 -1.2039  0.4499 -1.1862
 5149SOL     OW26905   0.563   4.579   8.281  0.1412 -0.5691  0.1898
 5149SOL    HW126906   0.533   4.533   8.359 -1.2114 -0.2774 -0.1579
 5149SOL    HW226907   0.500   4.652   8.277  2.1294  1.2470  1.8364
 5150SOL     OW26908   3.898   2.385  14.478  0.4445  0.0443 -0.0400
 5150SOL    HW126909   3.933   2.395  14.567  0.9276 -2.3861  0.0236
 5150SOL    HW226910   3.959   2.435  14.425 -0.8158 -0.2996 -1.8003
 5151SOL     OW26911   2.105   4.450   8.328  0.1914  0.0497  0.1721
 5151SOL    HW126912   2.103   4.453   8.232  1.8616  2.8125  0.2107
 5151SOL    HW226913   2.028   4.399   8.352  0.1401  0.9691  1.9327
 5152SOL     OW26914   1.935   3.668   5.975 -0.3076 -0.3255  0.3311
 5152SOL    HW126915   1.984   3.745   6.001 -1.2487  0.5811 -0.5536
 5152SOL    HW226916   1.846   3.702   5.964 -0.4315 -0.0068  2.2800
 5153SOL     OW26917   3.014   1.524   3.239 -0.2644  0.0964 -0.1379
 5153SOL    HW126918   3.009   1.430   3.255  0.0032  0.4855  2.1805
 5153SOL    HW226919   2.945   1.528   3.173  0.1284 -1.3497 -0.6436
 5154SOL     OW26920   3.466   0.910  10.463 -0.2391  0.0474 -0.4877
 5154SOL    HW126921   3.516   0.944  10.388  0.6713 -1.0118 -0.3720
 5154SOL    HW226922   3.409   0.844  10.422  0.1243 -1.3784  1.2956
 5155SOL     OW26923   4.011   1.117   6.964 -0.5768  0.2615  0.1676
 5155SOL    HW126924   4.093   1.152   6.999 -1.6858  2.0782  0.9475
 5155SOL    HW226925   4.010   1.033   7.010 -0.0605 -1.1449 -2.3554
 5156SOL     OW26926   1.948   3.661   3.427 -0.3077 -0.5414 -0.0600
 5156SOL    HW126927   1.996   3.707   3.496  0.5328  1.1864 -1.8206
 5156SOL    HW226928   1.873   3.719   3.414  0.9290  1.0730  0.0577
 5157SOL     OW26929   3.800   2.211   5.110  0.1171 -0.3716  0.4073
 5157SOL    HW126930   3.834   2.242   5.026  0.7788 -2.2163  0.0007
 5157SOL    HW226931   3.852   2.264   5.170 -0.3107  1.1809 -0.5742
 5158SOL     OW26932   3.930   0.476  10.937 -0.2349 -0.3217 -0.1213
 5158SOL    HW126933   3.894   0.507  11.021 -2.1603 -0.2559 -0.9568
 5158SOL    HW226934   3.853   0.495  10.883  0.3747  0.0507 -0.8443
 5159SOL     OW26935   1.727   2.860   0.251  0.0595  0.0687 -0.0444
 5159SOL    HW126936   1.776   2.788   0.213  2.1649  0.3389  2.1671
 5159SOL    HW226937   1.730   2.917   0.174  2.2562  1.7844  1.2870
 5160SOL     OW26938   0.917   0.953  13.168  0.0567  1.0691  0.0332
 5160SOL    HW126939   0.853   1.023  13.173 -1.3354 -0.2832  0.8142
 5160SOL    HW226940   0.993   0.997  13.206 -0.2278  0.1256  1.6836
 5161SOL     OW26941   2.403   1.902   6.765  0.2412 -0.1194 -0.2922
 5161SOL    HW126942   2.465   1.849   6.716  0.0240 -1.7149  1.1716
 5161SOL    HW226943   2.403   1.866   6.853 -4.3517 -0.2308 -0.3289
 5162SOL     OW26944   3.825   2.024   9.148 -0.0986 -0.1214 -0.3024
 5162SOL    HW126945   3.804   2.100   9.203  0.2455 -1.1509  1.2534
 5162SOL    HW226946   3.908   1.997   9.187  0.3545 -1.4492 -2.1663
 5163SOL     OW26947   0.118   2.428  14.655 -0.7354 -0.4120 -0.2850
 5163SOL    HW126948   0.066   2.504  14.681 -3.2697 -1.9126 -0.9120
 5163SOL    HW226949   0.049   2.362  14.644  0.3486 -1.5434 -0.3270
 5164SOL     OW26950   3.259   2.615   1.559  0.4535  0.9974  0.5664
 5164SOL    HW126951   3.247   2.703   1.522  0.9441  0.0393 -1.8915
 5164SOL    HW226952   3.350   2.609   1.587  1.0580  1.7940 -1.2160
 5165SOL     OW26953   1.091   0.937   7.341  0.7315 -0.1180 -0.0105
 5165SOL    HW126954   1.023   0.925   7.274  0.0418  1.7737  0.3694
 5165SOL    HW226955   1.039   0.916   7.419  0.4884  0.7958  0.0679
 5166SOL     OW26956   3.456   3.594   8.625  0.0014 -0.5582 -0.4199
 5166SOL    HW126957   3.530   3.561   8.573 -0.2283 -1.9145  0.1072
 5166SOL    HW226958   3.379   3.588   8.568 -1.4063 -0.1136  1.4422
 5167SOL     OW26959   0.841   2.444   7.678 -0.8545 -0.0795 -0.0672
 5167SOL    HW126960   0.909   2.504   7.649 -0.3731 -0.9292 -0.7018
 5167SOL    HW226961   0.865   2.357   7.644 -0.2472  0.1182 -0.1424
 5168SOL     OW26962   2.843   1.123   4.347  0.5724 -0.1451 -0.0043
 5168SOL    HW126963   2.782   1.195   4.330 -0.7949 -0.6502  2.8860
 5168SOL    HW226964   2.915   1.168   4.391  0.8077  1.9029 -2.4892
 5169SOL     OW26965   2.536   4.467  10.262 -0.0782  0.4211 -0.2583
 5169SOL    HW126966   2.581   4.395  10.217 -1.9724 -1.1871  0.3916
 5169SOL    HW226967   2.578   4.448  10.346  0.2850  1.1721 -0.2677
 5170SOL     OW26968   4.621   0.813   9.727  0.1001  0.1451 -0.7731
 5170SOL    HW126969   4.703   0.838   9.684 -0.1399  2.5747  0.1579
 5170SOL    HW226970   4.571   0.801   9.647  0.6275  1.1146 -1.2572
 5171SOL     OW26971   3.617   1.469   8.651  0.2477  0.4237 -0.0519
 5171SOL    HW126972   3.668   1.548   8.668  2.0934 -0.5574 -1.0936
 5171SOL    HW226973   3.541   1.514   8.614 -0.1157 -0.4376 -0.3632
 5172SOL     OW26974   2.154   2.097   7.909 -0.1542  0.5200  0.1117
 5172SOL    HW126975   2.191   2.056   7.987 -0.4790  0.1924  0.0933
 5172SOL    HW226976   2.160   2.183   7.950  0.2661  0.4937  0.1107
 5173SOL     OW26977   0.585   3.670   4.244  0.3836 -0.4197 -0.0182
 5173SOL    HW126978   0.572   3.710   4.159 -0.1239  2.5768  1.4737
 5173SOL    HW226979   0.504   3.685   4.293  0.3839  1.5525 -0.6224
 5174SOL     OW26980   3.075   3.252   6.945 -0.5377 -0.9282  0.8754
 5174SOL    HW126981   3.055   3.345   6.950 -0.1073 -0.8606  1.2839
 5174SOL    HW226982   3.034   3.225   6.863 -0.9323 -2.0280  1.4296
 5175SOL     OW26983   1.819   2.618   1.184  0.2978  0.2043  0.0438
 5175SOL    HW126984   1.815   2.522   1.185  0.6824  0.1810 -1.1020
 5175SOL    HW226985   1.734   2.647   1.151  0.0595  0.0048  0.4825
 5176SOL     OW26986   0.684   0.569   7.685 -0.7348 -0.2754 -0.2936
 5176SOL    HW126987   0.611   0.584   7.744  0.3515 -0.4955  1.1008
 5176SOL    HW226988   0.755   0.596   7.743 -1.6040  1.9319 -0.2435
 5177SOL     OW26989   2.109   4.114   0.725 -0.8756 -0.0793  0.2633
 5177SOL    HW126990   2.064   4.197   0.739 -2.9252 -1.1541  0.1372
 5177SOL    HW226991   2.039   4.050   0.739 -0.7796  0.0666  1.3766
 5178SOL     OW26992   4.612   0.873   8.032  0.9192  0.2384 -0.7456
 5178SOL    HW126993   4.634   0.838   8.118 -0.6281  1.5601  0.1610
 5178SOL    HW226994   4.541   0.818   7.998  1.3233  0.0525 -1.2965
 5179SOL     OW26995   0.132   3.441   2.386 -0.2653 -0.0648  0.1108
 5179SOL    HW126996   0.054   3.430   2.440  0.6577  1.0655  1.6826
 5179SOL    HW226997   0.155   3.534   2.392  2.3132 -0.4493 -3.6116
 5180SOL     OW26998   0.913   3.951   2.261 -0.2276 -0.1144  0.2647
 5180SOL    HW126999   0.835   3.924   2.310 -1.1014  1.8163 -0.0717
 5180SOL    HW227000   0.869   3.980   2.181  1.1281  0.3483 -0.3184
 5181SOL     OW27001   0.310   2.110   1.877  0.0559  0.0887 -0.7448
 5181SOL    HW127002   0.241   2.165   1.915  1.1023  0.5263  0.4951
 5181SOL    HW227003   0.281   2.021   1.895  0.8540 -0.4285 -2.0401
 5182SOL     OW27004   0.198   0.688   7.924  0.1628 -0.1369 -0.0662
 5182SOL    HW127005   0.259   0.752   7.961 -1.3884  1.0303  0.5112
 5182SOL    HW227006   0.111   0.709   7.959  1.6029  2.0682  2.2368
 5183SOL     OW27007   3.891   2.393   7.444 -0.5032  0.4947 -0.1276
 5183SOL    HW127008   3.979   2.357   7.436 -1.2108 -1.0504 -1.1799
 5183SOL    HW227009   3.834   2.331   7.396  1.4688 -1.2364 -0.2280
 5184SOL     OW27010   1.056   1.997   6.335 -0.1423  0.1521 -0.3071
 5184SOL    HW127011   1.150   2.011   6.334 -0.2448  0.9462  0.4498
 5184SOL    HW227012   1.040   1.999   6.429 -0.0793 -0.0894 -0.2908
 5185SOL     OW27013   3.518   0.634   7.616 -0.2595  0.2519  0.3343
 5185SOL    HW127014   3.576   0.682   7.557 -0.9080  1.3852  0.6195
 5185SOL    HW227015   3.552   0.545   7.603 -1.3299 -0.5790  3.2440
 5186SOL     OW27016   4.321   2.585   0.269  0.6167 -0.5617  0.4966
 5186SOL    HW127017   4.257   2.626   0.327 -0.5797 -2.4700  0.5272
 5186SOL    HW227018   4.351   2.659   0.216  1.5375  0.1010  1.9685
 5187SOL     OW27019   0.690   0.847  15.134  0.1377  0.5212  0.1698
 5187SOL    HW127020   0.614   0.854  15.076 -0.1150  0.9970  0.5616
 5187SOL    HW227021   0.655   0.895  15.209 -2.5013 -1.6728  0.3844
 5188SOL     OW27022   3.627   3.815  11.101 -0.2056 -0.4815  0.1000
 5188SOL    HW127023   3.602   3.880  11.166 -1.0691 -1.0546  0.3498
 5188SOL    HW227024   3.677   3.863  11.035 -3.3964  0.5377 -1.6064
 5189SOL     OW27025   2.016   1.356   2.853 -0.3180  0.1298 -0.1852
 5189SOL    HW127026   2.055   1.319   2.774 -0.4298  0.8866 -0.5993
 5189SOL    HW227027   1.925   1.328   2.847 -0.2174 -0.6318  1.7819
 5190SOL     OW27028   1.672   2.241   5.277 -0.2759 -0.4442  0.7297
 5190SOL    HW127029   1.734   2.171   5.255  2.4089  1.6966  1.4758
 5190SOL    HW227030   1.592   2.197   5.248 -1.4408  1.2159  1.4346
 5191SOL     OW27031   1.624   0.355  16.512  0.6059 -0.2087  0.6056
 5191SOL    HW127032   1.716   0.372  16.495  0.4851 -0.5365 -0.3951
 5191SOL    HW227033   1.584   0.442  16.521 -0.8581 -0.8889  0.7821
 5192SOL     OW27034   4.576   1.952   7.954  0.0039  0.6378 -0.2818
 5192SOL    HW127035   4.483   1.963   7.935  0.1044  2.8259  0.5242
 5192SOL    HW227036   4.623   2.006   7.890  2.5313 -0.5336  0.5779
 5193SOL     OW27037   1.373   1.654   5.963  0.5292 -0.0869 -0.2868
 5193SOL    HW127038   1.379   1.749   5.970 -0.9098  0.0973 -1.6410
 5193SOL    HW227039   1.392   1.639   5.871  0.8536  0.1653 -0.2583
 5194SOL     OW27040   1.687   0.095   3.948  0.3465 -0.0106  0.2366
 5194SOL    HW127041   1.635   0.098   3.867  0.5229  1.2126  0.1678
 5194SOL    HW227042   1.611   0.081   4.005 -0.4494  2.1568 -0.2923
 5195SOL     OW27043   1.336   2.609  15.502  0.2752 -0.4286  0.1816
 5195SOL    HW127044   1.331   2.549  15.428  2.5874 -0.2116 -0.1287
 5195SOL    HW227045   1.383   2.682  15.460 -1.5837  1.5884  1.6024
 5196SOL     OW27046   0.916   0.643   4.701 -0.6505  0.0586 -0.2951
 5196SOL    HW127047   0.898   0.719   4.756 -2.5842  0.1535 -1.0533
 5196SOL    HW227048   0.965   0.589   4.762 -1.1496 -1.2001 -1.0033
 5197SOL     OW27049   1.096   0.081   2.347 -0.0250  0.1291 -0.2303
 5197SOL    HW127050   1.175   0.135   2.334 -0.6658  1.1979  0.3120
 5197SOL    HW227051   1.119   0.017   2.415  1.6263  1.8111  0.8188
 5198SOL     OW27052   0.172   1.827   8.958 -0.7224 -0.0622  0.5018
 5198SOL    HW127053   0.105   1.882   9.000  0.6689  1.5568  0.6004
 5198SOL    HW227054   0.216   1.887   8.897  0.9462  0.4994  2.2622
 5199SOL     OW27055   2.886   2.907  13.210 -0.4043 -0.0377  0.9054
 5199SOL    HW127056   2.932   2.870  13.285  0.9225  1.2381  0.7310
 5199SOL    HW227057   2.940   2.984  13.191  1.3513 -1.4763  0.0479
 5200SOL     OW27058   3.653   3.755   8.383  1.1801 -0.5125 -0.3685
 5200SOL    HW127059   3.720   3.706   8.431  1.2906  1.5415  1.5784
 5200SOL    HW227060   3.685   3.845   8.392 -0.6303 -0.0293  1.1044
 5201SOL     OW27061   3.159   1.277   2.561  0.4920 -0.2477  0.1278
 5201SOL    HW127062   3.124   1.360   2.529  1.3359 -0.7350 -2.0125
 5201SOL    HW227063   3.124   1.221   2.492  1.9407  0.5506 -1.2640
 5202SOL     OW27064   3.296   1.201   7.674  0.0748 -0.0108  0.3189
 5202SOL    HW127065   3.317   1.280   7.625 -0.8713 -0.5486 -0.9487
 5202SOL    HW227066   3.343   1.232   7.752 -1.8599 -0.6520  1.7443
 5203SOL     OW27067   2.235   3.987   2.710 -0.0968 -0.0831 -0.4578
 5203SOL    HW127068   2.328   4.002   2.693  0.8951 -3.1093  2.3572
 5203SOL    HW227069   2.238   4.030   2.795 -1.9761  0.9296 -0.8913
 5204SOL     OW27070   0.368   3.180   8.341 -0.0735  0.1619  0.1511
 5204SOL    HW127071   0.346   3.088   8.351 -0.4823  0.4460  1.8804
 5204SOL    HW227072   0.330   3.212   8.424 -2.2273 -0.3973 -0.6177
 5205SOL     OW27073   3.303   0.130  14.553  0.5811 -0.4564 -0.2351
 5205SOL    HW127074   3.295   0.047  14.507 -1.0858 -1.1663  1.3476
 5205SOL    HW227075   3.242   0.182  14.499 -0.8783 -0.6147  1.2583
 5206SOL     OW27076   4.151   2.174   4.906  0.0577 -0.1656  0.6206
 5206SOL    HW127077   4.200   2.251   4.878 -0.4503  0.6536  1.9826
 5206SOL    HW227078   4.171   2.108   4.840  1.7684  1.9033 -0.9117
 5207SOL     OW27079   2.833   3.112   3.621 -0.5121  0.2834 -0.5474
 5207SOL    HW127080   2.807   3.141   3.534  0.8344 -0.2842 -1.1363
 5207SOL    HW227081   2.896   3.175   3.656  0.9300 -1.2836 -0.3544
 5208SOL     OW27082   2.663   3.191   7.488 -0.0884  0.3159  0.0207
 5208SOL    HW127083   2.581   3.199   7.438  0.5749 -2.0480 -1.4554
 5208SOL    HW227084   2.658   3.098   7.510  1.2911  0.0196 -0.8602
 5209SOL     OW27085   0.257   1.417  11.655  0.4958  0.6070  0.5972
 5209SOL    HW127086   0.264   1.507  11.688 -0.2166 -0.1137  2.7501
 5209SOL    HW227087   0.331   1.414  11.595  0.1738  1.1933  0.1701
 5210SOL     OW27088   1.218   0.209   4.046 -0.1126 -0.4367  0.6206
 5210SOL    HW127089   1.303   0.168   4.062  0.1505  0.5560  1.8034
 5210SOL    HW227090   1.231   0.290   4.095 -0.5605  0.3462 -0.5545
 5211SOL     OW27091   0.185   3.008   3.889 -0.6879  0.0325 -0.0527
 5211SOL    HW127092   0.097   2.971   3.877 -0.5524 -0.1167 -0.6251
 5211SOL    HW227093   0.230   2.924   3.897 -2.4367 -0.9774 -0.6217
 5212SOL     OW27094   1.517   4.052  10.863  0.3606  0.7313  0.1220
 5212SOL    HW127095   1.448   4.005  10.817  0.2015 -0.9858  2.1095
 5212SOL    HW227096   1.565   4.102  10.797  1.1724  2.0235  1.6796
 5213SOL     OW27097   2.116   0.071   2.547  0.1165  0.1739  0.3705
 5213SOL    HW127098   2.180   0.020   2.496  1.1271  3.9004 -2.0414
 5213SOL    HW227099   2.077   0.009   2.609 -0.3181 -1.0984 -1.1539
 5214SOL     OW27100   1.796   2.733  15.225 -0.3740  0.5108  0.1780
 5214SOL    HW127101   1.804   2.710  15.318 -0.5170  0.6889  0.2354
 5214SOL    HW227102   1.888   2.751  15.210 -0.1791  1.1837  2.1683
 5215SOL     OW27103   4.256   0.125  12.777  0.0396 -0.3182  0.1517
 5215SOL    HW127104   4.250   0.052  12.714 -1.0941  1.7862 -2.1734
 5215SOL    HW227105   4.295   0.190  12.719 -0.9357  0.1702  0.0493
 5216SOL     OW27106   4.331   0.007   2.366 -0.8471 -0.0136  0.3389
 5216SOL    HW127107   4.314   4.636   2.393  1.4951 -0.8155 -0.8777
 5216SOL    HW227108   4.426   0.013   2.383 -0.6924  0.7642 -0.7875
 5217SOL     OW27109   2.991   1.359   8.199 -0.4757 -0.3030  0.5094
 5217SOL    HW127110   2.951   1.319   8.122  2.3219  0.4528 -1.3577
 5217SOL    HW227111   2.921   1.359   8.264 -2.7106  0.3251 -1.9603
 5218SOL     OW27112   3.183   0.940  13.688 -0.5441  0.1862  0.4283
 5218SOL    HW127113   3.260   0.932  13.632 -1.3195 -1.8056 -0.3846
 5218SOL    HW227114   3.198   1.017  13.742  3.5576 -0.3811  0.1396
 5219SOL     OW27115   2.723   2.728  10.666 -0.8539  0.4353 -0.5617
 5219SOL    HW127116   2.746   2.706  10.756 -1.0100  0.3062 -0.5532
 5219SOL    HW227117   2.807   2.768  10.641 -0.4135  0.0503  0.3102
 5220SOL     OW27118   3.049   2.003   5.682 -0.2008 -0.1101  0.2116
 5220SOL    HW127119   3.076   1.938   5.617 -0.8212  0.1158 -0.2601
 5220SOL    HW227120   3.078   2.079   5.632 -0.0356 -1.4645 -1.7749
 5221SOL     OW27121   4.295   0.886   7.014  0.0626 -0.3835 -0.3793
 5221SOL    HW127122   4.340   0.826   7.072  0.0898 -0.5353 -0.5587
 5221SOL    HW227123   4.212   0.897   7.062 -0.0509  0.1973 -0.6962
 5222SOL     OW27124   3.264   0.950  16.686 -0.0073  0.3040 -0.3818
 5222SOL    HW127125   3.318   0.883  16.644  1.3471  3.0160 -2.9803
 5222SOL    HW227126   3.227   0.994  16.610 -1.3485 -0.7982 -0.3814
 5223SOL     OW27127   2.712   3.446   2.767  0.3687  0.0075 -0.3895
 5223SOL    HW127128   2.805   3.460   2.747  0.8358 -2.9089 -0.3254
 5223SOL    HW227129   2.721   3.355   2.796  1.7863 -0.8370 -3.4388
 5224SOL     OW27130   3.054   0.047   3.520  0.1590 -0.2818  0.0569
 5224SOL    HW127131   3.022   0.042   3.430  0.7329  3.0890 -0.3405
 5224SOL    HW227132   2.981   0.088   3.566  1.2338  0.5605  1.0352
 5225SOL     OW27133   2.873   4.205   5.078  0.1457  0.7609 -0.0530
 5225SOL    HW127134   2.867   4.212   4.983  0.7344 -1.8859 -0.2662
 5225SOL    HW227135   2.895   4.294   5.108 -0.4510  0.7482  0.4285
 5226SOL     OW27136   1.903   1.201   3.803 -0.0889  0.0167 -0.3045
 5226SOL    HW127137   1.945   1.140   3.863 -0.0608  1.2209  0.9185
 5226SOL    HW227138   1.933   1.172   3.717  1.6035 -0.7721  0.5458
 5227SOL     OW27139   0.663   1.876   1.849 -0.1496 -0.1003  0.0637
 5227SOL    HW127140   0.679   1.870   1.755  4.1259 -0.9936  0.8603
 5227SOL    HW227141   0.642   1.969   1.858 -2.2310 -0.7775  2.0340
 5228SOL     OW27142   3.685   4.566  16.491  0.3525  0.1284  0.0446
 5228SOL    HW127143   3.625   4.558  16.565  1.2566  0.3005  0.7884
 5228SOL    HW227144   3.732   4.649  16.504 -2.0933  1.3566  1.0361
 5229SOL     OW27145   2.931   1.641   3.500  0.0461 -0.1454 -0.0381
 5229SOL    HW127146   2.941   1.607   3.411  1.0312  1.3208 -0.4913
 5229SOL    HW227147   2.847   1.599   3.519 -0.1011 -0.0601 -0.4823
 5230SOL     OW27148   1.465   0.284  15.848 -0.3963  0.3636  0.1960
 5230SOL    HW127149   1.557   0.297  15.825  0.1284 -0.9948  1.5528
 5230SOL    HW227150   1.472   0.224  15.922 -0.3006 -1.0543 -0.9486
 5231SOL     OW27151   1.059   4.313  17.254  0.2150  0.2710  0.1219
 5231SOL    HW127152   1.133   4.337  17.311  0.4504 -2.8044  1.1066
 5231SOL    HW227153   1.062   4.381  17.187 -2.0249  0.4738  0.2377
 5232SOL     OW27154   1.716   1.380   6.514  0.1154  0.0757  0.2573
 5232SOL    HW127155   1.638   1.328   6.532  0.0894  0.2078  0.5168
 5232SOL    HW227156   1.738   1.341   6.429 -0.2240  3.1405 -1.2350
 5233SOL     OW27157   1.657   2.296   3.257  0.2966 -0.1435  0.3946
 5233SOL    HW127158   1.737   2.281   3.206  0.0215  2.1172 -0.6943
 5233SOL    HW227159   1.592   2.257   3.199 -0.1984  1.2891 -0.0147
 5234SOL     OW27160   4.116   2.962   6.391 -0.8051  0.0951 -0.4416
 5234SOL    HW127161   4.082   3.038   6.439 -0.5074 -0.6337  0.9063
 5234SOL    HW227162   4.100   2.895   6.458 -0.8963 -0.8571 -1.4188
 5235SOL     OW27163   0.389   3.763   3.308 -0.1021  0.1420 -0.3333
 5235SOL    HW127164   0.471   3.813   3.304 -0.9489  1.5696 -0.0853
 5235SOL    HW227165   0.401   3.724   3.222  0.9196 -2.0891  0.8144
 5236SOL     OW27166   1.419   2.895   9.914 -0.0965 -0.0059  0.0267
 5236SOL    HW127167   1.340   2.892   9.969  0.2300 -2.1266  0.4024
 5236SOL    HW227168   1.421   2.988   9.894  1.7859 -0.0805 -0.0796
 5237SOL     OW27169   1.294   4.310   5.652 -0.3238 -0.1593  0.1750
 5237SOL    HW127170   1.200   4.313   5.632 -0.1662  0.5663 -0.4767
 5237SOL    HW227171   1.318   4.218   5.647  0.9756  0.3926 -3.7024
 5238SOL     OW27172   0.595   2.405   6.849  0.5855  0.0804  0.0890
 5238SOL    HW127173   0.565   2.459   6.922  0.8761  1.1201 -0.5598
 5238SOL    HW227174   0.644   2.461   6.789  1.4113 -0.7499 -0.0105
 5239SOL     OW27175   2.992   2.565   8.392  0.2096 -0.7363  0.5086
 5239SOL    HW127176   2.961   2.524   8.473 -1.7513  2.0252  1.1740
 5239SOL    HW227177   2.976   2.659   8.388 -0.0781 -0.7102  2.3012
 5240SOL     OW27178   0.953   2.746  13.820  0.4889  0.2760  0.1117
 5240SOL    HW127179   0.971   2.659  13.786  1.0750 -0.6343  2.7074
 5240SOL    HW227180   1.010   2.790  13.758  0.3853 -0.4315 -0.4797
 5241SOL     OW27181   1.480   1.767   6.717  0.5002 -0.0006 -0.4237
 5241SOL    HW127182   1.488   1.725   6.631 -4.2028 -0.4598 -0.6138
 5241SOL    HW227183   1.428   1.704   6.766 -1.6196  1.1363 -1.2476
 5242SOL     OW27184   1.706   3.262   1.897 -0.6028 -0.5435 -0.2879
 5242SOL    HW127185   1.767   3.193   1.872  0.7762  0.0733  1.3693
 5242SOL    HW227186   1.690   3.300   1.811 -0.4030 -0.6392 -0.3681
 5243SOL     OW27187   0.762   3.015   5.520 -0.5311  0.5837 -0.1550
 5243SOL    HW127188   0.828   2.956   5.556  1.1066  1.5706 -1.5516
 5243SOL    HW227189   0.717   2.948   5.467 -1.8361 -0.3956  2.1984
 5244SOL     OW27190   0.591   2.641   7.747 -0.5014 -0.1525  0.0059
 5244SOL    HW127191   0.680   2.671   7.727 -0.5876 -1.8291 -2.8522
 5244SOL    HW227192   0.561   2.717   7.796 -1.9850 -0.2431 -0.7576
 5245SOL     OW27193   4.088   3.049   3.796  0.0001 -0.1772  0.0443
 5245SOL    HW127194   4.124   3.131   3.830 -1.7092  1.0144 -0.9980
 5245SOL    HW227195   4.069   3.005   3.879 -0.8455  0.6313  0.2821
 5246SOL     OW27196   2.492   3.102  11.990  0.0384  0.3227 -0.1624
 5246SOL    HW127197   2.511   3.099  12.083 -2.2313  1.9309  0.3463
 5246SOL    HW227198   2.521   3.015  11.962  0.4831  0.7639 -1.0964
 5247SOL     OW27199   2.491   3.428   1.687  0.1641  0.2107 -0.1078
 5247SOL    HW127200   2.414   3.461   1.732  0.6464  1.3393 -0.1153
 5247SOL    HW227201   2.483   3.334   1.700 -1.8617  0.4482  0.2438
 5248SOL     OW27202   4.447   3.098   2.450  0.3248 -0.5870  0.2587
 5248SOL    HW127203   4.491   3.101   2.535  0.4018 -1.7940  0.2520
 5248SOL    HW227204   4.389   3.175   2.447 -1.9213 -2.1718  2.7424
 5249SOL     OW27205   1.758   4.644  17.330  0.0324 -0.2212  0.1549
 5249SOL    HW127206   1.769   4.665  17.423 -0.8413  0.1658  0.1655
 5249SOL    HW227207   1.727   0.009  17.298  2.6018  0.5414 -0.3856
 5250SOL     OW27208   2.156   3.192   4.581 -0.4794 -0.0506  0.0958
 5250SOL    HW127209   2.088   3.256   4.605  0.3363  0.4828  0.9825
 5250SOL    HW227210   2.230   3.252   4.584 -0.4491 -0.0437 -1.0437
 5251SOL     OW27211   3.428   2.659   0.012  0.1646  0.0340 -0.3039
 5251SOL    HW127212   3.501   2.663  17.630 -0.5553  2.3537 -0.9994
 5251SOL    HW227213   3.447   2.733   0.070  1.7403  0.3755 -1.2440
 5252SOL     OW27214   3.150   2.870   1.747 -0.1375 -0.1693 -0.2748
 5252SOL    HW127215   3.165   2.776   1.735  0.7823  0.0217 -0.6613
 5252SOL    HW227216   3.238   2.904   1.764 -0.4856  0.4444  0.2899
 5253SOL     OW27217   2.566   4.623  10.661  0.1343 -0.8203 -0.4928
 5253SOL    HW127218   2.653   4.662  10.651 -0.3688  0.0156 -1.5549
 5253SOL    HW227219   2.572   4.594  10.752  0.8462  1.1918  0.0819
 5254SOL     OW27220   4.135   1.622   9.724  0.5039  0.2673 -0.3267
 5254SOL    HW127221   4.189   1.554   9.765 -1.4686 -2.1379 -1.6926
 5254SOL    HW227222   4.057   1.614   9.779  1.3294  2.5165  1.1682
 5255SOL     OW27223   0.720   1.041   7.906  0.0147  0.2694  0.0661
 5255SOL    HW127224   0.772   0.973   7.863  1.8719  1.1159  1.0245
 5255SOL    HW227225   0.746   1.012   7.993 -2.2617  0.5977  0.8807
 5256SOL     OW27226   1.219   1.403   8.752 -0.1146 -0.0835 -0.0183
 5256SOL    HW127227   1.307   1.369   8.736  1.2670  2.7094  1.5260
 5256SOL    HW227228   1.162   1.327   8.740 -0.1156  0.2342 -1.9753
 5257SOL     OW27229   4.258   3.136   7.177 -0.3456  0.1896 -0.1316
 5257SOL    HW127230   4.221   3.048   7.183 -3.3380  1.2925 -2.3735
 5257SOL    HW227231   4.227   3.167   7.262 -1.8909 -0.1603 -0.5570
 5258SOL     OW27232   4.306   2.584  10.342 -0.1298  0.3916 -0.4777
 5258SOL    HW127233   4.291   2.596  10.248 -0.6374  1.0936 -0.3095
 5258SOL    HW227234   4.400   2.599  10.347 -0.4087  2.3942 -1.2703
 5259SOL     OW27235   2.528   2.385  15.922  0.1148  0.1946  0.5571
 5259SOL    HW127236   2.594   2.319  15.942 -0.5746 -1.2980 -2.1785
 5259SOL    HW227237   2.469   2.337  15.864  1.2247 -1.6052  0.9500
 5260SOL     OW27238   4.243   2.506  10.650  0.1655  0.2479  0.1498
 5260SOL    HW127239   4.210   2.481  10.736  1.2986  0.7088  0.7140
 5260SOL    HW227240   4.335   2.498  10.675 -0.4183  0.7693  2.4576
 5261SOL     OW27241   1.738   2.291  17.064 -0.2281 -0.2059 -0.3085
 5261SOL    HW127242   1.729   2.307  16.970 -2.2442  4.9278  0.7814
 5261SOL    HW227243   1.813   2.232  17.062 -0.8256 -0.9968  0.5434
 5262SOL     OW27244   0.302   0.732  11.081 -0.1639  0.9664  0.2338
 5262SOL    HW127245   0.292   0.827  11.069 -0.3986  0.7653 -1.1008
 5262SOL    HW227246   0.294   0.721  11.176 -0.0444 -0.5549  0.0611
 5263SOL     OW27247   4.699   0.235   3.060 -0.0525  0.7064 -0.2240
 5263SOL    HW127248   4.711   0.327   3.037  1.9472  1.1752  2.7934
 5263SOL    HW227249   0.058   0.209   3.108  1.0111  1.0942 -1.7349
 5264SOL     OW27250   4.574   1.048   4.630  0.1160 -0.2707  0.0522
 5264SOL    HW127251   4.616   1.127   4.662  1.0876 -0.1084 -1.6032
 5264SOL    HW227252   4.550   1.078   4.542 -0.4756  0.5264  0.4847
 5265SOL     OW27253   3.261   4.012   0.706 -0.0029 -0.3544  0.4186
 5265SOL    HW127254   3.227   4.031   0.793 -3.7173 -3.3134 -0.3884
 5265SOL    HW227255   3.180   3.987   0.661  1.3559  0.3378 -2.4398
 5266SOL     OW27256   0.768   0.947   8.148 -0.0036  0.3123 -0.2808
 5266SOL    HW127257   0.861   0.932   8.164  0.0007  0.4468 -0.1830
 5266SOL    HW227258   0.727   0.871   8.190 -0.0301  0.1002 -0.6961
 5267SOL     OW27259   1.032   2.007  15.283  0.9568  0.0491 -0.0473
 5267SOL    HW127260   1.100   1.999  15.216  0.5168  0.5793 -0.5571
 5267SOL    HW227261   1.076   2.070  15.340  1.3396  0.7979 -1.1685
 5268SOL     OW27262   1.652   4.251   7.678 -0.6304 -0.5559  0.0112
 5268SOL    HW127263   1.724   4.189   7.669 -1.4713 -1.8041  1.8148
 5268SOL    HW227264   1.631   4.276   7.589  0.3613  2.1338  0.5319
 5269SOL     OW27265   4.390   2.211   7.162  0.7004  0.1836  0.0402
 5269SOL    HW127266   4.375   2.260   7.242 -3.0367 -0.3191 -0.3729
 5269SOL    HW227267   4.375   2.129   7.210 -0.0544  0.7177  0.6951
 5270SOL     OW27268   3.426   3.052  15.956 -0.1257 -0.4080 -0.1818
 5270SOL    HW127269   3.483   3.082  15.885 -0.3845 -2.2154 -1.1502
 5270SOL    HW227270   3.395   3.127  16.007 -1.2804 -1.1152  0.1406
 5271SOL     OW27271   4.605   4.086  17.233 -0.3419  0.0792 -0.4973
 5271SOL    HW127272   4.694   4.113  17.256  0.0537 -1.1343 -0.6090
 5271SOL    HW227273   4.598   3.998  17.269 -0.1973 -0.9116 -2.8871
 5272SOL     OW27274   3.541   4.046  15.213  0.0249  0.4682 -0.5719
 5272SOL    HW127275   3.601   4.037  15.139  0.7990  2.2816 -0.1804
 5272SOL    HW227276   3.595   4.092  15.278 -0.1982 -0.4050  0.2284
 5273SOL     OW27277   1.502   4.010   3.908  0.0672  0.0910  0.1351
 5273SOL    HW127278   1.463   4.071   3.846 -0.7137 -0.7484 -0.1863
 5273SOL    HW227279   1.468   4.042   3.992  0.8674  1.0731  0.0790
 5274SOL     OW27280   2.041   4.384   7.379 -0.1617 -0.7212 -0.1334
 5274SOL    HW127281   1.988   4.451   7.335 -0.4618 -0.5872  0.4425
 5274SOL    HW227282   2.024   4.295   7.348 -2.8137  0.2891 -1.5837
 5275SOL     OW27283   4.671   2.555   6.881 -0.0721 -0.3151 -0.3146
 5275SOL    HW127284   4.606   2.526   6.946 -0.1725 -1.9714 -1.1583
 5275SOL    HW227285   4.666   2.479   6.823 -2.3570 -1.3077  1.1717
 5276SOL     OW27286   2.704   4.172   5.554  0.4748 -0.0852 -0.1002
 5276SOL    HW127287   2.692   4.151   5.462  0.7779  2.9383 -0.8360
 5276SOL    HW227288   2.680   4.094   5.604  3.1962  0.1340  1.5556
 5277SOL     OW27289   0.084   3.929  11.628  0.3230 -0.1605  0.0486
 5277SOL    HW127290   0.005   3.899  11.674  0.4090  1.8909  1.5001
 5277SOL    HW227291   0.154   3.871  11.658  1.4961  1.2181 -0.0361
 5278SOL     OW27292   4.137   1.488  17.516  0.1848 -0.8363 -0.1275
 5278SOL    HW127293   4.072   1.499  17.447 -0.8299 -2.2150  0.6065
 5278SOL    HW227294   4.147   1.393  17.513 -1.3589 -1.1217  3.6803
 5279SOL     OW27295   4.511   4.331   2.500  0.0915 -0.3094 -0.0345
 5279SOL    HW127296   4.439   4.391   2.481  0.5711 -0.4077 -2.1293
 5279SOL    HW227297   4.593   4.375   2.477 -0.4253  0.5234 -0.2903
 5280SOL     OW27298   0.722   1.664   1.661  0.1551  0.3602 -0.2197
 5280SOL    HW127299   0.735   1.754   1.629 -0.0121  0.7597  0.8411
 5280SOL    HW227300   0.644   1.673   1.715  2.1776  1.4218  2.5045
 5281SOL     OW27301   0.448   3.769   2.475 -0.7304  0.7052  0.0045
 5281SOL    HW127302   0.457   3.847   2.530  2.7489  0.4140 -0.1177
 5281SOL    HW227303   0.459   3.701   2.541 -0.7613  0.9524  0.2661
 5282SOL     OW27304   2.254   0.880   8.132 -0.2117  0.3118  0.0032
 5282SOL    HW127305   2.210   0.810   8.083 -0.8813  0.8169 -0.1215
 5282SOL    HW227306   2.301   0.929   8.065 -0.7882 -0.1129 -0.7092
 5283SOL     OW27307   2.901   0.859   6.015 -0.0459 -0.1361  0.1631
 5283SOL    HW127308   2.821   0.912   6.015  0.6220  0.8653  0.3163
 5283SOL    HW227309   2.956   0.888   5.942  1.1154  0.5464  1.3179
 5284SOL     OW27310   1.710   4.684   3.511 -0.3037  0.2028  0.8491
 5284SOL    HW127311   1.730   4.604   3.560  1.0644 -0.0210 -0.0773
 5284SOL    HW227312   1.691   4.655   3.422  0.1896  1.0332  0.4656
 5285SOL     OW27313   0.203   3.734   1.147 -0.3431 -0.5307  0.4108
 5285SOL    HW127314   0.132   3.797   1.133  0.4453 -0.2519 -2.3073
 5285SOL    HW227315   0.196   3.676   1.070 -2.3909 -2.1684  1.8335
 5286SOL     OW27316   4.594   1.471   1.729 -0.3553 -0.5885  0.0093
 5286SOL    HW127317   4.602   1.442   1.638  0.0993  0.1069 -0.1697
 5286SOL    HW227318   4.537   1.548   1.729 -0.2593 -0.5167 -0.1384
 5287SOL     OW27319   0.616   2.649   4.830 -0.3823 -0.2343 -0.2495
 5287SOL    HW127320   0.616   2.560   4.794  3.3840 -0.4793  0.3364
 5287SOL    HW227321   0.536   2.688   4.793 -0.4137  1.7359  1.9729
 5288SOL     OW27322   1.541   4.172   0.612 -0.6479  0.0828 -0.3807
 5288SOL    HW127323   1.501   4.107   0.669 -1.0906  1.2152  0.6094
 5288SOL    HW227324   1.623   4.186   0.660 -0.5310  0.3500 -0.6551
 5289SOL     OW27325   2.576   3.513   7.301  0.2129  0.2740  0.6067
 5289SOL    HW127326   2.653   3.472   7.341  0.1849 -0.4797 -0.1032
 5289SOL    HW227327   2.577   3.460   7.221  0.0554  0.1300  0.7018
 5290SOL     OW27328   3.134   3.451   4.971  0.1947  0.0819  0.7525
 5290SOL    HW127329   3.215   3.493   4.941  0.9945 -0.8356  1.6336
 5290SOL    HW227330   3.095   3.406   4.896  0.4746  0.4079  0.4063
 5291SOL     OW27331   2.821   3.929   3.224 -0.1860 -0.8231 -1.2922
 5291SOL    HW127332   2.863   3.905   3.142  0.2244  0.6963 -1.5190
 5291SOL    HW227333   2.877   3.893   3.293 -0.2897  0.3383 -0.6084
 5292SOL     OW27334   4.231   4.571   4.621 -0.3618 -0.3980 -0.6284
 5292SOL    HW127335   4.313   4.536   4.655  0.3211  1.7179 -0.1500
 5292SOL    HW227336   4.260   4.599   4.534 -0.8002  0.4477 -0.5034
 5293SOL     OW27337   0.750   0.731   8.317 -0.0267  0.3912  0.6857
 5293SOL    HW127338   0.821   0.670   8.339 -1.9745 -1.8490  0.8503
 5293SOL    HW227339   0.705   0.722   8.401  0.2063  0.5271  0.8242
 5294SOL     OW27340   1.085   0.065   6.486 -0.6681 -0.2573 -0.2567
 5294SOL    HW127341   1.141   0.095   6.414 -1.5936 -0.2120 -0.9535
 5294SOL    HW227342   1.059   4.695   6.465  2.0489 -1.0593 -0.2279
 5295SOL     OW27343   2.493   2.302   4.884  0.2480 -1.3046  0.3882
 5295SOL    HW127344   2.549   2.345   4.948 -0.4268  0.3547 -0.1375
 5295SOL    HW227345   2.524   2.340   4.802 -1.1166 -1.4190 -0.1803
 5296SOL     OW27346   3.150   2.671   7.409 -0.0288 -0.4646 -0.4807
 5296SOL    HW127347   3.061   2.654   7.378 -0.3283  2.7005 -1.3892
 5296SOL    HW227348   3.168   2.621   7.488 -0.8157 -1.6087 -1.0349
 5297SOL     OW27349   2.003   1.907  11.251 -0.1045  0.2820  0.1437
 5297SOL    HW127350   2.049   1.989  11.233 -0.2226  0.0481 -1.2185
 5297SOL    HW227351   2.025   1.885  11.341 -0.0017  1.6898  0.4611
 5298SOL     OW27352   3.563   0.053  13.857  0.6205 -0.0129  0.2909
 5298SOL    HW127353   3.536   0.095  13.775  0.7425 -0.5040 -0.0002
 5298SOL    HW227354   3.478   0.039  13.899 -0.8918  3.8130 -1.4176
 5299SOL     OW27355   2.536   2.899   8.965  0.3089 -0.1528 -0.1257
 5299SOL    HW127356   2.569   2.837   8.899  1.5660 -1.1829  1.4518
 5299SOL    HW227357   2.624   2.932   8.986  0.7908 -1.2951 -0.3206
 5300SOL     OW27358   3.452   2.920  15.655 -0.3576  0.0984  0.2001
 5300SOL    HW127359   3.357   2.933  15.659 -0.1379  1.4195  0.9897
 5300SOL    HW227360   3.480   2.975  15.728  1.8655  0.1753 -0.7058
 5301SOL     OW27361   3.807   3.813   5.553 -0.1852  0.6159  0.1326
 5301SOL    HW127362   3.809   3.856   5.468 -2.0332  1.3476  0.4633
 5301SOL    HW227363   3.798   3.883   5.618 -0.9427  0.0491  0.6345
 5302SOL     OW27364   0.360   1.081   0.816  1.0286 -0.5352  0.2818
 5302SOL    HW127365   0.384   1.172   0.800  1.3378 -0.2853  2.1344
 5302SOL    HW227366   0.367   1.074   0.911 -0.3239 -0.4394  0.3788
 5303SOL     OW27367   2.036   2.572  10.621  0.2431 -0.1265  0.5806
 5303SOL    HW127368   1.958   2.556  10.567  0.6041  1.5903 -0.4588
 5303SOL    HW227369   2.106   2.569  10.556 -1.6659  1.4139 -1.5775
 5304SOL     OW27370   4.485   0.794  10.683 -0.1580 -0.1900  1.0951
 5304SOL    HW127371   4.560   0.744  10.652  0.8702  2.7118 -1.1311
 5304SOL    HW227372   4.532   0.856  10.739  0.8943 -1.3055  1.4466
 5305SOL     OW27373   1.012   1.480   2.103  0.3625 -0.3002  0.2899
 5305SOL    HW127374   1.106   1.492   2.092  0.0230  1.4215 -0.8193
 5305SOL    HW227375   1.009   1.446   2.192 -1.3958  0.2689  0.4387
 5306SOL     OW27376   3.663   1.023   2.278 -0.0648 -0.2869 -0.2378
 5306SOL    HW127377   3.632   1.065   2.358  0.2881 -0.5433  0.0364
 5306SOL    HW227378   3.720   0.959   2.320  0.5129  0.8345  0.6799
 5307SOL     OW27379   3.655   2.326  10.272  0.5054 -0.0301  0.0692
 5307SOL    HW127380   3.598   2.365  10.338 -0.2263  1.3650 -1.3812
 5307SOL    HW227381   3.716   2.400  10.269  0.1668  0.2264 -0.4247
 5308SOL     OW27382   0.067   3.375   8.444  0.2009 -0.4737 -0.8867
 5308SOL    HW127383   0.084   3.354   8.352  2.0614  1.2333 -0.9455
 5308SOL    HW227384   0.116   3.305   8.489  0.4547  0.9519  1.0774
 5309SOL     OW27385   2.852   2.646  12.235 -0.5179 -1.0253  0.7806
 5309SOL    HW127386   2.863   2.607  12.148  2.7149 -2.0251  1.6098
 5309SOL    HW227387   2.777   2.701  12.214 -0.2617 -0.9460  0.0831
 5310SOL     OW27388   2.733   0.807   5.077 -0.1223 -0.4002 -0.0629
 5310SOL    HW127389   2.697   0.869   5.014  0.3498 -0.7557 -0.6881
 5310SOL    HW227390   2.746   0.870   5.148 -2.3009 -0.3893  0.3218
 5311SOL     OW27391   2.457   1.821  12.700 -0.2237  0.1937  0.4759
 5311SOL    HW127392   2.385   1.759  12.698 -1.9066  2.0973  1.4534
 5311SOL    HW227393   2.413   1.906  12.702  1.5728  1.1342  0.2092
 5312SOL     OW27394   4.699   3.671  15.603 -0.3455 -0.0035  0.2240
 5312SOL    HW127395   4.658   3.714  15.678  1.8165 -2.2247  2.6403
 5312SOL    HW227396   0.005   3.752  15.559 -1.1952 -0.1341 -0.5197
 5313SOL     OW27397   1.495   3.191   8.011  0.3784 -0.4920 -0.5994
 5313SOL    HW127398   1.503   3.237   8.094  2.3519  0.5080 -1.3518
 5313SOL    HW227399   1.409   3.151   8.026  0.2105  0.2143  0.3127
 5314SOL     OW27400   0.216   0.768   8.264 -0.1461 -0.6419  0.5844
 5314SOL    HW127401   0.250   0.760   8.353  0.6329  2.6824  0.5800
 5314SOL    HW227402   0.127   0.737   8.279  0.3484 -0.9450  2.8756
 5315SOL     OW27403   3.692   3.582   6.636 -0.3034 -0.0323 -0.6725
 5315SOL    HW127404   3.661   3.612   6.551 -0.3966  2.9772  0.4077
 5315SOL    HW227405   3.630   3.512   6.656  0.2566 -0.2605  0.2980
 5316SOL     OW27406   0.745   0.897   2.072 -0.1415  0.0090 -0.5215
 5316SOL    HW127407   0.696   0.824   2.110  0.7906  0.4548  1.5345
 5316SOL    HW227408   0.771   0.948   2.149 -1.0683  0.4668 -0.5142
 5317SOL     OW27409   2.804   2.003   8.782  0.1362  0.4191 -0.0823
 5317SOL    HW127410   2.891   2.031   8.810  0.1841 -0.1319  0.3211
 5317SOL    HW227411   2.763   1.966   8.860 -1.4493  1.0674 -0.6181
 5318SOL     OW27412   2.262   4.506  16.287  0.1230 -0.1309  0.3508
 5318SOL    HW127413   2.269   4.567  16.213  0.7082  1.1801  1.4970
 5318SOL    HW227414   2.333   4.444  16.270 -0.8286 -0.8916 -0.9070
 5319SOL     OW27415   4.427   0.372   8.977 -0.2973 -0.1569  0.2098
 5319SOL    HW127416   4.511   0.336   9.008 -1.1872 -0.8984  1.7754
 5319SOL    HW227417   4.367   0.306   9.012 -1.5867  0.1568 -1.4235
 5320SOL     OW27418   3.619   3.847   3.016  0.1213 -0.0891  0.3815
 5320SOL    HW127419   3.633   3.792   2.939  1.5236  2.4673 -1.2153
 5320SOL    HW227420   3.610   3.923   2.958  2.7364 -0.1951 -0.1702
 5321SOL     OW27421   0.162   3.753   5.934  0.4644 -0.0479  0.9515
 5321SOL    HW127422   0.175   3.710   6.018  0.9932 -1.4899  0.1190
 5321SOL    HW227423   0.074   3.723   5.912 -0.4135  3.4395 -0.3805
 5322SOL     OW27424   1.601   4.467   0.466 -0.3205  0.2502 -0.8159
 5322SOL    HW127425   1.593   4.535   0.398 -1.1093  1.2299  0.2666
 5322SOL    HW227426   1.559   4.501   0.545  0.8997 -1.3033  0.4871
 5323SOL     OW27427   0.914   2.962   4.539  0.0319  0.2896  0.3583
 5323SOL    HW127428   0.895   2.980   4.447  1.5128  1.4035  0.2796
 5323SOL    HW227429   1.010   2.967   4.540  0.0860 -0.7618  0.6653
 5324SOL     OW27430   2.248   4.226   5.764 -0.1094  0.1829  0.0987
 5324SOL    HW127431   2.303   4.220   5.686 -1.9722 -0.6291 -1.1527
 5324SOL    HW227432   2.203   4.310   5.754 -1.9612 -0.5867  1.9949
 5325SOL     OW27433   0.980   4.338  16.802 -0.1342  0.3357  0.2780
 5325SOL    HW127434   0.973   4.429  16.772 -1.1189 -0.4869 -1.9886
 5325SOL    HW227435   0.890   4.308  16.811  0.5161 -1.2290  1.6637
 5326SOL     OW27436   4.237   3.492  11.351  0.1537 -0.2752 -0.6323
 5326SOL    HW127437   4.274   3.522  11.435 -1.9604  0.0000  0.1836
 5326SOL    HW227438   4.207   3.575  11.316  0.7669  0.8559  1.4842
 5327SOL     OW27439   2.280   3.052  16.480 -0.0592 -0.5685  0.2098
 5327SOL    HW127440   2.317   3.031  16.566 -0.5046 -2.0848  0.0378
 5327SOL    HW227441   2.345   3.008  16.425 -1.6914 -0.7230 -1.5901
 5328SOL     OW27442   3.292   4.718  17.262  0.6181 -0.3595  0.2589
 5328SOL    HW127443   3.354   0.031  17.197 -1.4311  2.7385 -0.1441
 5328SOL    HW227444   3.275   4.630  17.226 -1.5330 -0.3073  1.1624
 5329SOL     OW27445   2.140   4.642   7.867 -0.1300 -0.0068  0.1847
 5329SOL    HW127446   2.165   4.610   7.780  0.3965 -1.4252  0.8675
 5329SOL    HW227447   2.102   0.009   7.851 -0.3062 -0.3291 -1.1004
 5330SOL     OW27448   2.389   4.518   8.229  0.2771 -0.0875  0.6627
 5330SOL    HW127449   2.313   4.461   8.214  0.7589 -1.0042  1.6331
 5330SOL    HW227450   2.391   4.572   8.151 -0.1115  0.9822  1.3919
 5331SOL     OW27451   3.483   0.559   4.814  0.0738 -0.0086 -0.2379
 5331SOL    HW127452   3.546   0.487   4.814  1.9712  1.6499 -0.5260
 5331SOL    HW227453   3.448   0.564   4.725  0.9473  2.1377 -0.4657
 5332SOL     OW27454   1.298   2.746  14.789 -0.1749 -0.2137 -0.1281
 5332SOL    HW127455   1.245   2.774  14.714  3.2278  0.1152 -2.4107
 5332SOL    HW227456   1.311   2.654  14.766  1.4046  0.1307 -0.5940
 5333SOL     OW27457   0.868   2.720   3.469 -1.2705 -0.5374 -0.0045
 5333SOL    HW127458   0.926   2.648   3.447 -0.2464  0.1530  0.4388
 5333SOL    HW227459   0.790   2.672   3.498 -0.4726 -0.1856  2.7715
 5334SOL     OW27460   1.976   1.367  12.953 -0.1333 -0.1914 -0.4445
 5334SOL    HW127461   2.049   1.320  12.913 -1.2815 -0.4876 -2.1723
 5334SOL    HW227462   1.941   1.309  13.020  0.2407 -0.0374 -0.1118
 5335SOL     OW27463   4.403   4.343   2.784  0.0964  0.7737 -0.3293
 5335SOL    HW127464   4.449   4.264   2.813 -0.6781  1.1196  1.7722
 5335SOL    HW227465   4.438   4.356   2.695  1.4080 -0.9665 -0.0724
 5336SOL     OW27466   1.898   1.703   1.950  0.1295  0.0423 -0.5201
 5336SOL    HW127467   1.855   1.724   1.866 -0.6809  0.3362 -0.0341
 5336SOL    HW227468   1.825   1.725   2.008  0.5138 -1.5674  0.5626
 5337SOL     OW27469   0.435   2.938   4.091  0.0333 -0.6116 -0.4351
 5337SOL    HW127470   0.469   2.849   4.084 -0.2441 -0.5417 -2.4977
 5337SOL    HW227471   0.445   2.963   4.000  0.2566  2.4996  0.4452
 5338SOL     OW27472   0.506   3.780   8.136 -0.1187 -0.4539  0.3487
 5338SOL    HW127473   0.437   3.760   8.073 -0.5581 -0.8824  0.9571
 5338SOL    HW227474   0.532   3.703   8.186 -0.8722 -1.6580 -1.1103
 5339SOL     OW27475   4.489   0.126   5.726 -0.0379 -0.3882  0.0193
 5339SOL    HW127476   4.411   0.075   5.706 -0.1436  0.0052 -0.6110
 5339SOL    HW227477   4.508   0.099   5.815 -0.5732 -2.3894 -0.4865
 5340SOL     OW27478   2.361   1.966  17.517 -0.3474 -0.4201 -0.1367
 5340SOL    HW127479   2.323   1.927  17.438 -0.4425 -1.5957  0.5027
 5340SOL    HW227480   2.436   2.017  17.485  0.5358 -1.7067 -0.1105
 5341SOL     OW27481   2.906   2.284   8.082  0.0157  0.0132  0.3182
 5341SOL    HW127482   2.907   2.258   8.174  0.8840  1.2234  0.6504
 5341SOL    HW227483   2.939   2.202   8.047 -0.8032  0.0942 -0.6652
 5342SOL     OW27484   2.529   2.327   3.528 -0.1824 -0.1864 -0.0565
 5342SOL    HW127485   2.465   2.387   3.488 -1.3335 -0.4563  1.3890
 5342SOL    HW227486   2.588   2.317   3.453  0.5651 -2.4702  0.8375
 5343SOL     OW27487   0.073   3.281   5.220  0.3587  0.4221 -0.8228
 5343SOL    HW127488   0.053   3.322   5.304  0.9533 -0.4953 -0.2383
 5343SOL    HW227489   0.079   3.366   5.176 -1.6777  0.7264 -0.5324
 5344SOL     OW27490   1.101   2.928   5.310  0.4768 -0.0369  0.4105
 5344SOL    HW127491   1.017   2.884   5.316  0.6779 -0.3315  1.0540
 5344SOL    HW227492   1.104   2.953   5.217 -1.2749  0.6984  0.5504
 5345SOL     OW27493   0.126   1.031   3.030 -0.0704 -0.1428  0.1273
 5345SOL    HW127494   0.072   1.068   2.960 -0.5014 -0.1567  0.4514
 5345SOL    HW227495   0.137   1.109   3.085  1.6858 -0.7531  0.6103
 5346SOL     OW27496   2.746   2.566   2.749  0.3010  0.0468  0.3571
 5346SOL    HW127497   2.766   2.659   2.747  2.9094 -0.5113  0.4764
 5346SOL    HW227498   2.798   2.557   2.829 -1.9585 -1.1061  1.6846
 5347SOL     OW27499   0.802   2.664  12.025  0.3932 -0.0736 -0.2163
 5347SOL    HW127500   0.853   2.675  12.105 -1.5034  1.6760  0.7469
 5347SOL    HW227501   0.873   2.680  11.963 -0.2878 -0.7217 -1.1650
 5348SOL     OW27502   1.944   2.182   3.202 -0.3122  0.2513  0.5480
 5348SOL    HW127503   2.006   2.114   3.173 -1.3402 -0.0016 -1.0901
 5348SOL    HW227504   1.905   2.149   3.283 -0.9272 -2.1899 -0.7176
 5349SOL     OW27505   4.536   0.191   7.091 -0.0944  0.5440 -0.6265
 5349SOL    HW127506   4.524   0.241   7.010 -0.1165  1.3486 -0.1237
 5349SOL    HW227507   4.553   0.267   7.147  0.5228 -1.5354  1.9824
 5350SOL     OW27508   3.019   1.523   7.719 -0.2266 -0.1584  0.0802
 5350SOL    HW127509   3.020   1.482   7.632 -1.3761  0.7983 -0.3865
 5350SOL    HW227510   2.926   1.546   7.729 -0.1460 -0.0628  0.5839
 5351SOL     OW27511   4.412   3.893   9.791  0.1478 -0.4677  0.2797
 5351SOL    HW127512   4.449   3.876   9.877  0.7655  2.8089  0.6694
 5351SOL    HW227513   4.446   3.825   9.733 -0.8263 -0.3781 -0.4019
 5352SOL     OW27514   4.458   0.883  16.738  0.0316 -0.4911 -0.1989
 5352SOL    HW127515   4.527   0.876  16.803 -0.6939  1.4414  0.7628
 5352SOL    HW227516   4.463   0.794  16.702 -0.4895  0.7350 -3.3179
 5353SOL     OW27517   2.683   0.413  17.215 -0.0509 -0.2778 -0.3984
 5353SOL    HW127518   2.632   0.332  17.217  0.2665 -0.4654 -0.0279
 5353SOL    HW227519   2.622   0.479  17.180 -0.4590  0.5142  1.8262
 5354SOL     OW27520   3.351   0.810  12.678  0.0468  0.0957  0.3576
 5354SOL    HW127521   3.322   0.875  12.615 -0.1079  0.2981  0.6392
 5354SOL    HW227522   3.438   0.815  12.639  1.5696  1.2142  3.9391
 5355SOL     OW27523   2.331   4.484   0.689  0.1724  0.2588  0.5834
 5355SOL    HW127524   2.375   4.430   0.755  1.0286  0.7594  0.4332
 5355SOL    HW227525   2.339   4.570   0.731 -1.6145 -0.2814  2.0151
 5356SOL     OW27526   0.253   0.107  14.818 -0.0988  0.4839 -0.4101
 5356SOL    HW127527   0.233   0.030  14.765 -0.1121  0.9416 -1.0715
 5356SOL    HW227528   0.348   0.114  14.822 -0.1750  1.4940 -0.3105
 5357SOL     OW27529   4.258   0.456   6.112  0.6492 -0.6590  0.1624
 5357SOL    HW127530   4.247   0.364   6.133 -1.1863 -0.5312 -0.3068
 5357SOL    HW227531   4.353   0.468   6.125  1.0893 -1.6599 -2.0826
 5358SOL     OW27532   1.309   2.847   2.288  0.2101  0.3828 -0.6373
 5358SOL    HW127533   1.292   2.877   2.198  1.1280  0.7553 -0.6812
 5358SOL    HW227534   1.366   2.920   2.312  1.4985 -1.1299  0.8257
 5359SOL     OW27535   2.998   2.566   1.456  0.1182  0.7003  0.5030
 5359SOL    HW127536   3.018   2.596   1.367 -2.2606 -1.0624 -0.6202
 5359SOL    HW227537   3.085   2.570   1.496 -1.3516  0.0243  3.8060
 5360SOL     OW27538   3.054   4.136  16.723  0.8055 -0.1541 -0.2817
 5360SOL    HW127539   2.988   4.167  16.661  0.0094  1.8911  1.5762
 5360SOL    HW227540   3.051   4.042  16.705 -0.4103  0.5651 -3.7652
 5361SOL     OW27541   4.214   4.345   7.710  0.2146 -0.4253  0.0934
 5361SOL    HW127542   4.298   4.301   7.718 -0.7447 -2.2318  0.1067
 5361SOL    HW227543   4.146   4.277   7.707  0.7403 -0.8803 -1.4311
 5362SOL     OW27544   3.381   4.297  14.352 -0.8701 -0.1688 -0.5140
 5362SOL    HW127545   3.304   4.318  14.299 -0.9849 -1.2200 -0.7558
 5362SOL    HW227546   3.435   4.267  14.279  0.1545 -3.2335  1.5333
 5363SOL     OW27547   1.646   0.463   5.511  0.3448 -0.5785 -0.0280
 5363SOL    HW127548   1.574   0.410   5.477 -0.8143  0.7971  0.2623
 5363SOL    HW227549   1.629   0.545   5.464 -0.1210 -1.8225 -2.0321
 5364SOL     OW27550   0.450   1.182   4.994  0.8281 -0.7298  0.1983
 5364SOL    HW127551   0.418   1.257   4.945 -0.7856 -0.8172  1.1232
 5364SOL    HW227552   0.406   1.198   5.077 -0.2830 -1.2301 -0.2875
 5365SOL     OW27553   2.204   0.950   8.410  0.1165  0.2416  0.2627
 5365SOL    HW127554   2.121   0.997   8.414 -0.8231 -1.3741 -0.4277
 5365SOL    HW227555   2.225   0.943   8.317  0.2433 -0.4024  0.3373
 5366SOL     OW27556   2.243   3.114   5.690  1.1371  0.1758  0.0499
 5366SOL    HW127557   2.328   3.121   5.734  1.3386 -2.2683  0.1003
 5366SOL    HW227558   2.218   3.205   5.680 -0.8959 -0.3685  0.0748
 5367SOL     OW27559   3.565   2.605   9.377  0.5076  0.0906 -0.9241
 5367SOL    HW127560   3.567   2.694   9.341 -2.7815  0.0163 -1.3082
 5367SOL    HW227561   3.508   2.568   9.310  1.0451  0.9476 -1.8418
 5368SOL     OW27562   3.195   4.084   5.772  0.2383  0.3153 -0.1722
 5368SOL    HW127563   3.110   4.123   5.752 -1.1107 -1.6709  1.7657
 5368SOL    HW227564   3.178   4.011   5.831  1.3037 -0.9282 -1.3832
 5369SOL     OW27565   0.675   1.855   9.273 -0.3249  0.0057 -0.0138
 5369SOL    HW127566   0.609   1.882   9.337 -1.8730 -0.4652 -1.3909
 5369SOL    HW227567   0.721   1.936   9.250 -0.0276 -0.1310  0.0998
 5370SOL     OW27568   0.281   1.101  13.094 -0.3121  0.3980 -0.6037
 5370SOL    HW127569   0.285   1.163  13.022 -2.4069  1.6485  0.3537
 5370SOL    HW227570   0.373   1.081  13.110 -0.6218 -0.1890  0.4507
 5371SOL     OW27571   0.249   3.607  16.930  0.5063 -0.6036  0.1664
 5371SOL    HW127572   0.261   3.586  17.023 -0.9131 -0.9392  0.2827
 5371SOL    HW227573   0.245   3.703  16.932 -0.1950 -0.6229 -0.3860
 5372SOL     OW27574   1.091   1.924   9.522 -0.0836 -0.4110  0.0140
 5372SOL    HW127575   1.041   1.860   9.572  0.7397 -1.5858 -0.6461
 5372SOL    HW227576   1.029   1.995   9.538 -0.4286 -0.5291 -0.8047
 5373SOL     OW27577   4.443   2.070   0.355  0.1492 -0.1009  0.1960
 5373SOL    HW127578   4.469   2.124   0.281 -0.9390  0.0086 -0.1067
 5373SOL    HW227579   4.355   2.048   0.323  0.9047  0.3653 -2.1885
 5374SOL     OW27580   3.980   0.153   1.062  0.1450 -0.6093  0.5555
 5374SOL    HW127581   4.004   0.183   1.150 -1.6876 -1.5988  1.3923
 5374SOL    HW227582   3.938   0.230   1.024  0.8130 -0.2381  0.5827
 5375SOL     OW27583   3.860   1.793   9.409 -0.0592 -0.2720  0.2025
 5375SOL    HW127584   3.934   1.854   9.408  1.4837 -2.1766 -1.5279
 5375SOL    HW227585   3.849   1.778   9.503 -1.0042 -1.1647 -0.0590
 5376SOL     OW27586   3.093   0.358   0.501  0.1437  0.4375  0.4959
 5376SOL    HW127587   3.153   0.390   0.568  0.4111  0.0586  0.4389
 5376SOL    HW227588   3.101   0.265   0.522  2.4260  0.3942 -0.6060
 5377SOL     OW27589   0.485   4.045   2.542  0.2783 -0.0465  0.5134
 5377SOL    HW127590   0.501   4.111   2.475 -1.7128  1.1448  1.2101
 5377SOL    HW227591   0.424   4.089   2.602  1.9198  1.7850  0.8223
 5378SOL     OW27592   4.573   1.579   7.018  0.1566 -0.2616  0.2729
 5378SOL    HW127593   4.576   1.629   7.099 -2.0945  0.1938  0.0864
 5378SOL    HW227594   4.503   1.628   6.975  0.3459  1.5876  2.1012
 5379SOL     OW27595   2.278   4.371  15.798  0.3560  0.4680 -0.7333
 5379SOL    HW127596   2.267   4.302  15.864  1.5825  0.0645 -0.9543
 5379SOL    HW227597   2.204   4.366  15.737  0.4562 -0.7737 -0.7515
 5380SOL     OW27598   0.238   0.798   3.478  0.5666  0.4510  0.2611
 5380SOL    HW127599   0.321   0.761   3.507  1.1201  0.2513 -1.5562
 5380SOL    HW227600   0.176   0.748   3.530 -0.0248 -0.2999 -1.1554
 5381SOL     OW27601   0.302   2.958  16.184  0.2759 -0.0375 -0.0559
 5381SOL    HW127602   0.317   3.005  16.265  0.3667  0.2145 -0.2213
 5381SOL    HW227603   0.352   2.880  16.208 -0.3319 -0.4127 -0.0028
 5382SOL     OW27604   1.944   1.597  11.645 -0.2900 -0.0958  0.6692
 5382SOL    HW127605   1.918   1.598  11.553  0.4433 -0.8028  0.4616
 5382SOL    HW227606   2.030   1.555  11.642  0.6382  1.6581  3.2662
 5383SOL     OW27607   3.965   1.322  13.195  0.3338 -0.1201  0.2878
 5383SOL    HW127608   4.044   1.351  13.241  0.6540 -0.6002  0.0324
 5383SOL    HW227609   3.974   1.372  13.114  0.5283  3.2910  2.4130
 5384SOL     OW27610   3.444   4.491  12.554  0.2295 -0.6151 -0.5530
 5384SOL    HW127611   3.365   4.538  12.524 -0.0205 -1.3976 -1.1296
 5384SOL    HW227612   3.404   4.405  12.567 -0.1059 -0.8111 -2.8096
 5385SOL     OW27613   3.834   4.375   2.898 -0.2331 -0.2128  0.1736
 5385SOL    HW127614   3.775   4.411   2.831 -1.7991 -0.3385  1.4640
 5385SOL    HW227615   3.803   4.285   2.902 -2.1002  0.5571  3.2953
 5386SOL     OW27616   2.310   2.765   5.949  0.3317  0.8948 -0.7939
 5386SOL    HW127617   2.236   2.825   5.963 -0.2184  0.1913 -0.7059
 5386SOL    HW227618   2.277   2.733   5.866 -2.3096  0.4844  0.4238
 5387SOL     OW27619   1.791   3.051   2.186  0.0352  0.2215 -0.8902
 5387SOL    HW127620   1.782   2.968   2.138 -0.5905  2.0881 -3.9559
 5387SOL    HW227621   1.886   3.052   2.191 -0.0233  1.4085 -0.1075
 5388SOL     OW27622   1.811   3.234   4.791 -0.7924  0.5715  0.0324
 5388SOL    HW127623   1.843   3.176   4.721  0.9241  1.2332  0.2619
 5388SOL    HW227624   1.836   3.182   4.867 -0.1065  0.7937 -0.0416
 5389SOL     OW27625   2.444   3.524  12.039 -0.5749 -0.0803  0.3840
 5389SOL    HW127626   2.399   3.440  12.033 -0.2785 -0.0458 -2.5435
 5389SOL    HW227627   2.372   3.587  12.037  0.0495  0.5199 -4.5538
 5390SOL     OW27628   3.696   0.015   3.885 -0.5455  0.3567  0.1064
 5390SOL    HW127629   3.605   4.717   3.906 -0.2617 -1.7212 -0.3972
 5390SOL    HW227630   3.728   4.691   3.964  3.0320  2.3044 -0.2240
 5391SOL     OW27631   3.544   4.457   9.911 -0.0800 -0.2095 -0.3006
 5391SOL    HW127632   3.553   4.497   9.824 -1.9665 -1.2311 -0.9683
 5391SOL    HW227633   3.519   4.533   9.963 -0.8199 -1.4111  1.1027
 5392SOL     OW27634   2.021   1.557   5.585  0.1269 -0.1262 -0.0778
 5392SOL    HW127635   1.926   1.548   5.584  0.2846 -1.6638 -0.6389
 5392SOL    HW227636   2.054   1.467   5.584 -1.7787 -0.8455  1.5490
 5393SOL     OW27637   0.638   3.265   5.264 -0.3621 -0.3428  0.2886
 5393SOL    HW127638   0.631   3.193   5.202 -0.6104  1.1511 -1.4209
 5393SOL    HW227639   0.732   3.273   5.279 -0.0151 -0.1886 -2.0042
 5394SOL     OW27640   1.287   1.445   7.491  0.1215 -0.0725 -0.3698
 5394SOL    HW127641   1.289   1.465   7.584 -0.2959 -0.9446 -0.1734
 5394SOL    HW227642   1.288   1.529   7.444 -0.8532 -0.2151 -0.6558
 5395SOL     OW27643   0.202   1.516  10.787  0.6242 -0.2777 -0.0720
 5395SOL    HW127644   0.136   1.491  10.852  0.8184 -1.5601 -0.3654
 5395SOL    HW227645   0.193   1.611  10.796  0.6576 -0.1277 -1.6392
 5396SOL     OW27646   3.184   3.519   4.152 -0.0132 -0.5048  0.9517
 5396SOL    HW127647   3.226   3.433   4.153  1.2878  0.1181  0.1144
 5396SOL    HW227648   3.200   3.549   4.241  1.1621  0.5373  0.4005
 5397SOL     OW27649   3.473   1.695   8.559  0.0218 -0.1711 -0.2199
 5397SOL    HW127650   3.405   1.706   8.626  1.4663 -0.3120  1.2465
 5397SOL    HW227651   3.417   1.704   8.482 -1.9243 -0.1288  1.1782
 5398SOL     OW27652   2.126   3.047   8.878  0.1773  0.9914 -0.2278
 5398SOL    HW127653   2.105   3.018   8.967  0.1338 -1.7020 -1.1158
 5398SOL    HW227654   2.206   3.097   8.892 -0.2901  1.7273 -0.2154
 5399SOL     OW27655   4.368   0.614   6.788 -0.4110 -0.0771 -0.7206
 5399SOL    HW127656   4.390   0.704   6.767  1.5178  0.2400  2.7961
 5399SOL    HW227657   4.413   0.606   6.872 -0.7044  1.6195 -0.3983
 5400SOL     OW27658   1.824   4.544   9.358  0.1270 -0.7393 -0.3709
 5400SOL    HW127659   1.775   4.522   9.437  0.2493  0.4893  0.0467
 5400SOL    HW227660   1.903   4.492   9.370 -0.2273 -1.2732 -0.3441
 5401SOL     OW27661   0.029   0.465   2.925 -0.1774 -0.6968 -0.2634
 5401SOL    HW127662   0.100   0.421   2.877 -1.3628 -1.1775 -1.5600
 5401SOL    HW227663   0.068   0.552   2.934 -0.4625 -0.5242 -0.7030
 5402SOL     OW27664   0.360   4.149   5.110  0.1283 -0.1748  0.5541
 5402SOL    HW127665   0.361   4.183   5.021  0.7425 -1.3009  0.1308
 5402SOL    HW227666   0.366   4.054   5.099 -0.3290 -0.1830  0.3489
 5403SOL     OW27667   0.848   1.498  12.095 -0.0252 -0.2802  0.1981
 5403SOL    HW127668   0.900   1.540  12.026  1.6340  0.5099  1.9084
 5403SOL    HW227669   0.842   1.407  12.065 -0.4445  0.2483 -1.2842
 5404SOL     OW27670   4.191   1.677   9.284 -0.1462 -0.0506 -0.3725
 5404SOL    HW127671   4.277   1.700   9.249 -1.1965  1.5950 -1.8473
 5404SOL    HW227672   4.200   1.594   9.332 -0.9939 -0.3484 -0.7239
 5405SOL     OW27673   3.263   4.533  12.087 -0.5835  0.1786  0.2224
 5405SOL    HW127674   3.315   4.476  12.031 -3.2398 -1.0159 -1.0137
 5405SOL    HW227675   3.282   4.616  12.044  0.5878  0.3769  1.1178
 5406SOL     OW27676   2.598   3.318   7.113  0.0937 -0.3379 -0.2096
 5406SOL    HW127677   2.529   3.254   7.092  0.9148 -0.9957 -0.9028
 5406SOL    HW227678   2.664   3.254   7.136 -0.2108 -1.0467 -1.2902
 5407SOL     OW27679   2.338   1.386  12.777 -0.3523 -0.6998  0.7127
 5407SOL    HW127680   2.270   1.342  12.829  1.2351 -0.7164  2.7728
 5407SOL    HW227681   2.287   1.443  12.719 -1.6150 -1.4770  1.0643
 5408SOL     OW27682   3.012   1.447   6.516 -0.0971  0.4651 -0.1269
 5408SOL    HW127683   3.010   1.392   6.594  1.2360  0.4959 -0.0767
 5408SOL    HW227684   3.027   1.395   6.437 -2.2014 -0.8840  0.3558
 5409SOL     OW27685   2.392   1.592  17.301 -0.1190 -0.1628 -0.1665
 5409SOL    HW127686   2.404   1.673  17.252 -1.2102  0.9684  1.4319
 5409SOL    HW227687   2.439   1.600  17.384  0.4063  0.7574 -0.5561
 5410SOL     OW27688   0.312   2.209   7.816  0.2786 -0.0616  0.5507
 5410SOL    HW127689   0.392   2.260   7.798  0.2922  0.1751  1.2566
 5410SOL    HW227690   0.310   2.141   7.749 -2.5704  0.7225 -0.1727
 5411SOL     OW27691   4.456   0.029   3.572 -0.3432 -0.3814 -0.1358
 5411SOL    HW127692   4.405   0.080   3.509  3.5267  2.6766 -0.7851
 5411SOL    HW227693   4.544   0.049   3.541 -0.1611  1.8236  1.7786
 5412SOL     OW27694   2.702   3.129   6.621 -0.3028  0.4190  0.1812
 5412SOL    HW127695   2.753   3.190   6.675 -0.5355 -0.3310  1.2447
 5412SOL    HW227696   2.718   3.161   6.532 -0.1005 -2.0233 -0.6680
 5413SOL     OW27697   2.022   0.076   9.621  0.2898 -0.4679  0.2539
 5413SOL    HW127698   2.015   0.139   9.693 -2.0100 -1.9788  1.3357
 5413SOL    HW227699   1.931   0.048   9.611 -0.2556  0.9699  1.1365
 5414SOL     OW27700   2.692   3.583   4.400 -0.1085 -0.2629  0.3227
 5414SOL    HW127701   2.785   3.565   4.416 -0.0945  0.1851  0.7664
 5414SOL    HW227702   2.660   3.601   4.489  1.5056  0.9034  0.6620
 5415SOL     OW27703   3.019   2.776   4.859 -0.8928 -0.0197  0.3535
 5415SOL    HW127704   3.059   2.838   4.798  0.8269 -0.1825  1.3484
 5415SOL    HW227705   3.060   2.799   4.942  0.2169 -1.4798  0.2014
 5416SOL     OW27706   3.249   4.416   5.780  0.3961  0.1981 -0.0320
 5416SOL    HW127707   3.239   4.362   5.858  1.3977 -0.3303 -0.2762
 5416SOL    HW227708   3.161   4.452   5.766 -0.1843 -0.3869  2.0645
 5417SOL     OW27709   2.343   4.331  17.640  0.2414  0.0627 -0.3530
 5417SOL    HW127710   2.328   4.358   0.050  1.4522 -1.8504  0.4224
 5417SOL    HW227711   2.427   4.372  17.620 -0.2452  0.0523 -2.4204
 5418SOL     OW27712   3.313   1.694   8.758 -0.0333 -0.8176 -0.7053
 5418SOL    HW127713   3.293   1.646   8.838 -0.5326  0.2389 -0.1849
 5418SOL    HW227714   3.347   1.770   8.805 -1.9690 -0.6239  0.3639
 5419SOL     OW27715   1.997   1.755   9.168  0.5758 -0.2248  0.6986
 5419SOL    HW127716   1.966   1.684   9.225 -1.9902 -0.7255 -1.2909
 5419SOL    HW227717   1.952   1.828   9.211 -1.0806 -0.4757 -0.6137
 5420SOL     OW27718   3.992   3.104   8.648 -0.5418 -0.2180 -0.3470
 5420SOL    HW127719   3.967   3.127   8.737 -0.4877  1.5633 -0.8094
 5420SOL    HW227720   3.992   3.009   8.660 -3.8267 -0.1898 -0.2433
 5421SOL     OW27721   3.741   1.701   8.732 -0.2371  0.1098 -0.3872
 5421SOL    HW127722   3.697   1.672   8.812  1.1319  0.2310  0.4082
 5421SOL    HW227723   3.667   1.750   8.696  0.0633  1.4558  0.8232
 5422SOL     OW27724   2.633   1.704   2.219 -0.2265  0.3612  0.0293
 5422SOL    HW127725   2.646   1.620   2.175  3.2011  0.8325  0.1381
 5422SOL    HW227726   2.575   1.676   2.289 -1.5703 -0.7986 -1.5650
 5423SOL     OW27727   2.744   1.013  17.536  0.1909 -0.3895  0.3723
 5423SOL    HW127728   2.679   1.018  17.606 -0.0368 -0.7376  0.1811
 5423SOL    HW227729   2.795   1.094  17.544 -0.5821 -0.0320  1.8068
 5424SOL     OW27730   2.190   2.490   2.858  0.0816  0.4004 -0.2724
 5424SOL    HW127731   2.261   2.519   2.801  1.5642 -0.5654  1.1289
 5424SOL    HW227732   2.126   2.552   2.821 -1.4044 -0.8260  0.2398
 5425SOL     OW27733   3.948   0.534   7.877 -0.5440 -0.0062  0.1922
 5425SOL    HW127734   3.896   0.493   7.808 -0.9607 -0.9187  1.0579
 5425SOL    HW227735   4.005   0.458   7.886  0.0972  0.0666 -3.0620
 5426SOL     OW27736   0.762   3.672   7.015  0.1753  0.0276 -0.2319
 5426SOL    HW127737   0.855   3.691   7.003  0.0747  0.8005  0.1947
 5426SOL    HW227738   0.721   3.692   6.931 -1.9948 -1.2192  0.5389
 5427SOL     OW27739   0.439   0.216   4.751  0.1564 -0.1383  0.5615
 5427SOL    HW127740   0.503   0.286   4.764  0.5528 -0.3512 -0.2414
 5427SOL    HW227741   0.420   0.186   4.840 -0.8758 -4.0143 -0.9743
 5428SOL     OW27742   2.521   2.625   7.125  0.1474 -0.1218  0.0731
 5428SOL    HW127743   2.431   2.654   7.137  0.0478  0.6291 -2.3134
 5428SOL    HW227744   2.521   2.531   7.141 -1.2537  0.3755  2.8699
 5429SOL     OW27745   2.037   4.432   3.066  0.3581 -0.8742  0.1005
 5429SOL    HW127746   1.994   4.517   3.076  0.5953 -0.5383 -1.7430
 5429SOL    HW227747   1.961   4.381   3.038 -0.5747 -0.1253  1.2723
 5430SOL     OW27748   3.248   0.812  13.936  0.5546  0.2033 -0.4088
 5430SOL    HW127749   3.195   0.737  13.965 -0.2146  0.1269 -1.9793
 5430SOL    HW227750   3.212   0.808  13.847 -1.5230 -1.2003  0.4702
 5431SOL     OW27751   4.060   3.647   4.448  0.9594  0.2388  0.0486
 5431SOL    HW127752   4.070   3.641   4.543  2.8765 -1.0558 -0.2305
 5431SOL    HW227753   3.983   3.699   4.428  0.2515 -1.7769 -2.4761
 5432SOL     OW27754   2.134   1.186  12.837 -0.3618  0.8239 -0.0656
 5432SOL    HW127755   2.086   1.104  12.851 -0.8385  1.0693 -0.2358
 5432SOL    HW227756   2.216   1.143  12.815  0.1470  1.0520  1.3671
 5433SOL     OW27757   0.624   0.831   6.931 -0.3665  0.3846 -0.0338
 5433SOL    HW127758   0.604   0.906   6.986  0.9504 -0.0694  1.0505
 5433SOL    HW227759   0.629   0.757   6.991  1.0364 -0.7971 -1.6068
 5434SOL     OW27760   0.563   1.950   8.239 -0.2612  0.3085  0.7258
 5434SOL    HW127761   0.543   2.015   8.171 -0.0014 -0.0825  0.2776
 5434SOL    HW227762   0.484   1.959   8.291 -1.8560 -0.6981 -1.5062
 5435SOL     OW27763   0.760   1.621   3.967  0.2471 -0.2028  0.5030
 5435SOL    HW127764   0.758   1.672   3.886  1.5436 -0.0621  0.5520
 5435SOL    HW227765   0.672   1.645   3.996  0.2428  1.8808 -1.2881
 5436SOL     OW27766   0.417   0.311   2.224  0.6795  0.4933  0.2934
 5436SOL    HW127767   0.502   0.286   2.260  0.2326 -2.1075 -0.5210
 5436SOL    HW227768   0.363   0.249   2.273  1.0432 -0.4113 -0.4550
 5437SOL     OW27769   4.446   1.798   0.728  0.2872  0.5629 -0.1714
 5437SOL    HW127770   4.362   1.843   0.736  1.3805  2.1987  2.3929
 5437SOL    HW227771   4.500   1.876   0.744  2.5990 -0.7986 -1.4198
 5438SOL     OW27772   2.804   2.757   1.376 -0.2106  0.6291  0.1773
 5438SOL    HW127773   2.872   2.689   1.379 -1.0268 -0.1125  1.6520
 5438SOL    HW227774   2.845   2.817   1.438  0.3228  2.2277 -1.7351
 5439SOL     OW27775   0.560   3.143   7.619 -0.3731 -0.3313 -0.4305
 5439SOL    HW127776   0.466   3.150   7.606 -0.8071  0.1754  3.1682
 5439SOL    HW227777   0.597   3.202   7.553  0.9588 -2.0950 -1.2818
 5440SOL     OW27778   3.929   3.579   8.698 -0.1533 -0.6039  0.0530
 5440SOL    HW127779   3.953   3.514   8.764 -0.4000  0.0107  0.7505
 5440SOL    HW227780   4.007   3.634   8.695 -1.0281  0.7155  1.5169
 5441SOL     OW27781   1.790   2.851  10.709  0.3405 -0.1309 -0.0131
 5441SOL    HW127782   1.820   2.897  10.787  3.5342 -0.3781 -1.0984
 5441SOL    HW227783   1.773   2.761  10.736 -0.6313 -0.3628 -1.4031
 5442SOL     OW27784   2.650   1.468   8.644 -0.2345  0.3900  0.5006
 5442SOL    HW127785   2.648   1.447   8.550  0.0437  0.5781  0.4525
 5442SOL    HW227786   2.679   1.382   8.675  1.1108 -0.1273 -2.1435
 5443SOL     OW27787   1.949   0.209   8.481  0.2637  0.0828 -0.2698
 5443SOL    HW127788   1.931   0.131   8.534  1.0055 -0.1374 -0.3297
 5443SOL    HW227789   1.933   0.166   8.396  1.4937 -1.0035  0.0297
 5444SOL     OW27790   2.153   1.448   3.848  0.4320  0.6028  0.6700
 5444SOL    HW127791   2.067   1.481   3.823  1.5418  2.4578 -0.7570
 5444SOL    HW227792   2.158   1.386   3.775  0.3646  1.5209 -0.1269
 5445SOL     OW27793   2.283   4.672  10.917  0.1697 -0.5066  0.2426
 5445SOL    HW127794   2.235   4.659  10.998  1.2215 -3.4714  0.3889
 5445SOL    HW227795   2.281   4.587  10.872  0.5617  1.0409 -2.7458
 5446SOL     OW27796   2.752   4.586   2.741 -0.4078 -0.0071 -0.1524
 5446SOL    HW127797   2.719   4.625   2.661 -0.7300  0.0439  0.0079
 5446SOL    HW227798   2.847   4.590   2.728 -0.6499  0.6822 -1.6118
 5447SOL     OW27799   4.600   1.271   5.255 -0.2760  0.4883 -0.4741
 5447SOL    HW127800   4.641   1.287   5.340 -2.0680 -1.2302  0.7011
 5447SOL    HW227801   4.523   1.218   5.277 -0.6103  0.7946 -0.9080
 5448SOL     OW27802   2.759   0.554   1.979 -0.2919  0.2797  0.0435
 5448SOL    HW127803   2.719   0.471   1.952  1.1930 -1.2892  2.6514
 5448SOL    HW227804   2.686   0.576   2.037  0.5230 -1.4569  1.7024
 5449SOL     OW27805   3.657   2.808   6.402 -0.1078 -0.4061 -0.4917
 5449SOL    HW127806   3.589   2.742   6.416 -0.5124  0.7052  2.8928
 5449SOL    HW227807   3.621   2.873   6.463  1.0850 -0.7064  0.5396
 5450SOL     OW27808   0.119   2.388   4.424  0.2451  0.4357 -0.1954
 5450SOL    HW127809   0.146   2.304   4.388  2.4173  0.5681  1.0756
 5450SOL    HW227810   0.106   2.435   4.342 -0.1024 -0.3424 -0.5741
 5451SOL     OW27811   2.916   3.434  11.420  0.2220 -0.1845 -0.3961
 5451SOL    HW127812   2.868   3.485  11.485  1.7312 -0.1989  0.7152
 5451SOL    HW227813   2.984   3.387  11.467  0.3280  0.0775 -0.2872
 5452SOL     OW27814   1.024   1.070   8.384 -0.0816  0.6724 -0.0898
 5452SOL    HW127815   1.016   1.044   8.476 -0.7817  0.9233 -0.0828
 5452SOL    HW227816   0.936   1.102   8.369 -0.4782 -0.5579 -0.3846
 5453SOL     OW27817   3.621   1.970  10.681 -0.5233 -0.4344  0.5349
 5453SOL    HW127818   3.615   1.922  10.599 -1.0153 -0.5622  0.6433
 5453SOL    HW227819   3.581   2.051  10.651 -2.8241 -1.2564  1.3686
 5454SOL     OW27820   3.370   3.782  12.778  0.4087 -0.0769  0.6049
 5454SOL    HW127821   3.392   3.766  12.686  0.0438  0.0077  0.5014
 5454SOL    HW227822   3.291   3.826  12.746  2.3646  1.0795 -2.6944
 5455SOL     OW27823   1.664   2.592   6.924  0.5934 -0.3828  0.2267
 5455SOL    HW127824   1.594   2.534   6.954 -0.7388  0.4825 -1.2529
 5455SOL    HW227825   1.616   2.654   6.869  1.2431  0.2187  0.3359
 5456SOL     OW27826   4.325   2.408   6.711  0.5557  0.3733  0.1969
 5456SOL    HW127827   4.319   2.337   6.647 -0.5688  1.0203 -0.4092
 5456SOL    HW227828   4.353   2.351   6.782  1.0935  1.0506  0.5327
 5457SOL     OW27829   2.868   1.262   7.929 -0.4425 -0.1371  0.1382
 5457SOL    HW127830   2.930   1.196   7.900  1.2587  0.9146  1.3868
 5457SOL    HW227831   2.807   1.260   7.855 -0.1824  2.8935 -0.1393
 5458SOL     OW27832   0.580   2.964  12.161  0.3408 -0.2757  0.0245
 5458SOL    HW127833   0.524   2.889  12.181 -1.1363  0.5897 -0.8445
 5458SOL    HW227834   0.522   3.003  12.095 -1.9569 -2.2804  0.8281
 5459SOL     OW27835   2.426   0.946   3.428 -0.0283  0.8689  0.0392
 5459SOL    HW127836   2.351   0.989   3.388  0.7124  0.0791 -2.2125
 5459SOL    HW227837   2.432   0.998   3.508 -0.6601 -0.0889  0.7176
 5460SOL     OW27838   1.451   2.773   3.939 -0.0219 -0.0371  0.3417
 5460SOL    HW127839   1.492   2.839   3.884 -0.4498 -0.1754 -0.1500
 5460SOL    HW227840   1.366   2.772   3.896  0.4155 -1.2043 -0.5048
 5461SOL     OW27841   2.409   0.036  14.170  0.0194 -0.3881  0.0009
 5461SOL    HW127842   2.427   4.682  14.229  1.1177  0.2325  0.4332
 5461SOL    HW227843   2.448   4.710  14.095 -0.6900  1.5636 -1.5545
 5462SOL     OW27844   1.718   0.155   6.910  0.0271  0.0620  0.7378
 5462SOL    HW127845   1.793   0.188   6.859  0.8414 -0.9656  1.2687
 5462SOL    HW227846   1.742   0.215   6.981 -1.7242 -0.6751  1.9591
 5463SOL     OW27847   1.246   2.406   9.511 -0.1652  0.3094 -0.1166
 5463SOL    HW127848   1.337   2.432   9.503 -0.0232 -0.4302 -0.9330
 5463SOL    HW227849   1.252   2.345   9.585 -0.7001 -0.2504 -0.5235
 5464SOL     OW27850   3.563   4.451  13.834 -0.1481  1.0265  0.3504
 5464SOL    HW127851   3.588   4.442  13.926 -0.0959  1.9824  0.4288
 5464SOL    HW227852   3.619   4.522  13.802  1.8603 -0.7602 -0.0991
 5465SOL     OW27853   3.997   1.936   8.920  0.3437  0.4374 -0.0183
 5465SOL    HW127854   3.992   1.939   9.015 -1.4649  0.0706 -0.1016
 5465SOL    HW227855   4.072   1.877   8.915 -0.5874 -0.6020 -2.0353
 5466SOL     OW27856   0.545   2.301   2.358 -0.0823 -0.1837 -0.0189
 5466SOL    HW127857   0.555   2.390   2.390 -0.5799 -0.7877  1.8880
 5466SOL    HW227858   0.452   2.282   2.371  0.3129 -1.8274  0.4704
 5467SOL     OW27859   1.253   4.367  17.466  0.0490 -0.3837  0.3730
 5467SOL    HW127860   1.338   4.404  17.444  0.9416 -2.1526  0.7680
 5467SOL    HW227861   1.234   4.408  17.550 -0.8267  0.5446 -0.2783
 5468SOL     OW27862   2.577   2.077   2.200 -0.3698  0.1219  0.4514
 5468SOL    HW127863   2.563   2.166   2.231  0.4244  0.7893 -1.1118
 5468SOL    HW227864   2.502   2.035   2.242 -0.2195  0.1642  0.7643
 5469SOL     OW27865   2.648   1.966   9.028  0.5046 -0.1092 -0.5020
 5469SOL    HW127866   2.643   2.050   9.073  0.8916  0.0721 -0.7992
 5469SOL    HW227867   2.673   1.911   9.102  0.8464  1.8520  0.8471
 5470SOL     OW27868   4.317   0.205   7.662  0.6573 -0.4291  0.2506
 5470SOL    HW127869   4.363   0.245   7.736  0.9090  0.2832 -0.2956
 5470SOL    HW227870   4.276   0.128   7.702  0.8115 -0.1896  0.8695
 5471SOL     OW27871   0.892   4.072   2.854  0.4636 -0.0361  0.2816
 5471SOL    HW127872   0.968   4.021   2.827  0.2632  0.1260 -0.5887
 5471SOL    HW227873   0.880   4.117   2.770 -0.9761  0.0326  0.5138
 5472SOL     OW27874   2.098   3.005   3.165 -0.3980  0.4474  0.2132
 5472SOL    HW127875   2.022   2.949   3.151 -0.8108  2.0519 -3.7088
 5472SOL    HW227876   2.058   3.089   3.184  1.4389  1.1130  1.2034
 5473SOL     OW27877   4.627   1.827   5.027 -0.1674 -0.1741 -0.1698
 5473SOL    HW127878   4.612   1.752   4.969  0.7263 -0.1326 -0.4585
 5473SOL    HW227879   4.550   1.876   4.998  1.0546  0.0795 -3.0578
 5474SOL     OW27880   2.806   2.494  10.081 -0.8645  0.3848  0.4354
 5474SOL    HW127881   2.828   2.426  10.017 -0.4233 -1.0119  2.0933
 5474SOL    HW227882   2.780   2.572  10.031 -1.1044  0.2906  0.4155
 5475SOL     OW27883   0.466   4.440   9.597 -0.3586  0.0289  0.5342
 5475SOL    HW127884   0.382   4.462   9.557 -0.1938  0.7325  0.5746
 5475SOL    HW227885   0.444   4.424   9.689  0.7345 -0.4232  0.7268
 5476SOL     OW27886   3.248   0.489   7.042 -0.1585 -0.6077  0.4027
 5476SOL    HW127887   3.274   0.506   7.132 -0.4861 -1.3601  0.6363
 5476SOL    HW227888   3.176   0.430   7.065  0.2932 -0.3685  2.4506
 5477SOL     OW27889   0.578   2.637   8.620 -0.3077  0.3901 -0.2563
 5477SOL    HW127890   0.501   2.682   8.655 -0.8449  0.3858 -1.4367
 5477SOL    HW227891   0.566   2.557   8.672 -0.7055 -0.2951 -1.4019
 5478SOL     OW27892   3.760   0.421   3.266  0.0436 -0.6535  0.4898
 5478SOL    HW127893   3.724   0.424   3.177 -0.9515  1.5522  0.9672
 5478SOL    HW227894   3.803   0.336   3.266  2.8873  0.8143  1.1244
 5479SOL     OW27895   2.896   3.278   5.410 -0.0802  0.2095 -0.3820
 5479SOL    HW127896   2.981   3.241   5.434 -1.3347 -2.3306  0.2271
 5479SOL    HW227897   2.906   3.289   5.316  0.2949  2.9320 -0.0121
 5480SOL     OW27898   0.568   2.839   3.392 -0.4105  0.1990  0.3236
 5480SOL    HW127899   0.538   2.866   3.306 -1.2058  0.3891  0.6632
 5480SOL    HW227900   0.544   2.746   3.384 -2.3540  0.7085  0.2682
 5481SOL     OW27901   4.454   1.106   6.861  0.5660 -0.3343 -0.4300
 5481SOL    HW127902   4.527   1.045   6.848 -1.5274 -3.0702  0.6625
 5481SOL    HW227903   4.466   1.159   6.782  0.9858 -0.9257 -0.7647
 5482SOL     OW27904   0.445   3.177   0.067  0.3294 -0.7206  0.2384
 5482SOL    HW127905   0.395   3.226   0.002  1.3726 -0.1608 -0.1302
 5482SOL    HW227906   0.534   3.178   0.033 -0.3850  0.9294 -1.5830
 5483SOL     OW27907   4.551   3.204   5.324 -0.0891  0.4027 -0.6580
 5483SOL    HW127908   4.557   3.124   5.376 -1.2133 -0.1182 -1.3231
 5483SOL    HW227909   4.638   3.237   5.347 -0.4435  0.7665  0.1625
 5484SOL     OW27910   3.739   0.851   5.074  0.7621  0.0177  0.1498
 5484SOL    HW127911   3.691   0.775   5.107  1.0066 -0.3920 -0.4372
 5484SOL    HW227912   3.787   0.800   5.008 -0.7905 -1.9755  0.5720
 5485SOL     OW27913   4.713   1.422  10.934 -0.2475  1.1305 -0.8074
 5485SOL    HW127914   4.686   1.341  10.977  0.3897  1.4223  0.1329
 5485SOL    HW227915   4.635   1.476  10.930  0.3890  1.9570 -2.1022
 5486SOL     OW27916   2.165   3.351   7.427  0.0345 -0.2280 -0.2556
 5486SOL    HW127917   2.130   3.265   7.449 -0.7046  0.1276 -0.0488
 5486SOL    HW227918   2.184   3.331   7.335 -0.3952 -0.7005 -0.2423
 5487SOL     OW27919   3.532   3.892   2.593 -0.3572 -0.2739  0.3044
 5487SOL    HW127920   3.520   3.820   2.531 -1.5382 -0.1181  0.3530
 5487SOL    HW227921   3.450   3.938   2.576 -0.0577 -0.8381 -2.6668
 5488SOL     OW27922   4.200   0.763  11.631 -0.1561 -0.6701 -0.0836
 5488SOL    HW127923   4.209   0.796  11.542  2.7752 -2.2237 -0.3816
 5488SOL    HW227924   4.260   0.689  11.621  1.2908  0.4181  0.6504
 5489SOL     OW27925   1.054   2.446   7.322  0.1925  0.6008 -0.2404
 5489SOL    HW127926   1.100   2.474   7.243 -3.2896  0.6240 -2.2817
 5489SOL    HW227927   0.986   2.386   7.292  1.5414 -0.4139 -1.2498
 5490SOL     OW27928   3.740   3.461   1.001  0.1550  0.1271  0.6782
 5490SOL    HW127929   3.781   3.546   0.982 -0.1164  0.4131  1.3678
 5490SOL    HW227930   3.759   3.418   0.918 -1.0617 -0.4220  0.6953
 5491SOL     OW27931   1.949   3.563  13.789 -0.0129 -0.5223 -0.1274
 5491SOL    HW127932   2.032   3.610  13.800  0.3105 -0.7345 -1.6320
 5491SOL    HW227933   1.891   3.611  13.848  0.8775 -1.1307  1.2371
 5492SOL     OW27934   2.383   3.800   8.251  0.6174 -0.5719 -0.2804
 5492SOL    HW127935   2.302   3.775   8.207 -0.7777  0.6438  1.6141
 5492SOL    HW227936   2.406   3.715   8.289 -0.0839 -0.2078  0.9663
 5493SOL     OW27937   0.224   0.235   2.455 -0.7565  0.3250 -0.4041
 5493SOL    HW127938   0.129   0.247   2.456 -0.4903  2.4486  0.0567
 5493SOL    HW227939   0.228   0.163   2.393 -0.0830 -0.1698  0.2113
 5494SOL     OW27940   3.605   0.781   6.069 -0.1840  0.1932  0.8350
 5494SOL    HW127941   3.581   0.842   6.000 -0.1811 -2.8430 -1.8370
 5494SOL    HW227942   3.699   0.794   6.083 -0.0086  0.2465 -0.4510
 5495SOL     OW27943   0.085   2.077   2.910 -0.3713 -0.2464 -0.2172
 5495SOL    HW127944   4.715   2.072   2.877 -0.0869  0.5253 -1.0993
 5495SOL    HW227945   0.124   2.146   2.856 -3.2098  1.6535  0.1770
 5496SOL     OW27946   4.004   1.007   8.713  0.1319 -0.4800 -0.1615
 5496SOL    HW127947   4.033   1.062   8.640  3.1519 -0.7734  0.8287
 5496SOL    HW227948   3.911   1.030   8.722  0.4062  1.5470 -2.4891
 5497SOL     OW27949   0.430   0.564   6.268  0.3183  0.2074  0.3925
 5497SOL    HW127950   0.360   0.499   6.262  0.3501  0.0477  1.8768
 5497SOL    HW227951   0.428   0.598   6.357 -2.5340  0.9779  0.0206
 5498SOL     OW27952   1.047   2.349   0.951 -0.1962 -0.0364 -0.0376
 5498SOL    HW127953   1.106   2.322   0.881  1.3166  1.2099  0.7582
 5498SOL    HW227954   1.003   2.266   0.969  2.6131 -1.4751  0.3113
 5499SOL     OW27955   0.235   0.255   6.490  0.0244  0.1130  0.5812
 5499SOL    HW127956   0.168   0.218   6.549 -2.5925  0.3427 -2.2596
 5499SOL    HW227957   0.307   0.194   6.506  0.4780  0.8015  1.1424
 5500SOL     OW27958   0.852   2.836   8.676  0.5764 -0.8996 -0.4765
 5500SOL    HW127959   0.773   2.809   8.631 -0.8788  0.4948  1.2354
 5500SOL    HW227960   0.924   2.792   8.632 -0.3570 -3.2569  0.3711
 5501SOL     OW27961   2.675   3.539  10.280  0.4005  0.3545  0.4046
 5501SOL    HW127962   2.630   3.514  10.199 -2.1913  0.0729  1.9206
 5501SOL    HW227963   2.764   3.507  10.266  0.7707 -0.0352  3.6232
 5502SOL     OW27964   2.421   4.663   0.870 -0.0435  0.4683 -0.3934
 5502SOL    HW127965   2.455   0.018   0.821  3.9634 -1.6539 -0.8316
 5502SOL    HW227966   2.494   4.643   0.928  0.1764 -0.0349 -0.8334
 5503SOL     OW27967   3.196   0.935  10.676 -0.0996  0.5580 -0.6407
 5503SOL    HW127968   3.144   0.972  10.604  1.9875 -0.2813 -2.5578
 5503SOL    HW227969   3.290   0.940  10.659 -0.0891  0.9870 -0.4383
 5504SOL     OW27970   0.507   3.219   4.543  0.4051 -0.4111  0.4562
 5504SOL    HW127971   0.500   3.163   4.466  1.4682  1.4152 -0.9636
 5504SOL    HW227972   0.526   3.152   4.609  1.0265 -1.9318 -1.2572
 5505SOL     OW27973   0.936   3.135   7.617 -0.1616  0.4237 -0.0033
 5505SOL    HW127974   0.872   3.065   7.603 -0.5027  0.9789 -1.2510
 5505SOL    HW227975   0.881   3.214   7.624  2.4397  2.2535 -0.4404
 5506SOL     OW27976   3.557   1.702   7.835  0.3632  0.1859  0.2103
 5506SOL    HW127977   3.539   1.635   7.901 -1.6553  0.8343  0.3237
 5506SOL    HW227978   3.603   1.645   7.773 -0.3209  0.0120 -0.1390
 5507SOL     OW27979   1.080   0.264   8.168  0.0679  0.6846 -0.2232
 5507SOL    HW127980   1.099   0.322   8.242  0.5799 -0.0558  0.2209
 5507SOL    HW227981   1.043   0.192   8.219 -1.8413  0.7577 -1.5121
 5508SOL     OW27982   3.512   0.421   0.896 -0.0064 -0.1968  0.2026
 5508SOL    HW127983   3.480   0.345   0.848  1.6518 -1.4981  1.1238
 5508SOL    HW227984   3.563   0.390   0.971 -1.0221 -2.5875 -0.1147
 5509SOL     OW27985   1.932   0.163   3.064 -0.3796 -0.3723 -0.0395
 5509SOL    HW127986   1.921   0.198   2.975  2.7830 -0.5809 -0.4915
 5509SOL    HW227987   2.027   0.157   3.062 -0.3853 -0.7015  0.7988
 5510SOL     OW27988   3.055   1.744  11.973 -0.1025  0.4787 -0.0979
 5510SOL    HW127989   3.017   1.831  11.960 -0.2960  0.3199 -0.6023
 5510SOL    HW227990   3.115   1.747  11.899  2.4226  0.2375  1.9747
 5511SOL     OW27991   3.007   2.226   2.121  0.2352  0.5465 -0.0532
 5511SOL    HW127992   2.948   2.272   2.180  1.3185  1.0761  0.6333
 5511SOL    HW227993   2.959   2.144   2.105  1.0465 -0.0474  0.5159
 5512SOL     OW27994   3.935   2.992   7.037  0.7601 -0.1217  0.3272
 5512SOL    HW127995   4.008   2.934   7.014  0.5662 -0.6257  0.9769
 5512SOL    HW227996   3.875   2.920   7.057  1.3000 -1.3731 -2.4800
 5513SOL     OW27997   1.166   1.007   3.450  0.1217  0.4762 -0.5958
 5513SOL    HW127998   1.079   1.011   3.411  0.8067 -3.0200 -2.4018
 5513SOL    HW227999   1.162   0.924   3.498 -0.5416  1.8027  1.6603
 5514SOL     OW28000   1.307   3.998  12.436  0.5622  0.1872 -0.5552
 5514SOL    HW128001   1.394   4.037  12.422  0.4684  0.8587  0.7469
 5514SOL    HW228002   1.255   4.054  12.378 -1.1999 -1.2312 -0.3505
 5515SOL     OW28003   3.220   0.979   4.438  0.5940 -0.3467 -0.1340
 5515SOL    HW128004   3.308   0.944   4.428  0.0645 -1.4730 -0.8496
 5515SOL    HW228005   3.175   0.920   4.378  1.5309 -2.8783  1.6632
 5516SOL     OW28006   2.530   0.414   2.387  0.1584 -0.1276  0.7796
 5516SOL    HW128007   2.439   0.419   2.359  0.4562 -0.6027 -0.2769
 5516SOL    HW228008   2.524   0.335   2.442  0.4944 -0.3637  0.4772
 5517SOL     OW28009   2.140   2.732   3.661 -0.1672  0.3664  0.5379
 5517SOL    HW128010   2.226   2.755   3.628 -0.2771 -0.0557 -0.0444
 5517SOL    HW228011   2.115   2.676   3.587 -1.1377  0.0437  1.0955
 5518SOL     OW28012   1.274   0.499  12.775  0.3920 -0.3829  0.1932
 5518SOL    HW128013   1.290   0.593  12.773 -1.0845 -0.1210  0.5646
 5518SOL    HW228014   1.273   0.473  12.867  2.5355  2.3921  0.9896
 5519SOL     OW28015   4.178   2.425   1.264  0.5016 -0.4909 -0.4799
 5519SOL    HW128016   4.089   2.427   1.229  0.2728  1.5790  0.2324
 5519SOL    HW228017   4.152   2.446   1.354 -2.7838 -1.3997 -1.2238
 5520SOL     OW28018   1.622   2.317   3.876 -0.5181  0.4842 -0.2569
 5520SOL    HW128019   1.605   2.264   3.953 -0.7215  1.0424  0.0800
 5520SOL    HW228020   1.675   2.390   3.907 -0.2839  0.2517 -0.1120
 5521SOL     OW28021   1.430   4.373   9.227  0.0064  0.3575  0.5775
 5521SOL    HW128022   1.441   4.401   9.136 -1.0449  2.1567  1.0010
 5521SOL    HW228023   1.514   4.333   9.247 -0.2280 -1.8501 -2.7444
 5522SOL     OW28024   3.452   4.437  14.978  0.5154 -0.9994 -0.7622
 5522SOL    HW128025   3.406   4.384  15.043  0.8390  0.8241  0.9681
 5522SOL    HW228026   3.388   4.490  14.930 -1.3205 -1.1866  1.4891
 5523SOL     OW28027   1.452   2.437  14.112 -0.0229 -0.1766 -0.4105
 5523SOL    HW128028   1.519   2.477  14.169 -0.8302  2.0250 -1.0019
 5523SOL    HW228029   1.508   2.369  14.074 -1.0098  0.2241 -2.5673
 5524SOL     OW28030   4.279   2.696   2.661 -0.2822  0.1340  0.1231
 5524SOL    HW128031   4.229   2.776   2.679 -4.1834 -2.4937  0.7726
 5524SOL    HW228032   4.366   2.730   2.640 -0.6718  1.4088  0.5366
 5525SOL     OW28033   3.126   2.241   6.488  0.4427  0.1447  0.3168
 5525SOL    HW128034   3.216   2.215   6.466  0.9582  1.2256  1.1270
 5525SOL    HW228035   3.128   2.325   6.443 -0.0259  0.0125  0.0492
 5526SOL     OW28036   3.953   3.147   0.999  0.9568  0.3690 -0.6643
 5526SOL    HW128037   3.948   3.200   0.920  1.6528  1.2438 -0.1382
 5526SOL    HW228038   3.923   3.213   1.062  3.6072  1.1981 -0.2366
 5527SOL     OW28039   4.092   3.135   1.404 -0.1806  0.1701  0.2403
 5527SOL    HW128040   4.022   3.087   1.360 -0.3801  1.3306 -0.6720
 5527SOL    HW228041   4.115   3.069   1.470 -0.5027  0.6249  0.8012
 5528SOL     OW28042   0.544   2.492  11.116 -0.0129  0.8663 -0.1444
 5528SOL    HW128043   0.620   2.549  11.110 -1.0608  2.7532  4.8269
 5528SOL    HW228044   0.484   2.562  11.139 -0.3794 -0.0733  1.8004
 5529SOL     OW28045   4.407   0.724   7.943 -0.7796  0.7383 -0.4136
 5529SOL    HW128046   4.368   0.715   7.857 -2.2293 -0.2848  0.3485
 5529SOL    HW228047   4.396   0.636   7.979 -0.4965  0.6846 -0.4581
 5530SOL     OW28048   1.641   4.301   4.251  0.4970  0.2339  0.0366
 5530SOL    HW128049   1.649   4.391   4.219  0.2715  1.3058  2.9743
 5530SOL    HW228050   1.661   4.320   4.343 -0.6264  3.1546 -0.3276
 5531SOL     OW28051   4.387   1.295   4.648  0.2349 -0.1577  0.2358
 5531SOL    HW128052   4.316   1.269   4.590 -0.3705  1.3412  0.3013
 5531SOL    HW228053   4.366   1.388   4.650  0.1177 -0.2252  1.6444
 5532SOL     OW28054   2.119   3.798   3.584  0.4340 -0.1906  0.4040
 5532SOL    HW128055   2.214   3.792   3.572  0.3438 -1.4565  0.3270
 5532SOL    HW228056   2.110   3.894   3.579  1.7024 -0.1399 -0.9282
 5533SOL     OW28057   1.473   2.717   0.663  0.0457  0.2515  0.7577
 5533SOL    HW128058   1.482   2.789   0.725 -1.9458  1.4354 -0.3609
 5533SOL    HW228059   1.514   2.757   0.587  0.3483 -1.8932 -0.2049
 5534SOL     OW28060   3.834   1.875  17.679 -0.3041  0.2958  0.3610
 5534SOL    HW128061   3.812   1.782  17.669  0.2242  0.2021  0.1184
 5534SOL    HW228062   3.855   1.899  17.589  1.2009 -1.8763  0.1343
 5535SOL     OW28063   0.771   2.790   1.961  0.0608 -0.0899 -0.0630
 5535SOL    HW128064   0.776   2.711   1.907  1.6781  0.4020 -0.6384
 5535SOL    HW228065   0.854   2.836   1.947 -0.4188  0.0105 -2.5606
 5536SOL     OW28066   2.735   2.838  14.225  0.1685  0.1263 -0.1585
 5536SOL    HW128067   2.757   2.878  14.309 -1.4030 -1.2689  0.9270
 5536SOL    HW228068   2.804   2.771  14.216 -0.5368 -0.6418  0.1911
 5537SOL     OW28069   0.683   2.529   7.258 -0.0181  0.0128 -0.2939
 5537SOL    HW128070   0.732   2.476   7.196 -1.0447  0.4445 -1.4640
 5537SOL    HW228071   0.649   2.473   7.328 -2.2939 -0.3601 -1.7042
 5538SOL     OW28072   0.110   4.518   8.354  0.4296  0.0499 -0.5438
 5538SOL    HW128073   0.124   4.489   8.444  0.6158  1.6581 -0.0678
 5538SOL    HW228074   0.150   4.604   8.354  0.9212 -0.1813  0.0634
 5539SOL     OW28075   3.406   0.080  17.033  0.6454 -0.1734 -0.5185
 5539SOL    HW128076   3.448   0.166  17.034  1.7639 -0.7315  0.7312
 5539SOL    HW228077   3.483   0.025  17.018  0.3425 -1.7563  3.8511
 5540SOL     OW28078   0.879   0.871   4.918  0.3485  0.5177 -0.1857
 5540SOL    HW128079   0.832   0.951   4.894  0.1540  0.0804 -1.2430
 5540SOL    HW228080   0.970   0.901   4.910  0.4828 -0.0734 -0.8698
 5541SOL     OW28081   2.494   4.450   6.894  0.3394  0.0014  0.9630
 5541SOL    HW128082   2.558   4.436   6.964  0.4933  0.0019  0.8217
 5541SOL    HW228083   2.470   4.360   6.872  0.9581 -0.8243  3.6656
 5542SOL     OW28084   4.688   3.936   6.016 -0.5039  0.2646  0.8568
 5542SOL    HW128085   4.647   3.957   5.932  1.3840  0.3267 -0.0509
 5542SOL    HW228086   0.051   3.895   5.993 -0.8545 -0.9908  1.8477
 5543SOL     OW28087   4.348   2.290   8.082  0.2216 -0.1176 -0.1985
 5543SOL    HW128088   4.263   2.332   8.086  1.2897  1.6461  4.1760
 5543SOL    HW228089   4.400   2.360   8.044  1.0858  0.8425  2.7517
 5544SOL     OW28090   3.819   0.729   7.663  0.5739  0.4418  0.4615
 5544SOL    HW128091   3.872   0.664   7.618  1.0296  1.3579 -0.3259
 5544SOL    HW228092   3.814   0.802   7.601 -0.4780 -0.8009 -0.9211
 5545SOL     OW28093   2.364   0.863   4.934 -0.1638  0.1388  0.0101
 5545SOL    HW128094   2.445   0.898   4.896 -0.4694 -0.8255 -1.5350
 5545SOL    HW228095   2.295   0.916   4.893  0.6342  1.4854  0.4071
 5546SOL     OW28096   0.164   0.421  14.376 -0.9090  0.2201  0.0090
 5546SOL    HW128097   0.197   0.371  14.450 -1.6919  1.1937  1.0268
 5546SOL    HW228098   0.075   0.433  14.409 -0.1912 -1.1399  2.3994
 5547SOL     OW28099   4.622   4.040   2.250 -0.4718 -0.0081  0.0773
 5547SOL    HW128100   4.562   3.978   2.290 -0.5476  0.6940  1.0642
 5547SOL    HW228101   4.581   4.125   2.268 -0.7509 -0.0186 -0.5082
 5548SOL     OW28102   4.213   2.835   6.642 -0.5720 -0.3022  0.0224
 5548SOL    HW128103   4.238   2.813   6.732  0.7798  0.7907 -0.0951
 5548SOL    HW228104   4.253   2.922   6.642  0.2066 -0.6494 -3.1173
 5549SOL     OW28105   0.190   3.922   7.700 -0.1932  0.2750  0.0687
 5549SOL    HW128106   0.205   3.879   7.785  2.2087  0.3440 -0.3157
 5549SOL    HW228107   0.095   3.910   7.700 -0.0766 -0.6492  0.1291
 5550SOL     OW28108   4.614   2.375   3.546  0.2088  0.4216 -0.5894
 5550SOL    HW128109   4.621   2.280   3.552 -1.4262  0.1225 -3.2907
 5550SOL    HW228110   4.523   2.390   3.572  0.6093  0.8532  0.5584
 5551SOL     OW28111   3.428   4.339   8.530  0.2917 -0.4897  0.1083
 5551SOL    HW128112   3.520   4.344   8.507 -0.3898  4.3777 -1.5058
 5551SOL    HW228113   3.423   4.255   8.577 -1.1344 -0.3860  0.1524
 5552SOL     OW28114   4.240   0.383   4.178 -0.2573  0.5170 -0.3284
 5552SOL    HW128115   4.184   0.368   4.102 -0.1368 -0.3579 -0.2506
 5552SOL    HW228116   4.210   0.463   4.220 -1.5553 -1.1903  2.0088
 5553SOL     OW28117   3.395   2.224  13.746 -0.6396  0.7305 -0.1967
 5553SOL    HW128118   3.425   2.196  13.833 -0.6602 -0.3023 -0.5253
 5553SOL    HW228119   3.393   2.142  13.698 -0.9661  0.3224  0.5158
 5554SOL     OW28120   1.835   1.763   6.662  0.3333  0.1814  0.1179
 5554SOL    HW128121   1.802   1.728   6.580  1.3111 -1.3703  0.3920
 5554SOL    HW228122   1.929   1.779   6.656  0.8211 -2.2041  1.2948
 5555SOL     OW28123   0.608   1.539   5.502 -0.3235 -0.0451  0.5164
 5555SOL    HW128124   0.545   1.611   5.507 -0.2103  0.0057  1.1704
 5555SOL    HW228125   0.671   1.571   5.437  0.6339 -0.4444  1.2470
 5556SOL     OW28126   2.516   1.287   3.304 -0.4517  0.3316  0.0498
 5556SOL    HW128127   2.490   1.328   3.221 -0.1914 -0.6899 -0.5362
 5556SOL    HW228128   2.463   1.344   3.360  0.6734  0.5306  0.9214
 5557SOL     OW28129   1.968   1.697  16.796 -0.3078  0.4743 -0.1858
 5557SOL    HW128130   1.897   1.658  16.847 -0.8344 -0.7812 -1.8847
 5557SOL    HW228131   1.926   1.747  16.726 -0.3600  1.8741  0.8352
 5558SOL     OW28132   0.576   3.215   7.128  0.2049  0.1534 -0.3172
 5558SOL    HW128133   0.485   3.229   7.102 -0.0613  0.9885  1.0287
 5558SOL    HW228134   0.599   3.308   7.128 -1.1830  0.4928  2.3837
 5559SOL     OW28135   3.798   4.585   7.442 -0.0815 -0.3669  0.3280
 5559SOL    HW128136   3.734   4.560   7.375 -0.9505  3.3456 -0.2465
 5559SOL    HW228137   3.868   4.629   7.394  0.0195 -1.8581 -0.8718
 5560SOL     OW28138   2.900   4.622   8.529 -0.0915  0.3427 -0.4104
 5560SOL    HW128139   2.936   4.564   8.596 -0.0963  2.4927  1.4892
 5560SOL    HW228140   2.928   4.571   8.454 -0.1672  1.4908 -1.2136
 5561SOL     OW28141   1.053   3.240   1.914 -0.2631  0.2042 -0.5853
 5561SOL    HW128142   0.964   3.236   1.880 -0.4822 -0.7920  0.1221
 5561SOL    HW228143   1.082   3.331   1.903  0.0372  0.4306  1.9151
 5562SOL     OW28144   0.423   1.226   6.952  0.3542 -0.0642  0.3829
 5562SOL    HW128145   0.424   1.293   6.884  0.3950  1.6971  2.1333
 5562SOL    HW228146   0.512   1.190   6.951 -0.3341 -1.7439  0.1778
 5563SOL     OW28147   0.317   2.013   8.018  0.1982 -0.0862 -0.5012
 5563SOL    HW128148   0.239   2.013   8.074 -1.8102 -2.4555 -3.3516
 5563SOL    HW228149   0.281   2.069   7.949 -2.0165 -1.6011 -0.5618
 5564SOL     OW28150   1.202   0.661   6.281  0.0649  0.1285  0.4300
 5564SOL    HW128151   1.213   0.566   6.275 -0.7725 -0.0092  0.9480
 5564SOL    HW228152   1.120   0.665   6.232 -0.3782 -0.6217  1.1137
 5565SOL     OW28153   0.457   1.320   7.969 -0.3939  0.3783 -0.3113
 5565SOL    HW128154   0.477   1.232   8.003  0.1977  1.1432  1.3413
 5565SOL    HW228155   0.441   1.292   7.879  1.6262  0.6183 -0.7414
 5566SOL     OW28156   2.377   3.825  15.093 -0.1244  0.8143 -0.0082
 5566SOL    HW128157   2.441   3.844  15.025  0.8852 -1.2076  0.3677
 5566SOL    HW228158   2.386   3.732  15.113  0.0469  0.7406 -0.4260
 5567SOL     OW28159   3.281   2.865   5.353 -0.7667  0.5397  0.0578
 5567SOL    HW128160   3.375   2.880   5.350 -0.8745  1.0318 -0.9215
 5567SOL    HW228161   3.267   2.823   5.268 -2.6902 -0.2247  0.7446
 5568SOL     OW28162   1.338   0.337   1.977  0.0782 -0.4943 -0.0546
 5568SOL    HW128163   1.302   0.318   2.063  0.9104 -1.1820  0.1446
 5568SOL    HW228164   1.256   0.349   1.930  0.1379 -0.1947 -0.0819
 5569SOL     OW28165   0.817   1.529   5.989  0.8136  0.1369 -0.1949
 5569SOL    HW128166   0.858   1.607   5.953 -0.6423  0.9216 -0.1723
 5569SOL    HW228167   0.777   1.562   6.070  0.1982  0.1016 -0.4859
 5570SOL     OW28168   1.313   3.000   8.048  0.4012 -0.0979 -0.1600
 5570SOL    HW128169   1.262   3.007   8.128  0.0127  0.9838 -0.5023
 5570SOL    HW228170   1.241   3.011   7.985  0.3965  0.3353 -0.0811
 5571SOL     OW28171   2.320   2.800  17.474  0.3642 -0.2805 -0.0106
 5571SOL    HW128172   2.392   2.737  17.470  2.6208  2.2167  1.5638
 5571SOL    HW228173   2.246   2.740  17.488  1.3730 -1.3659  0.7212
 5572SOL     OW28174   2.557   2.609   5.747 -0.1754  0.1888 -0.2137
 5572SOL    HW128175   2.585   2.660   5.823  0.0374  0.1203 -0.2464
 5572SOL    HW228176   2.622   2.540   5.759 -0.3422  0.5369  2.7210
 5573SOL     OW28177   1.888   1.162   5.241  0.4830  0.1095  0.5682
 5573SOL    HW128178   1.967   1.152   5.294  0.9785 -2.9171 -0.7441
 5573SOL    HW228179   1.860   1.070   5.236 -1.1609  0.5916  0.8433
 5574SOL     OW28180   1.928   2.086  13.798  0.0217 -0.3341 -0.6533
 5574SOL    HW128181   1.971   2.044  13.873  1.5632 -0.5433 -1.6639
 5574SOL    HW228182   2.009   2.127  13.766 -0.3803  0.4350 -0.6928
 5575SOL     OW28183   2.749   3.275   6.383  0.8079  0.2944  0.1172
 5575SOL    HW128184   2.661   3.309   6.371  0.6592  0.0446  0.4827
 5575SOL    HW228185   2.758   3.222   6.304 -2.5903  0.5950 -0.4588
 5576SOL     OW28186   1.250   0.754   9.069  0.2860  0.5847 -0.1670
 5576SOL    HW128187   1.323   0.798   9.114  0.0782  0.9300 -0.1664
 5576SOL    HW228188   1.294   0.741   8.985 -0.1136 -0.5662 -0.1870
 5577SOL     OW28189   4.015   3.391   2.293 -0.1751 -0.0013 -0.1889
 5577SOL    HW128190   3.961   3.470   2.296  0.8965  0.7184  0.0667
 5577SOL    HW228191   3.977   3.338   2.223  2.2487  0.3273 -1.7669
 5578SOL     OW28192   0.638   2.103   7.992 -0.0322 -0.0237 -0.2279
 5578SOL    HW128193   0.604   2.122   7.905  0.7148  2.2504 -0.0230
 5578SOL    HW228194   0.657   2.011   7.979  0.9826  0.5257 -2.5564
 5579SOL     OW28195   2.016   2.116   1.262 -0.1458  0.2897 -0.0531
 5579SOL    HW128196   1.995   2.119   1.168 -1.1476 -2.3909  0.1087
 5579SOL    HW228197   2.112   2.119   1.259 -0.1690  1.6313  0.8655
 5580SOL     OW28198   3.600   4.067   7.815  0.0890 -0.1001 -0.0641
 5580SOL    HW128199   3.604   4.142   7.875  1.1177 -1.0636  1.0809
 5580SOL    HW228200   3.587   3.992   7.874 -1.1882  1.1192  1.2065
 5581SOL     OW28201   2.203   3.606   9.344  0.6316  0.1673 -0.5293
 5581SOL    HW128202   2.255   3.570   9.273  1.1649  2.5453 -1.3659
 5581SOL    HW228203   2.117   3.565   9.331  0.1869 -0.1346  3.1885
 5582SOL     OW28204   1.830   3.495  12.584  0.9575 -0.0552 -0.3682
 5582SOL    HW128205   1.812   3.466  12.494  1.1385 -1.0124 -0.1009
 5582SOL    HW228206   1.790   3.426  12.637 -1.8284  0.2016 -2.1038
 5583SOL     OW28207   2.564   1.780  11.927 -0.2566  0.2405  0.5646
 5583SOL    HW128208   2.577   1.803  11.835  1.4775  0.2758  0.8126
 5583SOL    HW228209   2.652   1.766  11.962  0.7451 -0.4850 -2.1934
 5584SOL     OW28210   4.248   3.882   8.559  0.1062  0.2802 -0.4944
 5584SOL    HW128211   4.323   3.936   8.537 -0.7593  1.5279 -0.3728
 5584SOL    HW228212   4.189   3.881   8.483 -1.2810 -0.8249  0.5763
 5585SOL     OW28213   4.045   0.485  13.291 -0.3718 -0.0576 -0.3838
 5585SOL    HW128214   4.126   0.532  13.310 -1.1152  0.5252  1.3859
 5585SOL    HW228215   4.080   0.418  13.232  0.2610  0.4517 -0.5940
 5586SOL     OW28216   1.426   3.281   5.498 -0.1583  0.1494 -0.1764
 5586SOL    HW128217   1.352   3.221   5.496 -0.3910  0.4770 -1.1109
 5586SOL    HW228218   1.497   3.221   5.521 -0.7473  0.2232  1.8004
 5587SOL     OW28219   3.503   4.093   9.088 -0.6592 -0.2744 -0.6329
 5587SOL    HW128220   3.569   4.031   9.056  1.7091  1.5903  0.6901
 5587SOL    HW228221   3.526   4.114   9.178  0.8165 -3.0676 -0.3614
 5588SOL     OW28222   2.648   0.710   6.747 -0.0466  0.2638  0.6306
 5588SOL    HW128223   2.638   0.616   6.735 -0.7172  0.4072  0.0449
 5588SOL    HW228224   2.728   0.730   6.699  0.0853 -0.7501  0.4364
 5589SOL     OW28225   2.608   3.504   3.342  0.0311  0.4304 -0.3541
 5589SOL    HW128226   2.533   3.485   3.398 -0.0624 -0.6288 -0.8262
 5589SOL    HW228227   2.630   3.589   3.379 -0.2586  1.0043 -1.4988
 5590SOL     OW28228   0.642   2.781  14.165 -0.1340  0.3496 -0.2650
 5590SOL    HW128229   0.589   2.743  14.234 -1.8055  1.5169 -0.9283
 5590SOL    HW228230   0.656   2.713  14.099 -0.8851  0.4585 -0.5312
 5591SOL     OW28231   1.766   2.508   7.674 -0.4815 -0.0741  0.2948
 5591SOL    HW128232   1.671   2.497   7.681 -0.5280  0.0432 -0.1569
 5591SOL    HW228233   1.774   2.603   7.677  0.5202 -0.1713  0.5877
 5592SOL     OW28234   1.281   1.636   9.569  0.0252  0.8600  0.0898
 5592SOL    HW128235   1.294   1.628   9.664 -1.1492  1.8562  0.3258
 5592SOL    HW228236   1.227   1.714   9.556 -0.5969  0.1847 -1.3598
 5593SOL     OW28237   0.841   0.279   9.868  0.2574 -0.0632  0.2642
 5593SOL    HW128238   0.798   0.194   9.858  0.9557 -0.4530  0.5668
 5593SOL    HW228239   0.918   0.265   9.813  0.1154  3.5062 -0.8633
 5594SOL     OW28240   0.325   1.982   7.682 -0.6188  0.0890 -0.1011
 5594SOL    HW128241   0.291   1.918   7.745  0.5778 -2.6999 -2.3222
 5594SOL    HW228242   0.245   1.988   7.630 -0.8432 -1.5584  0.0462
 5595SOL     OW28243   2.526   0.388   5.718 -0.2165  0.5201  0.4915
 5595SOL    HW128244   2.601   0.336   5.747  0.4242  2.0733  1.5971
 5595SOL    HW228245   2.461   0.352   5.778 -1.2044 -0.2979 -1.0630
 5596SOL     OW28246   4.348   1.788   6.374 -0.6405  0.0325  0.0129
 5596SOL    HW128247   4.353   1.693   6.382  1.6559  0.0907 -0.6930
 5596SOL    HW228248   4.418   1.810   6.435  0.3185 -2.6458 -0.0983
 5597SOL     OW28249   3.446   2.128  15.254 -0.6530 -0.3555 -0.1176
 5597SOL    HW128250   3.508   2.153  15.186  0.2871 -1.0514  0.5016
 5597SOL    HW228251   3.443   2.035  15.232 -0.0932 -0.1935 -0.8758
 5598SOL     OW28252   2.795   2.132   4.767 -0.2521  0.0410 -0.2339
 5598SOL    HW128253   2.836   2.077   4.700  0.0021 -0.6321  0.4819
 5598SOL    HW228254   2.712   2.084   4.774  0.1593 -0.6624 -0.2109
 5599SOL     OW28255   0.694   0.413   8.885  0.5874  0.3810  0.4036
 5599SOL    HW128256   0.624   0.433   8.823 -0.1572  0.3721  1.2471
 5599SOL    HW228257   0.707   0.322   8.858 -0.1949  0.4059 -0.0320
 5600SOL     OW28258   0.143   4.154   3.630  0.0173  0.7906  0.3180
 5600SOL    HW128259   0.070   4.196   3.584  1.3154 -0.0423 -2.4992
 5600SOL    HW228260   0.102   4.116   3.708 -0.9621  0.2189 -0.4811
 5601SOL     OW28261   4.164   2.151   3.992 -0.2820 -0.0387  0.5264
 5601SOL    HW128262   4.126   2.065   4.010  1.2429 -0.8576 -0.1396
 5601SOL    HW228263   4.127   2.182   3.909  0.8889  1.4832  0.5775
 5602SOL     OW28264   3.850   1.699   6.207  0.1501 -0.0031 -0.3616
 5602SOL    HW128265   3.894   1.667   6.286  1.2676 -2.0620 -1.8437
 5602SOL    HW228266   3.915   1.764   6.181 -0.9993  1.3825  0.2244
 5603SOL     OW28267   2.557   1.156  14.546 -0.2626  0.1750 -0.1152
 5603SOL    HW128268   2.471   1.120  14.566 -0.4132  0.8207  0.3966
 5603SOL    HW228269   2.537   1.175  14.454 -0.5010 -1.0572 -0.3244
 5604SOL     OW28270   4.273   3.544   7.771 -0.5421  0.8225 -0.2629
 5604SOL    HW128271   4.207   3.483   7.738  1.7209 -0.6890 -1.9899
 5604SOL    HW228272   4.328   3.556   7.693 -0.9126 -1.1614 -0.8369
 5605SOL     OW28273   2.808   4.503   3.559 -0.1092 -0.0937  0.3585
 5605SOL    HW128274   2.736   4.556   3.595  0.1535 -0.6485  1.7046
 5605SOL    HW228275   2.775   4.413   3.567  0.3121 -0.2959 -0.1928
 5606SOL     OW28276   2.915   3.832   6.569 -0.0612  0.3805  0.3092
 5606SOL    HW128277   2.936   3.792   6.653 -3.5933 -1.6224  0.2488
 5606SOL    HW228278   3.003   3.827   6.530 -0.0161 -0.4930  0.5114
 5607SOL     OW28279   0.042   2.589  15.079 -0.2094  0.3040  0.1296
 5607SOL    HW128280   0.036   2.568  14.986 -0.4301  1.2092 -0.0631
 5607SOL    HW228281   0.040   2.499  15.112  1.4778 -0.3252 -1.4432
 5608SOL     OW28282   3.093   2.647  10.873 -0.2421 -0.1042 -0.3006
 5608SOL    HW128283   3.058   2.726  10.831  0.8121  1.8266  2.4009
 5608SOL    HW228284   3.019   2.638  10.933 -2.0310 -0.7931 -2.6402
 5609SOL     OW28285   1.378   4.448   0.056 -0.2161  0.1121  0.1119
 5609SOL    HW128286   1.291   4.487   0.060 -0.3704 -0.3144  0.8785
 5609SOL    HW228287   1.433   4.511   0.008  3.3226 -1.6363  1.8496
 5610SOL     OW28288   4.153   2.967   0.898  0.7496  0.0515 -0.4325
 5610SOL    HW128289   4.114   3.025   0.963 -1.1984 -2.4861  0.7070
 5610SOL    HW228290   4.100   2.888   0.911 -1.2643  1.6982  1.4289
 5611SOL     OW28291   1.056   2.455  15.436 -0.1068  0.0984 -0.2214
 5611SOL    HW128292   0.975   2.404  15.439  0.4853 -0.9446 -1.8671
 5611SOL    HW228293   1.058   2.468  15.341 -0.3833 -0.7026 -0.3336
 5612SOL     OW28294   4.030   1.126   3.175 -0.0714 -0.1433  0.6174
 5612SOL    HW128295   4.039   1.193   3.243  1.1409  2.4833 -2.0981
 5612SOL    HW228296   4.099   1.073   3.215  2.7544  0.5707 -3.2121
 5613SOL     OW28297   0.258   0.721  14.917  0.1912 -0.0831  0.6783
 5613SOL    HW128298   0.185   0.782  14.913  0.3084  0.0208  0.1234
 5613SOL    HW228299   0.272   0.731  15.011  0.0762 -1.1584  0.8194
 5614SOL     OW28300   4.306   3.537   3.349 -0.2467 -0.0916 -0.2807
 5614SOL    HW128301   4.378   3.600   3.353 -0.3115  0.0989 -1.8910
 5614SOL    HW228302   4.337   3.492   3.270  0.7467  1.3823 -0.7286
 5615SOL     OW28303   1.657   2.087   2.870  0.4100  0.0899  0.0894
 5615SOL    HW128304   1.693   2.084   2.781  0.6241 -0.1633  0.1826
 5615SOL    HW228305   1.703   2.164   2.905 -0.0976  0.4113  0.0407
 5616SOL     OW28306   1.758   3.335  13.875 -0.2434  0.4999 -0.2843
 5616SOL    HW128307   1.828   3.400  13.870 -0.1768  0.5442  1.3814
 5616SOL    HW228308   1.808   3.260  13.910  0.6271  1.5063  0.6414
 5617SOL     OW28309   3.836   2.474   2.320 -0.4846  0.3396 -0.1280
 5617SOL    HW128310   3.915   2.487   2.373 -0.6160  0.6372 -0.0062
 5617SOL    HW228311   3.772   2.534   2.357 -0.3735  0.2460  0.2153
 5618SOL     OW28312   0.380   2.571   1.884 -0.4437  0.3236  0.0010
 5618SOL    HW128313   0.421   2.498   1.930  0.7393  0.6749 -0.5015
 5618SOL    HW228314   0.419   2.644   1.933 -0.9767 -0.7845  2.0952
 5619SOL     OW28315   3.847   2.603   5.820 -0.0326  0.5032 -0.8595
 5619SOL    HW128316   3.800   2.536   5.871 -0.8111  1.0071 -0.9264
 5619SOL    HW228317   3.928   2.563   5.790  1.0759  2.9300 -1.0367
 5620SOL     OW28318   0.447   2.472   5.870  0.6234 -0.0194  0.0121
 5620SOL    HW128319   0.363   2.506   5.840  0.4959  0.3650  0.8084
 5620SOL    HW228320   0.474   2.553   5.913  3.1911 -0.5085 -0.6972
 5621SOL     OW28321   1.990   0.156   7.876  0.0284 -0.3379 -0.0043
 5621SOL    HW128322   2.020   0.213   7.946  0.1084  1.0807 -1.1889
 5621SOL    HW228323   1.923   0.102   7.918  2.3341 -1.8830  1.6438
 5622SOL     OW28324   0.501   4.135   0.353 -0.5972  0.0184 -0.4790
 5622SOL    HW128325   0.534   4.050   0.325 -1.6718 -0.7354  0.5457
 5622SOL    HW228326   0.493   4.119   0.447  0.1652 -0.8772 -0.5680
 5623SOL     OW28327   1.313   1.486   6.410 -0.0373  0.1078  0.1139
 5623SOL    HW128328   1.343   1.527   6.329  1.0661 -0.1215  0.4082
 5623SOL    HW228329   1.232   1.532   6.428  0.2740  0.2668  1.0709
 5624SOL     OW28330   2.583   4.082   3.815 -0.2293 -0.3742  0.6273
 5624SOL    HW128331   2.588   3.988   3.832 -1.4588 -0.8298 -1.4728
 5624SOL    HW228332   2.550   4.082   3.725  1.1591 -1.7518  0.1165
 5625SOL     OW28333   2.898   4.029  13.904  0.5733  0.2453 -0.0860
 5625SOL    HW128334   2.961   4.007  13.972  0.7644 -1.2200 -0.7422
 5625SOL    HW228335   2.892   4.124  13.902 -2.3319  0.0239 -3.3206
 5626SOL     OW28336   0.597   0.693   3.257 -0.2746 -0.2182  0.1431
 5626SOL    HW128337   0.502   0.687   3.258 -0.4377  2.0291 -2.0146
 5626SOL    HW228338   0.615   0.706   3.164 -0.0304 -1.2796  0.0379
 5627SOL     OW28339   0.505   1.436  15.209  0.2506  0.2281  0.6755
 5627SOL    HW128340   0.569   1.365  15.222  0.9060  1.2004  2.8046
 5627SOL    HW228341   0.473   1.421  15.120  0.5785 -1.6690  0.8749
 5628SOL     OW28342   2.022   2.895   4.929  0.4131 -0.7261 -0.6287
 5628SOL    HW128343   1.989   2.984   4.940 -0.6011 -1.3304  1.3221
 5628SOL    HW228344   2.068   2.896   5.013 -0.6632  1.7867 -0.0761
 5629SOL     OW28345   0.361   1.161   1.794 -0.0136 -0.9738  0.0163
 5629SOL    HW128346   0.428   1.218   1.756 -0.5105  0.2887  1.0077
 5629SOL    HW228347   0.416   1.098   1.841  0.5758 -0.7634 -0.3912
 5630SOL     OW28348   3.864   0.038   9.064  0.0716 -0.0546  0.0243
 5630SOL    HW128349   3.897   4.707   9.138  0.2249  0.7006  0.4730
 5630SOL    HW228350   3.785   0.077   9.103 -0.7206 -1.0033 -0.6252
 5631SOL     OW28351   2.920   0.225  15.607  0.3081  0.1699 -0.4053
 5631SOL    HW128352   2.824   0.232  15.607  0.1934 -1.5308 -0.0402
 5631SOL    HW228353   2.937   0.151  15.665 -1.7609  0.0906  0.1011
 5632SOL     OW28354   4.537   2.855   8.815  0.0303 -0.0504  0.5873
 5632SOL    HW128355   4.499   2.863   8.728 -0.1630  1.5365  0.8267
 5632SOL    HW228356   4.470   2.795   8.847  0.0788 -0.0171  0.7541
 5633SOL     OW28357   0.816   4.028   7.121  0.2529  0.1450 -0.4247
 5633SOL    HW128358   0.788   3.965   7.053 -0.7295 -1.1611  1.1930
 5633SOL    HW228359   0.894   3.989   7.160  0.2156  1.1064  0.5976
 5634SOL     OW28360   2.590   3.102  12.252 -0.0511 -0.7891  0.1920
 5634SOL    HW128361   2.686   3.105  12.256 -0.0677  0.5806 -0.3642
 5634SOL    HW228362   2.568   3.195  12.248 -0.5015 -0.8248  1.8055
 5635SOL     OW28363   1.429   0.707   5.401 -0.3894 -0.1101  0.1104
 5635SOL    HW128364   1.401   0.668   5.318  0.8231  0.4579 -0.5739
 5635SOL    HW228365   1.522   0.717   5.383 -0.3731 -0.2429  0.1213
 5636SOL     OW28366   4.470   2.035   4.926  0.6147  0.1767  0.1541
 5636SOL    HW128367   4.452   2.128   4.937  4.0703  0.8292  0.3874
 5636SOL    HW228368   4.403   1.996   4.981  0.7755 -1.5599 -0.8793
 5637SOL     OW28369   2.818   0.471   2.372 -0.0535  0.2773 -0.2837
 5637SOL    HW128370   2.842   0.426   2.452 -0.5780  0.3748 -0.0711
 5637SOL    HW228371   2.724   0.451   2.370  0.1624 -0.8309  0.8933
 5638SOL     OW28372   1.849   4.543   7.181  0.4755 -0.1755 -0.5848
 5638SOL    HW128373   1.910   4.531   7.108 -0.8393  0.6531 -1.8397
 5638SOL    HW228374   1.800   4.460   7.184  0.2100  0.0984  1.9911
 5639SOL     OW28375   1.287   0.375  15.646 -0.5562 -0.6674  0.6696
 5639SOL    HW128376   1.331   0.361  15.562 -0.0975  0.0703  0.7821
 5639SOL    HW228377   1.345   0.335  15.710 -0.3714 -0.5274  0.5892
 5640SOL     OW28378   1.544   1.760  15.333  0.2550  0.0383 -0.4765
 5640SOL    HW128379   1.452   1.766  15.360  0.8372 -0.2809  1.5957
 5640SOL    HW228380   1.530   1.786  15.243 -2.4911  1.8465  0.4617
 5641SOL     OW28381   3.240   4.478   6.288 -0.7185 -0.8252  0.2609
 5641SOL    HW128382   3.260   4.472   6.194  0.6661  1.5399  0.4076
 5641SOL    HW228383   3.163   4.422   6.293 -1.0980 -0.5030 -2.1033
 5642SOL     OW28384   4.356   1.521   5.253  0.1194 -0.0970 -0.3433
 5642SOL    HW128385   4.408   1.538   5.331  1.5530  1.4432 -1.6056
 5642SOL    HW228386   4.264   1.536   5.271  0.2661  0.6592 -0.2311
 5643SOL     OW28387   2.509   2.622  17.459  0.7109 -0.4201 -0.4184
 5643SOL    HW128388   2.513   2.549  17.397 -0.5303 -2.1996  1.5994
 5643SOL    HW228389   2.533   2.578  17.540  0.0760  0.9761  0.5329
 5644SOL     OW28390   1.909   2.882   7.904  0.5161  0.3026  0.9171
 5644SOL    HW128391   1.979   2.929   7.858  0.9019 -0.3453  0.8336
 5644SOL    HW228392   1.896   2.944   7.976  0.6009 -0.2918  1.4475
 5645SOL     OW28393   1.526   0.538   3.186  0.2814  0.3241  0.3346
 5645SOL    HW128394   1.589   0.537   3.258 -0.3478 -0.0450  0.8867
 5645SOL    HW228395   1.546   0.459   3.135  0.3320 -0.1707  1.1247
 5646SOL     OW28396   0.239   1.488   5.642 -0.7787 -0.1948 -0.1540
 5646SOL    HW128397   0.294   1.518   5.714 -1.3955  0.1444  0.1675
 5646SOL    HW228398   0.242   1.394   5.661  0.0049 -0.3638 -1.0672
 5647SOL     OW28399   0.260   1.496   7.121  0.3572 -0.3179 -0.2601
 5647SOL    HW128400   0.221   1.481   7.207  2.9839  1.2659  1.2106
 5647SOL    HW228401   0.180   1.476   7.073 -0.0457  1.0233 -0.1551
 5648SOL     OW28402   1.599   0.394  13.022  0.2215 -0.1431 -0.5553
 5648SOL    HW128403   1.637   0.403  13.109  0.2639  0.6023 -0.6546
 5648SOL    HW228404   1.625   0.475  12.978  1.8253 -0.6575 -0.5619
 5649SOL     OW28405   1.226   2.012   5.175 -0.4085  0.1071 -0.5057
 5649SOL    HW128406   1.190   1.945   5.116  0.3579 -0.7110 -0.0221
 5649SOL    HW228407   1.147   2.055   5.209  0.8580  1.5069  0.6064
 5650SOL     OW28408   4.491   1.581  16.483 -0.0221  0.5028  0.0027
 5650SOL    HW128409   4.454   1.667  16.464 -1.1364 -0.3436 -1.7320
 5650SOL    HW228410   4.442   1.528  16.419 -0.3663  0.7914  0.0293
 5651SOL     OW28411   3.346   4.184  10.501 -0.7164  0.7848 -0.0370
 5651SOL    HW128412   3.440   4.195  10.513 -0.4134 -1.3401 -0.3337
 5651SOL    HW228413   3.340   4.173  10.406  0.5336 -0.1996 -0.0079
 5652SOL     OW28414   4.660   0.481   9.571 -0.6556 -0.2877  0.0616
 5652SOL    HW128415   4.640   0.519   9.656  0.7140 -2.0946  1.1814
 5652SOL    HW228416   0.035   0.494   9.561 -1.1414  1.7522 -2.0742
 5653SOL     OW28417   2.538   3.464   6.769 -0.2050  0.0236  0.1270
 5653SOL    HW128418   2.503   3.467   6.858  1.4781 -1.9423  0.8454
 5653SOL    HW228419   2.461   3.435   6.719 -0.6717  0.4769  0.5838
 5654SOL     OW28420   0.043   1.405   6.966  0.2158 -0.0538  0.1427
 5654SOL    HW128421   4.685   1.457   6.987  1.3789  0.2081  3.7508
 5654SOL    HW228422   0.046   1.414   6.871 -2.6636 -0.0027  0.0685
 5655SOL     OW28423   0.322   4.512   2.154  0.0299 -0.0180 -0.0302
 5655SOL    HW128424   0.391   4.446   2.165  0.8427  1.1197  1.7144
 5655SOL    HW228425   0.337   4.531   2.062  3.6109  1.0319  0.7505
 5656SOL     OW28426   2.053   0.558   7.321  0.1678  0.2130  0.3105
 5656SOL    HW128427   2.079   0.481   7.371 -0.9479  0.8010  1.8051
 5656SOL    HW228428   2.036   0.610   7.399  0.3812 -0.0278  0.5165
 5657SOL     OW28429   3.986   2.652   3.870 -0.0492  0.1823 -0.2232
 5657SOL    HW128430   3.969   2.715   3.800  0.9276 -0.5953 -1.1505
 5657SOL    HW228431   4.072   2.681   3.899 -0.1637 -0.0330  0.3260
 5658SOL     OW28432   1.792   0.460   7.903 -0.6171  0.2793  0.0373
 5658SOL    HW128433   1.704   0.465   7.866 -0.5280  0.4768 -0.1462
 5658SOL    HW228434   1.782   0.406   7.982  1.4431  1.3544  1.0475
 5659SOL     OW28435   4.346   4.131   3.864  0.1414  0.0138 -0.4114
 5659SOL    HW128436   4.371   4.085   3.784  3.3715 -1.9473  1.7580
 5659SOL    HW228437   4.369   4.062   3.926  2.4499  2.3976  1.3942
 5660SOL     OW28438   0.462   0.677   4.286  0.3482  0.4159 -0.4065
 5660SOL    HW128439   0.503   0.610   4.340 -0.6243  0.1646  0.0252
 5660SOL    HW228440   0.412   0.725   4.352  3.1800  1.2382  1.1091
 5661SOL     OW28441   1.143   2.425   0.008  0.1107 -0.1360 -0.1583
 5661SOL    HW128442   1.209   2.359  17.667 -0.8266 -0.7326 -1.2255
 5661SOL    HW228443   1.089   2.426  17.609  1.9508  0.4371 -1.4125
 5662SOL     OW28444   1.695   4.197   2.724 -0.6584 -0.0541  0.2080
 5662SOL    HW128445   1.647   4.277   2.703  0.1227  0.3750  0.0433
 5662SOL    HW228446   1.719   4.164   2.637 -3.1903  1.7038 -1.1772
 5663SOL     OW28447   2.329   3.679   3.177  0.0451 -0.1733  0.2592
 5663SOL    HW128448   2.393   3.750   3.180 -0.2706  0.1304 -0.2125
 5663SOL    HW228449   2.333   3.657   3.084 -0.1993  0.5683  0.0705
 5664SOL     OW28450   0.754   1.124   8.431  0.2252  0.2324 -0.1608
 5664SOL    HW128451   0.698   1.074   8.492  1.0704  0.3804  0.7309
 5664SOL    HW228452   0.683   1.149   8.372  0.0106 -1.5734 -0.6627
 5665SOL     OW28453   1.895   0.485   5.592  0.0071 -0.2336 -0.3227
 5665SOL    HW128454   1.914   0.572   5.558  0.9898 -0.3429 -0.0550
 5665SOL    HW228455   1.802   0.468   5.578 -0.1090 -2.1619  2.9193
 5666SOL     OW28456   0.192   2.810   3.134  0.2114  0.0211 -0.3160
 5666SOL    HW128457   0.193   2.890   3.186 -0.6468 -0.1513 -0.0288
 5666SOL    HW228458   0.158   2.742   3.193 -1.8696  1.9632  0.7251
 5667SOL     OW28459   0.190   3.980  13.272 -0.1022 -0.2828 -0.2781
 5667SOL    HW128460   0.246   4.054  13.250 -1.4794  0.3512 -1.6207
 5667SOL    HW228461   0.243   3.931  13.334  0.6242 -0.6964 -1.2214
 5668SOL     OW28462   2.715   3.054   7.846 -0.1393 -0.3605  0.3490
 5668SOL    HW128463   2.799   3.016   7.874 -0.0234 -0.3983 -0.0539
 5668SOL    HW228464   2.676   3.058   7.934  2.5419  3.4791  1.3582
 5669SOL     OW28465   3.384   4.036  17.271 -0.4311  0.0466  0.0983
 5669SOL    HW128466   3.371   4.130  17.286  2.0749 -0.0406  2.6655
 5669SOL    HW228467   3.474   4.046  17.300 -0.8200  0.0945  1.2754
 5670SOL     OW28468   1.498   3.543   5.047  0.0600 -0.1188  0.1611
 5670SOL    HW128469   1.487   3.637   5.064  0.5314 -0.1208  0.4866
 5670SOL    HW228470   1.496   3.540   4.951 -0.0158  2.0012  0.0961
 5671SOL     OW28471   0.174   1.695  11.412  0.2116  0.0822  0.1189
 5671SOL    HW128472   0.236   1.669  11.343  0.7638  1.3506  0.1433
 5671SOL    HW228473   0.223   1.694  11.494 -0.7076  0.9179  0.6704
 5672SOL     OW28474   4.186   1.250  10.128 -0.0239  0.3490  0.2068
 5672SOL    HW128475   4.178   1.160  10.095 -2.6430 -0.0283  1.8463
 5672SOL    HW228476   4.138   1.234  10.210  0.6077 -1.3501  0.2493
 5673SOL     OW28477   0.987   1.909   7.899 -0.8238  0.1363 -0.2835
 5673SOL    HW128478   1.073   1.908   7.857  0.2980  1.1409  2.0476
 5673SOL    HW228479   0.986   1.816   7.922  0.1738  0.1142 -0.3248
 5674SOL     OW28480   1.111   0.756  17.466  0.8835 -0.1102  0.2614
 5674SOL    HW128481   1.078   0.685  17.521 -1.8262  1.4532  0.6324
 5674SOL    HW228482   1.032   0.776  17.416  1.8762  2.9288 -0.1202
 5675SOL     OW28483   0.514   4.072  17.139 -0.0171  0.2643 -0.3975
 5675SOL    HW128484   0.607   4.052  17.144 -0.1073  0.1307  0.7237
 5675SOL    HW228485   0.483   4.015  17.210  1.5790 -0.6704 -0.4576
 5676SOL     OW28486   3.906   3.353   1.166  0.0583  0.1066 -0.3815
 5676SOL    HW128487   3.823   3.386   1.133  0.9318 -1.5726 -4.2365
 5676SOL    HW228488   3.952   3.431   1.199  1.2602 -1.4291  1.6117
 5677SOL     OW28489   0.385   4.578   4.306  0.4621  0.4885  0.3350
 5677SOL    HW128490   0.358   4.622   4.226  0.7005  0.1351  0.0622
 5677SOL    HW228491   0.305   4.572   4.360 -0.8166 -0.1203 -1.6283
 5678SOL     OW28492   3.156   3.377   1.499 -0.5534  0.2662  0.6561
 5678SOL    HW128493   3.143   3.440   1.570  2.0568  1.5986 -0.0121
 5678SOL    HW228494   3.087   3.314   1.518 -0.2109  0.4427  2.5379
 5679SOL     OW28495   0.947   1.399   7.490 -0.0910 -0.2231  0.2758
 5679SOL    HW128496   0.966   1.443   7.407  0.4300 -0.1754  0.4216
 5679SOL    HW228497   0.945   1.474   7.550  0.6283 -0.4604  0.5958
 5680SOL     OW28498   4.346   1.365  15.631 -0.0407  0.4885 -0.4579
 5680SOL    HW128499   4.410   1.294  15.633  2.5254  2.8987  3.6186
 5680SOL    HW228500   4.398   1.438  15.598  3.0736 -1.9980 -1.0669
 5681SOL     OW28501   0.749   0.204  16.317 -0.0605 -0.0508  0.4917
 5681SOL    HW128502   0.748   0.195  16.412  2.1274  0.6099  0.5696
 5681SOL    HW228503   0.797   0.125  16.290  1.6758  1.5979 -1.2186
 5682SOL     OW28504   2.169   4.412   5.207 -0.7465  0.3711 -0.0984
 5682SOL    HW128505   2.150   4.450   5.121 -1.7188  0.0404 -0.0278
 5682SOL    HW228506   2.257   4.443   5.230 -0.5727  1.1971 -1.8999
 5683SOL     OW28507   3.641   0.589   6.320 -0.3108  0.1847  0.6967
 5683SOL    HW128508   3.688   0.556   6.244  0.2732 -0.7558  1.4661
 5683SOL    HW228509   3.636   0.684   6.306 -1.7261  0.2405  1.5891
 5684SOL     OW28510   1.007   2.797  17.454 -0.4517  0.3865  0.1023
 5684SOL    HW128511   1.054   2.787  17.537  2.6725  1.2203 -1.5253
 5684SOL    HW228512   1.062   2.744  17.395 -0.2620  0.4575  0.2133
 5685SOL     OW28513   1.591   0.846   8.490  0.2253  0.2195  0.2123
 5685SOL    HW128514   1.669   0.798   8.462 -1.6765 -1.8537 -1.5491
 5685SOL    HW228515   1.576   0.809   8.577  1.7197  1.8534  1.1659
 5686SOL     OW28516   1.086   1.925  12.872 -0.2677  0.0888  0.2727
 5686SOL    HW128517   1.010   1.954  12.822  0.0634 -1.9430 -1.4207
 5686SOL    HW228518   1.115   2.010  12.905  1.5344 -0.5369  0.3086
 5687SOL     OW28519   1.878   0.629  10.268  0.0210  0.0188 -0.0828
 5687SOL    HW128520   1.784   0.611  10.276 -0.3176  0.9739 -2.0260
 5687SOL    HW228521   1.900   0.662  10.355 -1.7674 -2.5337  1.3144
 5688SOL     OW28522   1.633   2.456   1.541 -0.3369  0.0855  0.3729
 5688SOL    HW128523   1.599   2.508   1.614 -1.0817 -1.0960  0.8812
 5688SOL    HW228524   1.596   2.495   1.462 -0.6450  1.2658  1.0951
 5689SOL     OW28525   2.440   2.104  17.097 -0.0844 -0.4187 -0.0264
 5689SOL    HW128526   2.363   2.052  17.075 -1.6042  0.8141  2.3660
 5689SOL    HW228527   2.465   2.069  17.183 -0.4050 -0.1106  0.1912
 5690SOL     OW28528   3.301   1.878  12.838 -0.1666  0.0248 -0.4270
 5690SOL    HW128529   3.231   1.824  12.874 -0.0799  0.1878 -0.0109
 5690SOL    HW228530   3.275   1.966  12.866 -2.9626 -0.8893 -0.1710
 5691SOL     OW28531   1.042   3.753   5.758 -0.1225  0.4502 -0.3472
 5691SOL    HW128532   1.106   3.702   5.708  0.3745  0.4847  0.2473
 5691SOL    HW228533   0.959   3.728   5.717 -1.0867  0.2485  1.7662
 5692SOL     OW28534   3.602   1.933  13.477  0.0468 -0.1021 -0.3236
 5692SOL    HW128535   3.563   1.910  13.393  1.2439  0.3580 -1.0013
 5692SOL    HW228536   3.669   1.867  13.498  2.1304  1.6668 -1.4803
 5693SOL     OW28537   0.713   0.785   6.290 -0.1225  0.0541  0.5075
 5693SOL    HW128538   0.727   0.879   6.281 -1.7330  0.1533 -0.9068
 5693SOL    HW228539   0.678   0.780   6.379  0.1896 -1.6608  0.5350
 5694SOL     OW28540   1.083   1.398   7.997 -0.6453  0.0228  0.3604
 5694SOL    HW128541   1.087   1.323   8.055 -0.5556 -0.8182 -0.7236
 5694SOL    HW228542   1.000   1.389   7.951 -1.2554  0.1985  1.4426
 5695SOL     OW28543   2.485   2.496   2.808  0.2587  0.6671 -0.3905
 5695SOL    HW128544   2.475   2.447   2.727  0.0280 -0.2547  0.1910
 5695SOL    HW228545   2.570   2.538   2.810  0.2855  0.5611  0.8080
 5696SOL     OW28546   2.420   0.508   3.461 -0.3839 -0.4493 -0.1254
 5696SOL    HW128547   2.446   0.575   3.524 -3.0519 -0.4355  0.9881
 5696SOL    HW228548   2.503   0.489   3.417 -0.4579 -0.7382 -0.1395
 5697SOL     OW28549   0.190   0.725   6.667  0.3517 -0.1115  0.5130
 5697SOL    HW128550   0.268   0.689   6.625 -1.1156 -2.5195 -0.0975
 5697SOL    HW228551   0.182   0.810   6.623 -2.6787 -0.8396 -0.3345
 5698SOL     OW28552   2.929   2.860   8.691  0.1868  0.2228  0.6209
 5698SOL    HW128553   2.949   2.905   8.774  0.0146  1.5609 -0.0581
 5698SOL    HW228554   3.017   2.824   8.682 -0.1468 -0.4629  0.1304
 5699SOL     OW28555   4.717   1.147   9.705  0.0544 -0.4301 -0.3335
 5699SOL    HW128556   4.671   1.183   9.628 -0.1580  0.2847  0.1253
 5699SOL    HW228557   4.642   1.122   9.760  0.4301  0.9313  0.8005
 5700SOL     OW28558   3.154   2.784  16.903 -0.0725 -0.2178  0.1016
 5700SOL    HW128559   3.082   2.833  16.862 -0.7068 -0.6082  0.7595
 5700SOL    HW228560   3.178   2.843  16.974  2.1482  1.1471 -1.7910
 5701SOL     OW28561   1.668   1.669   1.414  0.0164 -0.0794  0.2412
 5701SOL    HW128562   1.659   1.753   1.460 -1.7720 -0.9315  1.4236
 5701SOL    HW228563   1.653   1.681   1.320  3.0429  2.9541  0.1240
 5702SOL     OW28564   4.151   2.193   6.921 -0.2143 -0.3013 -0.5498
 5702SOL    HW128565   4.150   2.234   7.008 -1.2776 -1.6581  0.0732
 5702SOL    HW228566   4.237   2.218   6.887 -0.2229 -0.0653 -0.4043
 5703SOL     OW28567   3.679   3.687   8.797  0.1867 -0.5820  0.0995
 5703SOL    HW128568   3.763   3.647   8.773 -0.9924 -3.3812  0.6119
 5703SOL    HW228569   3.620   3.634   8.742 -1.5903  1.8009 -0.3052
 5704SOL     OW28570   2.574   3.514   3.945  0.0754  0.6733  0.5490
 5704SOL    HW128571   2.655   3.467   3.924 -0.0977  0.2196  0.8973
 5704SOL    HW228572   2.553   3.490   4.036  0.8700  0.3412  0.6463
 5705SOL     OW28573   2.942   0.232   4.734  0.5341  0.0747  0.9503
 5705SOL    HW128574   2.865   0.259   4.783 -1.4690 -0.4303 -1.8734
 5705SOL    HW228575   2.915   0.240   4.642 -0.1365  2.1005  1.3227
 5706SOL     OW28576   0.777   4.474   2.971  0.6568  0.5989  0.5869
 5706SOL    HW128577   0.744   4.449   2.885  0.6889  1.8093  0.2205
 5706SOL    HW228578   0.768   4.402   3.032 -0.9677  0.9831  0.8020
 5707SOL     OW28579   3.189   1.980   3.785 -0.4123 -0.0282  0.6999
 5707SOL    HW128580   3.148   2.037   3.850  1.4390 -0.2237  2.0340
 5707SOL    HW228581   3.116   1.923   3.762 -0.6510  0.5790 -0.0544
 5708SOL     OW28582   4.562   3.117   2.697 -0.5837 -0.4188  0.2014
 5708SOL    HW128583   4.646   3.072   2.705  0.0402  0.6236 -0.4466
 5708SOL    HW228584   4.533   3.108   2.787 -1.3845 -1.2308 -0.1374
 5709SOL     OW28585   1.523   4.669   9.697  0.2007 -0.0279  0.2682
 5709SOL    HW128586   1.473   4.598   9.657 -0.2859  0.5847 -0.2169
 5709SOL    HW228587   1.470   4.681   9.775 -1.6098  0.4573 -1.0297
 5710SOL     OW28588   0.962   2.189  16.170 -0.0949  0.5107  0.5063
 5710SOL    HW128589   1.030   2.205  16.235 -0.3783 -0.0569  0.9356
 5710SOL    HW228590   0.983   2.265  16.114  1.4489  1.1955  2.0039
 5711SOL     OW28591   2.700   3.426  13.916  0.6238 -0.3123  0.5462
 5711SOL    HW128592   2.657   3.462  13.839  0.6495  0.3633  0.8455
 5711SOL    HW228593   2.722   3.510  13.958 -1.1280  2.1075 -3.3374
 5712SOL     OW28594   3.200   3.839  17.029 -0.5287 -0.0459 -0.3841
 5712SOL    HW128595   3.144   3.915  17.046 -0.4926 -0.0916 -0.0602
 5712SOL    HW228596   3.207   3.845  16.933 -2.8647 -2.1129 -0.6771
 5713SOL     OW28597   1.073   1.028   9.404 -0.5553  0.3088 -0.5578
 5713SOL    HW128598   1.167   1.043   9.391 -0.6691  1.1324 -0.4274
 5713SOL    HW228599   1.054   1.085   9.479  0.5277 -0.3892  0.2510
 5714SOL     OW28600   4.180   0.168   5.946  0.8620 -0.2484  0.0944
 5714SOL    HW128601   4.154   0.213   5.866  2.0796  1.1182  0.4663
 5714SOL    HW228602   4.103   0.193   5.997  0.2789 -1.9715  0.0283
 5715SOL     OW28603   4.523   4.184   0.456  0.2914  0.0932  0.3789
 5715SOL    HW128604   4.510   4.100   0.414 -2.0077  1.4922 -1.7448
 5715SOL    HW228605   4.557   4.234   0.382 -1.9687  0.9937 -0.0633
 5716SOL     OW28606   2.028   4.659   5.534 -0.4731 -0.1177  0.3505
 5716SOL    HW128607   1.938   4.626   5.542 -0.7970  0.6631 -0.0593
 5716SOL    HW228608   2.041   4.695   5.621 -1.0550  0.5428  0.1690
 5717SOL     OW28609   1.456   3.117   5.177  0.1640 -0.4693  0.2566
 5717SOL    HW128610   1.386   3.179   5.160 -1.5159 -2.4988 -0.2083
 5717SOL    HW228611   1.438   3.052   5.109 -2.5796 -0.1671  0.7100
 5718SOL     OW28612   1.717   2.498   8.457  0.5256 -0.4243  0.1519
 5718SOL    HW128613   1.746   2.572   8.511  0.4448 -0.1108 -0.2376
 5718SOL    HW228614   1.719   2.419   8.511  1.1023 -0.2832  0.3340
 5719SOL     OW28615   2.558   4.458   2.249 -0.1558  0.1315  0.1785
 5719SOL    HW128616   2.510   4.407   2.184 -0.6346 -2.2569  2.4295
 5719SOL    HW228617   2.555   4.401   2.325  0.1869 -1.3606 -0.9256
 5720SOL     OW28618   2.536   1.552   7.851 -0.1288  0.2114 -0.2051
 5720SOL    HW128619   2.529   1.456   7.844 -0.7600 -0.0229  3.4781
 5720SOL    HW228620   2.441   1.559   7.864  0.0037 -0.7724  1.2614
 5721SOL     OW28621   3.884   3.374  10.823 -0.2805  0.0880 -0.1505
 5721SOL    HW128622   3.907   3.305  10.885 -1.9643 -0.0875  0.2837
 5721SOL    HW228623   3.790   3.383  10.841 -0.5473  2.3730 -2.5699
 5722SOL     OW28624   1.660   4.004   3.591  0.4050  0.0189  0.1119
 5722SOL    HW128625   1.625   4.047   3.514  1.4417 -0.3185 -0.5459
 5722SOL    HW228626   1.748   3.984   3.559  1.1180  1.4860  1.1164
 5723SOL     OW28627   4.617   1.120   2.865  0.4399  0.1770  0.6029
 5723SOL    HW128628   4.571   1.198   2.898  2.7701  3.3511 -3.7455
 5723SOL    HW228629   4.639   1.148   2.777 -2.9925  0.4264 -0.2019
 5724SOL     OW28630   4.030   0.444  10.637 -0.3572  0.4016 -0.0765
 5724SOL    HW128631   4.019   0.349  10.637  0.4583  0.3071  1.6309
 5724SOL    HW228632   3.946   0.481  10.664 -0.0229 -0.2207  1.8465
 5725SOL     OW28633   0.978   2.093  17.661 -0.5186  0.3914  0.3918
 5725SOL    HW128634   0.955   2.010   0.022 -2.6385  1.0552  0.5439
 5725SOL    HW228635   0.953   2.160   0.044 -1.0712 -0.3334  0.9466
 5726SOL     OW28636   2.600   2.778  12.272  0.3980 -0.0013 -0.2514
 5726SOL    HW128637   2.586   2.851  12.333 -0.2910 -2.1307  2.1347
 5726SOL    HW228638   2.530   2.715  12.288 -0.8847  1.6104  0.4621
 5727SOL     OW28639   4.523   4.163   5.723 -0.2922  0.0496  0.1023
 5727SOL    HW128640   4.540   4.241   5.776 -1.5920  0.7362 -0.4734
 5727SOL    HW228641   4.431   4.144   5.743 -0.3794 -0.6841 -0.9627
 5728SOL     OW28642   3.629   3.578   4.709 -0.1445  0.1245  0.1827
 5728SOL    HW128643   3.683   3.603   4.634  1.1580 -0.5241  0.8947
 5728SOL    HW228644   3.542   3.612   4.690 -1.3547 -2.4644  1.1723
 5729SOL     OW28645   4.608   2.872   6.474 -0.5138 -0.2544  0.1922
 5729SOL    HW128646   4.603   2.800   6.537 -2.3472 -0.5781 -0.3294
 5729SOL    HW228647   4.533   2.928   6.490  1.1125  1.7279  0.9166
 5730SOL     OW28648   3.329   0.960   9.468 -0.1652 -0.0028 -0.6192
 5730SOL    HW128649   3.418   0.946   9.500 -0.4409 -0.4157 -0.0519
 5730SOL    HW228650   3.284   0.932   9.547  1.6154  1.4272  0.9019
 5731SOL     OW28651   0.264   2.193  10.495 -0.5768 -0.0729 -0.5688
 5731SOL    HW128652   0.220   2.265  10.450  0.2051  1.7526  1.5694
 5731SOL    HW228653   0.315   2.149  10.427  1.3554  2.4478 -0.7550
 5732SOL     OW28654   2.348   2.733  15.306 -0.0246 -0.0798  0.3826
 5732SOL    HW128655   2.410   2.663  15.287  0.3696  0.4452 -0.2843
 5732SOL    HW228656   2.373   2.762  15.393 -2.2982 -2.6264  1.8757
 5733SOL     OW28657   0.604   2.928   1.752 -0.1715 -0.2522 -0.0587
 5733SOL    HW128658   0.576   2.977   1.830 -0.0292 -2.3869  1.3477
 5733SOL    HW228659   0.574   2.838   1.767  3.6410 -1.1909  1.9909
 5734SOL     OW28660   1.971   3.401   3.551 -0.5956 -0.4378 -0.2404
 5734SOL    HW128661   2.006   3.430   3.636 -1.8859  1.0802 -0.2162
 5734SOL    HW228662   1.989   3.472   3.489 -0.4489  0.7769  1.1898
 5735SOL     OW28663   4.585   2.963   3.691 -0.1489 -0.3258 -0.5316
 5735SOL    HW128664   4.564   3.033   3.752 -2.0703  0.0393 -1.6040
 5735SOL    HW228665   4.626   3.010   3.619  0.4327  0.5030  0.3443
 5736SOL     OW28666   2.011   4.122   8.222  0.2791 -0.3172  0.7990
 5736SOL    HW128667   1.944   4.159   8.279  0.4924  2.3331 -0.6604
 5736SOL    HW228668   1.994   4.178   8.146  0.0766  1.6652  2.3221
 5737SOL     OW28669   0.070   2.562  16.914 -0.4961 -0.0362 -0.3603
 5737SOL    HW128670   4.715   2.542  16.970 -0.0035 -0.7478  0.0334
 5737SOL    HW228671   0.075   2.483  16.860  2.2028 -0.3590  0.3503
 5738SOL     OW28672   4.510   2.662   6.631 -0.0650  0.6968 -0.0680
 5738SOL    HW128673   4.416   2.653   6.648  0.3134  0.9839  2.2136
 5738SOL    HW228674   4.549   2.575   6.643  0.9809  0.8403 -2.3818
 5739SOL     OW28675   1.937   3.485   7.818  0.3759  0.5205 -0.0033
 5739SOL    HW128676   1.930   3.391   7.834  1.5207  0.3947 -0.2341
 5739SOL    HW228677   1.857   3.517   7.861 -0.4958 -1.6661  0.0064
 5740SOL     OW28678   1.378   4.462   9.590 -0.4283 -0.2867  0.3263
 5740SOL    HW128679   1.324   4.410   9.650  0.5395  0.0432  1.4905
 5740SOL    HW228680   1.380   4.409   9.510  1.0967 -0.5039  0.4984
 5741SOL     OW28681   1.243   0.343   2.464 -0.4388 -0.5843 -1.3105
 5741SOL    HW128682   1.202   0.276   2.519  2.6780 -1.0914  0.4270
 5741SOL    HW228683   1.332   0.308   2.472 -1.4133 -2.3885  1.4963
 5742SOL     OW28684   1.475   0.210  17.143  0.5139  0.3526  0.4699
 5742SOL    HW128685   1.555   0.208  17.194  0.8404 -2.4979 -0.1657
 5742SOL    HW228686   1.448   0.302  17.136  1.7077  0.5889 -0.9947
 5743SOL     OW28687   3.547   2.416  16.208 -0.7017 -0.2539 -0.3663
 5743SOL    HW128688   3.531   2.501  16.249  0.9418  1.2926 -2.9221
 5743SOL    HW228689   3.642   2.419  16.195 -0.8438  0.0737 -1.3111
 5744SOL     OW28690   3.129   3.182  15.761  0.2913  0.1506  0.7159
 5744SOL    HW128691   3.090   3.225  15.685  2.1120  0.2586 -0.1576
 5744SOL    HW228692   3.153   3.255  15.817 -1.0970 -0.3430  1.9588
 5745SOL     OW28693   0.819   1.352   4.738  0.0128 -0.2330  0.2959
 5745SOL    HW128694   0.874   1.309   4.672 -0.1362  0.3462 -0.1983
 5745SOL    HW228695   0.753   1.384   4.677 -0.1674  1.9023  1.6282
 5746SOL     OW28696   2.591   3.099   3.731 -0.0844  0.0437 -0.0606
 5746SOL    HW128697   2.680   3.093   3.698  0.0463  1.0085  0.1309
 5746SOL    HW228698   2.545   3.141   3.659 -1.4092 -0.3347  0.5583
 5747SOL     OW28699   3.616   0.625   6.582 -0.3230 -0.5633 -0.6068
 5747SOL    HW128700   3.630   0.619   6.487  0.0888 -0.4574 -0.5522
 5747SOL    HW228701   3.609   0.718   6.602  1.4286 -0.1480 -1.8858
 5748SOL     OW28702   0.553   2.496   4.296 -0.3505 -0.0435 -0.3452
 5748SOL    HW128703   0.614   2.478   4.368  0.2842 -0.9170 -1.1077
 5748SOL    HW228704   0.557   2.413   4.250  2.4468 -1.5421  2.5598
 5749SOL     OW28705   3.715   1.643   0.539 -0.0206 -0.9180 -0.1638
 5749SOL    HW128706   3.629   1.675   0.564  0.6343  1.9261 -1.5818
 5749SOL    HW228707   3.760   1.662   0.621  1.3754  1.2981 -1.4331
 5750SOL     OW28708   3.892   3.141   8.910  0.2639 -0.1034  0.2184
 5750SOL    HW128709   3.934   3.067   8.954 -0.2018 -0.2444  0.4309
 5750SOL    HW228710   3.854   3.189   8.984 -0.3357  1.4958 -1.1350
 5751SOL     OW28711   0.699   2.359   4.752  0.3040  0.3254 -0.3217
 5751SOL    HW128712   0.639   2.320   4.689  0.3706  2.4656 -1.6994
 5751SOL    HW228713   0.735   2.284   4.798 -0.8890  0.2235  0.4536
 5752SOL     OW28714   1.845   3.999   0.736 -0.1386 -0.6491  0.1199
 5752SOL    HW128715   1.823   3.966   0.649  3.4106  0.0575 -1.0830
 5752SOL    HW228716   1.828   4.093   0.737  0.7627 -0.4375 -3.6911
 5753SOL     OW28717   1.178   2.678   1.364  0.5500 -0.3512  0.3181
 5753SOL    HW128718   1.194   2.772   1.361 -0.1654 -0.2351  0.1684
 5753SOL    HW228719   1.180   2.647   1.273 -0.8513  0.2766  0.0732
 5754SOL     OW28720   1.847   4.619  16.969  0.2804  0.1352 -0.2526
 5754SOL    HW128721   1.923   4.666  16.936  0.8100 -0.7169 -0.2340
 5754SOL    HW228722   1.877   4.573  17.046  0.4705  0.7438  0.0387
 5755SOL     OW28723   4.242   3.420   9.076 -0.2513  0.4926 -0.3628
 5755SOL    HW128724   4.197   3.366   9.141  1.3925 -0.0870  0.2967
 5755SOL    HW228725   4.262   3.349   9.015 -0.5726  1.0368 -1.0935
 5756SOL     OW28726   4.388   0.869  12.330 -0.0113 -0.2823 -0.6767
 5756SOL    HW128727   4.457   0.927  12.361  0.6690 -1.3531 -0.1977
 5756SOL    HW228728   4.442   0.818  12.270 -1.4943  0.2531 -2.4884
 5757SOL     OW28729   1.914   0.640  12.576  0.3558 -0.0953  0.1587
 5757SOL    HW128730   1.821   0.658  12.590  0.3297 -1.1788  1.4034
 5757SOL    HW228731   1.919   0.630  12.481 -0.3279  0.6822  0.0400
 5758SOL     OW28732   2.996   1.760  14.215  0.1226  0.2938  0.7305
 5758SOL    HW128733   2.902   1.749  14.204  0.3855 -0.2794 -1.0536
 5758SOL    HW228734   3.019   1.816  14.140 -1.3595 -2.5204 -1.8430
 5759SOL     OW28735   3.005   3.213   3.973  0.8193  0.1126 -0.4413
 5759SOL    HW128736   3.080   3.216   3.914  0.6163  0.8803 -0.6648
 5759SOL    HW228737   2.981   3.126   3.941 -0.7174  0.5503 -0.4616
 5760SOL     OW28738   2.807   3.064   6.941  0.1256  0.0337 -0.0701
 5760SOL    HW128739   2.783   3.052   7.032  2.4242 -0.8153  0.4414
 5760SOL    HW228740   2.853   3.148   6.937 -0.4027  0.2566 -1.5097
 5761SOL     OW28741   2.537   2.062   5.244  0.0977 -0.0973  0.0680
 5761SOL    HW128742   2.512   2.014   5.324 -0.3951 -2.0071 -1.2365
 5761SOL    HW228743   2.508   2.007   5.171  1.9198 -1.2892  0.2424
 5762SOL     OW28744   4.180   4.679  12.574  0.0398  0.3630  0.3507
 5762SOL    HW128745   4.213   0.009  12.499 -0.3897 -0.5017 -0.4127
 5762SOL    HW228746   4.088   4.705  12.572 -0.3548 -1.1223 -1.4980
 5763SOL     OW28747   4.030   1.752   0.497 -0.3293  0.1905  0.0357
 5763SOL    HW128748   4.087   1.682   0.530 -0.6518 -1.3127 -2.5903
 5763SOL    HW228749   3.997   1.709   0.418  0.0859 -0.1135  0.0267
 5764SOL     OW28750   1.786   4.398   8.604  0.5783  0.0670  0.5264
 5764SOL    HW128751   1.861   4.430   8.654  3.0741 -0.9297 -2.5921
 5764SOL    HW228752   1.723   4.390   8.676 -1.3942  1.0700 -1.1097
 5765SOL     OW28753   1.805   2.081   3.430 -0.3828 -0.4038 -0.0257
 5765SOL    HW128754   1.807   2.114   3.520 -0.4944 -1.3827  0.3368
 5765SOL    HW228755   1.710   2.073   3.422 -0.4325 -0.2027  0.3588
 5766SOL     OW28756   3.335   4.713   4.719  0.0132  0.1310 -0.0035
 5766SOL    HW128757   3.388   4.709   4.639  1.6077  0.6418  1.0382
 5766SOL    HW228758   3.311   4.621   4.709 -1.3959  0.3248  1.5839
 5767SOL     OW28759   3.297   0.713  14.333 -0.3568  0.0677 -0.4222
 5767SOL    HW128760   3.234   0.723  14.404  1.1234 -0.0937  0.9257
 5767SOL    HW228761   3.372   0.674  14.378 -0.9669 -1.4755 -0.7352
 5768SOL     OW28762   2.457   4.142   1.701  0.9912 -0.6474  0.1477
 5768SOL    HW128763   2.396   4.199   1.653  2.1941 -0.3160 -0.9622
 5768SOL    HW228764   2.500   4.196   1.767  2.3272 -0.6544 -0.7238
 5769SOL     OW28765   4.645   0.580   5.047  0.1809 -0.0367  0.4637
 5769SOL    HW128766   4.705   0.527   4.995 -1.4593 -0.5768 -0.8734
 5769SOL    HW228767   4.694   0.662   5.050  1.4812 -0.7996 -0.1562
 5770SOL     OW28768   3.735   1.207   8.654 -0.5673  0.0165 -0.1377
 5770SOL    HW128769   3.745   1.190   8.560  0.8860 -0.4160  0.0877
 5770SOL    HW228770   3.676   1.281   8.663 -0.3293 -0.2332  3.3744
 5771SOL     OW28771   4.346   0.488   8.063  0.3070  0.1671  0.3021
 5771SOL    HW128772   4.275   0.439   8.022 -1.3215  1.9580  0.9436
 5771SOL    HW228773   4.318   0.496   8.154 -2.1196 -3.1568 -0.1476
 5772SOL     OW28774   1.192   2.680   0.329 -0.0883 -0.5312 -0.2195
 5772SOL    HW128775   1.190   2.676   0.234  2.1445 -1.7362 -0.2229
 5772SOL    HW228776   1.228   2.768   0.342 -1.9578  0.1469  0.3994
 5773SOL     OW28777   4.715   1.432   0.718  0.0067  0.1406  0.0408
 5773SOL    HW128778   4.704   1.344   0.753  1.2135  0.7608  1.9878
 5773SOL    HW228779   0.085   1.454   0.746 -0.8039  1.9381  1.1887
 5774SOL     OW28780   2.296   3.575   7.283  0.4554  0.2799  0.0655
 5774SOL    HW128781   2.389   3.572   7.303  0.4128  2.2853  0.5680
 5774SOL    HW228782   2.260   3.505   7.338 -2.5886  0.7235 -1.3787
 5775SOL     OW28783   4.428   3.641  10.950 -0.0516 -0.5668 -0.0317
 5775SOL    HW128784   4.339   3.669  10.928 -0.2099 -0.2673  0.9506
 5775SOL    HW228785   4.420   3.548  10.932  3.6136 -0.4950 -1.8304
 5776SOL     OW28786   3.916   4.150   3.491 -0.3294  0.5893 -0.1529
 5776SOL    HW128787   3.953   4.207   3.423  1.3587 -2.5608 -1.8940
 5776SOL    HW228788   3.947   4.201   3.565  1.3268 -0.6342  0.0065
 5777SOL     OW28789   0.642   2.560   8.359 -0.4303  0.4302  0.3896
 5777SOL    HW128790   0.698   2.483   8.351 -0.5067  0.4800 -0.6134
 5777SOL    HW228791   0.630   2.566   8.454 -2.3250 -1.1311  0.2378
 5778SOL     OW28792   1.755   3.170   7.710 -0.1624  0.3362  0.0851
 5778SOL    HW128793   1.826   3.175   7.774  1.3360  0.6469 -1.6133
 5778SOL    HW228794   1.787   3.231   7.644 -0.5313 -1.8632 -2.1063
 5779SOL     OW28795   3.599   0.073   1.296 -0.2894  0.4554 -0.1388
 5779SOL    HW128796   3.686   0.077   1.336  0.3368 -2.6297 -1.1978
 5779SOL    HW228797   3.544   0.063   1.373 -2.5872  1.2394 -1.6773
 5780SOL     OW28798   4.556   0.899   0.074  0.3283  0.4127  0.0242
 5780SOL    HW128799   4.615   0.829   0.044 -1.3011 -1.1736  0.5692
 5780SOL    HW228800   4.617   0.963   0.111 -1.5363  2.3141 -0.2133
 5781SOL     OW28801   2.488   4.058  13.974  0.0226 -0.3842  0.2575
 5781SOL    HW128802   2.501   3.970  14.011 -0.0090 -0.9719 -1.1017
 5781SOL    HW228803   2.407   4.089  14.014 -0.1654  1.0545 -1.2335
 5782SOL     OW28804   1.460   0.588   4.775 -0.0210  0.2594 -0.1271
 5782SOL    HW128805   1.515   0.664   4.757  0.0003  0.2351 -0.1646
 5782SOL    HW228806   1.532   0.531   4.802  0.8897  1.6522  0.3722
 5783SOL     OW28807   3.650   3.937  17.228 -0.5636  0.3619 -0.2953
 5783SOL    HW128808   3.728   3.891  17.259 -1.6870  0.4183  2.6576
 5783SOL    HW228809   3.674   3.955  17.137 -2.3572  1.2975 -0.5773
 5784SOL     OW28810   3.755   4.422  11.129  0.0488  0.2206  0.4140
 5784SOL    HW128811   3.832   4.384  11.085 -0.2917  0.0111  0.0010
 5784SOL    HW228812   3.684   4.378  11.083  1.2220 -2.1406  0.8322
 5785SOL     OW28813   3.060   2.147   8.800 -0.3163  0.3151 -1.0258
 5785SOL    HW128814   3.038   2.198   8.878 -0.1490  0.6396 -1.1882
 5785SOL    HW228815   3.151   2.178   8.801  0.0152 -0.7084  1.3695
 5786SOL     OW28816   1.512   2.925   8.523  0.0927 -0.5857 -0.5398
 5786SOL    HW128817   1.514   2.981   8.600  0.2254 -0.6730 -0.4808
 5786SOL    HW228818   1.548   2.986   8.458  0.6455  3.0112  3.1416
 5787SOL     OW28819   0.202   3.695   2.993 -0.1424 -0.2414 -0.0960
 5787SOL    HW128820   0.211   3.776   2.943  1.4662 -1.2364 -1.4048
 5787SOL    HW228821   0.139   3.723   3.060 -2.5438 -1.9917 -1.6396
 5788SOL     OW28822   4.047   3.164   5.327  0.3295  0.2064 -0.7435
 5788SOL    HW128823   4.139   3.187   5.320  0.2174  0.8746  0.0329
 5788SOL    HW228824   4.042   3.114   5.245 -2.4401 -0.8412  0.0660
 5789SOL     OW28825   1.961   4.243  11.552  0.0708 -0.3267  0.2943
 5789SOL    HW128826   1.928   4.282  11.472  1.5879  1.0680  0.3342
 5789SOL    HW228827   1.906   4.165  11.557 -1.6289  0.9296  1.2648
 5790SOL     OW28828   4.568   1.228  11.631  0.0966 -0.2270 -0.0812
 5790SOL    HW128829   4.609   1.155  11.585  0.8071 -1.0968  1.9241
 5790SOL    HW228830   4.490   1.183  11.665  1.2603 -1.8254  0.4707
 5791SOL     OW28831   1.359   2.237  10.682 -0.0767 -0.1886  0.2457
 5791SOL    HW128832   1.447   2.222  10.715 -0.1387 -0.3161  0.3573
 5791SOL    HW228833   1.352   2.181  10.605 -1.2427  0.0573  0.1669
 5792SOL     OW28834   2.389   2.156   4.429  0.5431  0.4411 -0.5269
 5792SOL    HW128835   2.417   2.079   4.479  0.8723  0.2990 -0.9300
 5792SOL    HW228836   2.395   2.229   4.490  1.2201  0.5782 -0.7571
 5793SOL     OW28837   2.127   2.954   5.992 -0.0262  0.0343  0.2755
 5793SOL    HW128838   2.080   2.975   5.911  3.3187  1.7038 -1.2066
 5793SOL    HW228839   2.049   2.930   6.043 -0.9579  0.9200 -0.7165
 5794SOL     OW28840   4.415   4.639   2.650  0.4883  0.1478 -0.6962
 5794SOL    HW128841   4.370   4.584   2.585 -3.7929 -0.8661  3.1090
 5794SOL    HW228842   4.490   4.665   2.597 -0.5483 -0.9390 -2.7398
 5795SOL     OW28843   3.481   2.354   6.277  0.0762 -0.2364 -0.1071
 5795SOL    HW128844   3.437   2.396   6.350 -1.5342  0.1745 -1.3043
 5795SOL    HW228845   3.549   2.298   6.314  0.7298 -0.5339 -1.7332
 5796SOL     OW28846   1.623   3.056   3.894 -0.0537  0.4749  0.5373
 5796SOL    HW128847   1.542   3.101   3.871 -0.8444 -0.6653  1.1506
 5796SOL    HW228848   1.620   3.071   3.988  1.0567 -2.1872  1.0012
 5797SOL     OW28849   1.200   1.740   4.906  0.3560  0.3440 -0.2163
 5797SOL    HW128850   1.132   1.676   4.884  0.1625  0.6474 -0.4925
 5797SOL    HW228851   1.161   1.822   4.876 -1.2197 -0.7468 -1.2144
 5798SOL     OW28852   3.690   2.452   5.998  0.0069  0.8316 -0.1308
 5798SOL    HW128853   3.683   2.507   6.076  0.7206 -1.0797  1.2572
 5798SOL    HW228854   3.707   2.368   6.041  2.4399  1.5852  0.3443
 5799SOL     OW28855   1.787   1.179   9.623  0.1938  0.2730 -0.1367
 5799SOL    HW128856   1.848   1.165   9.696 -1.4690 -0.7766  1.0376
 5799SOL    HW228857   1.779   1.086   9.601  0.6992  0.2929 -0.4160
 5800SOL     OW28858   2.337   0.115  10.670  0.6776  0.0174 -0.1271
 5800SOL    HW128859   2.414   0.058  10.662  0.0301 -0.6757 -1.3046
 5800SOL    HW228860   2.317   0.087  10.760 -0.2777 -2.5943 -1.1501
 5801SOL     OW28861   1.810   1.696   8.375 -0.1145 -0.3336 -0.1644
 5801SOL    HW128862   1.740   1.725   8.318 -0.9368  0.8819  1.4831
 5801SOL    HW228863   1.884   1.706   8.314  0.6233 -3.5866  0.1681
 5802SOL     OW28864   3.401   0.518  16.871 -0.2878 -0.1849  0.3513
 5802SOL    HW128865   3.378   0.488  16.959  0.7349 -1.1647  0.2771
 5802SOL    HW228866   3.316   0.529  16.829 -1.1844 -0.1121  2.1775
 5803SOL     OW28867   4.465   0.275   4.289 -0.2101 -0.2651  0.1332
 5803SOL    HW128868   4.386   0.311   4.250  0.2181  2.1667  1.5298
 5803SOL    HW228869   4.523   0.344   4.260 -1.0750  2.3859  4.6855
 5804SOL     OW28870   1.085   3.059  15.239 -0.4219  0.1425  0.5594
 5804SOL    HW128871   1.052   3.149  15.238 -2.0044 -0.3675  4.6841
 5804SOL    HW228872   1.120   3.055  15.151 -0.8440  1.0498  0.3502
 5805SOL     OW28873   4.375   0.173   9.774  0.4489 -0.9894 -0.3554
 5805SOL    HW128874   4.402   0.081   9.773  4.3743  0.1823 -0.7789
 5805SOL    HW228875   4.282   0.154   9.791  0.1670  0.4492 -0.3113
 5806SOL     OW28876   0.935   1.434   3.847 -0.0931 -0.4882  0.4470
 5806SOL    HW128877   1.023   1.434   3.886 -0.0455  2.4862  0.3403
 5806SOL    HW228878   0.891   1.507   3.889 -0.6179 -0.6657  0.1952
 5807SOL     OW28879   2.000   2.677   5.551  0.0692  0.4023 -0.1964
 5807SOL    HW128880   2.070   2.644   5.607 -0.7614 -0.8305  0.1418
 5807SOL    HW228881   1.977   2.597   5.503  1.1551 -1.8135  2.9716
 5808SOL     OW28882   1.422   1.152   1.078  0.7424 -0.5482  0.3937
 5808SOL    HW128883   1.397   1.157   0.986  0.6103  1.8531  0.5683
 5808SOL    HW228884   1.454   1.242   1.088  2.1324 -0.8955 -1.0589
 5809SOL     OW28885   2.748   2.473  12.424 -0.6277  0.1315  0.7222
 5809SOL    HW128886   2.765   2.541  12.489  0.5452  0.2170  0.3185
 5809SOL    HW228887   2.775   2.527  12.350 -0.2266 -1.2463 -0.1363
 5810SOL     OW28888   4.347   2.512  17.110  0.1379  0.0209 -0.1640
 5810SOL    HW128889   4.332   2.564  17.189 -0.6818  1.4104 -1.2222
 5810SOL    HW228890   4.297   2.563  17.046 -0.5859  1.2297  1.3604
 5811SOL     OW28891   3.611   3.428  10.865  0.0234 -0.0839  0.1157
 5811SOL    HW128892   3.626   3.501  10.925 -1.8692 -0.3088  0.8561
 5811SOL    HW228893   3.550   3.470  10.804 -1.7869  0.5660  2.3843
 5812SOL     OW28894   2.104   0.319  15.085  0.1491  0.4980 -0.5096
 5812SOL    HW128895   2.119   0.242  15.029 -1.4744  1.4123 -2.1991
 5812SOL    HW228896   2.099   0.276  15.170 -0.1078  0.7605 -0.3936
 5813SOL     OW28897   0.195   4.399   0.656 -0.1207 -0.1248 -0.2051
 5813SOL    HW128898   0.105   4.429   0.672  0.5831  1.4512  0.7482
 5813SOL    HW228899   0.199   4.446   0.573 -0.3591  1.5102  0.7062
 5814SOL     OW28900   4.086   0.737  10.847  0.0641 -0.4336 -0.1132
 5814SOL    HW128901   4.070   0.767  10.757 -0.4450 -1.8865 -0.4954
 5814SOL    HW228902   4.051   0.813  10.894  2.1967  0.8665 -0.6413
 5815SOL     OW28903   3.414   2.967  17.309  0.0320 -0.4108  0.0955
 5815SOL    HW128904   3.403   2.876  17.280 -1.2463  0.4174 -2.0134
 5815SOL    HW228905   3.325   2.999  17.325  0.5519  1.9487 -1.7338
 5816SOL     OW28906   4.252   3.700   3.562  0.7189  0.3402 -0.0478
 5816SOL    HW128907   4.247   3.625   3.503 -2.6026  1.1198 -0.8088
 5816SOL    HW228908   4.239   3.764   3.491  0.4485 -1.1259 -1.3199
 5817SOL     OW28909   0.931   2.358   0.210 -0.3230 -0.1047 -0.8039
 5817SOL    HW128910   1.015   2.366   0.165  0.1555  1.8116  0.4399
 5817SOL    HW228911   0.947   2.391   0.299 -1.8692 -0.5292 -0.3759
 5818SOL     OW28912   1.169   3.102   7.460 -0.9021  0.0468  0.4400
 5818SOL    HW128913   1.090   3.094   7.514 -0.1607  0.9168  1.6373
 5818SOL    HW228914   1.210   3.016   7.472 -0.4437  0.1764 -0.2209
 5819SOL     OW28915   3.580   4.497   1.039 -0.2904 -0.2829 -0.8469
 5819SOL    HW128916   3.511   4.434   1.060  1.2916 -1.0824  1.8304
 5819SOL    HW228917   3.630   4.458   0.968  2.3567  0.9681  0.3534
 5820SOL     OW28918   4.232   3.950   7.598 -0.7089 -0.0160 -0.2008
 5820SOL    HW128919   4.162   4.010   7.626 -1.4565 -0.7981 -0.3829
 5820SOL    HW228920   4.189   3.907   7.524  0.1344  1.2918 -1.4295
 5821SOL     OW28921   4.031   0.393  13.571  0.1773  0.4542  0.3164
 5821SOL    HW128922   4.090   0.318  13.584  0.4660  0.6109 -0.0827
 5821SOL    HW228923   4.022   0.399  13.476 -0.7531  0.9204  0.4351
 5822SOL     OW28924   4.527   2.146   0.091 -0.1605  0.1896 -0.4882
 5822SOL    HW128925   4.449   2.195   0.066  1.9097  3.5544 -0.3368
 5822SOL    HW228926   4.584   2.157   0.015 -0.4126 -0.3184 -0.7480
 5823SOL     OW28927   3.494   0.306  16.370  0.3935 -0.0118 -0.2704
 5823SOL    HW128928   3.502   0.297  16.465  3.3087  2.0538 -0.3302
 5823SOL    HW228929   3.483   0.401  16.374 -1.1942 -0.2363  0.7767
 5824SOL     OW28930   0.285   0.260   8.221  0.0924  0.0467  0.1238
 5824SOL    HW128931   0.195   0.273   8.252 -0.1926  1.7821 -1.4296
 5824SOL    HW228932   0.311   0.352   8.220 -0.8908  0.3347  1.3124
 5825SOL     OW28933   1.469   4.483  12.832 -0.1836  0.9362  0.1024
 5825SOL    HW128934   1.391   4.522  12.871 -0.8114  2.7550 -2.9826
 5825SOL    HW228935   1.472   4.536  12.753 -0.7407  0.7485 -0.0419
 5826SOL     OW28936   0.886   4.359   8.650  0.1617  0.2268  0.1274
 5826SOL    HW128937   0.838   4.403   8.580  1.4257  0.9510 -0.2891
 5826SOL    HW228938   0.815   4.312   8.694  0.2063  1.6922  1.7814
 5827SOL     OW28939   2.933   4.378  16.616 -0.0233  0.1215 -0.1029
 5827SOL    HW128940   3.015   4.375  16.567 -1.1170 -0.8235 -1.8960
 5827SOL    HW228941   2.892   4.302  16.573 -0.9078  0.8775 -0.6037
 5828SOL     OW28942   1.939   1.729   6.153 -0.5450  0.1177 -0.0063
 5828SOL    HW128943   1.881   1.657   6.129 -1.7879  1.4567 -1.0372
 5828SOL    HW228944   2.017   1.689   6.190 -1.5657 -3.6046 -1.8606
 5829SOL     OW28945   2.241   2.351   5.006  0.4854 -0.4145 -0.0657
 5829SOL    HW128946   2.216   2.443   4.994  1.0303 -0.5037 -1.9110
 5829SOL    HW228947   2.331   2.358   4.974 -0.2850  0.4512 -1.9966
 5830SOL     OW28948   2.656   2.306   7.956  0.4856 -0.0916 -0.0860
 5830SOL    HW128949   2.600   2.234   7.985  0.7509 -0.1734  0.2165
 5830SOL    HW228950   2.724   2.307   8.022  0.7862  2.1667 -0.4222
 5831SOL     OW28951   3.910   0.154   7.544  0.1196 -0.3129  0.3374
 5831SOL    HW128952   3.866   0.082   7.587  0.9850 -0.2636  1.3004
 5831SOL    HW228953   3.865   0.155   7.459  0.0834 -0.7808  0.3555
 5832SOL     OW28954   0.844   4.221   4.066  0.1667  0.1044  0.2076
 5832SOL    HW128955   0.793   4.294   4.100 -0.6815 -1.1844  1.6991
 5832SOL    HW228956   0.777   4.178   4.012 -0.5505 -1.0178  2.0217
 5833SOL     OW28957   0.650   0.157   4.301 -0.1737  0.0071 -0.6361
 5833SOL    HW128958   0.713   0.229   4.296 -1.4966  1.0972 -1.3318
 5833SOL    HW228959   0.658   0.134   4.394  2.4663  0.0236 -0.8437
 5834SOL     OW28960   1.456   3.874  16.738 -0.0012 -0.0319 -0.1775
 5834SOL    HW128961   1.519   3.853  16.808  0.6715  1.7231 -0.2365
 5834SOL    HW228962   1.477   3.965  16.714  0.9405 -0.1311  0.2511
 5835SOL     OW28963   4.128   2.005   2.551 -0.5465 -0.2937  0.7069
 5835SOL    HW128964   4.039   2.036   2.535 -1.4926 -2.0273  2.7241
 5835SOL    HW228965   4.152   2.032   2.462 -4.4258  1.3391  0.1666
 5836SOL     OW28966   0.648   0.691   8.559  0.2738  0.5822 -0.3269
 5836SOL    HW128967   0.588   0.625   8.596  0.2510 -1.0006 -3.1874
 5836SOL    HW228968   0.649   0.770   8.613 -0.8104  0.0363  0.4994
 5837SOL     OW28969   0.666   3.162   6.828 -0.0612 -0.2110 -0.0880
 5837SOL    HW128970   0.679   3.160   6.923 -0.0093 -0.0879 -0.0920
 5837SOL    HW228971   0.573   3.138   6.835 -0.2019  0.1394 -0.7883
 5838SOL     OW28972   1.689   1.872   4.104  0.1724 -0.1196 -0.0500
 5838SOL    HW128973   1.647   1.787   4.100  1.2569 -0.6322 -0.5551
 5838SOL    HW228974   1.776   1.853   4.068 -0.0309 -1.7245  0.3062
 5839SOL     OW28975   1.555   3.956   5.578  0.0191 -0.1626 -0.0338
 5839SOL    HW128976   1.562   3.994   5.490  2.0530 -0.3081  0.0788
 5839SOL    HW228977   1.547   3.861   5.571  2.2437 -0.3739  0.5020
 5840SOL     OW28978   0.176   2.381   7.252 -0.2503  0.2479  0.1326
 5840SOL    HW128979   0.165   2.309   7.191 -1.0011  1.5341 -1.2619
 5840SOL    HW228980   0.189   2.345   7.340  2.2947  1.7323  0.3534
 5841SOL     OW28981   4.474   0.336  14.737  0.3751 -0.2430 -0.2355
 5841SOL    HW128982   4.466   0.335  14.833 -2.6507  1.2909 -0.4957
 5841SOL    HW228983   4.562   0.374  14.730  0.5520 -0.5083  0.5233
 5842SOL     OW28984   1.187   4.155  12.254  0.2142  0.1876 -0.3324
 5842SOL    HW128985   1.094   4.136  12.240  0.5304 -0.0501 -2.0229
 5842SOL    HW228986   1.192   4.250  12.241 -0.1804  0.4379  1.2621
 5843SOL     OW28987   0.323   1.727  15.105 -0.4159 -0.6372  0.3649
 5843SOL    HW128988   0.293   1.650  15.055  1.7003 -0.5937 -0.9933
 5843SOL    HW228989   0.416   1.733  15.084 -0.9017 -0.6841 -1.8344
 5844SOL     OW28990   2.244   1.959   2.764  0.5959 -0.1772  0.7090
 5844SOL    HW128991   2.208   1.897   2.700  1.5850  1.2411 -1.2034
 5844SOL    HW228992   2.176   2.026   2.775  0.4034 -0.0739 -1.1077
 5845SOL     OW28993   4.708   2.028   9.407  0.2554  0.7841 -0.1884
 5845SOL    HW128994   4.648   1.975   9.459  2.7815 -1.4825  0.3861
 5845SOL    HW228995   4.640   2.071   9.355  2.4555  0.8269 -3.0111
 5846SOL     OW28996   4.287   1.086  16.365 -0.1696 -0.2163  0.1386
 5846SOL    HW128997   4.276   1.024  16.437  0.7369 -0.5683 -0.0242
 5846SOL    HW228998   4.323   1.157  16.418  0.1563 -0.1845 -0.1183
 5847SOL     OW28999   3.683   1.558   5.402  0.1550  0.2510  0.0971
 5847SOL    HW129000   3.768   1.534   5.364  0.4634  0.4052  0.6936
 5847SOL    HW229001   3.710   1.562   5.493 -0.1593 -2.5733  0.3177
 5848SOL     OW29002   0.272   3.403  14.381 -0.2617  0.3525 -0.2446
 5848SOL    HW129003   0.276   3.309  14.396 -0.9922  0.5217  0.9989
 5848SOL    HW229004   0.363   3.413  14.353 -0.4004 -0.9575 -1.1379
 5849SOL     OW29005   4.188   3.729   1.734 -0.7175 -0.0946  0.0127
 5849SOL    HW129006   4.206   3.665   1.665 -0.0216  0.8192 -0.6406
 5849SOL    HW229007   4.111   3.776   1.701  0.0192  0.5817 -0.7124
 5850SOL     OW29008   1.568   4.094   8.212 -0.4739 -0.3269  0.5581
 5850SOL    HW129009   1.539   4.163   8.153 -0.9465 -2.8322 -2.0913
 5850SOL    HW229010   1.599   4.144   8.288 -1.0738  0.7353  0.1159
 5851SOL     OW29011   4.709   2.727  14.551 -0.4237  0.4668  0.0954
 5851SOL    HW129012   4.630   2.778  14.530 -1.7369 -0.9027  1.7671
 5851SOL    HW229013   0.057   2.778  14.506 -0.0457  1.2439  1.5386
 5852SOL     OW29014   4.332   1.230  16.802 -0.0649  0.4268 -0.2937
 5852SOL    HW129015   4.308   1.227  16.895  2.9563  1.8801  0.5291
 5852SOL    HW229016   4.384   1.153  16.779 -0.0239  0.0885  0.9286
 5853SOL     OW29017   3.428   2.650   9.094  0.1561  0.2866 -0.5590
 5853SOL    HW129018   3.472   2.718   9.146 -1.5420  1.3948 -0.5778
 5853SOL    HW229019   3.343   2.692   9.106  1.0752  2.9998 -3.6687
 5854SOL     OW29020   0.278   3.916  10.349 -0.1286  0.4002  0.0806
 5854SOL    HW129021   0.323   3.944  10.429 -0.0585 -1.4860  0.6980
 5854SOL    HW229022   0.267   3.822  10.361 -0.6252  0.6828  1.8469
 5855SOL     OW29023   0.931   2.975   3.828  0.4253 -0.2976  0.5173
 5855SOL    HW129024   0.942   3.004   3.737 -1.6933  2.1767  1.0534
 5855SOL    HW229025   0.867   2.906   3.814 -0.4514  0.6475 -0.1525
 5856SOL     OW29026   3.166   4.529   1.803  0.5807  0.4732 -0.1255
 5856SOL    HW129027   3.079   4.541   1.765 -0.2407 -0.4494  1.4572
 5856SOL    HW229028   3.207   4.463   1.747  1.4171  1.0218 -0.1580
 5857SOL     OW29029   0.853   1.643   9.096  0.2697  0.0561 -0.4651
 5857SOL    HW129030   0.899   1.675   9.174  0.8039 -2.4976  0.2494
 5857SOL    HW229031   0.879   1.551   9.094 -0.3901 -0.0425 -3.5427
 5858SOL     OW29032   0.568   1.069   7.192  0.0030  0.6458  0.9616
 5858SOL    HW129033   0.475   1.046   7.195  0.9892 -3.1602  2.5487
 5858SOL    HW229034   0.614   0.987   7.211  0.9044  1.0423  0.4788
 5859SOL     OW29035   2.406   2.152   3.177  0.0059 -0.3652  0.2242
 5859SOL    HW129036   2.330   2.150   3.118 -1.0398 -0.4221  1.5843
 5859SOL    HW229037   2.441   2.239   3.157 -1.3858  0.3894  1.1051
 5860SOL     OW29038   1.165   2.974   0.144 -0.2892  0.4652  0.4480
 5860SOL    HW129039   1.130   2.907   0.086  2.2059 -1.5266  1.2445
 5860SOL    HW229040   1.201   3.038   0.083 -0.0762 -1.5024 -1.4745
 5861SOL     OW29041   2.507   2.987  15.905 -0.0629 -0.1084  0.4690
 5861SOL    HW129042   2.536   2.921  15.968  1.6014 -0.0624 -0.2658
 5861SOL    HW229043   2.590   3.022  15.875 -0.5529 -0.8273 -1.7292
 5862SOL     OW29044   3.512   2.927   4.188 -0.0749 -0.6507  0.3620
 5862SOL    HW129045   3.443   2.907   4.125  0.5166 -1.3825 -0.0419
 5862SOL    HW229046   3.564   2.997   4.148 -0.0498 -0.5749  0.5277
 5863SOL     OW29047   0.497   3.813  16.890 -0.3134 -0.0749  0.2632
 5863SOL    HW129048   0.521   3.904  16.908 -0.2235  0.1722 -1.1111
 5863SOL    HW229049   0.410   3.821  16.851 -0.8660 -0.9542  1.3055
 5864SOL     OW29050   2.649   0.683   4.335  0.4641  0.1835 -0.0979
 5864SOL    HW129051   2.569   0.728   4.361  0.0415 -0.2967 -0.5756
 5864SOL    HW229052   2.707   0.760   4.328  2.7904 -1.5753  0.0169
 5865SOL     OW29053   4.103   0.783   0.732 -0.2486 -0.4914  1.0422
 5865SOL    HW129054   4.109   0.765   0.825  1.1786  1.8656  1.4114
 5865SOL    HW229055   4.168   0.724   0.694  1.0351  0.3227  1.9679
 5866SOL     OW29056   4.365   3.033   6.474 -0.3015 -0.7700  0.0583
 5866SOL    HW129057   4.331   3.097   6.536 -0.3623 -0.6655 -0.0810
 5866SOL    HW229058   4.283   3.017   6.429 -1.6607  1.1859  1.8638
 5867SOL     OW29059   4.481   2.838   0.565 -0.2283 -0.1036 -0.0572
 5867SOL    HW129060   4.511   2.890   0.491 -1.6120  2.1291  0.9779
 5867SOL    HW229061   4.394   2.873   0.583  0.2672  0.9456  0.3202
 5868SOL     OW29062   3.477   2.194   5.522  0.2880  0.8075  0.8344
 5868SOL    HW129063   3.454   2.149   5.604 -0.4013 -0.5786 -0.1164
 5868SOL    HW229064   3.469   2.116   5.467 -0.4050  0.0267  2.0271
 5869SOL     OW29065   1.517   4.022   2.108  0.1656 -0.0994  0.8837
 5869SOL    HW129066   1.538   3.979   2.025 -1.0090 -0.1981  0.6407
 5869SOL    HW229067   1.604   4.019   2.148  1.6376 -1.0491 -2.3654
 5870SOL     OW29068   1.212   0.292   3.091 -0.0414 -0.0981 -0.4614
 5870SOL    HW129069   1.224   0.199   3.108  0.5232  0.4038  1.8689
 5870SOL    HW229070   1.286   0.329   3.139  1.3265 -2.3897 -0.8139
 5871SOL     OW29071   0.767   3.465   6.027 -0.5733 -0.2779  0.1460
 5871SOL    HW129072   0.690   3.450   6.082  0.0555 -1.9105  0.5793
 5871SOL    HW229073   0.780   3.555   6.057  1.1857 -0.3063 -0.5475
 5872SOL     OW29074   0.742   1.506   8.405  0.4325 -0.1176  0.3290
 5872SOL    HW129075   0.784   1.571   8.349  0.5911 -0.4724  0.0408
 5872SOL    HW229076   0.654   1.538   8.386 -0.0726 -1.0830  1.0250
 5873SOL     OW29077   0.330   2.028   1.509  0.0785 -0.1724  0.2911
 5873SOL    HW129078   0.346   1.933   1.509  0.7815 -0.0542  1.3122
 5873SOL    HW229079   0.420   2.052   1.530  0.7756 -1.2548 -1.4166
 5874SOL     OW29080   2.377   3.871   4.741 -0.4355 -0.2740  0.0636
 5874SOL    HW129081   2.303   3.886   4.800 -0.0920  0.1646  0.3894
 5874SOL    HW229082   2.371   3.776   4.748 -2.9911 -0.1733 -0.5399
 5875SOL     OW29083   3.606   0.623   9.575  0.2452  0.6066  0.2477
 5875SOL    HW129084   3.679   0.568   9.602  0.4289  1.0793  0.7064
 5875SOL    HW229085   3.560   0.568   9.511  0.1719  1.0156 -0.0507
 5876SOL     OW29086   0.078   2.795   2.097  0.2261  0.1792  0.2473
 5876SOL    HW129087   0.050   2.733   2.030  3.3957 -1.7761  0.7336
 5876SOL    HW229088   4.716   2.816   2.141  0.4640  0.8080  0.3990
 5877SOL     OW29089   1.653   2.367   4.319 -0.0612 -0.5466  0.1207
 5877SOL    HW129090   1.592   2.433   4.287  3.3393  1.4038 -2.2997
 5877SOL    HW229091   1.607   2.339   4.398  0.0760 -2.2529 -0.4130
 5878SOL     OW29092   2.480   0.316  13.947 -0.3013 -0.4675 -0.0192
 5878SOL    HW129093   2.543   0.358  13.889  0.0137  1.5139  1.7793
 5878SOL    HW229094   2.395   0.345  13.915 -1.5273 -2.1638  1.7120
 5879SOL     OW29095   2.564   3.226   8.566 -0.3469  0.2659  0.0219
 5879SOL    HW129096   2.656   3.233   8.539  0.0650  0.5672  1.4906
 5879SOL    HW229097   2.577   3.216   8.661  2.0181  1.3104 -0.1687
 5880SOL     OW29098   0.155   2.814   4.548  0.1299 -0.8136  0.2247
 5880SOL    HW129099   0.238   2.787   4.587  1.7243 -1.0848 -3.3138
 5880SOL    HW229100   0.175   2.903   4.519  0.6738 -0.5283  1.4547
 5881SOL     OW29101   2.746   2.874   6.723  0.2621  0.0860 -0.3327
 5881SOL    HW129102   2.729   2.958   6.682  0.0796  0.6032  0.8211
 5881SOL    HW229103   2.749   2.903   6.814 -1.8928 -0.0610 -0.2083
 5882SOL     OW29104   4.554   0.132  12.393  0.6060 -0.0567 -0.1685
 5882SOL    HW129105   4.633   0.123  12.447  0.0179 -2.0465  0.3396
 5882SOL    HW229106   4.591   0.198  12.333 -0.4160  1.2400  0.6302
 5883SOL     OW29107   3.163   3.861   8.656 -0.2172 -0.0626  0.7153
 5883SOL    HW129108   3.185   3.929   8.719  0.1320 -1.1027  1.7226
 5883SOL    HW229109   3.239   3.867   8.598  0.1842 -0.1317  1.2309
 5884SOL     OW29110   4.564   3.883   2.986 -0.7666 -1.2313 -0.8745
 5884SOL    HW129111   4.487   3.930   3.018  0.6413 -1.1693  2.3922
 5884SOL    HW229112   4.582   3.918   2.899 -0.7742 -0.8624 -0.7281
 5885SOL     OW29113   4.206   1.471   3.608  0.0410  0.5508 -0.0623
 5885SOL    HW129114   4.136   1.409   3.628  1.1933 -0.0655  1.9555
 5885SOL    HW229115   4.170   1.549   3.650 -2.9064  0.3138 -2.1050
 5886SOL     OW29116   2.630   2.298   1.207 -0.5182 -0.1745  0.1706
 5886SOL    HW129117   2.594   2.295   1.296 -0.6854  0.2618  0.1208
 5886SOL    HW229118   2.574   2.235   1.161  3.2799 -3.4136  0.0593
 5887SOL     OW29119   0.524   2.166   0.674  0.0908 -0.0239  0.2948
 5887SOL    HW129120   0.448   2.115   0.701 -0.3968  0.9918  0.8172
 5887SOL    HW229121   0.594   2.105   0.696 -0.6732 -0.4546  1.5008
 5888SOL     OW29122   3.114   1.855   3.365  0.6529  0.3262 -0.1193
 5888SOL    HW129123   3.050   1.920   3.336 -0.9409 -1.6668 -1.0142
 5888SOL    HW229124   3.056   1.783   3.388 -0.1599  0.7885 -0.7197
 5889SOL     OW29125   3.513   0.774  14.938 -0.1662 -0.2479 -0.1994
 5889SOL    HW129126   3.593   0.803  14.981 -0.4086 -0.1605  0.1846
 5889SOL    HW229127   3.522   0.678  14.941 -0.2015 -0.2914 -1.2597
 5890SOL     OW29128   0.622   4.690   7.874 -0.7434 -0.1736 -0.2847
 5890SOL    HW129129   0.550   4.703   7.813 -1.3857 -0.3394  0.4346
 5890SOL    HW229130   0.585   4.621   7.929  0.0180  1.0661  1.7815
 5891SOL     OW29131   0.598   4.123  15.417  0.6520  0.3227 -0.1568
 5891SOL    HW129132   0.555   4.063  15.356  1.2250 -0.0965 -0.1453
 5891SOL    HW229133   0.689   4.096  15.404  0.6346  0.5118 -0.6845
 5892SOL     OW29134   0.641   0.264   2.375 -0.0074 -0.4174  0.0688
 5892SOL    HW129135   0.714   0.208   2.401 -0.7566 -0.8121  1.3006
 5892SOL    HW229136   0.692   0.341   2.350  0.5428 -1.4301 -1.9089
 5893SOL     OW29137   0.012   2.179   2.352 -0.3180 -0.0043  0.3716
 5893SOL    HW129138   4.659   2.148   2.298  0.2633  1.1926 -1.1040
 5893SOL    HW229139   4.695   2.259   2.390  0.9475  0.7403  0.0154
 5894SOL     OW29140   2.394   1.455  17.634 -0.3159  0.2209 -0.1330
 5894SOL    HW129141   2.360   1.538  17.666  0.2837  0.4253 -0.0215
 5894SOL    HW229142   2.453   1.496  17.570  0.3182  1.1320  1.0437
 5895SOL     OW29143   3.086   3.500   3.687 -0.0472  0.1683  0.2993
 5895SOL    HW129144   3.108   3.551   3.609  2.0110 -0.0369  0.7385
 5895SOL    HW229145   3.100   3.407   3.666  0.5592 -0.2262  2.4748
 5896SOL     OW29146   1.023   2.304   2.755  0.2175 -0.3044 -0.6781
 5896SOL    HW129147   1.086   2.296   2.684 -0.6845  1.0067 -1.6043
 5896SOL    HW229148   1.076   2.289   2.833 -0.7325 -0.2254 -0.0157
 5897SOL     OW29149   0.432   2.374   4.842  0.5987 -0.1097  0.5057
 5897SOL    HW129150   0.407   2.292   4.884  1.3881 -0.7169 -0.1962
 5897SOL    HW229151   0.408   2.365   4.750  3.0249 -0.9730 -0.0496
 5898SOL     OW29152   4.030   2.883   4.456  0.2499 -0.0891 -0.7007
 5898SOL    HW129153   3.989   2.926   4.531 -1.1582 -0.4755 -1.2449
 5898SOL    HW229154   4.002   2.952   4.395  0.2519 -0.1216 -0.7382
 5899SOL     OW29155   2.844   3.495   8.188 -0.7221 -0.1828  0.5001
 5899SOL    HW129156   2.859   3.403   8.209 -1.8831 -1.1111 -2.7176
 5899SOL    HW229157   2.827   3.488   8.094 -0.5918  0.1538  0.4501
 5900SOL     OW29158   1.825   0.345   2.488 -0.6263  0.1178  0.1166
 5900SOL    HW129159   1.872   0.401   2.549  0.9548  0.1058 -1.0892
 5900SOL    HW229160   1.899   0.320   2.432 -0.1586  2.4111 -0.2894
 5901SOL     OW29161   4.682   2.404   7.768 -0.6101 -0.0161  0.0276
 5901SOL    HW129162   4.696   2.371   7.857  2.0445  0.7434 -0.1100
 5901SOL    HW229163   0.004   2.490   7.760 -0.2239 -0.1042  1.0368
 5902SOL     OW29164   0.893   3.326   8.687  0.0556 -0.0749  0.3533
 5902SOL    HW129165   0.910   3.300   8.778  1.4886  0.7935  0.3224
 5902SOL    HW229166   0.851   3.247   8.653  1.0289 -0.2778 -0.3649
 5903SOL     OW29167   3.322   3.118  10.169  0.2460 -0.2349  0.0269
 5903SOL    HW129168   3.291   3.123  10.078 -2.4867  1.1474  1.0493
 5903SOL    HW229169   3.407   3.079  10.149 -0.7101 -1.1814 -2.1771
 5904SOL     OW29170   2.403   4.697   4.580 -0.5737 -0.0188 -0.2983
 5904SOL    HW129171   2.358   4.616   4.608  0.3951 -0.5660 -0.3252
 5904SOL    HW229172   2.480   4.668   4.530 -0.3522  1.8602 -1.0256
 5905SOL     OW29173   4.556   0.570   3.732  0.7221  0.4712 -0.0780
 5905SOL    HW129174   4.513   0.542   3.651  1.2611 -1.3982  0.2822
 5905SOL    HW229175   4.533   0.506   3.800 -0.6639  0.7092 -0.3245
 5906SOL     OW29176   3.098   1.158   4.160  0.6640 -0.3381 -0.2862
 5906SOL    HW129177   3.172   1.210   4.131  1.4497  0.2757  2.8425
 5906SOL    HW229178   3.100   1.188   4.250 -0.8945  1.3615 -0.8197
 5907SOL     OW29179   0.619   2.547   0.789 -0.3943 -0.0744  0.6069
 5907SOL    HW129180   0.692   2.491   0.764 -2.9318 -2.2842 -1.8238
 5907SOL    HW229181   0.663   2.617   0.838 -1.5766  0.5719  0.7690
 5908SOL     OW29182   4.111   1.112  11.901 -0.0449 -0.3828 -0.2202
 5908SOL    HW129183   4.157   1.051  11.959  2.1783  1.4038 -0.0843
 5908SOL    HW229184   4.067   1.049  11.844 -0.6434 -0.7864  0.6837
 5909SOL     OW29185   3.697   4.008  14.993 -0.1745  0.0624  0.4630
 5909SOL    HW129186   3.712   3.922  14.955 -1.8981  1.4491 -3.3416
 5909SOL    HW229187   3.654   4.056  14.922  1.0580  1.9922  1.0101
 5910SOL     OW29188   1.413   0.336   7.766  0.0940  0.1279  0.0140
 5910SOL    HW129189   1.436   0.421   7.730 -0.2135  0.4131  0.4902
 5910SOL    HW229190   1.375   0.307   7.683 -0.7639  2.4573 -0.3960
 5911SOL     OW29191   1.793   4.257   3.332  0.0472 -0.4625 -0.1613
 5911SOL    HW129192   1.836   4.285   3.413  0.1111  1.7566 -0.9522
 5911SOL    HW229193   1.833   4.170   3.322  0.9069 -0.3423  2.2158
 5912SOL     OW29194   2.212   1.142   5.168 -0.0859  0.4643 -0.2789
 5912SOL    HW129195   2.306   1.129   5.158 -0.1874  0.1096 -0.7422
 5912SOL    HW229196   2.178   1.054   5.149 -0.6411  0.0922  2.3962
 5913SOL     OW29197   3.678   1.755   3.443  0.0226  0.7130  0.1300
 5913SOL    HW129198   3.583   1.758   3.434 -0.0197 -0.7157  0.0294
 5913SOL    HW229199   3.692   1.663   3.421  0.9262  0.8996 -0.0569
 5914SOL     OW29200   2.551   3.432   4.208  0.2109 -0.2127  0.0448
 5914SOL    HW129201   2.467   3.447   4.251 -1.1716 -2.2016 -1.9395
 5914SOL    HW229202   2.611   3.479   4.266 -1.8176 -1.7709  3.3731
 5915SOL     OW29203   1.766   1.529   5.619  0.9821  0.3414 -0.1469
 5915SOL    HW129204   1.773   1.434   5.609 -2.2087  0.0256  0.6044
 5915SOL    HW229205   1.715   1.547   5.540 -0.3822  0.4474  0.7657
 5916SOL     OW29206   3.821   2.244   9.293 -0.3686  0.1490  0.0098
 5916SOL    HW129207   3.910   2.236   9.330 -0.3409  0.3667 -0.0122
 5916SOL    HW229208   3.821   2.327   9.247  0.0823  0.4703  0.5859
 5917SOL     OW29209   1.730   0.773   2.945 -0.1253  0.3425  0.4970
 5917SOL    HW129210   1.817   0.749   2.976 -0.5253  0.4493  1.7017
 5917SOL    HW229211   1.700   0.695   2.898 -1.9286  0.3562  1.6338
 5918SOL     OW29212   4.101   2.659   5.271  0.2575 -0.6930  0.1543
 5918SOL    HW129213   4.066   2.597   5.207 -0.3411 -0.9036  0.6865
 5918SOL    HW229214   4.018   2.681   5.313  0.3364 -0.8472  0.3898
 5919SOL     OW29215   2.366   1.804   0.983  0.1663  0.0150  0.1314
 5919SOL    HW129216   2.335   1.858   0.910  1.9644  0.2833 -0.4390
 5919SOL    HW229217   2.284   1.773   1.021  0.3881 -2.1551 -1.1683
 5920SOL     OW29218   2.419   0.838   8.710 -0.0049  0.5931  0.0027
 5920SOL    HW129219   2.432   0.910   8.649  2.6036 -2.0447 -2.5421
 5920SOL    HW229220   2.508   0.824   8.741  0.2881 -0.7766 -1.4727
 5921SOL     OW29221   0.427   4.009   3.966 -0.0159 -0.0679  0.5075
 5921SOL    HW129222   0.398   4.092   3.929  0.2541 -1.1781 -2.1760
 5921SOL    HW229223   0.354   3.957   3.935  0.2526 -1.1363  1.6882
 5922SOL     OW29224   1.542   3.119   2.042  0.0328  0.1704  0.3329
 5922SOL    HW129225   1.606   3.172   1.996 -0.6600  0.2839 -0.5017
 5922SOL    HW229226   1.589   3.041   2.072  1.4104  0.8436 -0.1030
 5923SOL     OW29227   1.041   2.573   6.155 -0.5091 -0.6351 -0.4094
 5923SOL    HW129228   1.012   2.664   6.159 -1.6963 -1.0169 -0.4198
 5923SOL    HW229229   1.029   2.553   6.248  0.1407  2.1123  0.2786
 5924SOL     OW29230   2.811   1.256   2.873 -0.2887 -0.1658 -0.0889
 5924SOL    HW129231   2.862   1.199   2.815 -1.8917 -0.1272 -1.5186
 5924SOL    HW229232   2.733   1.204   2.892 -1.6197  0.8037 -2.8835
 5925SOL     OW29233   2.419   0.240   0.797  0.2487  0.8070  0.0356
 5925SOL    HW129234   2.352   0.307   0.783  1.7220  2.3908  0.5366
 5925SOL    HW229235   2.399   0.233   0.890  1.5936 -1.4081  0.1560
 5926SOL     OW29236   1.760   2.256  15.432 -0.2010  0.0719 -0.1099
 5926SOL    HW129237   1.684   2.273  15.488 -0.6731  0.5334 -0.9054
 5926SOL    HW229238   1.741   2.179  15.379  0.4771  0.6446 -1.1692
 5927SOL     OW29239   0.329   2.661   1.627 -0.1581  0.5127 -0.0555
 5927SOL    HW129240   0.237   2.636   1.618 -0.2950  0.4933  1.3780
 5927SOL    HW229241   0.350   2.627   1.714 -2.5386 -0.6812  0.0377
 5928SOL     OW29242   2.650   1.506   2.861  0.0321  0.5814 -0.6908
 5928SOL    HW129243   2.656   1.411   2.870 -0.0954  0.9263  3.1402
 5928SOL    HW229244   2.676   1.527   2.772 -1.4237 -1.1272 -1.5120
 5929SOL     OW29245   3.427   0.897   1.892 -0.2366  0.7643 -0.2981
 5929SOL    HW129246   3.364   0.967   1.877 -1.6902 -0.1879  1.3598
 5929SOL    HW229247   3.374   0.827   1.930  1.1484  0.1371  0.4772
 5930SOL     OW29248   1.252   2.141   4.893 -0.5197 -0.3013  0.3818
 5930SOL    HW129249   1.325   2.199   4.917 -0.3888  0.6139 -2.1889
 5930SOL    HW229250   1.195   2.141   4.970 -2.0578  1.4132 -0.7775
 5931SOL     OW29251   2.800   0.819   5.717 -0.0269  0.3924  0.3750
 5931SOL    HW129252   2.820   0.910   5.696 -0.9572  0.3113 -0.8542
 5931SOL    HW229253   2.738   0.839   5.788  0.5016  0.1140  0.9220
 5932SOL     OW29254   0.719   0.701   5.365 -0.2687  0.6818 -0.2008
 5932SOL    HW129255   0.699   0.702   5.272 -0.0126 -3.4078 -0.3041
 5932SOL    HW229256   0.739   0.608   5.367  1.6488  1.0798 -1.7204
 5933SOL     OW29257   4.381   1.720   3.752  0.7955 -0.2245  0.0342
 5933SOL    HW129258   4.340   1.685   3.831  1.1618 -0.6894  0.0147
 5933SOL    HW229259   4.302   1.759   3.714  1.0738 -0.2925 -0.6175
 5934SOL     OW29260   1.238   4.142   9.021  0.4231  0.0589 -0.3037
 5934SOL    HW129261   1.185   4.107   9.092  1.0075  0.9662  0.5709
 5934SOL    HW229262   1.313   4.083   9.017 -0.5078 -1.1245 -0.4531
 5935SOL     OW29263   4.566   1.065   5.050 -0.3416 -0.2388 -0.1388
 5935SOL    HW129264   4.476   1.079   5.018 -1.4236 -2.3125  2.0095
 5935SOL    HW229265   4.568   1.141   5.108  0.5711  0.6165 -1.2971
 5936SOL     OW29266   4.406   1.526   2.925  0.5034  0.3179  0.5680
 5936SOL    HW129267   4.441   1.604   2.882 -0.8542 -0.1521 -1.3389
 5936SOL    HW229268   4.482   1.489   2.971  0.4312  2.0766  2.1170
 5937SOL     OW29269   2.572   3.812   2.017  0.1449  0.2297  0.1502
 5937SOL    HW129270   2.558   3.886   2.076  1.1463  0.4232  0.1474
 5937SOL    HW229271   2.503   3.839   1.957 -0.1989  0.9452  0.8698
 5938SOL     OW29272   2.951   4.131   6.125 -0.4745  0.3813  0.2481
 5938SOL    HW129273   2.973   4.044   6.160  1.0629  0.0256 -1.5966
 5938SOL    HW229274   2.856   4.134   6.135 -0.3661  1.9142  0.8068
 5939SOL     OW29275   4.199   2.702   7.606  0.5781 -0.1292  0.2486
 5939SOL    HW129276   4.201   2.748   7.522 -0.4488 -1.0107 -0.2604
 5939SOL    HW229277   4.108   2.673   7.609  1.0911 -1.8611 -1.2219
 5940SOL     OW29278   1.403   3.294   6.466  0.2958 -0.5399 -0.1576
 5940SOL    HW129279   1.447   3.374   6.439 -0.4622 -0.1656 -0.2635
 5940SOL    HW229280   1.390   3.304   6.561 -1.4818  0.6395 -0.5407
 5941SOL     OW29281   4.203   0.615  16.294  0.7163  0.3973  0.6843
 5941SOL    HW129282   4.214   0.710  16.286 -1.5816  0.5959  0.0737
 5941SOL    HW229283   4.192   0.605  16.200 -0.4940 -2.7924  1.1702
 5942SOL     OW29284   2.524   1.128  14.259  0.6645 -0.2483 -0.0905
 5942SOL    HW129285   2.479   1.045  14.241  1.1640 -0.0248 -2.4684
 5942SOL    HW229286   2.608   1.101  14.220  1.8257  0.2594  2.0903
 5943SOL     OW29287   4.430   2.139   9.331  0.4377 -0.1191 -0.0836
 5943SOL    HW129288   4.392   2.078   9.268  1.3506 -1.8614  1.0424
 5943SOL    HW229289   4.394   2.095   9.408 -0.3235  1.4354  0.4378
 5944SOL     OW29290   3.898   2.590   2.687  0.5200  0.0682  0.0320
 5944SOL    HW129291   3.822   2.550   2.729  1.1305 -0.6336  0.4702
 5944SOL    HW229292   3.870   2.676   2.656  0.2277 -0.8480 -2.3111
 5945SOL     OW29293   2.546   0.170  17.295 -0.1612  0.0778  0.4366
 5945SOL    HW129294   2.589   0.153  17.211  3.2543 -0.4923  2.2897
 5945SOL    HW229295   2.569   0.093  17.347  1.9951  0.9188  0.7482
 5946SOL     OW29296   2.407   3.867  14.307 -0.0002 -0.6420  0.5795
 5946SOL    HW129297   2.447   3.811  14.241 -0.9753 -2.5246  1.5896
 5946SOL    HW229298   2.474   3.871  14.376 -0.0546 -1.5300  0.6771
 5947SOL     OW29299   4.112   3.751   2.025  0.0737  0.1768 -0.4587
 5947SOL    HW129300   4.080   3.732   1.937  2.7542 -0.6540 -1.2678
 5947SOL    HW229301   4.051   3.815   2.060  0.9504  1.6374 -1.5928
 5948SOL     OW29302   2.031   1.405  11.892 -0.0505  0.0626 -0.2688
 5948SOL    HW129303   2.092   1.459  11.841  0.0150  0.9511  0.7527
 5948SOL    HW229304   2.087   1.332  11.916  1.0128  1.2007  0.6537
 5949SOL     OW29305   1.792   0.136   5.801 -0.0256  0.0514 -0.0633
 5949SOL    HW129306   1.865   0.181   5.758 -0.0881  0.3773  0.1719
 5949SOL    HW229307   1.714   0.169   5.756 -0.4803 -0.0436  0.6621
 5950SOL     OW29308   3.618   4.641   5.843  0.2683  0.2982 -1.2568
 5950SOL    HW129309   3.709   4.667   5.853  0.6899 -1.5675 -0.2449
 5950SOL    HW229310   3.633   4.546   5.838 -0.0148  0.1212  1.3133
 5951SOL     OW29311   4.259   3.490   1.581  0.0198 -0.2496 -0.3887
 5951SOL    HW129312   4.269   3.420   1.517 -0.9247  0.9844 -1.9074
 5951SOL    HW229313   4.238   3.451   1.666 -2.5464  0.8311 -0.5475
 5952SOL     OW29314   3.691   3.953  14.602 -0.3133 -0.2956 -0.7383
 5952SOL    HW129315   3.770   3.922  14.646 -0.5984  0.6257  0.4213
 5952SOL    HW229316   3.716   4.043  14.583 -0.4927 -0.1014 -0.0345
 5953SOL     OW29317   3.590   3.730  12.347 -0.5271  0.1341  0.4586
 5953SOL    HW129318   3.607   3.731  12.252 -0.8797 -2.4033  0.3811
 5953SOL    HW229319   3.646   3.661  12.383 -1.9105  0.4197  3.0744
 5954SOL     OW29320   3.699   1.606   2.884 -0.3199  0.0922 -0.1923
 5954SOL    HW129321   3.687   1.513   2.907  1.3901  0.1372  0.8756
 5954SOL    HW229322   3.793   1.607   2.904 -0.1230 -0.1078 -1.1097
 5955SOL     OW29323   2.595   1.451   7.142  0.3392 -0.0205  0.3718
 5955SOL    HW129324   2.518   1.485   7.097  0.8532  0.6765  0.0215
 5955SOL    HW229325   2.567   1.449   7.234 -1.1460 -1.4718 -0.1216
 5956SOL     OW29326   0.773   0.965   3.186  0.2029 -0.3591  0.3945
 5956SOL    HW129327   0.857   0.921   3.199  1.0147  1.8358  2.5362
 5956SOL    HW229328   0.788   1.045   3.236  2.9293  0.6437 -2.0381
 5957SOL     OW29329   2.852   1.120   4.033 -0.5332 -0.8220 -0.1161
 5957SOL    HW129330   2.810   1.180   4.095  1.6091 -1.0193  1.5450
 5957SOL    HW229331   2.939   1.104   4.071 -0.8206 -4.0678 -0.8226
 5958SOL     OW29332   1.170   2.314   6.801  1.4457 -0.1001  0.2542
 5958SOL    HW129333   1.184   2.352   6.888 -1.5248  0.2089  0.5856
 5958SOL    HW229334   1.263   2.315   6.777  1.9152  1.3047  2.1482
 5959SOL     OW29335   4.145   1.612   8.506  0.3582 -0.0759 -0.1015
 5959SOL    HW129336   4.111   1.603   8.595 -0.3383 -1.0579 -0.4640
 5959SOL    HW229337   4.107   1.548   8.446 -2.3141  2.4666 -1.1363
 5960SOL     OW29338   1.449   0.100   1.843  0.4340  0.5937 -0.1650
 5960SOL    HW129339   1.384   0.151   1.891  1.2053  0.4286  1.0589
 5960SOL    HW229340   1.494   0.050   1.911 -1.0083 -0.6164 -0.0963
 5961SOL     OW29341   2.339   3.366   8.555 -0.2061 -0.6700  0.3531
 5961SOL    HW129342   2.284   3.317   8.493 -2.6962  1.4891  0.8719
 5961SOL    HW229343   2.416   3.309   8.558 -0.9492 -1.5916  2.1229
 5962SOL     OW29344   4.289   1.761  16.824  0.3032 -0.4593  0.2432
 5962SOL    HW129345   4.354   1.698  16.793 -1.0651 -1.2043 -1.1050
 5962SOL    HW229346   4.294   1.746  16.918  0.4642  2.4918  0.7041
 5963SOL     OW29347   1.517   1.150   1.359 -0.0517  0.4027  0.3959
 5963SOL    HW129348   1.449   1.121   1.420 -0.3555 -2.8550 -1.4808
 5963SOL    HW229349   1.505   1.244   1.369 -0.1426  0.4024  0.2827
 5964SOL     OW29350   3.172   0.403   7.932 -0.0100  0.0197  0.0620
 5964SOL    HW129351   3.207   0.474   7.877 -1.0955  1.3215  1.0459
 5964SOL    HW229352   3.227   0.327   7.914 -1.2731 -0.9319  0.2068
 5965SOL     OW29353   4.470   0.426   2.901  0.0205 -0.3433  0.0549
 5965SOL    HW129354   4.498   0.341   2.936  0.6781 -0.3129 -0.4115
 5965SOL    HW229355   4.556   0.468   2.900 -1.3370  2.4642  1.7311
 5966SOL     OW29356   4.173   4.174   9.462  0.4906  0.1626 -0.1286
 5966SOL    HW129357   4.140   4.095   9.420 -0.1969 -0.4297  1.5267
 5966SOL    HW229358   4.151   4.158   9.554  0.2021  0.4620 -0.1455
 5967SOL     OW29359   1.222   3.271  12.343  0.5678 -0.2586 -0.1169
 5967SOL    HW129360   1.173   3.213  12.401 -1.3672  1.6485  0.1831
 5967SOL    HW229361   1.246   3.212  12.271 -0.1761  1.0103 -1.4156
 5968SOL     OW29362   1.861   4.329   8.336  0.1672  0.3519  0.2449
 5968SOL    HW129363   1.825   4.347   8.423  0.5390  0.9600  0.2770
 5968SOL    HW229364   1.789   4.358   8.279 -1.1571 -2.0881  0.6566
 5969SOL     OW29365   1.972   1.553   3.359 -0.0954  0.5684 -0.0264
 5969SOL    HW129366   1.911   1.480   3.366  0.8378 -0.4299 -2.4183
 5969SOL    HW229367   2.019   1.527   3.280  1.5429 -1.0679  1.4605
 5970SOL     OW29368   0.163   2.490  17.541  0.0351  0.2831  0.3249
 5970SOL    HW129369   0.147   2.398  17.561  0.4959  0.7978  3.1144
 5970SOL    HW229370   0.242   2.491  17.595  0.3174  1.9540 -0.1349
 5971SOL     OW29371   3.109   2.508   3.932  0.4295  0.2330  0.7561
 5971SOL    HW129372   3.196   2.474   3.914  0.8413  0.7537  1.7463
 5971SOL    HW229373   3.103   2.593   3.888 -0.7342  0.6622  1.7299
 5972SOL     OW29374   4.650   4.116   3.265  0.1548  0.2579  0.0127
 5972SOL    HW129375   0.010   4.167   3.256  0.3488 -0.0891 -0.2370
 5972SOL    HW229376   4.610   4.121   3.178  2.5119 -1.6050 -1.1770
 5973SOL     OW29377   2.804   4.422   5.565 -0.2915  0.4756  0.2649
 5973SOL    HW129378   2.765   4.336   5.581  1.3498 -0.4385 -0.7306
 5973SOL    HW229379   2.894   4.403   5.591 -0.1111  0.6428 -0.2390
 5974SOL     OW29380   0.458   0.136   7.530  0.0250  0.0758 -0.2699
 5974SOL    HW129381   0.469   0.231   7.531  1.1478 -0.0513 -0.1481
 5974SOL    HW229382   0.371   0.132   7.569 -0.4889  1.7383 -1.2418
 5975SOL     OW29383   1.155   4.285  10.582  0.4364  0.1374 -0.8518
 5975SOL    HW129384   1.119   4.371  10.603 -0.3330 -0.3756 -0.0163
 5975SOL    HW229385   1.205   4.270  10.662  0.0263 -0.3861 -0.6899
 5976SOL     OW29386   2.551   2.752   5.010  0.6089 -0.3207  0.4195
 5976SOL    HW129387   2.524   2.730   5.099 -3.3011  0.3511 -0.5790
 5976SOL    HW229388   2.573   2.844   5.021  0.2403 -0.2951  0.9689
 5977SOL     OW29389   4.712   1.410   7.884 -0.3671 -0.0470 -0.4135
 5977SOL    HW129390   4.672   1.332   7.844 -3.6445  1.6340 -0.4676
 5977SOL    HW229391   4.682   1.468   7.813 -0.9711  2.2570  1.7412
 5978SOL     OW29392   2.449   1.258  15.133 -0.2569  0.1559 -0.0226
 5978SOL    HW129393   2.468   1.166  15.114  0.6741  0.8070 -2.3139
 5978SOL    HW229394   2.528   1.293  15.175 -1.0860 -0.9265  2.4316
 5979SOL     OW29395   0.111   0.789   3.793 -0.5709  0.4169  0.0469
 5979SOL    HW129396   0.132   0.696   3.785  1.4589  1.0287 -1.6714
 5979SOL    HW229397   0.199   0.827   3.793  0.0289 -0.9956  1.2534
 5980SOL     OW29398   3.811   0.979  13.978 -0.1931 -0.2899  0.1079
 5980SOL    HW129399   3.872   0.907  13.994  0.1570  0.2591  1.2310
 5980SOL    HW229400   3.787   0.964  13.886 -0.6680  0.7912  0.0616
 5981SOL     OW29401   3.047   3.446   6.575  0.2354 -0.0661  0.1798
 5981SOL    HW129402   3.061   3.351   6.578  0.7007  0.0707  2.1694
 5981SOL    HW229403   3.131   3.482   6.605 -0.1853  1.3120 -0.3037
 5982SOL     OW29404   0.059   1.529   2.889 -0.0986  0.5327  0.3323
 5982SOL    HW129405   0.027   1.611   2.851  0.0958 -0.3840 -1.8566
 5982SOL    HW229406   0.116   1.491   2.822 -1.7140 -1.3875  0.0558
 5983SOL     OW29407   3.069   0.587   4.402 -0.7118  0.0091  0.3226
 5983SOL    HW129408   2.987   0.540   4.388 -0.7108 -0.0073  0.3747
 5983SOL    HW229409   3.034   0.639   4.474  0.5746  0.9227  0.2863
 5984SOL     OW29410   1.814   1.005   2.505  0.1148 -0.0969  0.0976
 5984SOL    HW129411   1.797   0.911   2.511 -2.7652  0.4104  0.0792
 5984SOL    HW229412   1.791   1.029   2.594 -0.8871 -0.5221 -0.0440
 5985SOL     OW29413   3.383   4.245  13.916 -0.3261 -1.0279 -0.0158
 5985SOL    HW129414   3.446   4.287  13.857 -1.0297 -0.8465 -0.6444
 5985SOL    HW229415   3.364   4.162  13.871 -0.3251 -1.6371  1.1166
 5986SOL     OW29416   1.327   4.171  13.581  1.1379  0.3652 -0.0425
 5986SOL    HW129417   1.247   4.207  13.620  1.7622  0.4178  1.1739
 5986SOL    HW229418   1.346   4.253  13.535 -0.1091  0.8383  0.2931
 5987SOL     OW29419   1.848   0.136   8.943  0.2053 -0.2168  0.3036
 5987SOL    HW129420   1.899   0.086   9.006 -1.1178  0.9498  2.3173
 5987SOL    HW229421   1.789   0.070   8.907 -1.2998  1.3866 -0.1973
 5988SOL     OW29422   2.493   2.771  14.334 -0.2358 -0.6720 -0.4912
 5988SOL    HW129423   2.512   2.678  14.346  0.2262 -0.5138  0.0399
 5988SOL    HW229424   2.582   2.798  14.311 -0.7740  0.9026 -0.7325
 5989SOL     OW29425   0.352   1.502   8.123  0.3744 -0.7289  0.5859
 5989SOL    HW129426   0.258   1.487   8.126  0.0297  1.1238 -1.1714
 5989SOL    HW229427   0.392   1.423   8.087 -0.0845  0.6743 -3.0553
 5990SOL     OW29428   2.643   0.735   9.167 -0.1387  0.4464 -0.3954
 5990SOL    HW129429   2.615   0.812   9.117  0.2763 -0.5175 -2.1221
 5990SOL    HW229430   2.737   0.724   9.151 -0.3024  0.4474 -1.3907
 5991SOL     OW29431   2.731   0.521  15.190 -0.1971 -1.0948  0.2975
 5991SOL    HW129432   2.757   0.559  15.274 -0.8336 -0.7261  0.3253
 5991SOL    HW229433   2.676   0.588  15.149  0.8787  1.3445  2.7822
 5992SOL     OW29434   2.390   3.496   3.533  0.3053  0.2315  0.0613
 5992SOL    HW129435   2.419   3.406   3.551 -0.4874  0.2075  1.1462
 5992SOL    HW229436   2.353   3.537   3.610 -1.2757  0.3638 -0.7771
 5993SOL     OW29437   3.653   4.069   8.692 -0.4544 -0.2252 -0.0483
 5993SOL    HW129438   3.678   4.124   8.618  1.5840 -2.4511 -1.0482
 5993SOL    HW229439   3.738   4.042   8.727 -0.7178  2.8172  2.9236
 5994SOL     OW29440   3.140   1.866   9.019 -0.1018 -0.3982  0.4312
 5994SOL    HW129441   3.089   1.946   9.028  2.7295  1.6170 -1.2996
 5994SOL    HW229442   3.088   1.824   8.951  1.8803 -1.1835 -0.6250
 5995SOL     OW29443   2.161   1.959  16.756 -0.3021 -0.3649  0.0287
 5995SOL    HW129444   2.106   2.027  16.717  2.0682 -0.2133 -3.0156
 5995SOL    HW229445   2.108   1.880  16.749 -1.6536  0.6690 -1.4047
 5996SOL     OW29446   3.298   4.009  13.791 -0.2205  0.0518  0.0530
 5996SOL    HW129447   3.238   4.014  13.717  0.6764 -0.4732 -0.7251
 5996SOL    HW229448   3.378   3.974  13.751  0.9622  0.8728  1.6896
 5997SOL     OW29449   1.840   0.775   7.199 -0.8473  0.3624  0.4236
 5997SOL    HW129450   1.767   0.837   7.205 -0.8092  0.5331 -0.9443
 5997SOL    HW229451   1.842   0.742   7.289 -1.7140  2.1188  1.0836
 5998SOL     OW29452   2.079   1.471   2.531  0.1519 -0.0746 -0.3458
 5998SOL    HW129453   2.070   1.378   2.552 -0.5318  0.3959  1.5181
 5998SOL    HW229454   2.091   1.472   2.436  0.1222 -0.5147 -0.3564
 5999SOL     OW29455   0.155   4.183   8.860  0.7653  0.1207 -0.3295
 5999SOL    HW129456   0.062   4.161   8.851  0.6348  0.2905  0.6172
 5999SOL    HW229457   0.196   4.116   8.805  0.0927 -0.6704  0.1234
 6000SOL     OW29458   0.389   1.296  11.169 -0.0916  0.0593 -0.2002
 6000SOL    HW129459   0.399   1.391  11.157  2.9777 -0.3166 -0.3960
 6000SOL    HW229460   0.322   1.284  11.101  0.2494  1.7524 -0.8446
 6001SOL     OW29461   0.805   4.019   5.319  0.0509  0.0712  0.2900
 6001SOL    HW129462   0.798   4.003   5.225  0.6671 -1.0054  0.4278
 6001SOL    HW229463   0.822   4.113   5.328 -2.9103  0.8094 -1.9413
 6002SOL     OW29464   1.075   4.458  17.022 -0.6459  0.5479 -0.1383
 6002SOL    HW129465   1.083   4.551  17.002 -3.0597  0.3428 -2.1337
 6002SOL    HW229466   1.032   4.417  16.947 -0.3492  0.3155 -0.1807
 6003SOL     OW29467   1.414   2.859   5.068 -0.4681  0.2302  0.4028
 6003SOL    HW129468   1.329   2.818   5.085 -0.2881 -1.1561 -1.9803
 6003SOL    HW229469   1.416   2.864   4.972  0.8074 -1.3171  0.3373
 6004SOL     OW29470   0.173   2.578   5.821 -0.5028  0.5243 -0.1706
 6004SOL    HW129471   0.097   2.568   5.763 -0.4179 -0.0936 -0.1830
 6004SOL    HW229472   0.183   2.673   5.818 -0.2426  0.5066  0.1603
 6005SOL     OW29473   0.522   2.216   4.569 -0.3962 -0.1515 -0.0339
 6005SOL    HW129474   0.498   2.158   4.497 -0.0072  1.1640 -1.2386
 6005SOL    HW229475   0.446   2.273   4.558 -0.1091  0.1753 -0.3224
 6006SOL     OW29476   4.423   4.323  12.307  0.2250  0.8559 -0.6565
 6006SOL    HW129477   4.346   4.280  12.344 -1.0436  2.5312 -1.3530
 6006SOL    HW229478   4.488   4.268  12.352 -1.7143 -2.2322 -1.6048
 6007SOL     OW29479   0.388   3.078   2.396 -0.5006  0.5298  0.6821
 6007SOL    HW129480   0.388   2.982   2.388 -0.0546  0.4089  2.0864
 6007SOL    HW229481   0.295   3.097   2.401 -0.4518  1.1268 -0.7068
 6008SOL     OW29482   3.440   4.581   2.352  0.1669 -0.2158 -0.0914
 6008SOL    HW129483   3.373   4.634   2.394  0.2357 -0.0009 -0.2542
 6008SOL    HW229484   3.512   4.640   2.378 -0.9029  1.4399 -0.8909
 6009SOL     OW29485   3.463   3.778   9.310  0.3502  0.3193 -0.2915
 6009SOL    HW129486   3.557   3.781   9.328 -0.4085  2.7165  3.1994
 6009SOL    HW229487   3.436   3.721   9.382 -1.5108 -0.7484 -1.8091
 6010SOL     OW29488   3.371   4.696   7.419  0.0628 -0.0321  0.2283
 6010SOL    HW129489   3.349   0.022   7.337  2.1350  2.6105  1.1427
 6010SOL    HW229490   3.312   4.621   7.409 -0.9321  0.7616  0.0705
 6011SOL     OW29491   1.730   4.297   7.144  0.4704  0.2315  0.0488
 6011SOL    HW129492   1.736   4.202   7.153 -2.2123  0.2817  2.3960
 6011SOL    HW229493   1.727   4.297   7.048 -1.2634 -1.6791  0.0927
 6012SOL     OW29494   2.370   0.897   9.647  0.1047  0.0872  0.2836
 6012SOL    HW129495   2.357   0.883   9.553 -2.0443  2.0130  0.3042
 6012SOL    HW229496   2.321   0.979   9.652 -2.9024 -1.8330  1.9416
 6013SOL     OW29497   2.907   4.517   3.971  0.6526 -0.2213  0.6298
 6013SOL    HW129498   2.959   4.524   3.891 -2.3641 -4.0189 -1.7021
 6013SOL    HW229499   2.873   4.430   3.949  0.9136 -0.0690 -0.3555
 6014SOL     OW29500   1.622   4.286  13.683 -0.5068 -0.1487  0.1358
 6014SOL    HW129501   1.601   4.199  13.647  3.3811 -0.0645 -2.3121
 6014SOL    HW229502   1.540   4.332  13.665  0.8139  1.8417 -0.7392
 6015SOL     OW29503   2.624   3.050   8.142  0.0684 -0.0795  0.1840
 6015SOL    HW129504   2.615   2.957   8.162  2.8318 -0.3946  0.0134
 6015SOL    HW229505   2.534   3.079   8.153  0.1446 -0.6925  2.4093
 6016SOL     OW29506   2.035   2.089   0.304  0.4606  0.2596  0.2340
 6016SOL    HW129507   1.967   2.153   0.283 -0.9494 -1.5012 -0.5437
 6016SOL    HW229508   2.075   2.068   0.220  0.9129 -0.1753  0.5551
 6017SOL     OW29509   1.269   2.771   3.517 -0.3354 -0.4446  0.2825
 6017SOL    HW129510   1.310   2.684   3.513  1.0246  0.1967  0.1111
 6017SOL    HW229511   1.236   2.786   3.429 -1.9115 -0.6828  0.8337
 6018SOL     OW29512   0.974   2.090   0.895 -0.6097 -0.2285 -0.0861
 6018SOL    HW129513   0.974   2.005   0.939  0.2240 -0.2248 -0.0767
 6018SOL    HW229514   1.057   2.095   0.848 -0.6600  1.5605  0.0124
 6019SOL     OW29515   0.217   1.794   6.087 -0.9123 -0.2225  0.6582
 6019SOL    HW129516   0.200   1.884   6.115  0.2775  0.0660  0.4252
 6019SOL    HW229517   0.247   1.809   5.998 -0.5819  2.7449  1.2788
 6020SOL     OW29518   0.482   1.853  15.404 -0.9426 -0.3673 -0.0010
 6020SOL    HW129519   0.440   1.767  15.398 -0.1434 -0.8106  0.9064
 6020SOL    HW229520   0.553   1.849  15.339 -0.9909  1.7086 -0.1869
 6021SOL     OW29521   1.615   2.808   4.395  0.4439 -0.3572 -0.1436
 6021SOL    HW129522   1.542   2.770   4.445  0.2855 -0.3005 -0.3316
 6021SOL    HW229523   1.688   2.783   4.452 -0.0164  1.3085  1.1967
 6022SOL     OW29524   1.124   1.929   0.302 -0.0792  0.1125 -0.4796
 6022SOL    HW129525   1.064   1.858   0.328  0.0302 -1.1992 -3.8317
 6022SOL    HW229526   1.153   1.897   0.217  1.1788  0.4939 -0.1889
 6023SOL     OW29527   2.776   2.466   7.636  0.2459  0.0782 -0.5946
 6023SOL    HW129528   2.691   2.495   7.668  1.1906  1.2791  0.8108
 6023SOL    HW229529   2.752   2.388   7.586 -0.4512  1.2683 -2.1157
 6024SOL     OW29530   0.306   0.866   0.174  0.2219 -0.1891  0.2342
 6024SOL    HW129531   0.304   0.780   0.215  0.9118  0.1521  0.9823
 6024SOL    HW229532   0.323   0.925   0.248 -0.2003 -0.2503  0.3742
 6025SOL     OW29533   1.234   3.334   5.761  0.8624  0.5698  0.3303
 6025SOL    HW129534   1.139   3.333   5.750  0.9015  0.3511  0.0063
 6025SOL    HW229535   1.247   3.337   5.855  1.1785 -1.3236  0.3365
 6026SOL     OW29536   0.513   4.705   6.989  0.3836  0.0977  0.0106
 6026SOL    HW129537   0.516   0.059   6.928 -2.2007  0.2091  0.0139
 6026SOL    HW229538   0.497   0.033   7.071 -0.7665 -0.0197 -0.1489
 6027SOL     OW29539   3.910   0.788  13.130 -0.0023  0.5232  0.1757
 6027SOL    HW129540   3.957   0.855  13.178  0.3267  0.2472  0.2324
 6027SOL    HW229541   3.979   0.766  13.067 -0.1276  1.1976 -0.2030
 6028SOL     OW29542   3.630   3.696  11.595 -0.9003  0.3345 -0.4205
 6028SOL    HW129543   3.715   3.739  11.589 -2.4981  3.3539 -1.5045
 6028SOL    HW229544   3.578   3.776  11.604 -0.8977  0.2182  0.5749
 6029SOL     OW29545   3.977   0.351  16.271  0.0556  0.1198 -0.0839
 6029SOL    HW129546   3.884   0.358  16.249  0.2877  1.2349 -0.7287
 6029SOL    HW229547   4.018   0.347  16.185  0.5717  0.5677  0.1410
 6030SOL     OW29548   0.126   2.554   0.431  0.0396 -0.4147 -0.1644
 6030SOL    HW129549   0.221   2.563   0.442  0.0999 -1.8423  0.4245
 6030SOL    HW229550   0.105   2.605   0.353 -2.2839 -0.1505  0.6403
 6031SOL     OW29551   0.802   3.613   9.871 -0.2869 -0.1211 -0.3302
 6031SOL    HW129552   0.865   3.542   9.877  0.2984  0.3965 -0.3329
 6031SOL    HW229553   0.764   3.602   9.784 -0.9330 -1.2110  0.0807
 6032SOL     OW29554   4.650   0.038   4.715 -0.0555  0.4023 -0.4261
 6032SOL    HW129555   0.026   0.039   4.729 -0.3521  1.5408  1.5389
 6032SOL    HW229556   4.644   0.064   4.623  1.6180  2.5180  0.0478
 6033SOL     OW29557   1.398   3.073   0.737  0.9497 -0.1260 -0.1990
 6033SOL    HW129558   1.342   3.068   0.815  1.5523 -0.3573  0.2161
 6033SOL    HW229559   1.476   3.034   0.776  0.6206  1.6838  2.2666
 6034SOL     OW29560   0.309   1.484   4.548  0.0146  0.4874 -0.3993
 6034SOL    HW129561   0.299   1.504   4.455  0.5577  1.8109 -0.1774
 6034SOL    HW229562   0.344   1.570   4.572  1.9431 -0.7753  1.2598
 6035SOL     OW29563   1.496   3.304  11.235 -0.2603  0.7828  0.0680
 6035SOL    HW129564   1.478   3.265  11.320 -1.2432 -0.9019 -0.9162
 6035SOL    HW229565   1.461   3.239  11.174 -0.4853  1.6951 -0.7890
 6036SOL     OW29566   2.523   0.787  17.301  0.6367  0.8176  0.3563
 6036SOL    HW129567   2.485   0.860  17.252 -1.4818 -0.8720 -0.5434
 6036SOL    HW229568   2.572   0.759  17.224  0.5538 -1.0527  0.9910
 6037SOL     OW29569   0.255   3.662  14.297  0.4211 -0.3923  0.1914
 6037SOL    HW129570   0.270   3.569  14.317  0.2629 -0.6928 -1.0637
 6037SOL    HW229571   0.300   3.713  14.364  0.3837 -1.3015  0.9058
 6038SOL     OW29572   3.386   4.575  13.003  0.1777 -0.7132  0.3490
 6038SOL    HW129573   3.474   4.577  13.043  0.6595 -1.6898 -0.6671
 6038SOL    HW229574   3.390   4.489  12.962 -0.7382 -0.6493  0.1422
 6039SOL     OW29575   1.132   3.486   8.688 -0.8509 -0.8317 -0.6928
 6039SOL    HW129576   1.179   3.406   8.709 -0.9000 -0.7514 -0.2714
 6039SOL    HW229577   1.049   3.447   8.664 -0.7123 -0.8805 -1.0975
 6040SOL     OW29578   1.948   2.670   2.498 -0.0056  0.1421 -0.2281
 6040SOL    HW129579   1.903   2.588   2.478  1.7718 -0.4215 -1.9362
 6040SOL    HW229580   2.019   2.670   2.433 -1.4114 -0.1068 -1.7405
 6041SOL     OW29581   2.555   1.963  15.887  0.5992  0.1561 -0.2082
 6041SOL    HW129582   2.621   2.031  15.880  0.6635  0.3068  1.6995
 6041SOL    HW229583   2.553   1.974  15.982 -1.7924  0.3219 -0.2664
 6042SOL     OW29584   2.706   0.424   8.934  0.1213  0.2644  0.1073
 6042SOL    HW129585   2.738   0.347   8.886  0.1685 -0.1900  0.8744
 6042SOL    HW229586   2.709   0.497   8.872 -0.0030 -0.3183 -0.5881
 6043SOL     OW29587   3.852   2.867   5.915  0.0707  0.3410 -0.1446
 6043SOL    HW129588   3.845   2.779   5.877  0.0850  0.7562 -1.1100
 6043SOL    HW229589   3.916   2.862   5.986 -0.6634  0.1256  0.4992
 6044SOL     OW29590   1.993   3.925   6.992  0.5113 -0.2679 -0.0841
 6044SOL    HW129591   1.918   3.958   7.042  0.6701 -1.1169  0.7105
 6044SOL    HW229592   2.014   3.850   7.047  0.4141  0.3835  0.8421
 6045SOL     OW29593   2.540   1.343   6.303 -0.5550  0.3387  0.1628
 6045SOL    HW129594   2.449   1.343   6.335 -0.8422 -1.1260 -0.6643
 6045SOL    HW229595   2.565   1.434   6.322  1.6610  0.2969 -2.6982
 6046SOL     OW29596   1.995   2.963   3.665  0.4636  0.0272  0.4488
 6046SOL    HW129597   2.061   3.016   3.621  3.5851 -2.4833  2.0751
 6046SOL    HW229598   2.053   2.893   3.696 -0.5224 -0.1031  1.9896
 6047SOL     OW29599   3.323   4.228   2.121 -0.8942  0.2392 -0.2066
 6047SOL    HW129600   3.419   4.230   2.127 -0.8568  0.5394 -0.9342
 6047SOL    HW229601   3.303   4.180   2.202 -0.3266  0.0985 -0.1483
 6048SOL     OW29602   2.720   2.670   4.802  0.2067 -0.2171 -0.2115
 6048SOL    HW129603   2.803   2.716   4.816  1.0501 -1.5541 -0.8373
 6048SOL    HW229604   2.683   2.691   4.887  0.1989 -0.2161 -0.2152
 6049SOL     OW29605   4.335   2.510   2.844 -0.5807  0.5407 -0.5165
 6049SOL    HW129606   4.398   2.479   2.778  0.0949 -2.0972  1.3281
 6049SOL    HW229607   4.295   2.582   2.796 -0.1490  0.5699 -0.8336
 6050SOL     OW29608   4.078   3.985   5.409 -0.0292  0.5235 -0.0606
 6050SOL    HW129609   4.126   4.024   5.336  1.4345  1.5323  1.4524
 6050SOL    HW229610   4.078   3.891   5.391  2.2070  0.4868  0.0518
 6051SOL     OW29611   1.120   4.334   5.375  0.7373  0.1818 -0.6975
 6051SOL    HW129612   1.041   4.388   5.368  0.4218 -0.3236 -1.0506
 6051SOL    HW229613   1.101   4.279   5.452 -0.4983  0.9394 -0.4687
 6052SOL     OW29614   2.659   1.190   4.724  0.0297  0.3519 -0.0430
 6052SOL    HW129615   2.593   1.174   4.656 -0.6109  1.7474  0.2465
 6052SOL    HW229616   2.702   1.268   4.689 -1.7757  0.8354 -1.2320
 6053SOL     OW29617   0.362   0.272   5.928  0.2177  0.5510 -0.0560
 6053SOL    HW129618   0.384   0.293   5.838  1.2701 -1.9536 -0.3698
 6053SOL    HW229619   0.336   0.360   5.956  0.5872  1.2631 -1.9379
 6054SOL     OW29620   1.244   4.697   8.153  0.0725 -0.7954 -0.2493
 6054SOL    HW129621   1.239   4.669   8.062  0.5605 -1.0294 -0.2070
 6054SOL    HW229622   1.158   4.672   8.187 -0.6413  0.2945 -1.2457
 6055SOL     OW29623   1.273   1.805  15.422 -0.1413  0.2806  0.2656
 6055SOL    HW129624   1.252   1.863  15.349 -0.2321 -0.1715 -0.0656
 6055SOL    HW229625   1.186   1.775  15.449 -0.7626  2.2765  0.4194
 6056SOL     OW29626   0.840   1.986  16.032  0.0059 -0.1505  0.0094
 6056SOL    HW129627   0.874   2.061  16.082  0.6300  0.7321 -1.7005
 6056SOL    HW229628   0.783   2.028  15.968  0.1433 -0.2807 -0.1977
 6057SOL     OW29629   0.545   3.458   2.379 -0.5153  0.0657  0.7587
 6057SOL    HW129630   0.596   3.539   2.389  1.1933 -1.0033  0.7930
 6057SOL    HW229631   0.492   3.489   2.305  1.0379  3.3475  0.9733
 6058SOL     OW29632   1.730   2.408   6.104  0.7025 -0.8055  0.1370
 6058SOL    HW129633   1.651   2.451   6.135  0.9307 -0.8713  0.8242
 6058SOL    HW229634   1.714   2.313   6.110  2.6032 -1.1600 -0.3959
 6059SOL     OW29635   4.226   4.027   4.679  0.2751  0.0572  0.5131
 6059SOL    HW129636   4.248   3.938   4.704  0.8498 -0.3375 -1.3762
 6059SOL    HW229637   4.147   4.039   4.731  0.8670 -2.5702  1.9880
 6060SOL     OW29638   3.456   4.402   7.418 -0.4274 -0.0937  0.0362
 6060SOL    HW129639   3.416   4.382   7.502  0.8048 -2.5331  0.0423
 6060SOL    HW229640   3.519   4.330   7.410  0.7869  0.9527  0.1090
 6061SOL     OW29641   0.194   2.981  12.182 -0.7703 -0.0976  0.8612
 6061SOL    HW129642   0.218   3.054  12.126 -0.9722 -1.7733 -1.4174
 6061SOL    HW229643   0.258   2.994  12.251  0.9592 -1.4974 -0.4579
 6062SOL     OW29644   4.700   4.621   1.900  0.8618  0.1511  0.0083
 6062SOL    HW129645   4.624   4.647   1.848  1.2141  1.3455  0.0730
 6062SOL    HW229646   4.685   4.658   1.987 -0.3312 -0.1353 -0.0768
 6063SOL     OW29647   2.450   3.143  10.075 -0.0462  0.4261 -0.4046
 6063SOL    HW129648   2.395   3.121  10.150 -0.3799  2.8126  0.0656
 6063SOL    HW229649   2.419   3.085  10.006 -0.3395 -2.2112  1.9444
 6064SOL     OW29650   3.752   1.268   2.434  0.3542  0.4109  0.0703
 6064SOL    HW129651   3.832   1.247   2.483  1.7469  1.2776 -1.7817
 6064SOL    HW229652   3.716   1.334   2.493  0.6921  1.4895 -0.9092
 6065SOL     OW29653   1.642   0.745  11.126 -0.0515 -0.0067  0.5461
 6065SOL    HW129654   1.605   0.716  11.043  0.7738 -0.0458  0.1921
 6065SOL    HW229655   1.568   0.788  11.169 -1.8786 -2.1335 -0.4454
 6066SOL     OW29656   4.680   3.980  16.972 -0.0479  0.3062 -0.2073
 6066SOL    HW129657   4.651   4.031  17.048  0.9496  1.5615 -0.6577
 6066SOL    HW229658   4.604   3.922  16.970  0.8103 -0.7252 -2.8387
 6067SOL     OW29659   0.664   2.937   7.096 -0.1047 -0.1504 -0.0254
 6067SOL    HW129660   0.664   2.900   7.184  0.9739 -1.4625 -0.5790
 6067SOL    HW229661   0.676   3.028   7.124 -1.6463  0.1117 -0.2441
 6068SOL     OW29662   3.907   2.591   7.732  0.1672 -0.2675  0.1917
 6068SOL    HW129663   3.816   2.560   7.735 -0.1193  0.4692 -0.6357
 6068SOL    HW229664   3.941   2.544   7.655  1.8711  1.0927  0.1198
 6069SOL     OW29665   3.917   3.006   1.264 -0.4426 -0.0892 -0.2249
 6069SOL    HW129666   3.870   2.925   1.246  2.4165 -0.8544 -4.1996
 6069SOL    HW229667   3.937   3.057   1.186 -0.2302 -1.2495 -0.9213
 6070SOL     OW29668   3.814   0.234   4.127 -0.3675  0.2553 -0.0866
 6070SOL    HW129669   3.753   0.161   4.132 -0.5656  0.4439  0.2691
 6070SOL    HW229670   3.843   0.226   4.217  0.4177  0.0554 -0.3592
 6071SOL     OW29671   4.651   4.319   4.585 -0.1767 -0.0004  0.4646
 6071SOL    HW129672   4.560   4.289   4.590 -0.2545  0.1265 -0.1926
 6071SOL    HW229673   4.639   4.401   4.537 -0.6701  0.4893  1.4388
 6072SOL     OW29674   1.403   1.128   4.320  0.1998  0.2075  0.0193
 6072SOL    HW129675   1.461   1.170   4.257 -1.9338  1.2219 -1.2715
 6072SOL    HW229676   1.407   1.033   4.306 -1.3969 -0.1178  1.6380
 6073SOL     OW29677   4.034   1.565   4.848  0.2789  0.6069 -0.0439
 6073SOL    HW129678   4.010   1.482   4.889 -1.0764  0.8856 -0.2836
 6073SOL    HW229679   4.124   1.578   4.879 -0.7843  0.6146  3.0208
 6074SOL     OW29680   2.096   3.907   8.378 -0.0381 -0.1306  0.3834
 6074SOL    HW129681   2.104   3.966   8.304 -1.7062 -1.4883 -0.8663
 6074SOL    HW229682   2.184   3.902   8.417 -0.3003  3.3607  1.4333
 6075SOL     OW29683   2.025   4.075   3.699 -0.2745  0.2083  0.6707
 6075SOL    HW129684   1.997   4.146   3.643 -0.8609 -1.7280 -1.4974
 6075SOL    HW229685   1.950   4.068   3.758  0.2553  0.9744  1.4367
 6076SOL     OW29686   2.857   1.880   8.196  0.2760 -0.3872 -0.1192
 6076SOL    HW129687   2.936   1.833   8.170  1.3443  0.9322  0.7321
 6076SOL    HW229688   2.813   1.888   8.111 -1.4298  0.3610  0.8318
 6077SOL     OW29689   1.348   4.246  12.744  0.8324  0.3469 -0.2148
 6077SOL    HW129690   1.395   4.323  12.775  0.1920 -0.0832  1.7959
 6077SOL    HW229691   1.304   4.276  12.664  0.0648  1.1459  0.5055
 6078SOL     OW29692   3.944   4.608   5.284 -0.0210 -0.3167 -0.1151
 6078SOL    HW129693   4.012   4.631   5.221  2.0920 -0.7186  2.0315
 6078SOL    HW229694   3.867   4.622   5.229  0.2609 -1.1559 -0.7336
 6079SOL     OW29695   4.081   2.959   5.134  0.5703 -0.0383  0.5052
 6079SOL    HW129696   4.173   2.984   5.136  0.7620 -0.6064 -1.5314
 6079SOL    HW229697   4.086   2.864   5.128 -1.7722  0.0062 -2.1853
 6080SOL     OW29698   2.067   3.557   4.879  0.3789  0.1862 -0.0748
 6080SOL    HW129699   2.065   3.653   4.868  0.4476  0.5585  3.3171
 6080SOL    HW229700   1.992   3.535   4.824  1.0076  0.4344 -1.0359
 6081SOL     OW29701   3.779   0.028   9.804 -0.4523  0.3223 -0.3593
 6081SOL    HW129702   3.691   4.714   9.783 -1.0749  1.5784  0.2649
 6081SOL    HW229703   3.799   0.067   9.719  0.3558  2.2833  0.7339
 6082SOL     OW29704   3.127   3.897  12.724  0.1643  0.1849  0.1268
 6082SOL    HW129705   3.034   3.910  12.705  0.2825 -0.0206 -0.5974
 6082SOL    HW229706   3.169   3.960  12.665 -0.3049  0.6443  0.2864
 6083SOL     OW29707   0.955   3.453   7.669  0.0099  0.5546 -0.3768
 6083SOL    HW129708   0.985   3.535   7.630 -0.5079  1.0583  0.2946
 6083SOL    HW229709   1.016   3.424   7.736 -1.0051 -2.7545 -0.8795
 6084SOL     OW29710   2.212   2.814  17.152  0.0288  0.1264  0.1634
 6084SOL    HW129711   2.145   2.746  17.164 -1.0533  1.1410 -0.1571
 6084SOL    HW229712   2.183   2.858  17.073  1.2048  0.7828  0.1034
 6085SOL     OW29713   1.304   2.216   9.727 -0.0310  0.1798  0.3208
 6085SOL    HW129714   1.351   2.221   9.810 -1.4852  2.1672  1.0458
 6085SOL    HW229715   1.214   2.221   9.760 -0.7442 -1.3145 -1.4117
 6086SOL     OW29716   0.705   0.361   3.326 -0.1768 -0.2449 -0.3141
 6086SOL    HW129717   0.707   0.457   3.330  0.1534 -0.2854  0.4534
 6086SOL    HW229718   0.756   0.340   3.247  0.4709 -2.5247  0.7023
 6087SOL     OW29719   1.525   4.293  11.286 -0.4207  0.2650 -0.2112
 6087SOL    HW129720   1.469   4.218  11.305  0.5546  0.0653  1.9252
 6087SOL    HW229721   1.459   4.358  11.260  1.2459  1.6272 -1.0437
 6088SOL     OW29722   4.051   2.327   3.502 -0.6302 -0.3415 -0.1496
 6088SOL    HW129723   4.006   2.371   3.430  1.4954  1.1382 -0.5502
 6088SOL    HW229724   4.055   2.400   3.564  1.3642 -0.4469 -0.1500
 6089SOL     OW29725   3.592   3.190   1.482 -0.2493  0.0118 -0.1059
 6089SOL    HW129726   3.530   3.260   1.501 -2.3748 -1.6588 -0.8312
 6089SOL    HW229727   3.672   3.225   1.520 -0.6010  0.4776  0.2022
 6090SOL     OW29728   0.958   0.222   7.118 -0.0012  0.5474  0.6454
 6090SOL    HW129729   1.021   0.164   7.161  1.5985  0.4997 -1.7586
 6090SOL    HW229730   0.922   0.165   7.050  2.1388 -0.6951  0.5233
 6091SOL     OW29731   4.095   1.271  15.556 -0.5231 -0.2972  0.4174
 6091SOL    HW129732   4.186   1.296  15.574 -0.9278  2.0704 -0.7723
 6091SOL    HW229733   4.100   1.195  15.499 -1.1848  0.7182 -1.0014
 6092SOL     OW29734   3.825   2.356   4.618 -0.0631 -1.1256 -0.4711
 6092SOL    HW129735   3.786   2.443   4.631  0.7727 -1.0419  1.4956
 6092SOL    HW229736   3.915   2.372   4.591  0.0292  0.5015  0.7452
 6093SOL     OW29737   2.572   2.485   4.670 -0.0059  0.2628  0.7229
 6093SOL    HW129738   2.631   2.548   4.710 -0.3003 -0.9202  3.0006
 6093SOL    HW229739   2.637   2.442   4.615 -1.3750 -0.9007  0.0108
 6094SOL     OW29740   0.697   2.334  16.031  0.4904 -0.2828  0.0226
 6094SOL    HW129741   0.718   2.259  16.086  0.8713 -0.3257 -0.1812
 6094SOL    HW229742   0.744   2.402  16.079  0.5078  0.3378 -0.8627
 6095SOL     OW29743   2.442   4.644   1.667 -0.2312 -0.6710 -0.3733
 6095SOL    HW129744   2.368   4.672   1.614 -1.1046 -2.0060  0.1327
 6095SOL    HW229745   2.511   4.631   1.602  0.0391 -2.9967  0.3796
 6096SOL     OW29746   3.052   1.106   0.809  0.1716 -0.3049 -0.1502
 6096SOL    HW129747   2.991   1.177   0.830  0.6245  0.2830 -0.8400
 6096SOL    HW229748   3.060   1.069   0.898 -3.0473 -0.3819  0.1336
 6097SOL     OW29749   1.770   0.879   5.175 -0.5210 -0.1584  0.0695
 6097SOL    HW129750   1.848   0.855   5.125  0.0209  0.4442  0.6249
 6097SOL    HW229751   1.705   0.885   5.104 -1.4035  1.0796  0.9879
 6098SOL     OW29752   3.587   3.619   4.043  0.0530 -0.5227  0.2841
 6098SOL    HW129753   3.592   3.714   4.034  2.0765 -0.7270 -0.5864
 6098SOL    HW229754   3.511   3.598   3.990 -0.3402 -1.0990  1.0698
 6099SOL     OW29755   2.187   2.164   6.534  0.1024  0.0503  0.1941
 6099SOL    HW129756   2.180   2.109   6.456  1.7687 -1.7780  1.3213
 6099SOL    HW229757   2.248   2.227   6.495 -0.7253 -0.2622 -1.6059
 6100SOL     OW29758   3.562   3.577   6.127  0.0635 -0.0501 -0.2323
 6100SOL    HW129759   3.608   3.523   6.062 -0.4463 -0.1588 -0.5006
 6100SOL    HW229760   3.574   3.662   6.083 -1.3582  0.0761 -0.3836
 6101SOL     OW29761   3.001   0.846  12.204 -0.1776 -0.3370 -0.1553
 6101SOL    HW129762   3.056   0.919  12.176 -0.7178  1.0502  2.3751
 6101SOL    HW229763   3.050   0.770  12.172 -1.2735 -1.5432  1.0107
 6102SOL     OW29764   0.790   0.045  14.877  0.1928 -0.1964 -0.5296
 6102SOL    HW129765   0.828   4.677  14.876 -1.6582 -0.9993  1.6333
 6102SOL    HW229766   0.816   0.080  14.791  0.9657  1.5339  0.4089
 6103SOL     OW29767   2.910   3.243   2.051 -0.1430 -0.0126 -0.1196
 6103SOL    HW129768   2.987   3.212   2.004  0.8977  1.0051  0.8874
 6103SOL    HW229769   2.868   3.302   1.989 -0.5148 -1.0460 -0.8454
 6104SOL     OW29770   3.373   4.337   1.794  0.7929  0.1079 -0.2352
 6104SOL    HW129771   3.396   4.371   1.880  0.6123  0.4107 -0.3060
 6104SOL    HW229772   3.385   4.412   1.735 -1.0587  0.7401  0.1998
 6105SOL     OW29773   0.103   1.633  10.159  0.1192  0.6694 -0.1714
 6105SOL    HW129774   0.198   1.641  10.153  0.0928  0.9425 -0.2396
 6105SOL    HW229775   0.097   1.594  10.246 -1.6468 -3.3556 -2.0959
 6106SOL     OW29776   1.605   2.233   6.393 -0.2678  0.6910  0.2721
 6106SOL    HW129777   1.535   2.298   6.398 -1.1197 -0.5556  4.1744
 6106SOL    HW229778   1.572   2.163   6.449  0.1391  0.0937 -0.2205
 6107SOL     OW29779   2.590   3.573  14.887  0.2208 -0.0032  0.1018
 6107SOL    HW129780   2.651   3.575  14.960  0.0276 -1.0610  0.2923
 6107SOL    HW229781   2.645   3.621  14.825  2.2959 -1.6783  0.6795
 6108SOL     OW29782   2.877   1.548  11.679 -0.4495 -0.2170 -0.3711
 6108SOL    HW129783   2.806   1.552  11.615 -0.5189 -3.2999 -0.4697
 6108SOL    HW229784   2.881   1.643  11.687 -1.8931 -0.3013  1.3572
 6109SOL     OW29785   2.611   1.402   5.745  0.0893 -0.3040  0.0593
 6109SOL    HW129786   2.559   1.479   5.721  0.4051 -0.2353 -0.4090
 6109SOL    HW229787   2.699   1.436   5.724  0.5857 -2.6476 -1.6292
 6110SOL     OW29788   0.967   3.921  11.740 -0.3172  0.0001  0.4120
 6110SOL    HW129789   0.949   3.827  11.746 -1.6937  0.2788  0.5641
 6110SOL    HW229790   0.938   3.936  11.650  0.9542  0.3109  0.0545
 6111SOL     OW29791   0.528   2.757   6.599  0.3918  0.4327  0.0685
 6111SOL    HW129792   0.560   2.809   6.526  3.6700 -1.7460 -0.0505
 6111SOL    HW229793   0.601   2.771   6.659 -0.0938  1.6048  0.3840
 6112SOL     OW29794   0.376   0.560   5.081 -0.2069 -0.2370 -0.6308
 6112SOL    HW129795   0.309   0.508   5.125 -1.4148 -0.0042 -2.2289
 6112SOL    HW229796   0.327   0.573   5.000 -1.1948  1.8089  0.3036
 6113SOL     OW29797   2.652   2.020   5.613  0.6381  0.3381  0.2118
 6113SOL    HW129798   2.646   2.106   5.571  0.8001  0.7134  0.9733
 6113SOL    HW229799   2.738   2.019   5.655 -0.5921 -1.1589  2.6869
 6114SOL     OW29800   3.728   3.463  15.986  0.8901 -0.3202  0.4903
 6114SOL    HW129801   3.686   3.422  15.910 -1.0062  0.6049  1.0408
 6114SOL    HW229802   3.658   3.503  16.037 -1.7145  1.1298 -4.2234
 6115SOL     OW29803   0.929   2.263  13.101  0.7223 -0.0084  0.2533
 6115SOL    HW129804   0.983   2.190  13.070  1.0509  0.6380 -0.6906
 6115SOL    HW229805   0.974   2.287  13.182  0.9146  1.3021 -0.2481
 6116SOL     OW29806   2.556   1.664  13.393  0.6158 -0.2804 -0.3147
 6116SOL    HW129807   2.587   1.755  13.396  1.5481 -0.6310  0.3295
 6116SOL    HW229808   2.570   1.635  13.303  1.5191 -2.1759  0.4512
 6117SOL     OW29809   4.455   1.556   0.509 -0.1886 -0.0219  0.0578
 6117SOL    HW129810   4.483   1.637   0.465 -2.1838  0.5080 -0.2397
 6117SOL    HW229811   4.454   1.490   0.441 -1.0409  0.3665 -0.3084
 6118SOL     OW29812   2.094   2.598   4.879  0.0155 -0.0802  0.0815
 6118SOL    HW129813   2.061   2.644   4.956  1.8692 -0.3626  1.0476
 6118SOL    HW229814   2.188   2.616   4.889  0.6115 -1.8576 -2.3140
 6119SOL     OW29815   1.769   3.967   9.164 -0.0300  0.1673  0.4081
 6119SOL    HW129816   1.683   3.956   9.205 -0.7395  0.2201 -1.0814
 6119SOL    HW229817   1.748   4.025   9.091 -1.3931  0.0028  0.6736
 6120SOL     OW29818   0.688   0.246   4.916 -0.5701  0.2757  0.4338
 6120SOL    HW129819   0.660   0.284   4.999  0.1532  0.3319  0.6480
 6120SOL    HW229820   0.685   0.325   4.862 -1.5635  0.6253  0.9983
 6121SOL     OW29821   0.309   3.681  17.543 -0.3444  0.0659 -0.5450
 6121SOL    HW129822   0.226   3.705  17.503 -0.4610 -1.5118 -1.2419
 6121SOL    HW229823   0.350   3.766  17.556 -0.7843  0.2270 -0.2115
 6122SOL     OW29824   1.491   2.422   7.088 -0.1045  0.4338  0.2730
 6122SOL    HW129825   1.493   2.347   7.148  3.2004  0.8604  0.6762
 6122SOL    HW229826   1.552   2.479   7.135 -0.9700 -0.1331  2.0828
 6123SOL     OW29827   4.497   3.482   1.141 -0.1479  0.2492 -0.3460
 6123SOL    HW129828   4.411   3.442   1.130 -0.1172  0.3553 -0.9609
 6123SOL    HW229829   4.484   3.535   1.220  0.6875  0.2087 -0.1720
 6124SOL     OW29830   2.867   4.149  16.493 -0.1532 -0.1642 -0.1010
 6124SOL    HW129831   2.778   4.135  16.459  0.3432 -0.4207 -1.2780
 6124SOL    HW229832   2.917   4.132  16.413 -1.0109 -1.1790 -0.4184
 6125SOL     OW29833   1.087   3.684   4.040 -0.3442  0.2739  0.0400
 6125SOL    HW129834   1.078   3.597   4.002  0.6688  0.4152 -0.5227
 6125SOL    HW229835   1.084   3.664   4.134 -0.2889 -1.0930 -0.2477
 6126SOL     OW29836   3.996   2.047  15.721  0.1977 -0.5600 -0.3132
 6126SOL    HW129837   3.999   2.141  15.701  1.3642 -0.1343  1.9088
 6126SOL    HW229838   4.072   2.002  15.684  0.3471  1.1856 -2.1952
 6127SOL     OW29839   4.604   2.429  15.412  0.3502  0.1324  0.4549
 6127SOL    HW129840   4.532   2.402  15.354  0.4683 -1.8484  1.2507
 6127SOL    HW229841   4.676   2.387  15.365 -0.0337  1.6708 -1.5263
 6128SOL     OW29842   4.601   0.189   2.723 -0.4384 -0.1080 -0.4726
 6128SOL    HW129843   4.518   0.145   2.741 -1.4626  1.9798 -0.0947
 6128SOL    HW229844   4.668   0.122   2.733  0.2166  0.6506  0.1813
 6129SOL     OW29845   1.696   3.931   8.686  0.0167 -0.0078  0.1912
 6129SOL    HW129846   1.750   4.009   8.670 -0.0016 -0.0823 -0.2129
 6129SOL    HW229847   1.714   3.924   8.780 -1.3089 -0.6698  0.3887
 6130SOL     OW29848   3.141   0.358   5.028  0.4416  0.4379 -0.1892
 6130SOL    HW129849   3.162   0.268   5.005 -3.2327 -0.0530 -1.5034
 6130SOL    HW229850   3.129   0.401   4.943  0.5305  0.6725 -0.0854
 6131SOL     OW29851   4.338   3.784   4.395  0.1482 -0.0680  0.1772
 6131SOL    HW129852   4.248   3.754   4.388  0.0015  0.4865 -0.2703
 6131SOL    HW229853   4.371   3.712   4.449 -0.2059 -1.8931 -2.0693
 6132SOL     OW29854   3.301   3.686  11.155 -0.1801 -0.3608 -0.0888
 6132SOL    HW129855   3.242   3.676  11.230  1.2278  0.4106  1.1158
 6132SOL    HW229856   3.301   3.780  11.136 -0.5534 -0.3497 -0.0388
 6133SOL     OW29857   1.134   0.176   5.000  0.1620 -0.3094  0.1175
 6133SOL    HW129858   1.092   0.251   5.042 -1.2974 -1.0175 -0.0899
 6133SOL    HW229859   1.222   0.212   4.988 -0.6436  1.2081 -1.2198
 6134SOL     OW29860   2.010   3.985   9.267 -0.0367  0.1202 -0.0543
 6134SOL    HW129861   2.061   3.921   9.217 -1.2318  0.2739 -1.4464
 6134SOL    HW229862   1.921   3.957   9.249 -0.0619  0.8796 -1.1187
 6135SOL     OW29863   1.758   2.591   5.651 -0.6272  0.1368 -0.2884
 6135SOL    HW129864   1.794   2.503   5.655  0.9705  0.7821 -0.6549
 6135SOL    HW229865   1.830   2.631   5.603  1.6914 -1.3762  1.9160
 6136SOL     OW29866   3.340   0.047  13.203  0.5422  0.2276 -0.0345
 6136SOL    HW129867   3.346   4.706  13.129 -1.1114  0.9575 -0.7791
 6136SOL    HW229868   3.407   0.110  13.176  0.4631  0.0968 -0.5483
 6137SOL     OW29869   1.527   2.191  13.973 -0.9108  0.2844  0.1343
 6137SOL    HW129870   1.560   2.176  13.885 -0.3193 -3.3389  0.9728
 6137SOL    HW229871   1.472   2.114  13.988 -0.0174 -0.2237  0.8207
 6138SOL     OW29872   2.192   4.575   1.278 -0.9670  0.0786  0.4448
 6138SOL    HW129873   2.107   4.572   1.235 -0.3303 -0.1396 -0.8006
 6138SOL    HW229874   2.206   4.481   1.282  0.4636  0.2567 -0.2451
 6139SOL     OW29875   2.426   1.893  14.815  0.0073  0.1891 -0.1327
 6139SOL    HW129876   2.375   1.966  14.852 -0.0242 -0.1434  0.4784
 6139SOL    HW229877   2.482   1.940  14.754  0.4632  0.9567  0.8690
 6140SOL     OW29878   1.146   4.108   7.322 -0.0602 -0.2424 -0.0927
 6140SOL    HW129879   1.121   4.164   7.249  0.3174  0.5069  0.3568
 6140SOL    HW229880   1.232   4.086   7.285  0.3859  2.1895 -0.4926
 6141SOL     OW29881   2.574   0.489  13.521 -0.3581 -0.3826  0.1769
 6141SOL    HW129882   2.614   0.559  13.571  1.2839 -0.7309 -0.6633
 6141SOL    HW229883   2.586   0.530  13.436 -1.6189 -2.0621 -0.8357
 6142SOL     OW29884   2.745   0.179   5.377 -0.0955  1.2456 -0.0593
 6142SOL    HW129885   2.782   0.207   5.461  0.1931 -1.3140  0.6783
 6142SOL    HW229886   2.804   0.234   5.326  0.1286  0.4096 -0.6935
 6143SOL     OW29887   2.496   4.063   2.724 -0.3090  0.3358 -0.2192
 6143SOL    HW129888   2.527   4.146   2.761  1.4263  0.0046 -0.9082
 6143SOL    HW229889   2.552   3.996   2.763 -0.3734  0.1833 -0.3923
 6144SOL     OW29890   0.653   3.893   4.704 -0.1029 -0.1955 -0.2893
 6144SOL    HW129891   0.603   3.938   4.636  1.3964  1.0902 -0.5396
 6144SOL    HW229892   0.612   3.931   4.782 -0.3926 -0.8093 -0.1463
 6145SOL     OW29893   4.018   0.694   5.250  0.2324 -0.3808 -0.8944
 6145SOL    HW129894   4.082   0.720   5.184  0.9290 -0.1074 -0.1110
 6145SOL    HW229895   3.976   0.779   5.265 -1.6350 -1.4724  0.0009
 6146SOL     OW29896   1.987   2.120   6.107  0.0087  0.1292  0.6271
 6146SOL    HW129897   2.052   2.147   6.171  0.0321  0.6350  0.3925
 6146SOL    HW229898   2.010   2.027   6.103 -0.0334  0.0795  1.6799
 6147SOL     OW29899   2.070   2.085   0.699 -0.0503 -0.9172 -0.0039
 6147SOL    HW129900   2.117   2.060   0.619  2.0677 -1.7552  1.4956
 6147SOL    HW229901   2.000   2.144   0.671 -1.6954 -2.4000  0.9451
 6148SOL     OW29902   4.043   1.028  10.870 -0.7222  0.1617  0.3724
 6148SOL    HW129903   4.052   1.124  10.870 -2.3763  0.3039 -1.4918
 6148SOL    HW229904   4.128   1.007  10.909 -0.3662  0.5437 -0.1975
 6149SOL     OW29905   0.915   3.062   6.341 -0.0360 -0.6733  0.0693
 6149SOL    HW129906   0.979   3.124   6.376  0.5006 -0.3993 -1.3813
 6149SOL    HW229907   0.868   3.119   6.280 -0.7559 -0.3282  0.9373
 6150SOL     OW29908   3.190   1.049   2.868  0.2228  0.2075  0.4091
 6150SOL    HW129909   3.201   0.992   2.945  0.2462  0.4457  0.5818
 6150SOL    HW229910   3.137   0.992   2.813  1.8279 -1.5270  0.6644
 6151SOL     OW29911   2.119   4.610  11.156 -0.0777  0.3822 -0.5915
 6151SOL    HW129912   2.075   4.531  11.124  1.9997 -1.5265  1.2500
 6151SOL    HW229913   2.074   4.626  11.239 -1.7761 -1.2673 -1.1911
 6152SOL     OW29914   2.120   1.895   6.909  0.2602  0.3348 -0.5257
 6152SOL    HW129915   2.187   1.918   6.844  0.3394  2.4580  0.2883
 6152SOL    HW229916   2.052   1.957   6.885 -1.1176 -1.5782 -1.5600
 6153SOL     OW29917   2.681   3.856   2.416 -0.2687  0.0473 -0.1304
 6153SOL    HW129918   2.693   3.761   2.413 -0.7345 -0.0070 -0.3169
 6153SOL    HW229919   2.656   3.857   2.508 -0.3346  1.3173 -0.1677
 6154SOL     OW29920   1.701   4.670  11.467  0.0469  0.0799 -0.1113
 6154SOL    HW129921   1.680   4.602  11.531 -0.6145 -0.5940 -1.0597
 6154SOL    HW229922   1.621   0.002  11.460  0.6411  0.9051 -0.7165
 6155SOL     OW29923   0.909   3.702   1.889  0.4499 -0.2913  0.4240
 6155SOL    HW129924   0.872   3.788   1.869 -1.3209 -1.2293 -0.3436
 6155SOL    HW229925   0.883   3.686   1.980  2.7101 -1.1903  0.8908
 6156SOL     OW29926   1.154   2.133  11.518  0.3843  0.0021  0.4454
 6156SOL    HW129927   1.218   2.125  11.447 -0.1383  0.4171 -0.0842
 6156SOL    HW229928   1.104   2.053  11.502  1.4843 -0.7421  0.7632
 6157SOL     OW29929   3.213   3.887   8.282  0.1880  0.2377 -0.8693
 6157SOL    HW129930   3.261   3.821   8.233  0.1953 -1.4185  1.3661
 6157SOL    HW229931   3.123   3.860   8.263 -0.4898  2.1872 -0.4542
 6158SOL     OW29932   4.681   1.492   5.133 -0.7194  0.1476 -0.2408
 6158SOL    HW129933   4.651   1.415   5.182 -3.0186  0.8272 -0.5880
 6158SOL    HW229934   4.617   1.491   5.061  0.3909  0.5505 -1.2274
 6159SOL     OW29935   0.846   0.699   9.699  0.0329 -0.7519 -0.0472
 6159SOL    HW129936   0.907   0.734   9.764 -2.5284 -0.4429  2.1553
 6159SOL    HW229937   0.778   0.659   9.753  1.8991  0.8944  3.5052
 6160SOL     OW29938   3.265   0.366   5.961  0.2002  0.1911 -0.0057
 6160SOL    HW129939   3.320   0.289   5.969  0.1516  0.1185 -0.3995
 6160SOL    HW229940   3.333   0.430   5.941  0.4256 -0.3945 -1.0805
 6161SOL     OW29941   3.739   1.878   3.146 -0.2999 -0.0849  0.2218
 6161SOL    HW129942   3.668   1.835   3.099  0.0724 -1.4115  0.8732
 6161SOL    HW229943   3.785   1.802   3.183 -0.5151 -0.8844 -1.1658
 6162SOL     OW29944   0.898   2.154  15.756 -0.4053 -0.5582  0.0568
 6162SOL    HW129945   0.917   2.076  15.704 -1.9787 -1.7510  1.2460
 6162SOL    HW229946   0.974   2.146  15.813  1.2624 -1.0965 -2.2193
 6163SOL     OW29947   4.424   1.219   6.075 -0.3764 -0.0155  0.5098
 6163SOL    HW129948   4.502   1.207   6.020 -0.3734 -2.0899  0.9761
 6163SOL    HW229949   4.352   1.179   6.027  0.5557 -1.5632  0.4091
 6164SOL     OW29950   3.166   4.685   8.861  0.0425 -0.1903  0.5331
 6164SOL    HW129951   3.239   4.625   8.845  0.3218  0.2897  0.0020
 6164SOL    HW229952   3.097   4.638   8.815 -0.4843  0.2504  0.8865
 6165SOL     OW29953   1.677   1.031   3.096  0.3803 -0.2177  0.1220
 6165SOL    HW129954   1.607   1.069   3.149  2.0045  2.4035  0.4238
 6165SOL    HW229955   1.635   1.001   3.016 -2.1909  0.8116  1.0738
 6166SOL     OW29956   0.847   3.709   8.927 -0.1165 -0.7015  0.3016
 6166SOL    HW129957   0.882   3.620   8.922 -0.9800 -0.9135 -2.2215
 6166SOL    HW229958   0.764   3.693   8.881  0.7655  0.8057 -1.8474
 6167SOL     OW29959   4.675   3.715  15.198  0.0369 -0.8008  0.0381
 6167SOL    HW129960   0.017   3.750  15.263  0.1356 -1.4756  0.3012
 6167SOL    HW229961   4.683   3.789  15.137  0.2287 -0.5789  0.3318
 6168SOL     OW29962   1.613   1.351   7.579  0.1228  0.1937 -0.0641
 6168SOL    HW129963   1.558   1.429   7.579  2.1698  1.6549 -2.3825
 6168SOL    HW229964   1.642   1.374   7.667  0.6361  1.0809 -0.4722
 6169SOL     OW29965   2.768   0.011   5.056  0.6509  0.0642  0.1554
 6169SOL    HW129966   2.792   4.687   5.137  0.2248  0.4284  0.4737
 6169SOL    HW229967   2.844   0.002   4.997  0.2160  0.9456 -0.5452
 6170SOL     OW29968   2.222   4.360  11.064 -0.1286  0.6960 -0.2313
 6170SOL    HW129969   2.229   4.313  10.980  1.2509  0.2116  0.1678
 6170SOL    HW229970   2.312   4.377  11.092  0.1997 -1.6074  0.1292
 6171SOL     OW29971   2.880   4.687   6.437  0.1657  0.1097  0.0499
 6171SOL    HW129972   2.879   4.602   6.483  1.2489  0.0736  0.0182
 6171SOL    HW229973   2.919   4.662   6.353 -1.2498 -1.9049 -0.0241
 6172SOL     OW29974   4.220   2.738  11.056 -0.1377  0.5994 -0.4493
 6172SOL    HW129975   4.251   2.778  11.137 -0.1530 -1.4622  0.5662
 6172SOL    HW229976   4.213   2.646  11.082  0.5108  0.5467 -0.4592
 6173SOL     OW29977   1.169   3.412   7.821 -0.3437 -0.2093  0.3409
 6173SOL    HW129978   1.204   3.334   7.778 -2.3510 -3.0950  3.9608
 6173SOL    HW229979   1.241   3.443   7.875  1.0119 -1.6703 -0.6202
 6174SOL     OW29980   0.051   0.545  17.547  0.4379  0.1930  0.4444
 6174SOL    HW129981   4.709   0.505  17.609  1.3178 -3.5141 -1.1216
 6174SOL    HW229982   0.057   0.634  17.582  2.4704 -0.9040  2.8636
 6175SOL     OW29983   1.195   0.542  17.020 -0.2612  0.9719 -0.3716
 6175SOL    HW129984   1.209   0.625  17.064  1.7559  0.6540 -0.3844
 6175SOL    HW229985   1.104   0.536  16.991  0.2788 -2.9168 -1.3753
 6176SOL     OW29986   2.089   3.859   4.913  0.4123 -0.8050 -0.0153
 6176SOL    HW129987   2.130   3.943   4.934  0.2857 -0.9981  1.0159
 6176SOL    HW229988   2.036   3.848   4.992  0.6004 -1.9425 -0.0422
 6177SOL     OW29989   2.308   1.996   5.410  0.5235  0.0140 -0.2126
 6177SOL    HW129990   2.249   2.067   5.386  0.8640  0.3301 -0.1119
 6177SOL    HW229991   2.249   1.941   5.462  0.5861  0.6168  0.4953
 6178SOL     OW29992   2.751   3.291   3.070 -0.4624 -0.1926 -0.1266
 6178SOL    HW129993   2.822   3.355   3.070 -0.3211 -0.3482 -1.4674
 6178SOL    HW229994   2.803   3.217   3.036 -1.6132 -0.9618 -0.2265
 6179SOL     OW29995   0.978   0.444  13.759 -0.0587 -0.2048 -0.2519
 6179SOL    HW129996   1.013   0.505  13.824 -1.5747 -2.8060  2.9573
 6179SOL    HW229997   0.897   0.404  13.791 -0.7799  1.3988 -0.0452
 6180SOL     OW29998   3.628   2.264   8.340 -0.5405 -0.0419 -0.1895
 6180SOL    HW129999   3.668   2.187   8.299  0.8320 -0.9513  2.8225
 6180SOL    HW230000   3.533   2.262   8.346 -0.5809  0.4714 -0.5485
 6181SOL     OW30001   0.947   3.768   9.371 -0.1249  0.3289  0.0144
 6181SOL    HW130002   1.038   3.737   9.373 -0.0823  0.5695  2.4021
 6181SOL    HW230003   0.934   3.779   9.277  2.6783  0.6732 -0.3227
 6182SOL     OW30004   4.355   2.356   3.617  0.3356  0.1985 -0.2764
 6182SOL    HW130005   4.300   2.421   3.574 -0.4172 -0.5398 -0.4151
 6182SOL    HW230006   4.335   2.376   3.709 -2.6654 -2.7088 -0.2966
 6183SOL     OW30007   0.747   2.116   8.460 -0.1246  0.1075 -0.7221
 6183SOL    HW130008   0.818   2.065   8.498  0.0276  0.9476  0.1017
 6183SOL    HW230009   0.682   2.128   8.529  1.9307  1.8367  0.8862
 6184SOL     OW30010   0.145   0.172   4.119 -0.1998 -0.4750  0.4055
 6184SOL    HW130011   0.106   0.192   4.034 -0.0898 -2.7737 -0.1630
 6184SOL    HW230012   0.162   0.263   4.146  0.6902 -0.3076 -0.7562
 6185SOL     OW30013   2.244   3.390   5.670 -0.1125 -0.0273  0.2210
 6185SOL    HW130014   2.150   3.408   5.680  0.3144  2.0786  0.5654
 6185SOL    HW230015   2.281   3.442   5.741 -3.1800 -0.3184  2.0271
 6186SOL     OW30016   2.632   2.492   8.822 -0.3561 -0.4749 -0.2895
 6186SOL    HW130017   2.656   2.547   8.896 -3.0885 -0.4822  0.5930
 6186SOL    HW230018   2.618   2.409   8.867  0.3029  0.8962  2.4514
 6187SOL     OW30019   0.744   1.745  14.696  0.4719  0.3455  0.3444
 6187SOL    HW130020   0.782   1.657  14.696  3.1957  1.5404  1.2650
 6187SOL    HW230021   0.824   1.796  14.686  0.3874  0.7816  1.8761
 6188SOL     OW30022   4.044   4.030   3.048 -0.4085  0.5333  0.6093
 6188SOL    HW130023   4.098   4.048   3.124  3.7738 -1.1115 -1.9868
 6188SOL    HW230024   3.959   4.009   3.088 -0.9638 -0.2413 -0.9541
 6189SOL     OW30025   3.819   3.095  14.511 -0.5971 -0.3085  0.1074
 6189SOL    HW130026   3.846   3.070  14.599 -1.6216  2.4114  1.1751
 6189SOL    HW230027   3.782   3.008  14.493  0.0374 -1.0292  2.2718
 6190SOL     OW30028   1.245   0.562  14.687 -0.1552  0.5875 -0.4753
 6190SOL    HW130029   1.328   0.523  14.713 -0.0619 -0.9298 -3.0919
 6190SOL    HW230030   1.284   0.635  14.638  0.6418  1.2808  1.1909
 6191SOL     OW30031   2.380   1.040   5.807  0.1231 -0.2991  0.4329
 6191SOL    HW130032   2.464   1.000   5.830 -0.5441 -1.3502  1.0942
 6191SOL    HW230033   2.401   1.124   5.847 -1.2980  0.2210  0.0721
 6192SOL     OW30034   1.128   4.034   6.266 -0.1826  0.3450  0.4988
 6192SOL    HW130035   1.199   4.074   6.215  0.9219 -1.8868  0.3234
 6192SOL    HW230036   1.156   3.949   6.298  0.6678  0.7253  0.7760
 6193SOL     OW30037   3.372   3.036   5.731 -0.1482 -0.0853  0.1939
 6193SOL    HW130038   3.436   2.984   5.683 -0.2290  0.8922 -0.9630
 6193SOL    HW230039   3.417   3.121   5.730 -0.4160  0.0507 -0.4472
 6194SOL     OW30040   3.332   3.966   3.835  0.1691 -0.2207  0.4314
 6194SOL    HW130041   3.249   4.008   3.814  0.3526  0.5322  1.2178
 6194SOL    HW230042   3.329   3.886   3.782  0.3609  0.0915 -0.0521
 6195SOL     OW30043   2.188   0.864   7.837 -0.0754 -0.1698 -0.2168
 6195SOL    HW130044   2.099   0.829   7.847  0.0947 -0.5153  0.0682
 6195SOL    HW230045   2.225   0.799   7.776  0.2798 -1.2919  1.1943
 6196SOL     OW30046   1.793   2.706   8.627 -0.4261  0.8530  0.0087
 6196SOL    HW130047   1.883   2.711   8.658 -0.3885 -1.2257  0.2259
 6196SOL    HW230048   1.743   2.760   8.689  0.5549 -2.0799  3.3044
 6197SOL     OW30049   3.714   3.238   4.218  0.8573 -0.3650  0.3085
 6197SOL    HW130050   3.619   3.226   4.222  0.7831  0.5776  1.3136
 6197SOL    HW230051   3.738   3.218   4.308  1.2168  1.7931  0.6886
 6198SOL     OW30052   2.079   2.311  14.318 -0.0776  0.6666 -0.1302
 6198SOL    HW130053   2.070   2.320  14.223 -1.2717  1.9206  0.0972
 6198SOL    HW230054   2.062   2.397  14.357 -0.0610  0.6552 -0.0979
 6199SOL     OW30055   3.793   0.861  14.471 -0.3155 -0.8361 -0.0170
 6199SOL    HW130056   3.725   0.878  14.537 -0.1327 -2.1554  0.5135
 6199SOL    HW230057   3.748   0.905  14.399  0.6711 -0.1352 -0.2071
 6200SOL     OW30058   2.475   0.659   3.663 -0.3488  0.5234  0.1957
 6200SOL    HW130059   2.554   0.710   3.650 -0.7212  0.7078 -1.2846
 6200SOL    HW230060   2.480   0.622   3.751 -0.7580  0.4830  0.2021
 6201SOL     OW30061   0.016   0.907   8.964 -0.4686 -0.1019 -0.0265
 6201SOL    HW130062   4.673   0.950   9.023 -0.4908 -0.2484  0.0581
 6201SOL    HW230063   4.714   0.947   8.880  1.3587 -0.7512 -0.7953
 6202SOL     OW30064   3.977   0.535   8.172  0.0127 -0.1696 -0.1768
 6202SOL    HW130065   3.895   0.488   8.188 -0.1587  0.6039  1.2214
 6202SOL    HW230066   3.979   0.562   8.080  2.2085 -1.0710 -0.3983
 6203SOL     OW30067   3.648   0.038   2.433  1.0023  0.0851  0.7046
 6203SOL    HW130068   3.726   0.056   2.486  0.3352  0.6408  1.4983
 6203SOL    HW230069   3.705   0.008   2.361  0.1366  0.3596 -0.0905
 6204SOL     OW30070   4.313   3.066   6.763  0.3862 -0.2521 -0.4596
 6204SOL    HW130071   4.393   3.087   6.811 -0.0640  1.9875 -0.7280
 6204SOL    HW230072   4.245   3.110   6.813 -1.3073 -0.5716 -2.4918
 6205SOL     OW30073   0.605   2.486   9.898 -0.3936  0.8190 -0.0178
 6205SOL    HW130074   0.515   2.462   9.875 -0.0167 -0.1470 -0.5022
 6205SOL    HW230075   0.642   2.404   9.931 -1.2092  0.0608 -0.9804
 6206SOL     OW30076   2.611   1.331   5.229 -0.1391 -0.3546 -0.0423
 6206SOL    HW130077   2.628   1.374   5.145  0.9741 -0.7022  0.0044
 6206SOL    HW230078   2.581   1.407   5.279  0.4498 -1.4333  1.9116
 6207SOL     OW30079   0.797   3.888   8.127  0.2238  0.0808  0.6324
 6207SOL    HW130080   0.800   3.793   8.117  1.4653  0.2497 -0.4861
 6207SOL    HW230081   0.713   3.911   8.087  1.2034  1.7361 -0.4699
 6208SOL     OW30082   3.442   3.903   8.665  0.2654 -0.0714  0.1346
 6208SOL    HW130083   3.521   3.953   8.685  0.4488  0.4306 -1.8109
 6208SOL    HW230084   3.476   3.816   8.684 -0.6283 -0.4347  0.0471
 6209SOL     OW30085   0.162   3.115   2.962  0.5360  0.1896 -0.3525
 6209SOL    HW130086   0.075   3.086   2.988  1.3250  0.1389  2.1900
 6209SOL    HW230087   0.197   3.160   3.039 -0.7565  0.1068  0.2796
 6210SOL     OW30088   0.587   1.627   9.086 -0.0518  0.0595 -0.0567
 6210SOL    HW130089   0.629   1.691   9.144  0.4198 -1.3520  1.1734
 6210SOL    HW230090   0.660   1.573   9.056  1.1962  0.7963  1.5937
 6211SOL     OW30091   3.407   3.303  14.563 -0.0487 -0.4848  0.2635
 6211SOL    HW130092   3.493   3.274  14.532 -0.2465 -1.5313  0.6784
 6211SOL    HW230093   3.402   3.271  14.653  0.8207 -0.1497  0.4317
 6212SOL     OW30094   4.413   3.249   0.949 -0.4681 -0.3125  0.2169
 6212SOL    HW130095   4.362   3.273   0.872  0.8747  0.5737 -0.3922
 6212SOL    HW230096   4.347   3.250   1.019 -1.0025  0.3585 -0.3048
 6213SOL     OW30097   1.829   3.902   2.998 -0.6158  0.2982  0.3085
 6213SOL    HW130098   1.920   3.873   3.000 -0.5981  0.3335 -0.1546
 6213SOL    HW230099   1.839   3.994   2.974 -0.4182  0.4258  0.8820
 6214SOL     OW30100   2.823   4.657   6.978 -0.6282 -0.0560 -0.5708
 6214SOL    HW130101   2.872   4.602   6.917 -1.7620 -0.2618 -1.2974
 6214SOL    HW230102   2.875   4.648   7.058  1.5874  0.7624 -1.9228
 6215SOL     OW30103   4.447   4.168   3.063 -0.5553 -0.3266 -0.4879
 6215SOL    HW130104   4.382   4.134   3.002 -2.2555  0.3561  0.9535
 6215SOL    HW230105   4.413   4.255   3.083 -0.9360 -0.3400 -1.0756
 6216SOL     OW30106   0.714   1.566   3.356  0.2790  0.2673 -0.0332
 6216SOL    HW130107   0.793   1.511   3.362 -0.9329 -1.6075 -1.1137
 6216SOL    HW230108   0.713   1.581   3.262  1.1965  1.0462  0.0854
 6217SOL     OW30109   4.206   0.928   4.856 -0.5525  0.3890  0.0392
 6217SOL    HW130110   4.126   0.969   4.824 -0.9708 -0.3662  0.1197
 6217SOL    HW230111   4.260   1.006   4.871  0.0849 -0.4127  1.8669
 6218SOL     OW30112   3.455   3.931   0.211 -0.4370 -0.6637  0.0515
 6218SOL    HW130113   3.393   3.952   0.280  1.3039 -3.2858  2.4305
 6218SOL    HW230114   3.533   3.951   0.262  0.3227  1.2032 -1.8225
 6219SOL     OW30115   1.926   4.332   2.676  0.3109  0.5902  0.2117
 6219SOL    HW130116   1.891   4.254   2.719 -0.9804  0.7804 -0.4812
 6219SOL    HW230117   1.891   4.304   2.591  0.0120 -0.1185  0.5683
 6220SOL     OW30118   2.947   3.611   3.360 -0.2370 -0.1435 -0.3325
 6220SOL    HW130119   2.887   3.654   3.420  2.6277 -0.1553  2.5331
 6220SOL    HW230120   2.886   3.579   3.294 -3.2249  1.7002  1.5625
 6221SOL     OW30121   0.242   1.626   2.188  0.2800  0.1180  0.2580
 6221SOL    HW130122   0.304   1.659   2.252 -2.5580 -1.7262  3.9949
 6221SOL    HW230123   0.251   1.689   2.116 -1.8259  0.2839  0.1242
 6222SOL     OW30124   0.245   0.399  13.821 -0.1869  0.3932 -0.1586
 6222SOL    HW130125   0.208   0.322  13.777  0.2965  0.6259 -0.9810
 6222SOL    HW230126   0.169   0.456  13.823 -1.0059 -0.6482 -1.5556
 6223SOL     OW30127   2.443   3.582   5.344  0.1794  0.0431  0.7477
 6223SOL    HW130128   2.471   3.622   5.262 -0.0599 -1.7591 -0.1915
 6223SOL    HW230129   2.358   3.547   5.317  0.4841 -0.8834  0.9864
 6224SOL     OW30130   4.120   0.401   3.383 -0.5939  0.0438  0.5427
 6224SOL    HW130131   4.075   0.430   3.463 -0.6123  0.9858  0.1996
 6224SOL    HW230132   4.139   0.483   3.338  1.1658 -0.9896 -0.5793
 6225SOL     OW30133   3.777   3.112   8.488 -0.2251 -0.1384  0.4135
 6225SOL    HW130134   3.846   3.116   8.555  0.2548 -0.6673 -0.0484
 6225SOL    HW230135   3.718   3.051   8.532  0.6726 -0.5723  1.0186
 6226SOL     OW30136   0.174   3.762   7.462  0.1064  0.0158 -0.5808
 6226SOL    HW130137   0.227   3.784   7.539 -0.2307 -0.4028 -0.2339
 6226SOL    HW230138   0.240   3.728   7.403  2.3310  0.2013  1.7881
 6227SOL     OW30139   1.021   1.967   4.831 -0.1230  0.3107  0.7117
 6227SOL    HW130140   0.968   2.039   4.864  0.1841  0.9318 -0.1614
 6227SOL    HW230141   0.955   1.901   4.809  0.8562  0.2527 -1.9786
 6228SOL     OW30142   3.853   4.628   5.567  0.2551  0.3553  0.0186
 6228SOL    HW130143   3.891   4.602   5.483  1.1000 -0.9156  0.7832
 6228SOL    HW230144   3.797   4.699   5.536  2.0234  1.2209 -1.2130
 6229SOL     OW30145   0.421   1.369   1.235 -0.3908  0.3122 -0.3386
 6229SOL    HW130146   0.348   1.401   1.181 -0.9624  0.8750  0.7731
 6229SOL    HW230147   0.472   1.448   1.253 -1.1440  0.7104  0.0453
 6230SOL     OW30148   1.746   0.408  14.779  0.3524  0.1121  0.4100
 6230SOL    HW130149   1.786   0.429  14.863 -0.5720  0.2252  0.8195
 6230SOL    HW230150   1.822   0.394  14.721  1.8051  1.8705  1.8877
 6231SOL     OW30151   1.899   1.119   6.868 -0.0934 -0.1268  0.0167
 6231SOL    HW130152   1.804   1.119   6.883 -0.3455 -0.0438 -1.5633
 6231SOL    HW230153   1.930   1.131   6.958  1.5210 -2.1608 -0.2788
 6232SOL     OW30154   4.689   0.265   2.285 -0.2820 -0.1838 -0.5599
 6232SOL    HW130155   4.707   0.209   2.209 -0.1101  0.9345 -1.3343
 6232SOL    HW230156   4.717   0.354   2.264 -3.0135  0.8130  0.0846
 6233SOL     OW30157   1.149   4.272   7.873 -0.3497 -0.1909  0.4633
 6233SOL    HW130158   1.128   4.179   7.882 -1.1795  0.2404  2.9615
 6233SOL    HW230159   1.150   4.290   7.779  2.2584 -0.4846  0.4448
 6234SOL     OW30160   1.349   3.105   7.099 -0.6971 -0.2169  0.5985
 6234SOL    HW130161   1.321   3.042   7.165 -0.5047 -2.0963 -1.0906
 6234SOL    HW230162   1.383   3.050   7.027  0.6727  0.1628  0.9531
 6235SOL     OW30163   4.718   1.157   8.190  0.3407  0.1480  0.3842
 6235SOL    HW130164   0.060   1.088   8.164  2.0924  1.5547  0.8492
 6235SOL    HW230165   4.659   1.151   8.115  0.1406 -0.6705  0.6028
 6236SOL     OW30166   2.956   0.461   9.080 -0.0030 -0.2138 -0.2378
 6236SOL    HW130167   2.861   0.453   9.075  0.2588 -3.8322  1.0762
 6236SOL    HW230168   2.984   0.370   9.090 -1.0843 -0.6787 -1.4400
 6237SOL     OW30169   4.223   3.839   3.935 -0.1266 -0.1228  0.3147
 6237SOL    HW130170   4.187   3.920   3.901  0.9141  0.3241  0.2779
 6237SOL    HW230171   4.144   3.789   3.955 -1.3850  1.8037  0.1194
 6238SOL     OW30172   0.885   1.748   2.164 -0.3920  0.0087  0.3789
 6238SOL    HW130173   0.961   1.701   2.130  0.1828  1.1314  0.1073
 6238SOL    HW230174   0.889   1.828   2.112  0.9363  0.7421  1.6065
 6239SOL     OW30175   3.941   3.720   7.765  0.1028  0.4799 -0.0068
 6239SOL    HW130176   3.996   3.686   7.694  1.4342  2.2886  0.1461
 6239SOL    HW230177   3.861   3.673   7.740 -0.4728  1.7336 -0.5272
 6240SOL     OW30178   2.500   2.028   7.549  0.2999  0.0817 -0.3443
 6240SOL    HW130179   2.424   2.077   7.580  0.9878  0.0038  1.5038
 6240SOL    HW230180   2.540   2.008   7.634 -1.7779 -1.9410  0.1428
 6241SOL     OW30181   4.699   4.671   4.224 -0.3690 -0.6295  0.1260
 6241SOL    HW130182   0.038   0.021   4.194 -1.0590  1.1939  2.9082
 6241SOL    HW230183   4.664   4.642   4.140  3.4108 -0.0051 -1.6762
 6242SOL     OW30184   3.186   3.651   3.478  0.4462  0.9486  0.3496
 6242SOL    HW130185   3.192   3.744   3.456  2.5984  0.0085 -2.9504
 6242SOL    HW230186   3.128   3.627   3.405  0.5262  0.2634  0.5099
 6243SOL     OW30187   3.842   2.471   5.291  0.5937 -0.0369 -0.1156
 6243SOL    HW130188   3.836   2.546   5.351 -1.4659 -1.3291  1.2673
 6243SOL    HW230189   3.753   2.455   5.260  0.9951 -1.7608 -0.3891
 6244SOL     OW30190   0.611   2.799   5.475 -0.0499 -0.1429 -0.2386
 6244SOL    HW130191   0.679   2.738   5.504 -2.1107 -2.0053  0.6467
 6244SOL    HW230192   0.613   2.787   5.380 -0.6997 -0.3916 -0.2153
 6245SOL     OW30193   0.271   1.235   5.713  0.3817  0.7040  0.0069
 6245SOL    HW130194   0.340   1.214   5.649  0.0962  1.0152 -0.4032
 6245SOL    HW230195   0.330   1.226   5.787 -0.4121  1.4040  0.7187
 6246SOL     OW30196   2.801   1.657   9.063 -0.5970 -0.0831  0.0755
 6246SOL    HW130197   2.747   1.578   9.069  0.7064 -1.1389 -2.1272
 6246SOL    HW230198   2.772   1.703   9.142 -0.4503  2.6542 -1.4772
 6247SOL     OW30199   1.399   0.202   3.284  0.4979  0.2907  0.0111
 6247SOL    HW130200   1.405   0.241   3.371  0.1108  3.0278 -1.1797
 6247SOL    HW230201   1.397   0.109   3.308  0.0742  0.0475 -0.9702
 6248SOL     OW30202   3.752   1.037   7.223 -0.7568 -0.3571 -0.0468
 6248SOL    HW130203   3.790   1.115   7.264  0.3183 -1.1239  0.4130
 6248SOL    HW230204   3.830   0.988   7.196 -0.0987  0.5102  0.2878
 6249SOL     OW30205   1.812   4.296  11.304  0.4979 -0.3241  0.5056
 6249SOL    HW130206   1.786   4.210  11.335 -2.4507  0.0862 -0.7623
 6249SOL    HW230207   1.722   4.331  11.298 -1.0094 -4.1608  0.9494
 6250SOL     OW30208   3.269   3.576   6.701  0.5384  0.0666 -0.4531
 6250SOL    HW130209   3.343   3.517   6.682  0.8318 -0.5690  2.6917
 6250SOL    HW230210   3.274   3.585   6.796  1.1131 -0.7217 -0.4040
 6251SOL     OW30211   1.736   3.369   5.706  0.0908 -0.2620  0.1174
 6251SOL    HW130212   1.726   3.306   5.778  2.1297 -0.2291  0.4296
 6251SOL    HW230213   1.659   3.424   5.720 -0.4124 -0.5270 -1.7580
 6252SOL     OW30214   3.551   1.020  12.568  0.6504  0.5714 -0.0976
 6252SOL    HW130215   3.569   1.105  12.608 -4.0022  0.3430  2.5365
 6252SOL    HW230216   3.528   1.046  12.479 -1.4122 -1.5477 -0.1727
 6253SOL     OW30217   4.447   2.515   7.876 -0.0845  0.2316  0.3157
 6253SOL    HW130218   4.497   2.487   7.800 -0.2345 -1.8320  0.9868
 6253SOL    HW230219   4.520   2.516   7.937 -0.6064 -2.8693  0.9998
 6254SOL     OW30220   4.193   3.968   1.312  0.3533  0.4471 -0.1527
 6254SOL    HW130221   4.097   3.964   1.309  0.3590 -0.0248  0.3805
 6254SOL    HW230222   4.210   3.875   1.317 -0.0751  0.1278 -4.0743
 6255SOL     OW30223   3.845   3.549  14.589 -0.4992 -0.0205  0.0041
 6255SOL    HW130224   3.900   3.604  14.534 -1.1620  1.5428  0.8904
 6255SOL    HW230225   3.915   3.499  14.630 -2.0583 -0.8183  1.6635
 6256SOL     OW30226   2.205   2.024   0.098 -1.0107  0.1981 -0.1177
 6256SOL    HW130227   2.234   2.008   0.008  0.1425 -0.1495  0.3100
 6256SOL    HW230228   2.291   2.022   0.140 -0.7554 -1.4135 -0.7073
 6257SOL     OW30229   2.952   1.928   2.489 -0.3966 -1.0016  0.1548
 6257SOL    HW130230   2.951   1.909   2.395  1.4877  0.4196 -0.1585
 6257SOL    HW230231   2.858   1.939   2.503 -0.2201 -0.1287  0.6499
 6258SOL     OW30232   3.148   2.875   8.194  0.2017 -0.4059 -0.7567
 6258SOL    HW130233   3.081   2.867   8.262 -2.7095  3.1714 -3.2462
 6258SOL    HW230234   3.111   2.836   8.114  0.4856 -0.5707 -0.8062
 6259SOL     OW30235   0.804   0.455  11.387 -0.3590  0.5026  0.2741
 6259SOL    HW130236   0.837   0.436  11.299  0.1141 -1.8561  0.9657
 6259SOL    HW230237   0.876   0.511  11.418  0.1464 -1.2024  2.1491
 6260SOL     OW30238   0.089   2.550   1.912  0.1203  0.3701  0.1020
 6260SOL    HW130239   0.094   2.523   1.820 -1.9279  0.3655 -0.0256
 6260SOL    HW230240   0.183   2.561   1.922  0.0084  1.8084 -0.3700
 6261SOL     OW30241   0.587   0.708   5.108 -0.4653  0.1216 -0.0283
 6261SOL    HW130242   0.513   0.648   5.098 -1.2418  1.3333 -1.5697
 6261SOL    HW230243   0.554   0.794   5.134 -0.2439  0.6361 -1.4338
 6262SOL     OW30244   2.007   2.120  14.592  0.3013 -0.3914  0.2612
 6262SOL    HW130245   2.092   2.153  14.562  0.6613 -2.5037 -0.9896
 6262SOL    HW230246   1.986   2.182  14.662 -0.4425  0.1367 -0.4337
 6263SOL     OW30247   0.411   1.719   4.878  0.0205  0.2522  0.8564
 6263SOL    HW130248   0.435   1.764   4.797 -0.4270  2.2982  1.8683
 6263SOL    HW230249   0.469   1.752   4.946 -1.7457  0.6669  2.1803
 6264SOL     OW30250   0.377   1.902   5.870 -0.3640 -0.9690  0.0489
 6264SOL    HW130251   0.397   1.993   5.849 -0.7220 -0.6892  0.8940
 6264SOL    HW230252   0.458   1.876   5.914 -0.9381 -2.1190  0.4295
 6265SOL     OW30253   2.042   3.699   5.650  0.4808 -0.2490  0.1281
 6265SOL    HW130254   2.035   3.625   5.589  2.8347 -1.2628  1.1121
 6265SOL    HW230255   1.954   3.737   5.644 -0.8569 -3.6289 -1.4309
 6266SOL     OW30256   2.251   0.776   6.324 -0.1462 -0.3984 -0.4618
 6266SOL    HW130257   2.228   0.683   6.322  2.1781 -0.9916  0.6169
 6266SOL    HW230258   2.179   0.797   6.383 -2.0201 -1.4056 -2.3736
 6267SOL     OW30259   1.013   3.672  13.947 -0.2000  0.2695  0.0414
 6267SOL    HW130260   0.969   3.659  13.863  2.8640  0.5643 -1.6098
 6267SOL    HW230261   0.997   3.765  13.964  0.2329  0.8347 -2.6756
 6268SOL     OW30262   2.970   1.258  14.181  0.2571  0.6768 -0.2510
 6268SOL    HW130263   2.907   1.187  14.189 -0.2648  1.3648  1.8103
 6268SOL    HW230264   2.913   1.336  14.180 -0.0491  0.4601  0.3777
 6269SOL     OW30265   1.114   2.812   8.301 -1.0586 -0.6174  0.5828
 6269SOL    HW130266   1.188   2.785   8.355  0.6662 -0.3161 -1.6685
 6269SOL    HW230267   1.129   2.903   8.275 -1.6406 -1.8755 -4.0329
 6270SOL     OW30268   4.717   0.539   7.741  0.1426 -0.4251 -0.4743
 6270SOL    HW130269   0.030   0.450   7.751 -0.0964 -0.1287  2.7958
 6270SOL    HW230270   0.060   0.593   7.789  1.1798 -1.4434 -0.6859
 6271SOL     OW30271   2.795   0.665   1.403  0.4403  0.1855 -0.1006
 6271SOL    HW130272   2.812   0.586   1.455 -0.1881 -0.1026 -0.3376
 6271SOL    HW230273   2.874   0.719   1.410 -0.5591  1.5569  0.7023
 6272SOL     OW30274   2.521   3.336   1.390 -0.2070 -0.0382  0.1453
 6272SOL    HW130275   2.480   3.261   1.432 -0.3647  0.7573  1.4071
 6272SOL    HW230276   2.480   3.396   1.453  0.6938  0.2628  0.4408
 6273SOL     OW30277   0.233   4.000   8.034  0.1709 -0.1401 -0.5579
 6273SOL    HW130278   0.235   3.907   8.010 -0.4513 -0.5586  1.0242
 6273SOL    HW230279   0.251   4.001   8.128  0.9851 -1.7021 -0.6937
 6274SOL     OW30280   3.626   2.958   9.767 -0.0549 -0.0537  0.2267
 6274SOL    HW130281   3.679   2.903   9.824 -0.2886 -2.0254 -1.4624
 6274SOL    HW230282   3.688   2.973   9.696  0.4817 -1.3225  0.4412
 6275SOL     OW30283   3.729   4.000  10.924  0.2970 -0.1439  0.3860
 6275SOL    HW130284   3.772   3.946  10.858  0.8101  0.4096  0.2633
 6275SOL    HW230285   3.652   4.032  10.877 -1.1977 -2.8945  0.9825
 6276SOL     OW30286   4.053   0.930   7.181 -0.6582 -0.1182 -0.0502
 6276SOL    HW130287   4.049   0.835   7.197 -1.5880  0.2500  1.9116
 6276SOL    HW230288   4.138   0.954   7.216 -1.0769 -0.7021  1.3987
 6277SOL     OW30289   2.899   1.647   2.578  0.0025  0.1705  0.1053
 6277SOL    HW130290   2.913   1.737   2.548 -0.0551  0.3576  0.6349
 6277SOL    HW230291   2.806   1.627   2.579  0.0356 -0.0354 -0.9395
 6278SOL     OW30292   1.343   1.888  10.763 -0.0459  0.1416 -0.2021
 6278SOL    HW130293   1.431   1.886  10.727 -0.4208 -0.5112 -1.0817
 6278SOL    HW230294   1.354   1.837  10.844  0.0583  0.6966  0.1357
 6279SOL     OW30295   4.442   0.077   6.019  0.1309 -0.1334  0.1553
 6279SOL    HW130296   4.426   0.066   6.112 -0.0870  1.1387  0.2715
 6279SOL    HW230297   4.355   0.115   6.001  0.3563 -0.6857 -2.1912
 6280SOL     OW30298   3.866   1.916  15.494 -0.2594 -0.4157  0.5914
 6280SOL    HW130299   3.897   1.994  15.449  0.4102 -1.6109 -1.0228
 6280SOL    HW230300   3.904   1.924  15.581  0.3415 -0.9183  0.3774
 6281SOL     OW30301   3.736   2.680   8.217 -0.1720 -0.4630  0.1357
 6281SOL    HW130302   3.769   2.758   8.261  1.0792 -0.8254 -0.1777
 6281SOL    HW230303   3.789   2.611   8.258  0.7009 -0.4379 -0.9580
 6282SOL     OW30304   3.747   2.598  10.357 -0.3933 -0.1561 -0.0656
 6282SOL    HW130305   3.829   2.563  10.392 -1.1044  0.2476  1.9965
 6282SOL    HW230306   3.717   2.650  10.432  1.3207  0.3914  0.2372
 6283SOL     OW30307   3.322   2.992   7.742  0.7252 -0.4863  0.8527
 6283SOL    HW130308   3.331   3.039   7.825 -0.5704  1.9131 -0.3626
 6283SOL    HW230309   3.306   2.900   7.762 -1.8589 -0.3929 -0.7571
 6284SOL     OW30310   2.076   2.386   3.343  0.5451 -0.1122  0.1289
 6284SOL    HW130311   1.990   2.349   3.362  0.5607 -0.0770  0.2671
 6284SOL    HW230312   2.097   2.342   3.261  0.2456  2.2038 -1.1916
 6285SOL     OW30313   0.380   3.114  10.889 -0.1940 -0.3128  0.6614
 6285SOL    HW130314   0.419   3.036  10.849 -0.6671 -0.6354  0.8206
 6285SOL    HW230315   0.415   3.127  10.977 -0.4530 -0.9006  0.8552
 6286SOL     OW30316   2.680   0.168   7.018 -0.0578  0.1680 -0.1524
 6286SOL    HW130317   2.599   0.118   7.008  0.4414 -0.3831 -1.4584
 6286SOL    HW230318   2.740   0.105   6.977 -0.6032 -1.2098  1.1681
 6287SOL     OW30319   1.173   1.366   6.701  0.0453  0.6572  0.1393
 6287SOL    HW130320   1.104   1.299   6.703  0.4803  0.2190  0.6680
 6287SOL    HW230321   1.127   1.432   6.650  0.4306 -0.4653 -1.6464
 6288SOL     OW30322   3.026   1.337   6.253 -0.1244 -0.4767 -0.0274
 6288SOL    HW130323   2.977   1.415   6.228 -2.8726 -2.3569 -0.4925
 6288SOL    HW230324   3.032   1.299   6.166  0.6504 -1.5564  0.4947
 6289SOL     OW30325   0.456   3.145   6.459 -0.3517 -0.1533  0.0942
 6289SOL    HW130326   0.522   3.103   6.404 -2.8014  0.8707 -3.6474
 6289SOL    HW230327   0.376   3.125   6.410 -0.8751 -1.3234  1.4309
 6290SOL     OW30328   0.213   2.566   6.891 -0.2187  0.1169  0.3025
 6290SOL    HW130329   0.237   2.611   6.973  3.3968 -1.4732  0.1289
 6290SOL    HW230330   0.117   2.562   6.895 -0.2100 -0.5140 -0.1176
 6291SOL     OW30331   0.652   0.471   6.807 -0.1159  0.1045  0.1331
 6291SOL    HW130332   0.594   0.451   6.734  1.0651  1.4795 -1.1870
 6291SOL    HW230333   0.705   0.544   6.773 -0.4734  0.4381  0.2846
 6292SOL     OW30334   0.912   4.523   5.440 -0.1913 -0.4224  0.0794
 6292SOL    HW130335   0.981   4.575   5.482  0.1550 -0.6499 -0.2072
 6292SOL    HW230336   0.836   4.568   5.476 -1.0713  0.7841 -3.2920
 6293SOL     OW30337   4.681   0.562   4.484  0.1225 -0.3188 -0.1066
 6293SOL    HW130338   4.703   0.650   4.516 -0.5266 -1.2793  3.0232
 6293SOL    HW230339   4.595   0.589   4.450 -0.8890 -1.8454  1.2725
 6294SOL     OW30340   4.172   1.072   1.127 -0.8282 -0.4804 -0.7668
 6294SOL    HW130341   4.092   1.113   1.096  1.1601  1.6128 -3.1357
 6294SOL    HW230342   4.150   1.047   1.217  0.5342  0.5629 -0.1476
 6295SOL     OW30343   1.791   4.001   7.416  0.1402  0.3660  0.1562
 6295SOL    HW130344   1.871   4.043   7.448  0.6700 -0.3372 -0.2471
 6295SOL    HW230345   1.788   3.930   7.480  1.2337 -0.1079 -0.3159
 6296SOL     OW30346   0.214   4.011  13.905 -0.2402 -0.1694  0.1547
 6296SOL    HW130347   0.229   3.940  13.968  0.9108  0.4241  0.5525
 6296SOL    HW230348   0.218   3.960  13.824 -1.1150  1.5617 -0.9729
 6297SOL     OW30349   3.634   4.096   3.541 -0.6620  0.0949  0.1263
 6297SOL    HW130350   3.729   4.109   3.536 -0.4514 -1.6712 -0.5692
 6297SOL    HW230351   3.602   4.126   3.456 -1.5137 -2.6321 -0.5392
 6298SOL     OW30352   3.113   0.728   9.486  0.1577  0.5384 -0.6063
 6298SOL    HW130353   3.043   0.762   9.429 -0.4427 -1.6950 -1.1757
 6298SOL    HW230354   3.149   0.656   9.435 -0.4452 -0.8825  0.9619
 6299SOL     OW30355   3.450   4.580  17.449  0.2953 -0.1532  0.7262
 6299SOL    HW130356   3.414   4.614  17.531 -1.0718 -1.0679  0.5210
 6299SOL    HW230357   3.420   4.644  17.386 -1.0469 -0.5151  0.9759
 6300SOL     OW30358   2.929   2.191  17.077  0.8828 -0.4765 -0.4252
 6300SOL    HW130359   2.975   2.228  17.002  1.8392 -1.6446 -0.4218
 6300SOL    HW230360   2.920   2.267  17.134  0.4339 -0.1314 -0.9623
 6301SOL     OW30361   3.601   3.105   5.436  0.0949 -0.1490 -0.1134
 6301SOL    HW130362   3.528   3.139   5.384 -0.5379  0.1480  0.9552
 6301SOL    HW230363   3.593   3.153   5.519  0.3089 -1.1180  0.4693
 6302SOL     OW30364   2.620   4.188   4.907 -0.3291 -0.5407  0.1809
 6302SOL    HW130365   2.544   4.202   4.964 -0.6327  0.3712 -0.4649
 6302SOL    HW230366   2.631   4.267   4.854  0.5689  0.1191  1.3522
 6303SOL     OW30367   4.266   3.269   4.842 -0.1689 -0.0340  0.1767
 6303SOL    HW130368   4.323   3.250   4.917  0.0256  1.9073  0.5259
 6303SOL    HW230369   4.338   3.291   4.784  0.1119  0.7030  0.8084
 6304SOL     OW30370   4.563   3.002   4.936  0.2236 -0.4336  0.2524
 6304SOL    HW130371   4.581   3.067   4.867 -1.6442  0.9762  1.1111
 6304SOL    HW230372   4.637   2.942   4.929  0.9708  0.2443  2.5979
 6305SOL     OW30373   3.931   1.892  14.220  0.0184 -0.2590  0.1998
 6305SOL    HW130374   4.016   1.934  14.216 -0.0491 -0.0990  0.4009
 6305SOL    HW230375   3.954   1.805  14.252  1.5084  0.5107  1.2108
 6306SOL     OW30376   4.364   2.516   4.099  0.1197 -0.2573  0.3162
 6306SOL    HW130377   4.419   2.592   4.120 -0.4575 -0.0508  1.0744
 6306SOL    HW230378   4.420   2.445   4.130 -1.3715 -2.3672 -1.8446
 6307SOL     OW30379   1.648   0.599   3.698  0.7533  0.4232 -0.6718
 6307SOL    HW130380   1.684   0.530   3.753 -0.7204  0.2415  0.0526
 6307SOL    HW230381   1.632   0.675   3.754 -0.6445 -0.0459 -0.4504
 6308SOL     OW30382   4.464   3.293   9.378  0.1338 -0.2503 -0.2953
 6308SOL    HW130383   4.454   3.222   9.315 -3.6347  1.0989 -1.2041
 6308SOL    HW230384   4.381   3.339   9.366 -0.2756 -0.4103  2.0989
 6309SOL     OW30385   0.840   3.707   6.130 -0.3492 -0.3028  0.1812
 6309SOL    HW130386   0.824   3.757   6.209  1.8871  1.0494 -0.2161
 6309SOL    HW230387   0.936   3.705   6.132 -0.2912  0.7632 -1.8607
 6310SOL     OW30388   3.468   3.516   3.498 -0.0876  0.1025  0.0271
 6310SOL    HW130389   3.453   3.568   3.577 -0.9644 -1.5854  0.9728
 6310SOL    HW230390   3.411   3.553   3.430 -0.6069 -0.0800  0.3663
 6311SOL     OW30391   3.323   1.175   4.591  0.2927  0.0669 -0.1151
 6311SOL    HW130392   3.274   1.135   4.520 -1.5939 -1.6636  2.1505
 6311SOL    HW230393   3.355   1.095   4.634  0.5826  0.0139 -0.4258
 6312SOL     OW30394   0.042   1.709   0.783 -0.1466  0.4082 -0.0901
 6312SOL    HW130395   0.006   1.792   0.812 -1.9938 -0.3204 -0.3162
 6312SOL    HW230396   0.129   1.733   0.816 -0.1659 -0.3534  0.5288
 6313SOL     OW30397   2.005   1.491  13.516  0.2415  0.2235 -0.1735
 6313SOL    HW130398   1.984   1.505  13.423  0.9162  0.4885 -0.2885
 6313SOL    HW230399   1.924   1.493  13.566  0.0328  2.3803 -0.6285
 6314SOL     OW30400   0.153   0.281   7.180 -0.2989 -0.1926 -0.2697
 6314SOL    HW130401   0.134   0.205   7.235 -2.2948 -0.1664 -0.8890
 6314SOL    HW230402   0.231   0.318   7.222  1.2261 -0.5842 -2.7518
 6315SOL     OW30403   2.832   1.079   2.522  0.3032  0.2066 -0.0325
 6315SOL    HW130404   2.763   1.090   2.588 -0.9104  0.9089 -1.4154
 6315SOL    HW230405   2.875   0.995   2.540  0.5161  0.0220 -1.4607
 6316SOL     OW30406   2.431   4.431   2.665  0.1435  0.0751  0.1858
 6316SOL    HW130407   2.524   4.423   2.685  0.2880 -1.1015 -0.9413
 6316SOL    HW230408   2.413   4.361   2.602 -1.1850  0.0409  0.6037
 6317SOL     OW30409   2.636   4.615   4.459  0.7652 -0.0260  0.3621
 6317SOL    HW130410   2.721   4.577   4.437  1.1905  3.0186 -3.3099
 6317SOL    HW230411   2.669   4.700   4.490 -0.2000  0.0044  1.2989
 6318SOL     OW30412   0.131   0.926  15.074 -0.2956  0.4297 -0.1464
 6318SOL    HW130413   0.175   1.011  15.074  2.0210 -0.7824 -3.1439
 6318SOL    HW230414   0.075   0.925  14.996  0.9193 -0.8821 -1.0110
 6319SOL     OW30415   2.414   2.185   4.163  0.0532  0.0505 -0.0613
 6319SOL    HW130416   2.458   2.270   4.170  3.2891 -1.7100  0.9329
 6319SOL    HW230417   2.375   2.173   4.250 -0.0443  1.4614  0.0816
 6320SOL     OW30418   4.693   2.388   6.667 -0.3386  0.3052  0.2012
 6320SOL    HW130419   0.058   2.387   6.623 -1.0406  2.0147 -1.2017
 6320SOL    HW230420   4.688   2.302   6.709  0.3252 -0.0898 -0.5268
 6321SOL     OW30421   3.740   0.726  10.969  0.4164  0.0049 -0.6355
 6321SOL    HW130422   3.778   0.657  11.023  0.2218  2.0726  2.1612
 6321SOL    HW230423   3.669   0.740  11.032  0.3440  1.4119 -1.0233
 6322SOL     OW30424   3.915   2.213  13.235  0.2641 -0.1119 -0.0943
 6322SOL    HW130425   4.004   2.209  13.200  0.0016 -0.9656 -0.6700
 6322SOL    HW230426   3.869   2.192  13.153  0.0662 -2.7088  0.6698
 6323SOL     OW30427   3.650   0.294   1.101 -0.6290 -0.6223 -0.1521
 6323SOL    HW130428   3.663   0.298   1.196  2.6938  1.1980 -0.6689
 6323SOL    HW230429   3.629   0.200   1.097  1.6654 -1.1583  0.5270
 6324SOL     OW30430   3.864   2.869   8.353  0.1579 -0.1410 -0.0609
 6324SOL    HW130431   3.951   2.883   8.391  0.7946 -0.7438 -1.3182
 6324SOL    HW230432   3.826   2.956   8.367  1.2408  0.0329  1.7848
 6325SOL     OW30433   0.428   0.984  10.856  0.2488 -0.3791  0.1222
 6325SOL    HW130434   0.414   1.078  10.846  1.6618  0.0465  2.0645
 6325SOL    HW230435   0.462   0.983  10.945 -0.1647 -0.2603  0.2811
 6326SOL     OW30436   3.583   4.456  14.105  0.0359  0.0955 -0.1781
 6326SOL    HW130437   3.490   4.434  14.103 -0.3989  1.5756  2.7956
 6326SOL    HW230438   3.585   4.550  14.122  0.6655  0.1667 -0.6214
 6327SOL     OW30439   1.948   3.650   7.119  0.3529  0.1826  0.0820
 6327SOL    HW130440   2.019   3.669   7.181  2.5823 -1.9570 -1.7970
 6327SOL    HW230441   1.870   3.642   7.174  1.0693  2.6944  1.4554
 6328SOL     OW30442   1.098   4.598   6.806  0.1228 -0.4427  0.2616
 6328SOL    HW130443   1.192   4.580   6.803  0.5445  1.4514  1.9353
 6328SOL    HW230444   1.070   4.515   6.844  0.2878 -0.3222  0.6446
 6329SOL     OW30445   0.069   0.767  14.349 -0.4925 -0.4303  0.2818
 6329SOL    HW130446   4.705   0.723  14.331 -0.3951 -0.2227 -0.6547
 6329SOL    HW230447   0.113   0.749  14.266  1.8382  1.8347  1.0540
 6330SOL     OW30448   4.599   3.618   8.540  0.2193 -0.5342  0.2091
 6330SOL    HW130449   4.644   3.534   8.531 -0.5194 -0.8101 -0.9808
 6330SOL    HW230450   4.513   3.583   8.560  0.5981 -1.4782  0.2117
 6331SOL     OW30451   3.544   2.899   7.292 -0.2582 -0.0962  0.1389
 6331SOL    HW130452   3.499   2.940   7.365  0.6026 -1.4180  1.4188
 6331SOL    HW230453   3.499   2.814   7.296 -2.4984  1.1358  0.6338
 6332SOL     OW30454   3.695   1.646   6.504  0.9333 -0.0499  0.0327
 6332SOL    HW130455   3.623   1.611   6.452  1.6201  0.3867 -1.2139
 6332SOL    HW230456   3.756   1.574   6.485 -0.4380 -0.4034 -3.0566
 6333SOL     OW30457   3.716   4.131   3.244  0.3242 -0.1431  0.5109
 6333SOL    HW130458   3.729   4.038   3.260 -1.7682 -0.4026  0.7051
 6333SOL    HW230459   3.779   4.161   3.309  3.7578 -2.8117 -1.6012
 6334SOL     OW30460   0.726   2.794   7.347  0.0307  0.0734  0.3840
 6334SOL    HW130461   0.699   2.708   7.317 -3.0553  1.3187 -0.3989
 6334SOL    HW230462   0.814   2.796   7.308  0.3464 -0.2353  1.0789
 6335SOL     OW30463   0.708   3.454   7.273 -0.0141 -0.3535 -0.4937
 6335SOL    HW130464   0.684   3.532   7.223  2.3382  1.2912  0.9316
 6335SOL    HW230465   0.803   3.456   7.261 -0.1384 -0.2831 -1.4944
 6336SOL     OW30466   1.196   4.123   6.612  0.6941  0.4862 -0.5791
 6336SOL    HW130467   1.272   4.106   6.557  2.8800  2.0882  1.9739
 6336SOL    HW230468   1.158   4.201   6.572  0.2074  0.2004 -0.6782
 6337SOL     OW30469   4.389   3.666   3.802  0.5034 -0.0747  0.1542
 6337SOL    HW130470   4.349   3.677   3.716  2.6814 -0.4240 -0.9233
 6337SOL    HW230471   4.324   3.717   3.851 -2.5528 -4.8594  1.0123
 6338SOL     OW30472   4.281   1.995   4.681 -0.3006 -0.1448  0.5180
 6338SOL    HW130473   4.316   2.036   4.602  1.2734  0.1507  1.3615
 6338SOL    HW230474   4.359   1.973   4.732  0.1880 -2.0283 -1.1027
 6339SOL     OW30475   1.342   1.805   2.366  0.1050  0.5263 -0.2795
 6339SOL    HW130476   1.279   1.743   2.401  1.1720  0.3115  1.2779
 6339SOL    HW230477   1.422   1.760   2.395 -2.1983 -0.8863  3.8265
 6340SOL     OW30478   3.401   2.896   1.917 -0.3343 -0.0630 -0.3479
 6340SOL    HW130479   3.395   2.991   1.907 -0.1814 -0.0689 -0.5049
 6340SOL    HW230480   3.484   2.890   1.870 -1.0379  0.6673 -1.6653
 6341SOL     OW30481   0.459   0.672  15.418  0.4948 -0.4013 -0.1813
 6341SOL    HW130482   0.503   0.745  15.462 -0.4078  0.2947 -0.4261
 6341SOL    HW230483   0.369   0.670  15.451  0.2809 -1.4011 -0.8524
 6342SOL     OW30484   1.416   4.037   6.426 -0.2959 -0.0165  0.1751
 6342SOL    HW130485   1.361   4.086   6.365  0.2784 -0.3264 -0.5891
 6342SOL    HW230486   1.498   4.086   6.428  0.0932 -0.7032  1.1360
 6343SOL     OW30487   2.984   4.493  14.247  0.4023  0.3199 -0.0751
 6343SOL    HW130488   3.001   4.419  14.189 -1.0661  1.0945 -1.5040
 6343SOL    HW230489   3.007   4.457  14.333 -0.0875 -0.2962 -0.2010
 6344SOL     OW30490   4.704   2.522   2.209  0.2816 -0.1787 -0.2031
 6344SOL    HW130491   4.691   2.459   2.279  0.0985 -0.0253 -0.0995
 6344SOL    HW230492   0.015   2.472   2.133 -1.2500 -0.8166 -0.4041
 6345SOL     OW30493   1.124   1.319   0.399 -0.0251  0.2852  0.7887
 6345SOL    HW130494   1.131   1.229   0.431  0.9378  0.3138  0.6634
 6345SOL    HW230495   1.147   1.368   0.478 -0.2239  1.4265  0.1398
 6346SOL     OW30496   1.096   3.756   7.805  0.3906 -0.2947  0.7943
 6346SOL    HW130497   1.072   3.738   7.714 -1.0797 -0.2290  1.1614
 6346SOL    HW230498   1.046   3.692   7.857 -0.0532 -0.5209  0.0973
 6347SOL     OW30499   2.404   2.153   0.542 -0.4265  0.1489  0.3747
 6347SOL    HW130500   2.369   2.065   0.525 -1.0738  0.3827  0.4978
 6347SOL    HW230501   2.494   2.126   0.561  0.1062  1.8122  0.2018
 6348SOL     OW30502   4.083   1.501  14.776  0.0235 -0.2675  0.0711
 6348SOL    HW130503   4.048   1.454  14.852  1.7135 -0.7480  0.5372
 6348SOL    HW230504   4.161   1.448  14.763  0.2066  0.3127 -1.2166
 6349SOL     OW30505   1.637   1.246  14.927  0.1758 -1.3074  0.1619
 6349SOL    HW130506   1.685   1.235  15.009 -0.4714 -1.2129  0.5555
 6349SOL    HW230507   1.704   1.250  14.859  0.5996  0.8822  0.7188
 6350SOL     OW30508   3.140   0.428   3.892 -0.3751 -0.1450 -0.1783
 6350SOL    HW130509   3.216   0.477   3.861  0.7224 -1.3317  0.6097
 6350SOL    HW230510   3.129   0.478   3.973  1.3666 -0.6970  0.3948
 6351SOL     OW30511   3.613   2.357   7.845  0.2361 -0.5943 -0.4759
 6351SOL    HW130512   3.608   2.360   7.749 -2.8616  1.1092 -0.2543
 6351SOL    HW230513   3.629   2.448   7.872 -1.0167 -0.7161  0.6830
 6352SOL     OW30514   0.663   1.190  15.291  0.2232 -0.1298 -0.6664
 6352SOL    HW130515   0.614   1.110  15.310 -0.2077  0.1957 -0.3831
 6352SOL    HW230516   0.709   1.161  15.212 -1.3010 -0.6975 -1.3536
 6353SOL     OW30517   1.077   4.517   8.760  0.4430 -0.7728  0.0138
 6353SOL    HW130518   1.007   4.460   8.727  1.4908 -1.6664 -0.6423
 6353SOL    HW230519   1.127   4.466   8.823  1.3441  0.4425  0.2737
 6354SOL     OW30520   3.645   0.967   8.123  0.2478 -0.1810 -0.2869
 6354SOL    HW130521   3.684   0.934   8.204 -0.8018  4.0494  1.9142
 6354SOL    HW230522   3.679   0.907   8.056 -0.8786 -0.5169 -0.5625
 6355SOL     OW30523   3.214   3.582   6.133  1.0348 -0.1810  0.3021
 6355SOL    HW130524   3.200   3.607   6.042  1.0461  0.5316  0.4984
 6355SOL    HW230525   3.123   3.558   6.152  0.8891 -1.0401 -1.4389
 6356SOL     OW30526   2.375   3.264  15.000  0.3332 -0.3795 -0.2471
 6356SOL    HW130527   2.420   3.255  14.915  1.4530 -3.7736  0.7118
 6356SOL    HW230528   2.303   3.323  14.978 -0.5372 -1.2767  0.1410
 6357SOL     OW30529   2.868   3.848   8.617  0.2972 -0.3887 -0.1469
 6357SOL    HW130530   2.888   3.923   8.560 -0.8231 -0.7117 -0.9501
 6357SOL    HW230531   2.953   3.849   8.661  1.0906 -2.7439 -1.6638
 6358SOL     OW30532   3.671   1.927   0.729  0.8016 -0.9216  0.2500
 6358SOL    HW130533   3.620   1.913   0.809 -1.9775 -1.5623 -1.6198
 6358SOL    HW230534   3.607   1.945   0.660 -0.3326 -0.5319  1.3947
 6359SOL     OW30535   2.384   2.318   6.448 -0.4702  0.2954  0.5678
 6359SOL    HW130536   2.357   2.407   6.474 -0.0531  0.3673  0.7565
 6359SOL    HW230537   2.425   2.335   6.363 -1.5802 -1.3697 -0.2908
 6360SOL     OW30538   0.139   1.151  11.696  0.8027  0.4378 -0.3629
 6360SOL    HW130539   0.225   1.118  11.673  0.8444 -1.3280  2.3388
 6360SOL    HW230540   0.104   1.074  11.741 -0.0998  1.5178  0.7967
 6361SOL     OW30541   0.071   0.112  12.545 -0.0536 -0.0976 -0.0053
 6361SOL    HW130542   0.052   0.078  12.632  0.6144 -2.0933 -0.6277
 6361SOL    HW230543   0.165   0.122  12.562 -0.0658  0.3585 -0.2195
 6362SOL     OW30544   2.179   0.000   0.185 -0.4480 -0.3531 -0.9756
 6362SOL    HW130545   2.094   4.682   0.208 -0.5313  0.6695  0.4344
 6362SOL    HW230546   2.204   4.676   0.104  3.7355 -0.7637  0.5225
 6363SOL     OW30547   0.039   0.907   9.323 -0.2552 -0.0418 -0.7382
 6363SOL    HW130548   4.690   0.940   9.265 -0.5702 -2.5744 -1.8295
 6363SOL    HW230549   4.706   0.870   9.393 -0.4925  2.9783  0.6659
 6364SOL     OW30550   3.079   1.041   1.069  0.4910 -0.1824  0.7062
 6364SOL    HW130551   3.137   1.097   1.120 -0.0938  2.4710 -1.5817
 6364SOL    HW230552   3.005   1.030   1.129 -0.5396  1.5872 -0.2421
 6365SOL     OW30553   3.375   3.136   0.126 -0.2353  0.2665 -0.0807
 6365SOL    HW130554   3.415   3.212   0.083  0.5823  0.9810  1.9276
 6365SOL    HW230555   3.318   3.169   0.196 -0.1007 -0.8146  0.5400
 6366SOL     OW30556   0.118   0.949   7.502  0.4125  0.7696  0.0386
 6366SOL    HW130557   0.090   0.861   7.476  1.3419  0.8873 -1.3283
 6366SOL    HW230558   0.082   0.963   7.590  1.5408 -1.2218  0.8217
 6367SOL     OW30559   2.758   3.022  16.839 -0.2446 -0.1395  0.7433
 6367SOL    HW130560   2.717   3.097  16.882 -0.3762  1.2449 -1.8220
 6367SOL    HW230561   2.846   3.055  16.826 -1.0468  1.6507 -0.1336
 6368SOL     OW30562   0.133   4.234   5.240  0.5045  0.7091 -0.1761
 6368SOL    HW130563   0.209   4.199   5.193 -0.0564 -1.4425  0.5045
 6368SOL    HW230564   0.168   4.222   5.328  0.7612 -0.2218 -0.3993
 6369SOL     OW30565   3.746   0.460   5.837  0.0993 -0.4895 -0.3381
 6369SOL    HW130566   3.710   0.510   5.763 -0.5316  0.8034  0.8497
 6369SOL    HW230567   3.733   0.370   5.807 -1.0500 -0.5556  0.3361
 6370SOL     OW30568   2.058   1.671   0.162 -0.1678  0.2843 -0.5211
 6370SOL    HW130569   1.979   1.688   0.213  0.9505 -1.3893  1.7902
 6370SOL    HW230570   2.110   1.678   0.243 -1.5931  0.7118  0.3663
 6371SOL     OW30571   0.216   3.075   3.589  0.6530  0.7520 -0.0939
 6371SOL    HW130572   0.139   3.109   3.634 -0.5766 -0.5825 -1.1982
 6371SOL    HW230573   0.241   2.997   3.639 -0.0443  0.3883 -0.3200
 6372SOL     OW30574   3.899   3.688   0.967 -0.5898 -0.8937 -0.3444
 6372SOL    HW130575   3.870   3.772   1.002  1.0108 -1.2973  1.9387
 6372SOL    HW230576   3.890   3.705   0.874 -3.1975 -0.5796 -0.0484
 6373SOL     OW30577   3.784   2.240   6.130  0.0818  0.3180 -0.3262
 6373SOL    HW130578   3.805   2.155   6.091 -1.3261  0.4863 -1.4649
 6373SOL    HW230579   3.754   2.215   6.217  0.6364  1.7759  0.2774
 6374SOL     OW30580   0.344   3.761   5.424 -0.1488 -0.0714 -0.2323
 6374SOL    HW130581   0.386   3.766   5.510 -0.1838  2.2058 -0.3612
 6374SOL    HW230582   0.404   3.777   5.352 -0.5520  0.1978 -0.5039
 6375SOL     OW30583   3.026   2.041   7.712  0.1584  0.1113 -0.0618
 6375SOL    HW130584   3.037   2.123   7.761 -1.3082  0.4065 -0.2081
 6375SOL    HW230585   3.054   1.973   7.774 -0.6325 -1.3867 -1.3503
 6376SOL     OW30586   2.090   4.393   0.599 -0.0588 -0.1520 -0.0344
 6376SOL    HW130587   2.179   4.416   0.626 -0.0139  1.4450 -1.5813
 6376SOL    HW230588   2.037   4.373   0.676 -0.1655 -0.4773 -0.1923
 6377SOL     OW30589   2.030   3.295  11.859 -0.1711 -1.0818  0.1389
 6377SOL    HW130590   2.120   3.326  11.847 -0.4994  0.2591  1.1487
 6377SOL    HW230591   2.042   3.215  11.910  1.6960 -2.4222 -2.3916
 6378SOL     OW30592   3.008   3.204   8.111 -0.0482 -0.5658  0.4211
 6378SOL    HW130593   2.973   3.148   8.042 -0.0213 -0.7340  0.5459
 6378SOL    HW230594   2.931   3.202   8.168  1.1382  0.5485  2.0886
 6379SOL     OW30595   4.071   2.257   6.504  0.2299  0.2219 -0.1903
 6379SOL    HW130596   4.039   2.180   6.456  0.4570 -0.1185  0.2076
 6379SOL    HW230597   4.060   2.313   6.427 -1.6984 -0.7234 -0.6197
 6380SOL     OW30598   1.663   0.002   8.787  0.5551  0.0364 -0.3824
 6380SOL    HW130599   1.638   0.017   8.695  0.5104 -1.0428 -0.5521
 6380SOL    HW230600   1.579   0.003   8.834  1.4069  1.7905  1.0974
 6381SOL     OW30601   0.047   1.561   6.128  0.1338  0.0668 -0.0700
 6381SOL    HW130602   0.120   1.500   6.136 -0.4464 -0.4293  1.3593
 6381SOL    HW230603   0.098   1.640   6.109 -0.0179 -0.1444 -1.3821
 6382SOL     OW30604   4.520   1.475   6.509 -0.2873 -0.8425  0.0588
 6382SOL    HW130605   4.579   1.440   6.442  0.6728  0.6878  0.1072
 6382SOL    HW230606   4.499   1.391   6.549  0.4188 -0.9507  0.1962
 6383SOL     OW30607   1.529   2.041   6.565 -0.1655  0.0912  0.1077
 6383SOL    HW130608   1.530   1.989   6.645 -2.6737 -1.4682 -0.8800
 6383SOL    HW230609   1.523   1.962   6.511  0.3382  0.3966 -0.4025
 6384SOL     OW30610   1.564   1.576   2.695  0.6405 -0.7149  0.4275
 6384SOL    HW130611   1.653   1.605   2.675 -0.1067  1.2544 -0.1652
 6384SOL    HW230612   1.530   1.597   2.608 -0.1955  1.1929  1.2161
 6385SOL     OW30613   0.329   1.648   3.193 -0.2472 -0.2141  0.1447
 6385SOL    HW130614   0.366   1.611   3.273 -0.2889 -1.9132 -0.6193
 6385SOL    HW230615   0.245   1.669   3.235  0.3525  2.4838 -0.0207
 6386SOL     OW30616   4.455   2.061   7.612  0.2174  0.4243  0.2414
 6386SOL    HW130617   4.408   2.115   7.676  0.1646  0.6252  0.0346
 6386SOL    HW230618   4.392   2.048   7.541 -0.0985  1.8058  0.2764
 6387SOL     OW30619   3.919   3.268   7.384 -0.0838  0.0815  0.4557
 6387SOL    HW130620   3.828   3.283   7.409  0.5108  1.2096  1.9248
 6387SOL    HW230621   3.907   3.284   7.290  0.1917 -1.1817  0.2001
 6388SOL     OW30622   1.747   2.098   4.632  0.0105 -0.2937 -0.0334
 6388SOL    HW130623   1.718   2.034   4.568 -0.6791  0.8653 -0.8852
 6388SOL    HW230624   1.679   2.163   4.616  1.4312  1.6424  1.6800
 6389SOL     OW30625   0.806   2.172   5.693 -0.5032  0.3128 -0.1351
 6389SOL    HW130626   0.880   2.197   5.639  0.5318 -1.2781  0.5475
 6389SOL    HW230627   0.781   2.260   5.722 -1.4830  0.2290 -0.7302
 6390SOL     OW30628   0.367   0.773   2.859 -0.0895  0.3672 -0.1273
 6390SOL    HW130629   0.369   0.691   2.810 -0.0459  0.7625 -0.7798
 6390SOL    HW230630   0.442   0.767   2.919  0.0344 -2.0403 -0.4951
 6391SOL     OW30631   4.047   2.033   7.453  0.0945 -0.3340 -0.1832
 6391SOL    HW130632   3.981   2.097   7.483 -0.5525 -1.4039  0.6855
 6391SOL    HW230633   4.098   2.094   7.400 -1.4284  0.2778 -0.9401
 6392SOL     OW30634   1.485   2.275   0.102 -0.4237 -0.3280 -0.1857
 6392SOL    HW130635   1.476   2.290   0.196  0.1656  0.1301 -0.2056
 6392SOL    HW230636   1.407   2.220   0.091 -0.2299 -0.6560  0.0940
 6393SOL     OW30637   4.281   0.712  13.632  0.1884  0.0961  0.8516
 6393SOL    HW130638   4.212   0.648  13.644 -2.2733  2.1343 -2.4428
 6393SOL    HW230639   4.254   0.790  13.681 -0.4281 -0.8537  2.0006
 6394SOL     OW30640   2.978   3.872   6.215  0.4817  0.6006  0.1081
 6394SOL    HW130641   3.038   3.858   6.289 -1.5104 -0.2993  1.5356
 6394SOL    HW230642   2.913   3.807   6.240  0.8953  0.0124 -0.3339
 6395SOL     OW30643   2.659   1.107   7.755  0.4891 -0.1702 -0.4103
 6395SOL    HW130644   2.733   1.060   7.718  1.3957 -0.3787  1.6474
 6395SOL    HW230645   2.640   1.049   7.829  2.0662  0.3944  0.4213
 6396SOL     OW30646   3.452   2.405  10.055 -0.4422  0.6948 -0.2103
 6396SOL    HW130647   3.483   2.345   9.987 -0.5657 -0.2305  0.5423
 6396SOL    HW230648   3.383   2.364  10.109 -0.0327  1.4374  0.8694
 6397SOL     OW30649   2.505   3.360   6.327 -0.0198 -0.0608  0.2333
 6397SOL    HW130650   2.497   3.345   6.233 -2.0059  2.1640  0.0412
 6397SOL    HW230651   2.478   3.452   6.332  1.2459  0.3971 -1.4616
 6398SOL     OW30652   0.084   0.872  16.071 -0.2863  0.1732 -0.5358
 6398SOL    HW130653   0.112   0.789  16.109  1.5468  1.3008  0.5452
 6398SOL    HW230654   0.154   0.890  16.008  1.0341 -1.8492  0.3525
 6399SOL     OW30655   2.334   3.508  13.083  0.3284 -0.2743  0.3812
 6399SOL    HW130656   2.282   3.428  13.073  0.9639 -0.4228 -1.9001
 6399SOL    HW230657   2.394   3.489  13.155  1.1951 -1.2557 -0.5854
 6400SOL     OW30658   2.424   3.033  14.523 -0.0537  0.1746 -0.1204
 6400SOL    HW130659   2.463   3.029  14.436  0.9332  0.7762  0.3004
 6400SOL    HW230660   2.409   3.126  14.541 -1.1441  0.0211 -0.2206
 6401SOL     OW30661   1.804   3.030   6.451  0.7567 -0.4989  0.1248
 6401SOL    HW130662   1.803   2.934   6.445  0.5662 -0.5073  0.2751
 6401SOL    HW230663   1.710   3.050   6.446  1.2604  1.7703 -0.4450
 6402SOL     OW30664   0.144   1.284   4.994 -0.1429  0.3620  0.2613
 6402SOL    HW130665   0.069   1.338   4.968  1.2428  1.0851 -2.2351
 6402SOL    HW230666   0.135   1.277   5.089 -2.2876 -0.0213  0.0225
 6403SOL     OW30667   1.670   2.866  14.431  0.1756  0.1658 -0.5797
 6403SOL    HW130668   1.600   2.802  14.420  1.7042 -1.6892  0.6653
 6403SOL    HW230669   1.627   2.943  14.393 -0.0424 -0.8630 -2.3971
 6404SOL     OW30670   3.946   1.816  12.554 -0.7478  0.2211 -0.1087
 6404SOL    HW130671   4.015   1.780  12.498 -0.0095  0.8665  0.3881
 6404SOL    HW230672   3.972   1.789  12.642 -0.6660  0.6887  0.0074
 6405SOL     OW30673   1.848   0.382   4.444  0.2604 -0.5311  0.4993
 6405SOL    HW130674   1.803   0.321   4.503  0.2666  0.1012  1.1530
 6405SOL    HW230675   1.904   0.321   4.396  0.1638  0.4318 -0.7988
 6406SOL     OW30676   3.770   1.444   1.819 -0.1708 -0.1376  0.3807
 6406SOL    HW130677   3.788   1.512   1.754 -0.6481 -1.3398 -1.0052
 6406SOL    HW230678   3.792   1.489   1.901  2.2793  0.5012 -0.6282
 6407SOL     OW30679   3.330   3.748   7.530  0.0650  0.0297 -0.9568
 6407SOL    HW130680   3.310   3.745   7.623  2.1424 -0.6934 -0.5308
 6407SOL    HW230681   3.422   3.771   7.546  0.9486 -3.0012 -1.7223
 6408SOL     OW30682   0.550   3.229   1.614  0.9038  0.3399 -0.2446
 6408SOL    HW130683   0.623   3.278   1.575 -0.2884  1.2737 -1.3058
 6408SOL    HW230684   0.523   3.188   1.531  0.1791 -0.8141  0.5556
 6409SOL     OW30685   2.472   2.869   7.386  0.2805  0.0578  0.2569
 6409SOL    HW130686   2.545   2.870   7.325 -0.4525 -1.6324 -0.6290
 6409SOL    HW230687   2.513   2.860   7.472 -0.4041  0.6431  0.6499
 6410SOL     OW30688   2.043   0.595   1.693  0.1810 -0.2965  0.1764
 6410SOL    HW130689   2.086   0.625   1.773  0.7983  0.3123 -0.3755
 6410SOL    HW230690   1.982   0.539   1.741  1.5397  0.6811  3.0765
 6411SOL     OW30691   2.715   2.222   7.490 -0.6481 -0.4642  0.3553
 6411SOL    HW130692   2.711   2.241   7.397 -1.2298 -1.1325  0.2454
 6411SOL    HW230693   2.629   2.183   7.503 -1.5708  1.4543  0.0621
 6412SOL     OW30694   3.997   1.008   4.140  0.2262  0.2126  0.1040
 6412SOL    HW130695   4.010   0.963   4.223 -2.9333 -0.9600 -0.0321
 6412SOL    HW230696   4.023   1.095   4.168  2.5548 -0.5995  0.4463
 6413SOL     OW30697   3.896   1.841  16.628 -0.0245  0.2268  0.7984
 6413SOL    HW130698   3.895   1.775  16.558  0.8803  2.1677 -1.0421
 6413SOL    HW230699   3.830   1.908  16.611  1.5718  1.1004 -1.9740
 6414SOL     OW30700   0.190   0.936  15.370 -0.6732 -0.3378  0.8192
 6414SOL    HW130701   0.124   0.875  15.338 -0.0467 -1.1080  0.9830
 6414SOL    HW230702   0.191   1.007  15.306 -0.4466  1.0927  2.4235
 6415SOL     OW30703   4.169   3.908   7.104  0.0354 -0.7507  0.0488
 6415SOL    HW130704   4.110   3.982   7.088  0.3351 -1.1761 -2.9724
 6415SOL    HW230705   4.136   3.845   7.040 -0.8684  0.5858 -0.7854
 6416SOL     OW30706   1.537   2.023   3.525 -0.3496  0.0712  0.4445
 6416SOL    HW130707   1.477   2.036   3.451 -1.7549  1.3921  1.8340
 6416SOL    HW230708   1.557   1.930   3.514 -4.0171 -0.4472 -1.6609
 6417SOL     OW30709   2.668   2.812   8.353 -0.0672  0.2255 -0.3471
 6417SOL    HW130710   2.596   2.792   8.295 -1.9785  0.3241  2.0015
 6417SOL    HW230711   2.650   2.755   8.427 -1.7589  1.2267  0.0095
 6418SOL     OW30712   1.571   3.186  13.734  0.0415  0.5696  0.1409
 6418SOL    HW130713   1.530   3.239  13.802  1.4617  3.2166 -1.0458
 6418SOL    HW230714   1.661   3.190  13.768 -0.4590 -1.5700  1.6340
 6419SOL     OW30715   0.509   1.035   0.085 -0.1890 -0.4861 -0.3745
 6419SOL    HW130716   0.455   0.956   0.091  0.9116 -1.0264  2.1123
 6419SOL    HW230717   0.573   1.012   0.152 -1.3615  0.0032  0.9034
 6420SOL     OW30718   3.725   1.256   8.075 -0.2254 -0.4957  0.2757
 6420SOL    HW130719   3.804   1.233   8.025  0.6156  0.2166  1.2665
 6420SOL    HW230720   3.697   1.165   8.076 -0.8713 -0.2920  0.6854
 6421SOL     OW30721   0.497   3.716   5.702  0.8476  0.2101  0.3349
 6421SOL    HW130722   0.562   3.741   5.768  1.7764  1.5030 -1.1066
 6421SOL    HW230723   0.421   3.773   5.715 -0.8708 -1.6589 -1.4283
 6422SOL     OW30724   1.110   3.667  16.999 -0.3780 -0.1929  0.2580
 6422SOL    HW130725   1.092   3.695  17.089 -0.7109  2.4268 -0.6122
 6422SOL    HW230726   1.023   3.637  16.973 -0.4231  0.9006 -0.8349
 6423SOL     OW30727   4.522   2.773   5.802  0.6867 -0.1926  0.0110
 6423SOL    HW130728   4.544   2.693   5.753 -0.2922 -1.5112  1.7256
 6423SOL    HW230729   4.507   2.834   5.729 -0.0057 -1.4957 -0.9536
 6424SOL     OW30730   2.131   3.421  12.350  0.5588  0.1161 -0.5049
 6424SOL    HW130731   2.183   3.426  12.271  2.3791 -1.9570  0.5718
 6424SOL    HW230732   2.041   3.431  12.318  0.1456 -1.1425  0.2840
 6425SOL     OW30733   2.420   1.693  16.209 -0.3554  0.5065  0.3153
 6425SOL    HW130734   2.355   1.651  16.265  1.2386 -1.3457  0.7765
 6425SOL    HW230735   2.466   1.748  16.272  2.2775  1.3130 -2.3027
 6426SOL     OW30736   0.806   4.493   0.863  0.3253 -0.0847  0.2511
 6426SOL    HW130737   0.749   4.418   0.874 -1.1039  1.1423  1.2539
 6426SOL    HW230738   0.887   4.456   0.829  0.3449  1.0739 -0.9742
 6427SOL     OW30739   1.866   1.586   4.384 -0.0735  0.6650  0.1468
 6427SOL    HW130740   1.843   1.657   4.443 -1.3491  0.2047  0.1950
 6427SOL    HW230741   1.867   1.512   4.445 -1.2373 -0.6007 -1.3726
 6428SOL     OW30742   1.607   1.899  10.712 -0.3587  0.6283 -0.2642
 6428SOL    HW130743   1.665   1.843  10.764 -1.9507 -0.9682 -0.1870
 6428SOL    HW230744   1.620   1.987  10.747  0.3576 -0.4660  2.1983
 6429SOL     OW30745   3.796   0.129   1.459 -0.4855 -0.3879 -0.1918
 6429SOL    HW130746   3.744   0.197   1.503  0.7852 -0.5754  1.5823
 6429SOL    HW230747   3.813   0.064   1.527 -1.1422 -0.1536  0.1996
 6430SOL     OW30748   3.776   4.240  10.382 -0.0097 -0.4676 -1.0146
 6430SOL    HW130749   3.724   4.234  10.462  0.5522  2.8536 -0.3979
 6430SOL    HW230750   3.853   4.198  10.419  1.8871  1.4845 -2.7449
 6431SOL     OW30751   3.131   3.982  10.269 -0.0033  0.2287 -0.1284
 6431SOL    HW130752   3.087   3.910  10.222  0.3970  0.0237 -0.1882
 6431SOL    HW230753   3.178   4.016  10.193  0.5477 -0.1519  0.0427
 6432SOL     OW30754   0.663   0.823   7.244 -0.3493 -0.0056  0.6309
 6432SOL    HW130755   0.666   0.805   7.338  1.0089 -0.5783  0.4773
 6432SOL    HW230756   0.635   0.737   7.213  2.4538 -0.8278  0.4549
 6433SOL     OW30757   2.899   3.742   7.972  0.3451  0.2781 -0.6477
 6433SOL    HW130758   2.852   3.809   8.022  0.2828 -0.8223  0.7888
 6433SOL    HW230759   2.823   3.684   7.970  0.2917  0.3532 -0.7695
 6434SOL     OW30760   3.519   2.587  12.366 -0.4746 -0.5536  0.0297
 6434SOL    HW130761   3.606   2.557  12.340 -1.0659 -1.8235 -0.4816
 6434SOL    HW230762   3.468   2.512  12.335 -1.4993  0.4089 -0.5877
 6435SOL     OW30763   0.737   3.959   2.038  0.1656 -0.5001 -0.2118
 6435SOL    HW130764   0.721   4.051   2.016 -1.8414 -0.9276 -0.5480
 6435SOL    HW230765   0.657   3.916   2.009  0.5227 -1.6884  0.5766
 6436SOL     OW30766   0.779   1.373   5.228  0.3286 -0.0054 -0.1858
 6436SOL    HW130767   0.749   1.386   5.138 -0.4789  2.2149  0.4151
 6436SOL    HW230768   0.774   1.278   5.241 -0.7518  0.2014  0.9100
 6437SOL     OW30769   2.978   1.110  12.788  0.0044 -0.2777  0.2299
 6437SOL    HW130770   2.962   1.155  12.705 -1.5650  0.6776  1.0650
 6437SOL    HW230771   2.896   1.098  12.835  1.0627  0.2532  2.2019
 6438SOL     OW30772   4.396   1.723   8.641 -0.9948  0.0121 -0.1304
 6438SOL    HW130773   4.420   1.783   8.570 -0.7996 -0.1772 -0.2284
 6438SOL    HW230774   4.417   1.635   8.609 -2.7951 -0.8451  1.0524
 6439SOL     OW30775   1.242   3.209   8.681  0.1122  0.0849  0.0680
 6439SOL    HW130776   1.330   3.172   8.671  0.6175  0.6872  2.3132
 6439SOL    HW230777   1.209   3.163   8.758  3.4888 -0.5121  1.1690
 6440SOL     OW30778   2.534   1.778   1.266 -0.3245  0.0035  0.3591
 6440SOL    HW130779   2.493   1.702   1.226 -0.2686 -1.2589  2.6774
 6440SOL    HW230780   2.623   1.769   1.232  0.0729 -1.1253  1.6843
 6441SOL     OW30781   4.133   1.273   6.475 -0.4262  0.0747 -0.3062
 6441SOL    HW130782   4.104   1.334   6.543 -0.8540 -0.7292  0.2363
 6441SOL    HW230783   4.091   1.195   6.510 -0.1635 -0.4703 -1.2144
 6442SOL     OW30784   0.689   4.054   3.926  0.3198  0.3058  0.8800
 6442SOL    HW130785   0.595   4.047   3.945  0.5619  0.0623  1.9691
 6442SOL    HW230786   0.681   4.074   3.832 -0.0004 -0.2736  0.7859
 6443SOL     OW30787   4.507   3.870  15.786 -0.1777 -0.1426 -0.1386
 6443SOL    HW130788   4.468   3.884  15.872 -0.3011 -0.6554 -0.1125
 6443SOL    HW230789   4.489   3.952  15.741 -1.3278  0.7514  1.9695
 6444SOL     OW30790   0.044   4.625   6.923  0.3871  0.5042  0.6249
 6444SOL    HW130791   0.108   4.556   6.943 -1.2957 -1.2965 -0.1970
 6444SOL    HW230792   0.105   4.698   6.915  1.0742  0.1385  2.3156
 6445SOL     OW30793   4.597   3.876   8.654  0.1085 -0.0972  0.1114
 6445SOL    HW130794   4.576   3.785   8.636  3.6693 -0.6298 -1.3470
 6445SOL    HW230795   4.567   3.927   8.579 -2.8206 -4.3674 -1.5837
 6446SOL     OW30796   3.785   4.325   7.574  0.5533 -0.0275 -0.1592
 6446SOL    HW130797   3.808   4.397   7.515  1.3692  2.3728  3.0778
 6446SOL    HW230798   3.746   4.374   7.647 -1.4028 -1.0537 -0.5103
 6447SOL     OW30799   1.516   0.175   1.092  0.0652 -0.0799 -0.7706
 6447SOL    HW130800   1.453   0.247   1.106 -1.5573 -1.8346  1.0178
 6447SOL    HW230801   1.592   0.219   1.053  1.5430 -1.7283  0.2813
 6448SOL     OW30802   1.628   2.616   3.268 -0.1422  0.0279  0.2044
 6448SOL    HW130803   1.687   2.554   3.226  0.1297 -0.2174  0.9501
 6448SOL    HW230804   1.598   2.559   3.338  0.6875  2.1793  2.3163
 6449SOL     OW30805   1.821   1.844   5.923  0.5433  1.0818  0.1657
 6449SOL    HW130806   1.885   1.792   5.877 -0.7427  0.1150 -0.5276
 6449SOL    HW230807   1.849   1.845   6.015 -1.1869  2.0501  0.7076
 6450SOL     OW30808   4.436   1.353   8.889  0.0461  0.5142  0.5411
 6450SOL    HW130809   4.362   1.410   8.909  0.7378  2.2826 -1.8805
 6450SOL    HW230810   4.455   1.332   8.981 -0.9585 -0.7587  0.4508
 6451SOL     OW30811   0.815   0.377   4.249  0.3612  0.0942  0.3445
 6451SOL    HW130812   0.789   0.444   4.311  1.3008  1.2451 -0.4978
 6451SOL    HW230813   0.888   0.415   4.199 -1.0941 -1.2467 -2.8216
 6452SOL     OW30814   1.198   4.242  14.883  0.4148  0.4359  0.0776
 6452SOL    HW130815   1.176   4.318  14.829 -0.1026  0.8498  0.8684
 6452SOL    HW230816   1.270   4.194  14.842  0.7412  1.3260 -0.3837
 6453SOL     OW30817   3.081   4.028   5.109  0.5100  0.3440 -0.3912
 6453SOL    HW130818   3.020   3.969   5.152  1.9371 -1.0565 -0.2712
 6453SOL    HW230819   3.029   4.107   5.099  0.9509  0.9614  2.1708
 6454SOL     OW30820   1.120   1.849   8.478  0.0428 -0.2711  0.5922
 6454SOL    HW130821   1.033   1.866   8.513 -0.7165  1.2342 -2.0533
 6454SOL    HW230822   1.147   1.775   8.532 -1.1131 -0.1682  1.3055
 6455SOL     OW30823   2.413   0.055   0.310 -0.7995 -0.8249 -0.3212
 6455SOL    HW130824   2.409   0.098   0.396 -1.4758 -2.6301  0.5384
 6455SOL    HW230825   2.325   0.070   0.276 -0.8250 -0.4819 -0.1060
 6456SOL     OW30826   1.898   0.627   2.653 -0.7927 -0.3331 -0.2208
 6456SOL    HW130827   1.852   0.659   2.575 -0.1209 -0.1718 -0.5444
 6456SOL    HW230828   1.827   0.605   2.714  0.1303  1.1333  1.3778
 6457SOL     OW30829   0.746   4.100  12.691  0.5215 -0.3394  0.1083
 6457SOL    HW130830   0.744   4.016  12.644 -0.0051 -0.2753  0.0254
 6457SOL    HW230831   0.770   4.067  12.778  1.7479 -0.4456 -0.2664
 6458SOL     OW30832   4.310   1.269  10.979 -0.3555 -0.0499  0.0171
 6458SOL    HW130833   4.229   1.266  10.929 -0.8649  3.9223  0.6479
 6458SOL    HW230834   4.349   1.186  10.953 -0.9810 -0.5988  0.8108
 6459SOL     OW30835   3.245   1.053   6.483 -0.0694  0.0722 -0.1321
 6459SOL    HW130836   3.215   1.114   6.550  2.1385  1.0724 -0.0520
 6459SOL    HW230837   3.232   0.969   6.526 -0.3377  0.4027  0.4306
 6460SOL     OW30838   1.956   4.409  12.372 -0.0077 -0.0285 -0.4744
 6460SOL    HW130839   1.967   4.364  12.288  0.8440 -0.7354  0.0212
 6460SOL    HW230840   2.046   4.437  12.388 -0.2197 -0.6372  1.7114
 6461SOL     OW30841   1.494   2.067   5.162 -0.5786  0.3076  0.6054
 6461SOL    HW130842   1.491   1.976   5.133 -1.8671  0.1906  1.0911
 6461SOL    HW230843   1.405   2.082   5.193 -0.2602  1.3719  1.0247
 6462SOL     OW30844   0.626   2.930  13.112  0.2491 -0.3170  0.1220
 6462SOL    HW130845   0.546   2.879  13.099  0.2541 -0.4052  0.4262
 6462SOL    HW230846   0.669   2.914  13.028 -1.1658  0.4813 -0.7617
 6463SOL     OW30847   2.992   3.801  10.126  0.4665 -0.7927  0.1624
 6463SOL    HW130848   3.027   3.727  10.077 -0.3894 -1.3333  0.3672
 6463SOL    HW230849   2.898   3.798  10.112  0.6632 -2.5591 -0.7123
 6464SOL     OW30850   3.133   0.946   0.590 -0.4297 -0.0492 -0.3077
 6464SOL    HW130851   3.063   0.883   0.578  1.1752 -2.1322  1.3020
 6464SOL    HW230852   3.086   1.004   0.650  0.0116  1.1708 -1.1245
 6465SOL     OW30853   4.045   3.204   3.387 -0.2182  0.5008 -0.5335
 6465SOL    HW130854   4.005   3.171   3.307 -1.4565  0.0716  0.2676
 6465SOL    HW230855   4.087   3.124   3.417 -0.4815  1.2167  1.7265
 6466SOL     OW30856   3.216   1.306   5.450 -0.2492  0.2201 -0.0024
 6466SOL    HW130857   3.123   1.297   5.427  0.0510 -0.3958 -1.0065
 6466SOL    HW230858   3.244   1.368   5.382  0.8958  0.2086  0.4622
 6467SOL     OW30859   1.672   3.783   3.385  0.9844 -0.3778  0.3116
 6467SOL    HW130860   1.647   3.694   3.410  0.6577 -0.2845  0.3079
 6467SOL    HW230861   1.597   3.821   3.339  1.1751  1.3314  1.3937
 6468SOL     OW30862   0.005   2.727   4.759  0.1185  0.1598 -0.6381
 6468SOL    HW130863   0.008   2.634   4.738  0.4291  0.6661 -2.8467
 6468SOL    HW230864   0.034   2.780   4.684 -1.6088  0.7831 -0.8727
 6469SOL     OW30865   3.662   4.564   3.580  0.1481 -0.3292  0.2106
 6469SOL    HW130866   3.730   4.628   3.601 -0.1845 -0.1974  0.9129
 6469SOL    HW230867   3.614   4.607   3.510  0.0639 -3.0370 -1.3772
 6470SOL     OW30868   3.441   2.388   7.257  0.5164 -0.1222 -0.6316
 6470SOL    HW130869   3.358   2.401   7.212 -1.1751 -0.7436  2.3004
 6470SOL    HW230870   3.431   2.296   7.281  0.3204  0.3048  0.9079
 6471SOL     OW30871   1.186   2.990   6.812 -0.5349 -0.6600 -0.5688
 6471SOL    HW130872   1.242   2.948   6.747  0.4932  1.7374 -1.2562
 6471SOL    HW230873   1.149   2.916   6.860  2.2691 -0.2317  2.2575
 6472SOL     OW30874   3.933   0.171   8.846 -0.0238 -0.6515  0.5490
 6472SOL    HW130875   3.898   0.150   8.932 -0.2021  1.1311  0.9227
 6472SOL    HW230876   3.873   0.122   8.790  0.0084 -1.9215  1.6436
 6473SOL     OW30877   3.170   1.192   7.154 -0.3404  0.2118 -0.0677
 6473SOL    HW130878   3.075   1.183   7.146 -0.3740 -0.5981  1.2949
 6473SOL    HW230879   3.172   1.284   7.180 -1.0900  0.5390 -1.1795
 6474SOL     OW30880   2.892   1.858   5.022  0.1068 -0.5681  0.4229
 6474SOL    HW130881   2.979   1.880   4.987  0.2922 -2.5175 -0.2897
 6474SOL    HW230882   2.866   1.779   4.976  0.7306 -0.1556 -0.6316
 6475SOL     OW30883   3.042   4.635   2.757  0.2000 -0.5703 -0.4672
 6475SOL    HW130884   3.115   4.578   2.731  1.1658  0.5295 -0.1849
 6475SOL    HW230885   3.088   4.696   2.815  1.2608  1.4176 -3.3822
 6476SOL     OW30886   2.142   1.835   2.549  0.0359  0.6358 -0.3093
 6476SOL    HW130887   2.055   1.845   2.510 -1.6968  1.6205  3.8036
 6476SOL    HW230888   2.187   1.789   2.478  1.0587 -0.4419  1.0538
 6477SOL     OW30889   4.154   0.766   4.594  0.2855  0.4322 -0.5456
 6477SOL    HW130890   4.154   0.671   4.593  1.1015  0.4454 -2.1635
 6477SOL    HW230891   4.222   0.773   4.661  1.1019 -0.2804 -1.3036
 6478SOL     OW30892   1.368   0.264   6.881  0.3680 -0.2381  0.1943
 6478SOL    HW130893   1.290   0.227   6.838 -3.5972  3.6419  4.0757
 6478SOL    HW230894   1.436   0.233   6.822 -0.6482 -2.0087 -0.0365
 6479SOL     OW30895   0.534   0.363   1.392 -0.5081  0.3435  0.0469
 6479SOL    HW130896   0.465   0.405   1.444  0.9223  3.2693 -0.4724
 6479SOL    HW230897   0.514   0.271   1.408  1.7262 -0.0569  0.5364
 6480SOL     OW30898   1.667   4.604   3.239 -0.2230  0.0855  0.1144
 6480SOL    HW130899   1.597   4.575   3.182  0.0784  2.1097 -1.3049
 6480SOL    HW230900   1.737   4.615   3.174 -0.6108 -2.3632 -0.7259
 6481SOL     OW30901   1.422   3.786   6.780  0.7443 -0.3820 -0.0560
 6481SOL    HW130902   1.327   3.797   6.778  0.9207  1.0505 -0.8137
 6481SOL    HW230903   1.434   3.691   6.787 -0.1561 -0.3858  1.2119
 6482SOL     OW30904   1.358   4.496   5.323  0.2945 -0.4219 -0.1493
 6482SOL    HW130905   1.296   4.435   5.361  0.7771  0.3116  1.8035
 6482SOL    HW230906   1.306   4.543   5.257  1.3452  0.7844 -0.1281
 6483SOL     OW30907   2.611   0.553   6.129  0.1003  0.0065 -0.2074
 6483SOL    HW130908   2.655   0.582   6.049  2.7074  0.3760  1.3817
 6483SOL    HW230909   2.633   0.460   6.137 -2.1932 -0.5309  0.0083
 6484SOL     OW30910   3.991   0.622  12.480 -0.3424  0.1176  0.2947
 6484SOL    HW130911   3.989   0.527  12.496  1.8774  0.2062  1.1593
 6484SOL    HW230912   4.067   0.638  12.424 -0.3178  1.6157  0.7735
 6485SOL     OW30913   0.919   2.043   2.115 -0.1305 -0.0123  0.1788
 6485SOL    HW130914   1.012   2.063   2.124  0.2726 -1.1421 -1.5679
 6485SOL    HW230915   0.881   2.102   2.180 -0.5416  0.7404 -0.7451
 6486SOL     OW30916   3.359   2.667   3.685 -0.1292 -0.4090  0.3800
 6486SOL    HW130917   3.416   2.672   3.762 -1.6152  1.9477  1.3281
 6486SOL    HW230918   3.327   2.578   3.703  1.2799 -0.3996  2.9811
 6487SOL     OW30919   0.793   4.580  14.105  0.3980  1.0272  0.4896
 6487SOL    HW130920   0.820   4.656  14.053 -1.5141 -0.0340 -2.0556
 6487SOL    HW230921   0.829   4.607  14.189 -2.9072  1.7219  1.6839
 6488SOL     OW30922   2.170   3.922  15.228  0.7507 -0.4057  0.1015
 6488SOL    HW130923   2.246   3.882  15.185  1.2505  2.9516 -2.1225
 6488SOL    HW230924   2.197   3.915  15.320  0.3248  0.9626  0.3228
 6489SOL     OW30925   4.476   1.755   7.479 -0.0005 -0.1496 -0.0535
 6489SOL    HW130926   4.420   1.763   7.556  1.3119  0.7767  0.8126
 6489SOL    HW230927   4.560   1.734   7.520 -1.2067 -1.1116  1.9236
 6490SOL     OW30928   4.004   2.755   2.905 -0.4862  0.3186 -0.1093
 6490SOL    HW130929   3.965   2.806   2.833  1.2182  2.7434  0.6827
 6490SOL    HW230930   3.993   2.668   2.867 -0.3233  0.9422 -1.5967
 6491SOL     OW30931   1.993   1.017   4.754  0.1746  0.0251 -0.1239
 6491SOL    HW130932   2.015   0.994   4.663 -1.2630  0.5018 -0.5973
 6491SOL    HW230933   2.057   1.088   4.762  0.2645 -0.1750  0.8738
 6492SOL     OW30934   0.476   4.130   9.200  0.4458 -0.0922  0.3802
 6492SOL    HW130935   0.566   4.112   9.229  1.0999  1.6440 -0.5525
 6492SOL    HW230936   0.472   4.225   9.191  2.2158  0.2140  2.7574
 6493SOL     OW30937   0.856   0.543  12.377 -0.1999 -0.2572  0.0729
 6493SOL    HW130938   0.914   0.617  12.394 -0.2623 -0.4697  1.1663
 6493SOL    HW230939   0.914   0.478  12.337 -1.3292 -1.1298 -0.1383
 6494SOL     OW30940   3.025   3.848   7.531 -0.0494  0.2096 -0.5440
 6494SOL    HW130941   3.017   3.780   7.598  3.0297  0.1428 -0.2599
 6494SOL    HW230942   2.945   3.839   7.480 -0.3701 -2.4930  0.3779
 6495SOL     OW30943   3.419   3.341   7.033 -0.2728 -0.2364  0.1046
 6495SOL    HW130944   3.492   3.372   7.087 -2.1654  1.1730  1.8741
 6495SOL    HW230945   3.430   3.247   7.052 -0.9783 -0.3994 -0.3323
 6496SOL     OW30946   0.922   1.742   6.265 -0.1059  0.1054  0.0508
 6496SOL    HW130947   0.964   1.824   6.291  0.0830  0.9573 -2.9670
 6496SOL    HW230948   0.916   1.755   6.170  0.5266  0.8411  0.1078
 6497SOL     OW30949   1.036   3.166   4.887 -0.0942  0.3677 -0.1361
 6497SOL    HW130950   1.041   3.205   4.800  0.2003 -2.2002 -1.2572
 6497SOL    HW230951   1.087   3.231   4.936 -1.3236  1.2747 -0.0787
 6498SOL     OW30952   0.000   1.892   6.662 -0.6325  0.0603 -0.2800
 6498SOL    HW130953   0.058   1.824   6.626  0.4251 -0.3242  2.1134
 6498SOL    HW230954   4.634   1.852   6.650 -1.0428  0.8757 -0.0443
 6499SOL     OW30955   2.042   2.712   0.371  0.3289 -0.1174 -0.1977
 6499SOL    HW130956   2.090   2.630   0.366  2.4809  1.2502 -2.0547
 6499SOL    HW230957   1.985   2.688   0.298 -0.5910  0.9644  0.1644
 6500SOL     OW30958   2.243   0.362   5.762 -0.3550 -0.3665  0.2385
 6500SOL    HW130959   2.214   0.417   5.835 -1.0796 -2.5147  1.5605
 6500SOL    HW230960   2.260   0.429   5.696 -2.0295  1.2242  1.4441
 6501SOL     OW30961   2.329   0.544   6.105 -0.3699 -0.2813  0.0807
 6501SOL    HW130962   2.334   0.451   6.128  2.1476 -0.0349  0.4475
 6501SOL    HW230963   2.418   0.579   6.110 -0.7149  0.8516 -1.7554
 6502SOL     OW30964   1.190   0.427  14.461  0.3753  0.3865 -0.6713
 6502SOL    HW130965   1.280   0.397  14.447  0.8230  1.0051  0.8808
 6502SOL    HW230966   1.202   0.454  14.552  2.2214 -2.1331 -0.1529
 6503SOL     OW30967   0.626   2.167  15.526  0.1574 -0.3530  0.0336
 6503SOL    HW130968   0.713   2.207  15.521  1.7196 -3.5722  1.8250
 6503SOL    HW230969   0.634   2.113  15.448  1.0426 -1.8538  1.1493
 6504SOL     OW30970   3.303   1.238   6.899 -0.0130  0.4228  0.2357
 6504SOL    HW130971   3.391   1.203   6.916 -1.4923 -2.4338  2.1049
 6504SOL    HW230972   3.265   1.227   6.986 -1.3377 -0.8179 -0.5013
 6505SOL     OW30973   0.753   1.113   4.873  0.1062  0.4150  0.2872
 6505SOL    HW130974   0.799   1.194   4.853  2.7637 -0.8819  1.1006
 6505SOL    HW230975   0.665   1.139   4.899  0.0526 -0.1512  0.6710
 6506SOL     OW30976   3.111   0.095   0.827  0.6358 -0.1348 -0.6497
 6506SOL    HW130977   3.107   0.083   0.733 -1.3043  0.3698 -0.6250
 6506SOL    HW230978   3.063   0.025   0.871 -0.0924 -0.8644 -2.6401
 6507SOL     OW30979   0.983   3.864  12.024 -0.4637  0.0910 -0.3288
 6507SOL    HW130980   0.960   3.856  11.932  0.6622 -2.4204 -0.3918
 6507SOL    HW230981   1.057   3.924  12.017 -1.1567  1.2905  2.3814
 6508SOL     OW30982   3.929   3.789   2.847  0.3281 -0.3339 -0.2356
 6508SOL    HW130983   3.840   3.762   2.827 -0.5789  3.7989 -1.9130
 6508SOL    HW230984   3.921   3.814   2.939  1.3208 -1.5152  0.1706
 6509SOL     OW30985   4.088   2.303   5.920  0.5873 -0.0944 -0.1927
 6509SOL    HW130986   4.166   2.248   5.931  1.0559  0.7918  0.8848
 6509SOL    HW230987   4.018   2.246   5.889  0.7639 -1.6653  2.3095
 6510SOL     OW30988   1.670   1.803   1.147 -0.0773 -0.3171 -0.4879
 6510SOL    HW130989   1.581   1.797   1.113 -0.7808 -0.5217  1.4181
 6510SOL    HW230990   1.657   1.875   1.208  0.2576 -0.4782 -0.2284
 6511SOL     OW30991   0.847   2.983  15.913 -0.2219 -0.0087 -0.0335
 6511SOL    HW130992   0.820   2.969  15.822  1.9657  0.3219 -0.7505
 6511SOL    HW230993   0.826   3.073  15.935  1.6186 -0.2716  2.7785
 6512SOL     OW30994   2.792   4.462   6.286 -0.8155  0.3414 -0.0135
 6512SOL    HW130995   2.871   4.411   6.268 -0.2719  0.8189  0.9971
 6512SOL    HW230996   2.805   4.489   6.377  1.9235  0.1583 -0.3332
 6513SOL     OW30997   4.320   2.724   8.863 -0.2971  0.2752  0.2496
 6513SOL    HW130998   4.287   2.637   8.885 -0.3510  0.1143 -0.4634
 6513SOL    HW230999   4.306   2.721   8.769 -1.3928 -2.3729  0.4937
 6514SOL     OW31000   3.301   1.802   7.302 -0.2788 -0.5172  0.3741
 6514SOL    HW131001   3.370   1.803   7.369 -3.3363  3.6655  3.3881
 6514SOL    HW231002   3.244   1.734   7.337 -1.7735 -1.0815 -3.1884
 6515SOL     OW31003   1.276   2.715  10.543  0.3260 -0.1790 -0.3564
 6515SOL    HW131004   1.269   2.666  10.625  0.4032 -0.7123 -0.6667
 6515SOL    HW231005   1.341   2.657  10.502 -0.0023 -2.4147  2.2970
 6516SOL     OW31006   0.444   3.645   7.841  0.2499  0.2540  0.6485
 6516SOL    HW131007   0.370   3.607   7.888 -0.7291 -0.3556 -1.3695
 6516SOL    HW231008   0.428   3.625   7.749  0.1541  1.4458  0.4034
 6517SOL     OW31009   3.499   0.029   1.058 -0.2327 -0.1691  0.6952
 6517SOL    HW131010   3.525   0.033   1.150  1.4234  2.9652  0.0718
 6517SOL    HW231011   3.546   4.672   1.024  0.6301  0.0400  1.4408
 6518SOL     OW31012   4.653   2.872   8.125  0.5867  0.6669 -0.3317
 6518SOL    HW131013   4.645   2.839   8.035 -1.1145 -1.2684  0.5067
 6518SOL    HW231014   4.689   2.793   8.166 -0.1637  0.7469  0.4989
 6519SOL     OW31015   3.736   3.575   7.633  0.3585 -0.5689  0.4186
 6519SOL    HW131016   3.727   3.493   7.583  0.3065 -0.1541 -0.2451
 6519SOL    HW231017   3.653   3.583   7.680  0.1449  1.7086 -0.3952
 6520SOL     OW31018   2.918   2.739  10.321 -0.0015 -0.0316 -0.5052
 6520SOL    HW131019   2.966   2.664  10.286  0.6641  0.1175  0.0983
 6520SOL    HW231020   2.890   2.781  10.240  1.8489  1.6403 -0.2645
 6521SOL     OW31021   3.475   3.349   1.032 -0.1374 -0.1045  0.1682
 6521SOL    HW131022   3.569   3.358   1.022  0.2069 -2.2812  1.7061
 6521SOL    HW231023   3.486   3.295   1.110 -2.0119  1.4950  1.5616
 6522SOL     OW31024   3.467   2.917   2.181  0.3611 -0.0852 -0.5909
 6522SOL    HW131025   3.484   3.004   2.146  0.4414  0.2278  0.2124
 6522SOL    HW231026   3.423   2.877   2.106  1.2816 -4.0277  0.9592
 6523SOL     OW31027   1.273   2.434  13.140 -0.4598 -0.2157  0.2432
 6523SOL    HW131028   1.348   2.475  13.096 -0.6180  1.4127  1.5007
 6523SOL    HW231029   1.216   2.505  13.169  1.4493  1.3614  0.1546
 6524SOL     OW31030   4.015   1.419   0.327 -0.2341  0.1841 -0.2431
 6524SOL    HW131031   3.934   1.394   0.371 -0.1457  1.6937  0.7713
 6524SOL    HW231032   4.067   1.455   0.399 -2.2634  0.6327  0.9845
 6525SOL     OW31033   2.870   0.003   8.860 -0.0659  0.2302 -0.6748
 6525SOL    HW131034   2.870   0.094   8.829  1.8658 -0.1636 -1.7982
 6525SOL    HW231035   2.777   4.702   8.849 -0.3483  0.7907  0.6158
 6526SOL     OW31036   4.349   3.923   9.517  0.6073 -0.0989 -0.1031
 6526SOL    HW131037   4.435   3.944   9.481  0.5050 -1.6189 -1.2096
 6526SOL    HW231038   4.363   3.929   9.612  0.2429 -3.0048  0.1504
 6527SOL     OW31039   4.651   1.295   8.480 -0.4430  0.4168 -0.2439
 6527SOL    HW131040   4.693   1.209   8.469  1.5864  1.3817  0.0057
 6527SOL    HW231041   0.010   1.347   8.498  1.3612 -2.0229 -1.0556
 6528SOL     OW31042   1.699   0.758   2.484 -0.1945  0.0210 -0.3264
 6528SOL    HW131043   1.635   0.730   2.420 -1.5118 -0.0226  1.0099
 6528SOL    HW231044   1.646   0.774   2.562  0.9833 -0.6701  0.6207
 6529SOL     OW31045   2.788   0.291   8.430  0.2152 -0.7325  0.0072
 6529SOL    HW131046   2.698   0.279   8.458 -0.0262  0.4890 -0.2469
 6529SOL    HW231047   2.774   0.287   8.335  1.0841 -0.0448 -0.1491
 6530SOL     OW31048   4.652   4.472   7.654  0.9173  0.4564 -0.0395
 6530SOL    HW131049   4.705   4.485   7.733 -1.7816  1.1105  1.6614
 6530SOL    HW231050   4.669   4.556   7.611  0.4506  0.1607 -0.7925
 6531SOL     OW31051   3.322   2.530   9.837 -0.0078  0.1578 -0.3387
 6531SOL    HW131052   3.359   2.500   9.920  0.3217  1.4398 -0.0348
 6531SOL    HW231053   3.401   2.557   9.791  0.2080 -0.7977 -0.5416
 6532SOL     OW31054   1.067   4.262   3.933 -0.3081 -0.9795 -0.0826
 6532SOL    HW131055   0.988   4.253   3.986 -0.6364 -0.6972 -0.5220
 6532SOL    HW231056   1.042   4.199   3.865 -0.4025 -0.4647 -0.5226
 6533SOL     OW31057   1.080   0.749  13.352  0.1859 -0.4121  0.0852
 6533SOL    HW131058   1.125   0.804  13.415  0.0657  1.7371 -1.6941
 6533SOL    HW231059   1.036   0.678  13.400  1.7546 -1.0225  0.5970
 6534SOL     OW31060   4.284   1.153   0.258  0.4105  0.6874  0.2307
 6534SOL    HW131061   4.195   1.186   0.245 -0.2047 -1.3049 -0.7527
 6534SOL    HW231062   4.325   1.237   0.276  2.7481 -0.5428  0.5778
 6535SOL     OW31063   3.299   4.184   8.194  0.1534 -0.0433  0.1466
 6535SOL    HW131064   3.283   4.167   8.286 -0.5431  0.3518  0.0954
 6535SOL    HW231065   3.379   4.134   8.177 -0.0927 -0.9333  1.6432
 6536SOL     OW31066   0.738   3.251   1.226 -0.0391 -0.1344 -0.4382
 6536SOL    HW131067   0.725   3.301   1.307  0.6622  0.6100 -0.7915
 6536SOL    HW231068   0.721   3.314   1.157  1.3258 -0.7338 -1.3147
 6537SOL     OW31069   4.038   4.017   3.825  0.0732 -0.0222 -0.0640
 6537SOL    HW131070   4.010   4.056   3.907  0.4637 -0.5573  0.3240
 6537SOL    HW231071   4.009   4.081   3.760  0.2605 -1.1232 -1.2164
 6538SOL     OW31072   3.838   2.956   0.620  0.3339 -0.6749 -0.1902
 6538SOL    HW131073   3.878   2.972   0.535  0.9151 -1.7976 -0.1258
 6538SOL    HW231074   3.903   2.911   0.674 -0.3008 -1.4379 -0.0617
 6539SOL     OW31075   4.266   2.459   8.435  0.1988 -0.2841 -0.1300
 6539SOL    HW131076   4.218   2.405   8.498 -0.9669  0.4167 -0.4022
 6539SOL    HW231077   4.199   2.458   8.366  2.7228 -0.8707 -2.5757
 6540SOL     OW31078   2.435   3.555   2.917 -0.7644  0.0425 -0.0610
 6540SOL    HW131079   2.413   3.462   2.914  0.0208 -0.1570  0.3925
 6540SOL    HW231080   2.430   3.579   2.824 -2.9724 -1.1865 -0.2632
 6541SOL     OW31081   4.560   0.257   8.557 -0.5606 -0.3270 -1.2666
 6541SOL    HW131082   4.474   0.295   8.568 -0.1211  0.1687  0.3595
 6541SOL    HW231083   4.594   0.227   8.641 -2.8455  2.5525  0.6899
 6542SOL     OW31084   1.562   0.108   3.683  0.8006 -0.3550  0.9841
 6542SOL    HW131085   1.474   0.085   3.655  0.2163  1.1664  1.5704
 6542SOL    HW231086   1.617   0.063   3.619 -2.1496 -1.2778 -0.9032
 6543SOL     OW31087   0.247   1.361   2.280  0.0846 -0.3771  0.3168
 6543SOL    HW131088   0.282   1.387   2.365 -0.8308  1.0178  0.2602
 6543SOL    HW231089   0.255   1.443   2.231  0.8987 -2.1517 -2.5012
 6544SOL     OW31090   2.235   4.364   6.146  0.0376 -0.2051 -0.1113
 6544SOL    HW131091   2.208   4.283   6.102  1.1525 -0.4616 -0.3258
 6544SOL    HW231092   2.327   4.366   6.118  0.4272  0.6823  1.2152
 6545SOL     OW31093   0.744   1.752   3.730 -0.2099  0.2634  0.4591
 6545SOL    HW131094   0.704   1.706   3.656  0.9582 -0.8202  0.4989
 6545SOL    HW231095   0.674   1.809   3.760 -1.2025 -0.6139 -0.1951
 6546SOL     OW31096   4.495   1.093   9.863  0.3784 -0.0588 -0.2555
 6546SOL    HW131097   4.495   1.084   9.958 -0.6129  1.3516 -0.1256
 6546SOL    HW231098   4.407   1.128   9.851 -0.6656 -2.3837  0.5478
 6547SOL     OW31099   0.830   2.590   1.108 -0.7403 -0.0122 -0.1825
 6547SOL    HW131100   0.873   2.552   1.184 -1.6318 -0.5777  0.0349
 6547SOL    HW231101   0.739   2.560   1.115 -0.8838  0.4097 -0.2303
 6548SOL     OW31102   3.635   1.009  14.287  0.4179  0.4725 -0.1275
 6548SOL    HW131103   3.663   1.100  14.299 -0.0459  0.7546 -1.1641
 6548SOL    HW231104   3.547   1.007  14.326  1.4611  2.7937  2.3392
 6549SOL     OW31105   2.628   3.860   9.422  0.0032  0.2493  0.9866
 6549SOL    HW131106   2.564   3.925   9.451  1.1704  1.7449  0.2313
 6549SOL    HW231107   2.708   3.910   9.407  1.2511 -1.2057  2.8191
 6550SOL     OW31108   4.093   0.779   0.424 -0.1774  0.5637 -0.0112
 6550SOL    HW131109   4.018   0.768   0.483  1.0332 -0.2763  1.3763
 6550SOL    HW231110   4.046   0.820   0.352  2.0421  2.7064 -0.2358
 6551SOL     OW31111   0.594   0.052   4.614  0.0518 -0.0806 -0.1851
 6551SOL    HW131112   0.677   0.099   4.613  0.1569 -0.2862 -0.8808
 6551SOL    HW231113   0.535   0.126   4.627  2.9807  2.3095 -0.5716
 6552SOL     OW31114   3.855   1.517   5.171  0.2871  0.7782 -0.1742
 6552SOL    HW131115   3.810   1.600   5.151 -0.0423  0.4853 -0.6405
 6552SOL    HW231116   3.808   1.447   5.126  0.3501  0.7543 -0.2031
 6553SOL     OW31117   2.614   4.048   5.891 -0.3494  0.4314  0.3807
 6553SOL    HW131118   2.594   4.141   5.884  0.9425  0.6844  0.0970
 6553SOL    HW231119   2.549   4.020   5.828 -0.6014 -0.0387  0.8464
 6554SOL     OW31120   0.603   1.192  16.541 -0.2134 -0.4669 -0.2187
 6554SOL    HW131121   0.615   1.098  16.528  2.1418  0.0425 -1.7067
 6554SOL    HW231122   0.688   1.231  16.519  0.2671 -1.3767  0.0090
 6555SOL     OW31123   3.832   1.061   5.698  0.0605  0.0410 -0.1771
 6555SOL    HW131124   3.783   1.069   5.616 -0.8520 -1.6145  0.2188
 6555SOL    HW231125   3.897   0.999   5.665  0.6041 -0.0182  0.9945
 6556SOL     OW31126   2.306   2.169   7.336 -0.5037 -0.5694  0.4278
 6556SOL    HW131127   2.232   2.126   7.294 -1.7078  0.6356  1.3031
 6556SOL    HW231128   2.301   2.123   7.420 -0.1095 -0.2865  0.6074
 6557SOL     OW31129   3.515   3.975   6.437 -0.3254 -0.0185 -0.4995
 6557SOL    HW131130   3.423   4.000   6.428 -0.6681 -1.2596 -0.3675
 6557SOL    HW231131   3.556   4.062   6.437 -0.8465  0.2230  1.1278
 6558SOL     OW31132   3.102   4.605  11.459  0.0287  0.2082  0.5927
 6558SOL    HW131133   3.139   4.680  11.413 -0.1385  1.4794  2.5394
 6558SOL    HW231134   3.174   4.598  11.522 -0.3998 -0.1397  1.0466
 6559SOL     OW31135   3.086   0.458   4.787 -0.4015 -0.0282  0.2000
 6559SOL    HW131136   3.051   0.529   4.734 -0.0627  0.6857  0.9360
 6559SOL    HW231137   3.036   0.379   4.765  1.4005 -1.7852  2.4306
 6560SOL     OW31138   2.440   1.494  13.201  0.1632  0.4813 -0.0513
 6560SOL    HW131139   2.354   1.523  13.172  0.3016  2.9865  2.1153
 6560SOL    HW231140   2.490   1.548  13.141 -0.1176 -1.1541 -1.7604
 6561SOL     OW31141   0.699   0.868  12.486 -0.3649 -0.3421 -0.0816
 6561SOL    HW131142   0.744   0.937  12.438  1.2540 -2.3755 -1.4790
 6561SOL    HW231143   0.625   0.910  12.529 -1.0887 -0.1767 -1.5094
 6562SOL     OW31144   1.616   0.695  12.560 -0.4315  0.5490  0.8092
 6562SOL    HW131145   1.577   0.626  12.614 -0.2771 -0.8169 -0.8171
 6562SOL    HW231146   1.529   0.728  12.539 -0.9116 -1.6347 -0.6521
 6563SOL     OW31147   3.410   2.883   2.470  0.4522 -0.4792 -0.6254
 6563SOL    HW131148   3.318   2.896   2.450 -0.0316 -0.9832  1.2908
 6563SOL    HW231149   3.434   2.912   2.382 -2.8143  0.4972 -1.1936
 6564SOL     OW31150   3.341   3.570   7.330 -0.0214 -0.2191 -0.3793
 6564SOL    HW131151   3.359   3.635   7.398 -0.1432  0.7246 -1.2547
 6564SOL    HW231152   3.423   3.564   7.280  1.2329 -1.5965  1.8552
 6565SOL     OW31153   1.200   2.038   1.622 -0.0780  0.0679  0.2667
 6565SOL    HW131154   1.124   1.988   1.652 -0.2960  0.9038  1.1340
 6565SOL    HW231155   1.165   2.073   1.540 -0.2888 -0.6211  0.0707
 6566SOL     OW31156   2.299   3.738   6.563  0.1753 -0.0045  0.2012
 6566SOL    HW131157   2.293   3.644   6.548 -1.5085 -0.2328  2.3130
 6566SOL    HW231158   2.214   3.744   6.606 -0.1048  2.0340 -0.6484
 6567SOL     OW31159   3.433   0.373   9.514  0.3371  0.7034  0.0947
 6567SOL    HW131160   3.485   0.339   9.587 -1.4923  1.4064  1.7185
 6567SOL    HW231161   3.387   0.294   9.484  0.9007 -0.0295  1.1546
 6568SOL     OW31162   2.520   4.210  13.751  0.0154  0.5353 -0.4656
 6568SOL    HW131163   2.512   4.159  13.831 -1.0876  0.0452 -0.8986
 6568SOL    HW231164   2.552   4.295  13.783 -0.4858  0.8439 -0.7896
 6569SOL     OW31165   4.450   3.277  15.304 -0.3853 -0.3655  0.2781
 6569SOL    HW131166   4.511   3.205  15.290 -2.2037 -1.9573  0.4710
 6569SOL    HW231167   4.483   3.332  15.233 -1.4040 -0.7679 -0.5096
 6570SOL     OW31168   2.803   4.003   3.544  0.4426 -0.5921 -0.3420
 6570SOL    HW131169   2.787   3.933   3.607  0.9960 -1.0572 -0.7158
 6570SOL    HW231170   2.723   4.055   3.534  2.1126  2.3392  1.4370
 6571SOL     OW31171   4.527   0.779  12.591  0.1242  0.0600  0.2776
 6571SOL    HW131172   4.478   0.837  12.533  0.1635 -3.7214 -3.5035
 6571SOL    HW231173   4.599   0.840  12.575  1.6413 -1.3160  1.7978
 6572SOL     OW31174   1.336   1.659   8.087 -0.4765 -0.0281 -0.3743
 6572SOL    HW131175   1.247   1.688   8.068  0.4004  1.5006 -2.1349
 6572SOL    HW231176   1.330   1.603   8.164  1.0996  0.8386  0.3723
 6573SOL     OW31177   4.082   2.544   8.829  0.4066 -0.3963 -0.6208
 6573SOL    HW131178   3.996   2.505   8.846  0.2786  0.4834  0.7521
 6573SOL    HW231179   4.087   2.552   8.734 -0.6656 -1.5655 -0.7663
 6574SOL     OW31180   2.100   0.298   6.297 -0.5627  0.5621  0.1116
 6574SOL    HW131181   2.072   0.212   6.327  0.5018  0.5153  0.9784
 6574SOL    HW231182   2.183   0.285   6.251 -0.0898 -2.2726  1.7665
 6575SOL     OW31183   2.520   2.891   6.993 -0.2215  0.0567  0.4913
 6575SOL    HW131184   2.458   2.847   6.935 -0.9522 -0.1499  1.4322
 6575SOL    HW231185   2.569   2.813   7.021  0.8897  0.0955 -1.2957
 6576SOL     OW31186   0.837   3.773   4.307  0.5088  0.0722  0.6599
 6576SOL    HW131187   0.747   3.742   4.292  0.6882  1.5254 -3.3563
 6576SOL    HW231188   0.856   3.809   4.221  2.7132 -0.9218  0.7276
 6577SOL     OW31189   4.506   0.313  15.005  0.0451  0.6695 -0.2147
 6577SOL    HW131190   4.453   0.260  15.065  1.3079  0.9748  1.1708
 6577SOL    HW231191   4.592   0.275  15.016 -0.2351  0.2065  0.3611
 6578SOL     OW31192   0.964   1.641   7.638  0.2551 -0.6504 -0.0275
 6578SOL    HW131193   0.884   1.661   7.686 -1.1759  0.8297 -3.0495
 6578SOL    HW231194   0.979   1.731   7.610 -2.1874 -0.3872 -0.4708
 6579SOL     OW31195   2.789   2.255   9.378 -0.2081 -0.1818 -0.2535
 6579SOL    HW131196   2.862   2.241   9.438 -1.1272  0.6013  1.0221
 6579SOL    HW231197   2.791   2.169   9.335 -0.6266 -0.0606 -0.5187
 6580SOL     OW31198   1.434   3.590  16.866 -0.2510  0.1309  0.3402
 6580SOL    HW131199   1.510   3.550  16.910  1.0900  1.0589 -1.1439
 6580SOL    HW231200   1.454   3.559  16.777 -0.7367 -1.1385  0.6694
 6581SOL     OW31201   1.364   2.421   3.340  0.1759 -0.4736  0.5723
 6581SOL    HW131202   1.429   2.352   3.328  0.8949  0.6228 -1.7315
 6581SOL    HW231203   1.305   2.416   3.265 -1.5398  0.4366  1.8372
 6582SOL     OW31204   2.869   0.844   4.155 -0.2284 -0.1040 -0.0120
 6582SOL    HW131205   2.908   0.930   4.172  1.3874 -0.7675 -0.3449
 6582SOL    HW231206   2.933   0.799   4.210  0.9395  0.2815 -1.0392
 6583SOL     OW31207   1.033   0.784   9.851  0.3085  0.0778  0.0918
 6583SOL    HW131208   1.115   0.829   9.829  0.4679 -1.6465 -2.8231
 6583SOL    HW231209   1.061   0.693   9.858  1.3124  0.4669  1.2032
 6584SOL     OW31210   3.725   3.498  11.396 -0.1907 -0.2403 -0.7856
 6584SOL    HW131211   3.658   3.512  11.329 -1.4521  2.1785  0.9508
 6584SOL    HW231212   3.688   3.543  11.472  2.9606 -0.8341  1.0768
 6585SOL     OW31213   0.551   1.831   0.699  0.3280  0.5280 -0.0034
 6585SOL    HW131214   0.526   1.877   0.619  0.3863  1.3509  0.4517
 6585SOL    HW231215   0.632   1.875   0.726  0.6185 -1.0960  1.7664
 6586SOL     OW31216   3.437   3.246  12.969  0.8081 -0.1494 -0.6329
 6586SOL    HW131217   3.490   3.172  12.999  2.4838  1.2881 -0.0838
 6586SOL    HW231218   3.463   3.258  12.878 -1.0118  0.0354 -1.1295
 6587SOL     OW31219   1.405   2.496   8.218  1.0720 -0.1656  0.3480
 6587SOL    HW131220   1.495   2.523   8.201  1.0403 -0.3209 -0.0655
 6587SOL    HW231221   1.414   2.476   8.311  1.0894  0.7036  0.5409
 6588SOL     OW31222   0.184   3.580   7.037 -0.1584  0.2628  0.6653
 6588SOL    HW131223   0.109   3.584   7.097  0.3582 -0.7441  1.3728
 6588SOL    HW231224   0.148   3.550   6.954 -0.1015  0.4566  0.5708
 6589SOL     OW31225   3.926   4.079  15.163 -0.3437  0.1524 -0.1312
 6589SOL    HW131226   3.851   4.104  15.109 -0.2840  1.7228  0.4962
 6589SOL    HW231227   3.967   4.026  15.094  2.1668  2.8501 -0.7155
 6590SOL     OW31228   0.291   1.861   0.851 -0.4190  0.0044 -0.3782
 6590SOL    HW131229   0.384   1.879   0.839 -0.1822 -1.0489 -0.1212
 6590SOL    HW231230   0.269   1.898   0.766 -0.4327 -1.2725 -0.9407
 6591SOL     OW31231   4.540   2.099   3.529  0.0079 -0.6330  0.3285
 6591SOL    HW131232   4.459   2.074   3.574 -0.6203  0.8433  0.0324
 6591SOL    HW231233   4.515   2.066   3.443  0.8759  0.8597 -0.4874
 6592SOL     OW31234   1.047   1.738   3.743 -0.3497 -0.4556 -0.3599
 6592SOL    HW131235   0.953   1.726   3.733 -0.1045 -2.2563 -0.4706
 6592SOL    HW231236   1.069   1.760   3.834  0.5157 -2.0259 -0.1966
 6593SOL     OW31237   1.210   0.010   3.107 -0.6166  0.1104  0.1061
 6593SOL    HW131238   1.276   0.022   3.175  0.5029 -0.2385 -0.9240
 6593SOL    HW231239   1.162   4.650   3.130 -1.7518  0.3712 -1.3207
 6594SOL     OW31240   0.445   3.634   3.080  0.0800  0.1135  0.0101
 6594SOL    HW131241   0.486   3.562   3.032 -2.1103 -1.5986  0.6916
 6594SOL    HW231242   0.369   3.654   3.024 -1.1924 -1.9301  0.9800
 6595SOL     OW31243   0.180   0.446   4.198 -0.1869 -0.2856  0.2791
 6595SOL    HW131244   0.217   0.425   4.284  0.6035 -1.6025 -0.3746
 6595SOL    HW231245   0.211   0.530   4.164  2.4261 -1.3153  0.1155
 6596SOL     OW31246   1.973   4.507   6.939  0.4274  0.6193 -0.2704
 6596SOL    HW131247   1.890   4.546   6.911  0.8811  1.2617 -0.6967
 6596SOL    HW231248   1.974   4.429   6.883 -0.5815  0.2041  0.2920
 6597SOL     OW31249   2.505   3.837   9.056  0.0655  0.1784 -0.3283
 6597SOL    HW131250   2.578   3.815   9.113  0.9310  0.8764 -1.1687
 6597SOL    HW231251   2.497   3.762   8.997 -3.3207 -1.0125  1.6379
 6598SOL     OW31252   3.240   2.332   4.368  0.3350 -0.0045 -0.1611
 6598SOL    HW131253   3.234   2.244   4.329  3.1689 -0.4299  0.3632
 6598SOL    HW231254   3.178   2.371   4.307 -0.5557  0.2098  0.8822
 6599SOL     OW31255   0.666   4.257   4.667 -0.3760 -0.2497  0.0673
 6599SOL    HW131256   0.624   4.197   4.606  0.7925 -0.8291 -0.1714
 6599SOL    HW231257   0.716   4.304   4.600 -0.5695  1.2621  0.9840
 6600SOL     OW31258   1.246   1.129   7.469  0.1112 -0.1713  0.0280
 6600SOL    HW131259   1.206   1.202   7.515  0.7003  0.4816 -0.5044
 6600SOL    HW231260   1.169   1.081   7.439  0.7487 -1.1803 -0.0150
 6601SOL     OW31261   1.688   0.841  10.071 -0.0981  0.6052  0.5284
 6601SOL    HW131262   1.734   0.759  10.058 -1.4954 -0.2230  0.7545
 6601SOL    HW231263   1.606   0.810  10.109 -0.0581  0.1008  0.2015
 6602SOL     OW31264   1.463   1.260  11.984 -0.1321  0.5932  0.1454
 6602SOL    HW131265   1.416   1.336  12.019 -0.1457 -0.0018  1.3974
 6602SOL    HW231266   1.412   1.183  12.008 -2.0078  1.0020 -2.4471
 6603SOL     OW31267   2.365   4.012   2.974 -0.4785  0.1283 -0.0793
 6603SOL    HW131268   2.290   4.060   3.010 -0.8010 -1.4795  1.3944
 6603SOL    HW231269   2.429   4.083   2.964  0.6449 -0.3095  3.7256
 6604SOL     OW31270   1.667   4.617  16.638 -0.4240 -0.0195  0.1389
 6604SOL    HW131271   1.630   4.620  16.726 -1.4422 -1.2210 -0.2566
 6604SOL    HW231272   1.758   4.646  16.641 -0.3238 -0.3125 -0.1279
 6605SOL     OW31273   1.802   3.234  12.726  0.3023  0.4882 -0.2702
 6605SOL    HW131274   1.833   3.144  12.737  1.3254  1.1184  1.8970
 6605SOL    HW231275   1.851   3.273  12.798 -1.2396  0.6466  0.6766
 6606SOL     OW31276   4.056   1.755   5.387  0.3808  0.5341 -1.0189
 6606SOL    HW131277   4.002   1.824   5.425 -1.3394 -1.9484  1.0165
 6606SOL    HW231278   4.138   1.775   5.432 -0.7853 -0.2760  1.4330
 6607SOL     OW31279   1.881   3.625   5.378 -0.8488  0.2007  0.0952
 6607SOL    HW131280   1.834   3.706   5.355 -1.2715  0.3074  1.3029
 6607SOL    HW231281   1.815   3.561   5.355 -0.2074 -0.5096  0.2440
 6608SOL     OW31282   3.113   1.504   0.557  0.0444  0.2003  0.1211
 6608SOL    HW131283   3.144   1.577   0.503  2.3348 -1.0598 -0.2803
 6608SOL    HW231284   3.067   1.543   0.631 -0.2291 -1.1791  0.6701
 6609SOL     OW31285   1.782   2.613  16.186  0.2492 -0.2399 -0.1167
 6609SOL    HW131286   1.777   2.671  16.262  1.3525 -2.6443  1.7531
 6609SOL    HW231287   1.788   2.528  16.229  0.1653 -0.1914 -0.0078
 6610SOL     OW31288   3.494   3.060   5.029  0.1877 -0.0859 -0.5136
 6610SOL    HW131289   3.554   3.106   4.970  0.3632  0.2086 -0.1090
 6610SOL    HW231290   3.464   3.000   4.960 -1.1584  0.0339 -0.0343
 6611SOL     OW31291   0.033   2.532   2.756 -0.5368  0.2619 -0.5881
 6611SOL    HW131292   0.070   2.606   2.805  1.8820 -2.3724  1.5666
 6611SOL    HW231293   4.710   2.472   2.816  0.7541  0.1716  0.2414
 6612SOL     OW31294   0.108   1.967  17.596  0.0409  0.1512 -0.1430
 6612SOL    HW131295   0.157   1.890  17.625  0.0601  0.3271  0.2760
 6612SOL    HW231296   0.028   1.931  17.558 -0.7974  1.3020  0.5593
 6613SOL     OW31297   1.207   3.067  14.980 -0.1138 -0.7147 -0.4087
 6613SOL    HW131298   1.197   3.162  14.982 -0.3713 -0.8054  2.3846
 6613SOL    HW231299   1.206   3.040  14.888 -1.8352  0.9335 -0.8686
 6614SOL     OW31300   1.194   4.684  13.410 -0.3835  0.0417  0.1065
 6614SOL    HW131301   1.225   0.033  13.469 -0.9098 -1.3895  2.0853
 6614SOL    HW231302   1.098   4.682  13.418 -0.3172 -1.3421  0.6199
 6615SOL     OW31303   4.499   4.639  11.497 -0.1291 -0.2781 -0.2317
 6615SOL    HW131304   4.561   4.709  11.516  2.1271 -2.2053 -0.4268
 6615SOL    HW231305   4.495   4.595  11.582 -3.9596  1.9166  0.7625
 6616SOL     OW31306   4.340   4.142   4.198 -0.3550  0.0358  0.5684
 6616SOL    HW131307   4.352   4.054   4.161  0.4313  0.2949  0.2069
 6616SOL    HW231308   4.275   4.126   4.267 -0.5679  0.4629  0.4654
 6617SOL     OW31309   2.104   0.151   6.021 -0.0947  0.2316  0.7226
 6617SOL    HW131310   2.096   0.245   6.005 -0.5585  0.1864  0.6869
 6617SOL    HW231311   2.020   0.138   6.065 -0.7839 -0.0618 -0.6524
 6618SOL     OW31312   3.472   0.923   4.074 -0.5156  0.2016 -0.3995
 6618SOL    HW131313   3.421   0.842   4.084 -0.8242  0.6440  1.6594
 6618SOL    HW231314   3.552   0.898   4.027 -0.4898 -1.0655  0.3059
 6619SOL     OW31315   3.183   3.144   6.047 -0.2236  0.0975 -0.2261
 6619SOL    HW131316   3.210   3.078   6.111 -1.4101 -1.8037 -1.6924
 6619SOL    HW231317   3.264   3.169   6.001 -0.8509  2.0408 -0.2767
 6620SOL     OW31318   3.081   0.455  15.600  0.2799 -0.1198 -0.1577
 6620SOL    HW131319   3.026   0.380  15.622 -0.3302  0.1098 -0.8720
 6620SOL    HW231320   3.020   0.490  15.535  0.1603 -0.5065 -0.2549
 6621SOL     OW31321   3.187   3.728   8.920  0.0719  0.1753 -0.8189
 6621SOL    HW131322   3.272   3.762   8.948 -0.5577  1.5167 -0.4822
 6621SOL    HW231323   3.190   3.764   8.832 -3.1746  1.8852 -0.2551
 6622SOL     OW31324   2.544   2.755   6.053 -0.3009 -0.5884 -0.3092
 6622SOL    HW131325   2.510   2.780   6.139  0.8676 -2.3747  0.6775
 6622SOL    HW231326   2.456   2.739   6.018 -0.9054 -0.3130  1.0745
 6623SOL     OW31327   4.627   1.792  11.652 -0.4761 -0.1013 -0.2084
 6623SOL    HW131328   4.623   1.872  11.704  0.1812  0.3144 -0.7991
 6623SOL    HW231329   4.533   1.778  11.636 -0.4118  0.2141 -0.8768
 6624SOL     OW31330   3.357   0.560   3.812  0.3013  0.2428 -0.4616
 6624SOL    HW131331   3.434   0.605   3.846 -1.2487  1.3953  1.5704
 6624SOL    HW231332   3.325   0.621   3.745 -1.6995  0.6466  0.8453
 6625SOL     OW31333   1.561   2.461   0.882 -0.4751  0.6058 -0.4484
 6625SOL    HW131334   1.569   2.405   0.959  1.0621 -1.2853 -1.9766
 6625SOL    HW231335   1.525   2.537   0.928  0.2510  0.8276 -0.2409
 6626SOL     OW31336   4.659   2.369  17.385 -0.5660  0.1090  0.3411
 6626SOL    HW131337   4.632   2.284  17.420  1.6482 -0.1687  1.3763
 6626SOL    HW231338   4.707   2.412  17.456 -0.7380  0.3476  0.3143
 6627SOL     OW31339   2.434   3.170   6.963  0.0634 -0.3042 -0.3602
 6627SOL    HW131340   2.485   3.089   6.960 -1.0765 -1.0487  0.3012
 6627SOL    HW231341   2.356   3.157   6.909 -0.3053 -1.5122  0.4720
 6628SOL     OW31342   1.606   1.656   0.274  0.0750 -0.6990  0.0951
 6628SOL    HW131343   1.630   1.692   0.359  2.0479 -2.6861  0.3687
 6628SOL    HW231344   1.584   1.736   0.226  2.5862  1.3056  2.2597
 6629SOL     OW31345   2.514   3.815  13.638 -0.3012  0.3147  0.3695
 6629SOL    HW131346   2.544   3.872  13.568  0.8202 -0.9545 -0.1930
 6629SOL    HW231347   2.486   3.877  13.706  1.0553  2.2588 -0.8496
 6630SOL     OW31348   2.005   0.268  11.431 -0.2832  0.4122  0.2582
 6630SOL    HW131349   1.976   0.293  11.519 -0.9643 -0.3934  0.2581
 6630SOL    HW231350   1.980   0.343  11.377  1.8740 -0.2476 -1.6218
 6631SOL     OW31351   4.206   3.328   1.103  0.1928 -0.8747 -0.0530
 6631SOL    HW131352   4.173   3.410   1.066 -1.2408 -0.4112  2.2733
 6631SOL    HW231353   4.122   3.308   1.144  0.0643 -0.6926 -0.2283
 6632SOL     OW31354   0.860   3.777   7.367  0.0212 -0.6585  0.0344
 6632SOL    HW131355   0.903   3.701   7.328  0.8514 -0.9846  1.5776
 6632SOL    HW231356   0.772   3.770   7.329 -0.6547  1.5601  1.2328
 6633SOL     OW31357   3.128   0.816   6.621  0.3011 -0.1981  0.4023
 6633SOL    HW131358   3.143   0.722   6.615  0.3638 -0.0895 -1.2405
 6633SOL    HW231359   3.180   0.831   6.700  0.4357 -0.9909  0.4582
 6634SOL     OW31360   1.416   0.246  10.747 -0.8862 -0.1126 -0.2384
 6634SOL    HW131361   1.379   0.305  10.813 -1.4304 -1.3468  0.5813
 6634SOL    HW231362   1.459   0.316  10.700 -2.7670 -1.2009 -3.5983
 6635SOL     OW31363   2.970   3.311   5.935  0.5466  0.6105  0.3044
 6635SOL    HW131364   3.001   3.279   6.020  2.6496 -0.8366 -1.0108
 6635SOL    HW231365   3.020   3.256   5.874  1.5106 -0.0771  1.7126
 6636SOL     OW31366   2.407   0.171   2.653 -0.2447  0.6114 -0.0035
 6636SOL    HW131367   2.490   0.163   2.605  0.4149  1.1913  1.0192
 6636SOL    HW231368   2.436   0.139   2.738 -0.4546  1.2665  0.3154
 6637SOL     OW31369   4.422   1.527  16.740  0.4018  0.2069  0.3579
 6637SOL    HW131370   4.379   1.442  16.751  0.8944 -0.0115  0.5648
 6637SOL    HW231371   4.450   1.519  16.649  1.0607  2.0700  0.3944
 6638SOL     OW31372   2.892   1.378  10.879 -0.2299 -0.1920  0.4037
 6638SOL    HW131373   2.912   1.453  10.823  2.1346 -0.0680  1.4258
 6638SOL    HW231374   2.974   1.371  10.927  1.2365  1.1879 -1.8931
 6639SOL     OW31375   4.272   4.356   1.736 -0.1981 -0.3082  0.7454
 6639SOL    HW131376   4.287   4.364   1.642 -1.5395  1.3767  0.6695
 6639SOL    HW231377   4.360   4.337   1.769 -0.9484 -2.7878  1.3226
 6640SOL     OW31378   0.298   1.799   8.346  0.2417  0.0262  0.1421
 6640SOL    HW131379   0.226   1.748   8.309  0.6183 -2.3451  2.6259
 6640SOL    HW231380   0.284   1.887   8.312 -1.2994  0.4977  1.9971
 6641SOL     OW31381   3.350   1.728   2.800 -0.0928  0.0236  0.3042
 6641SOL    HW131382   3.257   1.711   2.818 -0.0290 -0.2116  0.4121
 6641SOL    HW231383   3.359   1.696   2.710 -2.7618  0.0221  0.0385
 6642SOL     OW31384   1.299   1.275  11.661 -0.1699 -0.2086 -0.5683
 6642SOL    HW131385   1.349   1.252  11.740  1.6404  4.0277 -0.4697
 6642SOL    HW231386   1.229   1.211  11.670  1.1226 -1.0349  3.6891
 6643SOL     OW31387   3.604   1.924   6.993  0.8296 -0.3282  0.5544
 6643SOL    HW131388   3.597   1.903   6.899  0.7740 -2.6495  1.0687
 6643SOL    HW231389   3.551   2.002   7.007  0.7314  0.1663 -2.4877
 6644SOL     OW31390   1.670   1.629  11.189  0.4463  0.0215  0.5740
 6644SOL    HW131391   1.721   1.672  11.257  1.6614 -1.2879  0.4858
 6644SOL    HW231392   1.586   1.602  11.226  1.6087 -1.2309  2.2931
 6645SOL     OW31393   1.378   0.566  15.054 -0.9206 -0.0451 -0.5087
 6645SOL    HW131394   1.380   0.514  15.134  2.1294 -0.9729 -1.1731
 6645SOL    HW231395   1.286   0.557  15.029 -0.7848 -0.3778 -0.8963
 6646SOL     OW31396   4.328   1.583   7.863  0.8826  0.2745  0.4175
 6646SOL    HW131397   4.355   1.533   7.940  0.6923  0.6528  0.7320
 6646SOL    HW231398   4.234   1.567   7.864  1.5051 -3.2038  0.9814
 6647SOL     OW31399   1.072   2.844  16.757 -0.2528 -0.2508  0.5031
 6647SOL    HW131400   1.042   2.935  16.761  2.1097  0.4805  1.4725
 6647SOL    HW231401   1.002   2.804  16.808  0.4381 -1.7468  0.2669
 6648SOL     OW31402   3.820   1.149  10.188  0.2263 -0.3660 -0.1930
 6648SOL    HW131403   3.824   1.243  10.207  1.5245 -0.6316  0.7847
 6648SOL    HW231404   3.900   1.130  10.236  0.1070  2.9269  1.3034
 6649SOL     OW31405   3.491   0.505   1.655 -0.4238  0.4763 -0.1895
 6649SOL    HW131406   3.540   0.551   1.586  1.8344 -0.4376  0.7955
 6649SOL    HW231407   3.552   0.432   1.661 -0.1688  0.9011  2.1714
 6650SOL     OW31408   1.311   0.237   4.719  0.2052  0.0871  0.4372
 6650SOL    HW131409   1.348   0.149   4.706 -1.7799 -0.2630 -3.0623
 6650SOL    HW231410   1.322   0.238   4.814 -0.5359 -3.8168  0.5832
 6651SOL     OW31411   3.378   3.371  16.010  0.5200  0.1572  0.1551
 6651SOL    HW131412   3.436   3.385  15.935  0.2003 -4.4179 -0.9724
 6651SOL    HW231413   3.294   3.385  15.967 -0.1175 -2.1330  0.6410
 6652SOL     OW31414   1.222   2.856   3.791 -0.0713  0.5181 -0.5811
 6652SOL    HW131415   1.172   2.937   3.802 -0.8558 -0.0521  0.1394
 6652SOL    HW231416   1.229   2.847   3.696 -1.2590 -1.6778 -0.4669
 6653SOL     OW31417   1.469   1.095   2.698 -0.1571  0.3595  0.0989
 6653SOL    HW131418   1.531   1.032   2.735  0.6201 -1.0614 -3.5764
 6653SOL    HW231419   1.503   1.107   2.609 -0.7720 -0.2160 -0.2062
 6654SOL     OW31420   0.528   0.139  14.783 -0.0157  0.3541 -0.4124
 6654SOL    HW131421   0.543   0.096  14.699  1.7173 -0.1569  0.1612
 6654SOL    HW231422   0.600   0.112  14.840  0.4457 -0.7317 -1.5038
 6655SOL     OW31423   3.711   4.124   1.670  0.0151  0.1260  0.0845
 6655SOL    HW131424   3.733   4.192   1.734 -0.5691 -0.1714  0.5993
 6655SOL    HW231425   3.772   4.133   1.597  3.5157 -0.3339  2.9358
 6656SOL     OW31426   0.191   2.261   2.720  0.0086 -0.8444 -0.2873
 6656SOL    HW131427   0.167   2.203   2.648 -3.1963  0.0050  0.1343
 6656SOL    HW231428   0.164   2.344   2.681  0.9508  0.5847  2.1286
 6657SOL     OW31429   1.954   0.153   0.038 -0.0736  0.2294  0.2357
 6657SOL    HW131430   1.916   0.127   0.122 -0.7087 -0.2509 -0.1975
 6657SOL    HW231431   2.044   0.127   0.055 -0.1342 -0.4597 -0.5199
 6658SOL     OW31432   3.266   4.599   6.537 -0.2339 -0.5969  0.0252
 6658SOL    HW131433   3.329   4.650   6.486  0.5845 -1.5966  0.0405
 6658SOL    HW231434   3.237   4.533   6.474 -0.4024 -2.0797  1.6684
 6659SOL     OW31435   2.777   2.098   6.624 -0.1481 -0.5582 -0.6675
 6659SOL    HW131436   2.686   2.109   6.652 -0.8466 -0.4567 -3.0487
 6659SOL    HW231437   2.756   2.035   6.555 -0.7125 -0.9601 -0.1357
 6660SOL     OW31438   3.358   2.303  15.461  0.0204  0.0574  0.0080
 6660SOL    HW131439   3.272   2.333  15.432 -1.4436 -2.7055  1.4595
 6660SOL    HW231440   3.397   2.249  15.392  0.8859  0.8422 -0.1235
 6661SOL     OW31441   3.049   1.949   6.472  0.4488  0.2231 -0.2662
 6661SOL    HW131442   3.092   2.028   6.439  1.4305 -0.7257 -1.2566
 6661SOL    HW231443   2.960   1.960   6.439  0.1137  0.8555  0.8409
 6662SOL     OW31444   3.106   3.578  11.648  0.2071 -0.7683 -0.2707
 6662SOL    HW131445   3.133   3.495  11.687 -1.0305 -0.6038  0.9599
 6662SOL    HW231446   3.140   3.636  11.716 -1.2794  0.8729 -0.9347
 6663SOL     OW31447   2.315   3.597  13.644 -0.1782 -0.2015 -0.0347
 6663SOL    HW131448   2.389   3.540  13.662 -0.6448 -0.1763  1.9333
 6663SOL    HW231449   2.363   3.679  13.635 -0.1571  0.0275  2.1990
 6664SOL     OW31450   4.173   4.357   6.242  0.0808  0.5540 -0.1756
 6664SOL    HW131451   4.142   4.339   6.153 -1.8506 -0.4002  0.6949
 6664SOL    HW231452   4.247   4.296   6.243  0.1393  0.6373  0.3911
 6665SOL     OW31453   3.136   0.266   0.024  0.0731  0.0337 -0.0951
 6665SOL    HW131454   3.049   0.302   0.010  0.2372 -0.4870 -2.6256
 6665SOL    HW231455   3.153   0.225  17.619 -0.8238  0.4240 -0.4542
 6666SOL     OW31456   3.157   0.392   8.512 -0.0314 -0.1470 -0.7351
 6666SOL    HW131457   3.113   0.313   8.544  0.6252 -0.8427 -1.5578
 6666SOL    HW231458   3.087   0.456   8.505 -0.2159 -0.3671 -0.9163
 6667SOL     OW31459   4.583   3.717   9.679  0.0110 -0.4033 -0.1343
 6667SOL    HW131460   4.669   3.732   9.718  0.3233  0.4965 -1.1745
 6667SOL    HW231461   4.586   3.621   9.672  2.5161 -0.3032 -0.0986
 6668SOL     OW31462   2.079   3.808   7.790 -0.4896 -0.2117 -0.5837
 6668SOL    HW131463   2.163   3.771   7.766  0.2526  1.4581 -0.5647
 6668SOL    HW231464   2.048   3.846   7.707 -2.5251  0.5901  0.5255
 6669SOL     OW31465   1.786   2.775   7.700  0.6424  0.0362 -0.4268
 6669SOL    HW131466   1.833   2.818   7.771  0.6616  1.5390 -1.3603
 6669SOL    HW231467   1.697   2.794   7.729  1.5354  1.9653  1.0138
 6670SOL     OW31468   3.730   4.072   3.858 -0.2646  0.1214  0.2632
 6670SOL    HW131469   3.665   4.126   3.904 -0.5039 -0.7460  0.9580
 6670SOL    HW231470   3.764   4.135   3.795 -0.9208 -0.4408 -0.6521
 6671SOL     OW31471   3.248   0.996  12.188  0.8327  0.4304  0.4520
 6671SOL    HW131472   3.245   0.977  12.094  0.3378  0.1456  0.5254
 6671SOL    HW231473   3.332   1.040  12.198  0.2489  1.9842 -1.4476
 6672SOL     OW31474   2.658   0.846   1.583  0.1561 -0.3903  0.2398
 6672SOL    HW131475   2.671   0.765   1.533  1.2625 -0.1747  0.1741
 6672SOL    HW231476   2.565   0.837   1.602  0.7636 -0.1801  3.3255
 6673SOL     OW31477   1.860   4.090   4.869 -0.5153 -0.3245  0.3346
 6673SOL    HW131478   1.885   4.147   4.942 -1.2653  0.5700 -0.1160
 6673SOL    HW231479   1.830   4.157   4.808  1.3160  0.3819  0.2066
 6674SOL     OW31480   2.995   3.222   5.151 -0.1366 -0.3473  0.3328
 6674SOL    HW131481   2.929   3.205   5.084  1.2670  1.2847 -1.4500
 6674SOL    HW231482   3.056   3.271   5.096  2.9493 -1.2097  3.0038
 6675SOL     OW31483   2.278   4.629   5.374  0.1355  0.4351 -0.0196
 6675SOL    HW131484   2.346   4.600   5.435 -1.0976 -0.4529  0.9430
 6675SOL    HW231485   2.203   4.620   5.433  1.2243  1.0093  1.4656
 6676SOL     OW31486   0.816   0.479   7.257  0.9185 -0.1937  0.5017
 6676SOL    HW131487   0.876   0.505   7.327 -1.1476  2.1619  1.3997
 6676SOL    HW231488   0.853   0.403   7.212  0.6815  0.3683 -0.6430
 6677SOL     OW31489   3.467   0.765   4.588 -0.1303 -0.2948 -0.3989
 6677SOL    HW131490   3.375   0.758   4.615 -1.0500  0.8828 -3.1968
 6677SOL    HW231491   3.454   0.816   4.508 -2.7484  0.6954  0.6565
 6678SOL     OW31492   1.441   2.779   6.007  0.0528 -0.4197  0.1859
 6678SOL    HW131493   1.367   2.730   5.971  0.7848 -0.5405 -1.1345
 6678SOL    HW231494   1.511   2.751   5.948  2.7359 -0.3817  3.3607
 6679SOL     OW31495   1.663   0.028   8.509 -0.4046 -0.0471  0.3835
 6679SOL    HW131496   1.750   4.710   8.494 -0.2628  0.9699 -1.4262
 6679SOL    HW231497   1.601   4.699   8.455 -0.9948 -0.1420  1.1511
 6680SOL     OW31498   0.904   1.483   0.362  0.1280  0.1595 -0.0802
 6680SOL    HW131499   0.923   1.565   0.407  0.4346  0.4149 -0.6749
 6680SOL    HW231500   0.986   1.435   0.365 -0.3034 -0.6533 -1.2818
 6681SOL     OW31501   0.550   1.981  10.737  0.4605 -0.4753  0.2870
 6681SOL    HW131502   0.554   1.980  10.833  2.4459  1.1471  0.2354
 6681SOL    HW231503   0.458   1.960  10.725  0.9244 -2.4208 -0.0102
 6682SOL     OW31504   0.858   3.631   6.630  0.3207 -0.3451  0.9500
 6682SOL    HW131505   0.768   3.649   6.657 -0.2291  0.5871 -1.4640
 6682SOL    HW231506   0.907   3.673   6.701  0.8161 -0.4592  0.6796
 6683SOL     OW31507   4.461   4.056  10.950 -0.3008  0.0047 -0.3437
 6683SOL    HW131508   4.497   3.975  10.913  1.9201  0.9573 -0.2302
 6683SOL    HW231509   4.494   4.038  11.038 -1.3428 -0.3711 -0.0176
 6684SOL     OW31510   3.934   4.531   4.979 -0.6525 -0.0063  0.1480
 6684SOL    HW131511   3.959   4.456   5.033 -0.1425  0.9096  1.1934
 6684SOL    HW231512   3.928   4.486   4.895 -0.6722 -0.6157  0.4785
 6685SOL     OW31513   0.036   1.918   4.545  0.8581 -0.3188  0.4524
 6685SOL    HW131514   0.075   2.002   4.567  0.0431 -0.2472  1.6615
 6685SOL    HW231515   0.101   1.876   4.489  1.5505  1.1183  0.1996
 6686SOL     OW31516   4.620   3.935   5.189 -0.4326  0.2366  0.8074
 6686SOL    HW131517   4.529   3.909   5.201 -0.5344  0.0638 -0.3399
 6686SOL    HW231518   4.647   3.922   5.098  1.6562 -1.3465  1.6353
 6687SOL     OW31519   0.601   2.225  14.147 -0.0027  0.3144 -0.1719
 6687SOL    HW131520   0.550   2.303  14.125 -0.6533 -0.1003 -0.1453
 6687SOL    HW231521   0.576   2.222  14.240 -1.7237  0.6985 -0.6282
 6688SOL     OW31522   4.203   2.921   2.337  0.6904  0.1469 -0.2418
 6688SOL    HW131523   4.246   2.835   2.342  0.0721 -0.0624  1.4107
 6688SOL    HW231524   4.246   2.961   2.262 -1.2881  0.0686 -1.4014
 6689SOL     OW31525   0.244   0.796   0.655 -0.2182 -0.4602 -0.3407
 6689SOL    HW131526   0.318   0.794   0.593  0.3733  1.2589  0.2991
 6689SOL    HW231527   0.298   0.755   0.723  1.2696  1.5862 -0.2955
 6690SOL     OW31528   4.231   0.721   8.691  0.1856  0.6197 -0.4052
 6690SOL    HW131529   4.179   0.796   8.719  0.5328  0.7180 -0.0249
 6690SOL    HW231530   4.187   0.647   8.735 -0.9696  0.9649 -0.9961
 6691SOL     OW31531   3.204   2.426   8.274  0.1300  1.1415 -0.3605
 6691SOL    HW131532   3.127   2.479   8.297  0.5818  1.4404  0.4539
 6691SOL    HW231533   3.236   2.405   8.361  0.6036 -2.5035 -1.4034
 6692SOL     OW31534   4.452   1.465   8.579  0.4058 -0.4923  0.0235
 6692SOL    HW131535   4.514   1.398   8.550 -0.3606 -1.5015  0.7397
 6692SOL    HW231536   4.408   1.406   8.639  0.8182  0.5071  1.2981
 6693SOL     OW31537   1.242   2.628   2.434  0.3162 -0.3278 -0.5950
 6693SOL    HW131538   1.284   2.550   2.397 -0.9997 -1.9153  1.2691
 6693SOL    HW231539   1.284   2.695   2.380  0.0231  0.4740  0.1858
 6694SOL     OW31540   3.648   2.608  10.080  0.2708 -0.5638 -0.3812
 6694SOL    HW131541   3.675   2.576  10.166  1.8169 -1.8541 -1.3321
 6694SOL    HW231542   3.574   2.550  10.060 -0.5330 -0.0839  1.2229
 6695SOL     OW31543   2.402   0.321   4.965 -0.1166 -0.1814  0.2906
 6695SOL    HW131544   2.447   0.286   4.888 -4.3416 -1.5174 -1.6059
 6695SOL    HW231545   2.476   0.375   4.993 -0.0248  0.1236 -0.5180
 6696SOL     OW31546   2.049   2.987   2.154 -0.1600  0.3058 -0.0190
 6696SOL    HW131547   2.125   3.045   2.146 -0.2286  0.3683 -0.2224
 6696SOL    HW231548   2.084   2.913   2.105 -0.2610 -0.7338  1.5056
 6697SOL     OW31549   2.326   4.066   0.889  0.4235  0.0912  0.3513
 6697SOL    HW131550   2.262   4.086   0.820  0.7213 -0.9521 -0.2235
 6697SOL    HW231551   2.343   3.973   0.876  1.6706  0.4441 -0.5559
 6698SOL     OW31552   2.372   1.875   7.779 -0.2510 -0.1621  0.4257
 6698SOL    HW131553   2.286   1.877   7.821  0.6544  2.3590  2.1792
 6698SOL    HW231554   2.360   1.798   7.723  0.1775 -0.8228  1.2457
 6699SOL     OW31555   4.323   2.249   3.264 -0.4492 -0.1199  0.3852
 6699SOL    HW131556   4.278   2.320   3.310  0.8182  0.3073  0.9760
 6699SOL    HW231557   4.284   2.170   3.300 -2.8410  1.2391  0.7772
 6700SOL     OW31558   0.637   2.861   1.402  0.2395  0.0615  0.4067
 6700SOL    HW131559   0.599   2.945   1.426 -1.8368 -0.6492 -0.3596
 6700SOL    HW231560   0.728   2.885   1.385  0.0950  0.7601  0.6429
 6701SOL     OW31561   2.659   2.832   5.535  0.6002 -0.3710 -0.5350
 6701SOL    HW131562   2.750   2.855   5.553 -0.1923  1.4676  1.1384
 6701SOL    HW231563   2.622   2.865   5.617  0.0468  0.6844 -1.2011
 6702SOL     OW31564   2.783   1.291   0.644  0.1438  0.2176  0.3381
 6702SOL    HW131565   2.803   1.292   0.737 -1.5160 -2.3604  0.7339
 6702SOL    HW231566   2.757   1.199   0.631  0.1675  0.1740  0.5974
 6703SOL     OW31567   1.729   1.526   3.037 -0.3498  0.4746 -0.2404
 6703SOL    HW131568   1.650   1.502   3.086  1.2754 -3.8568  0.2910
 6703SOL    HW231569   1.723   1.477   2.955 -1.9584  1.3048 -0.6146
 6704SOL     OW31570   3.820   3.495   4.162 -0.4280  0.1665 -0.4673
 6704SOL    HW131571   3.759   3.550   4.114 -0.6401  0.8036  0.5292
 6704SOL    HW231572   3.766   3.416   4.163  2.2511 -1.6513 -0.4263
 6705SOL     OW31573   1.285   4.441  11.256  0.1152 -0.0332  0.2832
 6705SOL    HW131574   1.253   4.530  11.275  0.8104  0.6424 -1.6551
 6705SOL    HW231575   1.312   4.453  11.165 -1.6561  2.1917  0.0379
 6706SOL     OW31576   4.040   3.601   4.723  0.2081 -0.1346 -0.1608
 6706SOL    HW131577   4.074   3.550   4.796  0.3463 -0.4132 -0.4206
 6706SOL    HW231578   4.090   3.681   4.739 -0.6033  0.5223 -0.8575
 6707SOL     OW31579   4.498   4.603   6.758 -0.1538  0.4464  0.3945
 6707SOL    HW131580   4.519   4.688   6.795 -1.1438  0.9216 -0.1291
 6707SOL    HW231581   4.442   4.574   6.830 -0.8977 -0.1735 -0.4347
 6708SOL     OW31582   3.645   0.873  14.689 -0.6452  0.3873 -0.1567
 6708SOL    HW131583   3.645   0.823  14.770  0.6699  0.2615 -0.2343
 6708SOL    HW231584   3.568   0.928  14.701  0.2739  1.6873 -0.2795
 6709SOL     OW31585   2.272   0.330  11.427  0.6254 -0.0821  0.0673
 6709SOL    HW131586   2.320   0.262  11.380  3.0371  0.7413  1.2845
 6709SOL    HW231587   2.180   0.306  11.429  1.1440 -1.7993  2.7962
 6710SOL     OW31588   2.317   1.644   5.079  0.3454 -0.0674 -0.1811
 6710SOL    HW131589   2.288   1.570   5.132  0.1545 -0.7174 -1.1869
 6710SOL    HW231590   2.236   1.694   5.069  0.1812 -0.3940 -0.4779
 6711SOL     OW31591   3.584   4.292   3.043  0.6426 -0.2751  0.0495
 6711SOL    HW131592   3.598   4.212   2.991  2.9008  0.5633 -0.6506
 6711SOL    HW231593   3.635   4.269   3.121  2.5684  1.9588 -0.5347
 6712SOL     OW31594   2.247   1.436   8.251 -0.3818  0.6379 -0.0762
 6712SOL    HW131595   2.273   1.518   8.294 -0.2316  1.2388 -1.3242
 6712SOL    HW231596   2.172   1.406   8.301 -0.7957  0.0124 -1.0834
 6713SOL     OW31597   3.280   0.756  10.317  0.7826 -0.0237  0.7791
 6713SOL    HW131598   3.256   0.740  10.226  0.9649 -0.6405  0.8396
 6713SOL    HW231599   3.204   0.807  10.344 -0.0315 -0.6345 -0.3430
 6714SOL     OW31600   1.988   2.035   4.451  0.2218  0.0736  0.0104
 6714SOL    HW131601   1.914   2.048   4.511  0.2859 -1.8081  0.4724
 6714SOL    HW231602   1.998   2.124   4.417 -0.0375  0.2273  0.3280
 6715SOL     OW31603   3.162   0.299   6.326  0.3606  0.3477 -0.5980
 6715SOL    HW131604   3.140   0.305   6.420  0.7211 -1.6762 -0.3860
 6715SOL    HW231605   3.248   0.338   6.310  0.0665  1.6966  1.0692
 6716SOL     OW31606   0.634   1.688   2.827 -0.3357 -0.2149 -0.4924
 6716SOL    HW131607   0.649   1.673   2.734 -3.0237  0.4147 -1.0271
 6716SOL    HW231608   0.541   1.670   2.837  0.2147 -1.3056  2.7325
 6717SOL     OW31609   4.002   0.782   7.888  0.4840 -0.3014  0.3663
 6717SOL    HW131610   3.937   0.786   7.818 -0.7454  0.7625  1.5631
 6717SOL    HW231611   4.016   0.688   7.894 -0.5270 -0.4953 -0.4826
 6718SOL     OW31612   1.548   3.452  15.750  0.1455  0.5373 -1.0455
 6718SOL    HW131613   1.459   3.460  15.785  0.7336 -0.9056  0.7815
 6718SOL    HW231614   1.592   3.381  15.798  2.0070  2.0996 -0.4672
 6719SOL     OW31615   3.915   3.823  15.644  0.4473  0.5438  0.0011
 6719SOL    HW131616   3.989   3.878  15.671 -0.2761  1.6806 -0.3367
 6719SOL    HW231617   3.922   3.753  15.709  0.1081 -0.4941 -1.0833
 6720SOL     OW31618   1.021   4.352   0.734  0.3253  0.1746  0.5288
 6720SOL    HW131619   1.112   4.356   0.704  0.0881  1.4901 -0.0398
 6720SOL    HW231620   1.000   4.259   0.730  2.0833 -0.2233  0.3833
 6721SOL     OW31621   1.149   0.262  16.900 -0.1039 -0.3182  0.3758
 6721SOL    HW131622   1.101   0.316  16.837  0.9527 -0.8657 -0.9217
 6721SOL    HW231623   1.189   0.330  16.954  0.8158  0.8982 -1.8114
 6722SOL     OW31624   4.210   0.474   9.583  0.1324  0.0316  0.0397
 6722SOL    HW131625   4.116   0.479   9.562  0.0846  3.5978  1.2411
 6722SOL    HW231626   4.247   0.535   9.520  1.9790 -0.3660  0.7490
 6723SOL     OW31627   0.806   4.042  16.996 -0.0683  0.2918  0.0888
 6723SOL    HW131628   0.836   3.974  16.935 -0.7736  0.7992 -0.8123
 6723SOL    HW231629   0.880   4.043  17.057  0.4477 -1.7198 -0.4972
 6724SOL     OW31630   2.399   0.748   7.200  0.1938 -0.3702 -0.0984
 6724SOL    HW131631   2.450   0.778   7.125 -0.7452  0.4975 -0.3823
 6724SOL    HW231632   2.350   0.678   7.157 -0.2266  0.2989 -0.6955
 6725SOL     OW31633   1.804   1.499  12.772  0.0386  0.0587  0.4103
 6725SOL    HW131634   1.792   1.562  12.844  1.2558 -1.1959  1.7119
 6725SOL    HW231635   1.884   1.459  12.807  0.6854  2.1464  1.3869
 6726SOL     OW31636   3.585   2.036   5.070  0.2003  0.2317  0.0114
 6726SOL    HW131637   3.506   2.053   5.121  0.3864 -0.3441  0.4990
 6726SOL    HW231638   3.629   2.119   5.086 -0.7700  0.6487  0.4874
 6727SOL     OW31639   1.918   4.056  10.311 -0.1493 -0.3988  0.2655
 6727SOL    HW131640   1.965   4.088  10.234  2.0956 -1.5354  1.1786
 6727SOL    HW231641   1.944   3.964  10.307 -1.0295 -0.6173 -0.4478
 6728SOL     OW31642   1.911   4.427  17.603 -0.1975  0.5038  0.1980
 6728SOL    HW131643   1.850   4.375  17.550  1.1511  0.3533 -1.1980
 6728SOL    HW231644   1.996   4.404  17.567  0.2414  0.3009  1.3841
 6729SOL     OW31645   4.323   1.476  12.965 -0.0752 -0.8640 -0.3431
 6729SOL    HW131646   4.358   1.388  12.951 -0.1080 -1.4190  3.0720
 6729SOL    HW231647   4.403   1.527  12.952 -0.0863  0.2150  3.8593
 6730SOL     OW31648   4.098   1.592   1.772 -0.1105 -0.0465 -0.3357
 6730SOL    HW131649   4.043   1.569   1.697  1.5769  0.3273 -1.6971
 6730SOL    HW231650   4.118   1.685   1.757  3.2667 -0.9420 -1.5170
 6731SOL     OW31651   3.725   1.808   5.154 -0.0294 -0.8750 -0.3950
 6731SOL    HW131652   3.711   1.895   5.115  3.0019  0.8554  2.3412
 6731SOL    HW231653   3.639   1.773   5.132 -1.2692  1.9481 -0.1135
 6732SOL     OW31654   0.985   2.660   9.062  0.2955 -0.0706  0.0929
 6732SOL    HW131655   0.947   2.595   9.121  0.6914 -1.4172 -1.1161
 6732SOL    HW231656   1.011   2.736   9.113  0.3492  0.1852 -0.3184
 6733SOL     OW31657   1.739   2.155   0.352 -0.2455 -0.4570  0.0241
 6733SOL    HW131658   1.682   2.232   0.357  0.1746  0.0139 -2.5002
 6733SOL    HW231659   1.673   2.092   0.323 -2.5459  0.7547  2.5988
 6734SOL     OW31660   0.646   3.577  12.577 -0.8060 -0.0631  0.2162
 6734SOL    HW131661   0.610   3.494  12.607  0.2219 -0.3775  0.5879
 6734SOL    HW231662   0.564   3.625  12.578 -0.9002 -0.2313  0.3991
 6735SOL     OW31663   1.135   0.474  12.248 -0.5001 -0.0266  0.5417
 6735SOL    HW131664   1.123   0.385  12.281  1.9768 -1.5976 -2.7758
 6735SOL    HW231665   1.173   0.525  12.320 -1.8868  1.9616 -0.1282
 6736SOL     OW31666   0.332   4.258  17.106 -0.7435 -0.6452  0.1572
 6736SOL    HW131667   0.292   4.238  17.021  1.1403 -3.0796 -0.1744
 6736SOL    HW231668   0.409   4.202  17.107 -0.4770 -0.2730  0.4872
 6737SOL     OW31669   0.592   2.562  15.373  0.0132 -0.4955 -0.5443
 6737SOL    HW131670   0.620   2.579  15.283  1.2356  2.4662  0.4282
 6737SOL    HW231671   0.512   2.614  15.376  0.9537  0.8632  0.7076
 6738SOL     OW31672   1.306   1.638   2.941 -0.0206  0.2469  0.7109
 6738SOL    HW131673   1.244   1.593   2.883 -0.3954  2.2331 -0.4074
 6738SOL    HW231674   1.380   1.663   2.886 -0.5572  0.7629  0.2278
 6739SOL     OW31675   0.604   0.704   2.240  0.0164  0.1382  0.4434
 6739SOL    HW131676   0.655   0.625   2.258 -1.8739 -1.1974 -0.1683
 6739SOL    HW231677   0.573   0.727   2.328  0.0775  0.2665  0.4310
 6740SOL     OW31678   4.686   3.800   2.599  0.1713  0.2481 -0.0487
 6740SOL    HW131679   0.032   3.776   2.534 -0.6217  1.6788 -1.3838
 6740SOL    HW231680   4.687   3.896   2.589 -0.0347  0.3114  0.5278
 6741SOL     OW31681   2.238   0.606   9.400 -0.2660  0.2276  1.0183
 6741SOL    HW131682   2.281   0.554   9.332  0.2190  1.8092  0.1234
 6741SOL    HW231683   2.147   0.581   9.385 -0.4764 -0.6947  3.8337
 6742SOL     OW31684   3.850   3.840  11.569 -0.4553  0.5606 -0.0879
 6742SOL    HW131685   3.867   3.928  11.535 -1.8676  0.1338 -1.8781
 6742SOL    HW231686   3.940   3.809  11.579 -0.2973  0.7606 -0.8936
 6743SOL     OW31687   2.486   2.788   8.146  0.4105  0.0074  0.0936
 6743SOL    HW131688   2.458   2.698   8.134  3.6224 -0.9307 -0.3574
 6743SOL    HW231689   2.521   2.807   8.059  0.3167  1.1211  0.2909
 6744SOL     OW31690   0.217   1.212  10.959 -0.2773 -0.1803 -0.5318
 6744SOL    HW131691   0.146   1.275  10.948  1.8987  2.0596 -1.5794
 6744SOL    HW231692   0.263   1.220  10.876 -1.7756  3.8071 -0.9562
 6745SOL     OW31693   2.352   2.690   5.592 -0.5345  0.1077  0.1025
 6745SOL    HW131694   2.293   2.646   5.653 -1.1343  0.4224 -0.2505
 6745SOL    HW231695   2.430   2.681   5.647 -0.7503 -0.0620  0.3803
 6746SOL     OW31696   4.512   0.664  13.316  0.9361  0.0299 -0.8257
 6746SOL    HW131697   4.558   0.737  13.276 -0.3200  0.9921 -0.5288
 6746SOL    HW231698   4.589   0.616  13.346 -1.3419 -3.0204  0.2352
 6747SOL     OW31699   3.930   2.829   9.628 -0.3637  0.4015  0.1140
 6747SOL    HW131700   3.895   2.910   9.590 -0.9937 -0.2748 -0.7486
 6747SOL    HW231701   3.890   2.774   9.561  2.3198  0.7392 -1.7737
 6748SOL     OW31702   3.245   4.383  14.126  0.5790  0.7159 -0.3834
 6748SOL    HW131703   3.261   4.331  14.047 -0.1667 -0.9997  0.5899
 6748SOL    HW231704   3.262   4.471  14.094  0.3859  0.5531 -0.9323
 6749SOL     OW31705   0.211   0.387   5.207  0.7481 -0.2810  0.4341
 6749SOL    HW131706   0.200   0.329   5.282  1.7900 -0.5194  0.4031
 6749SOL    HW231707   0.128   0.374   5.160 -0.2630  1.2634  1.8251
 6750SOL     OW31708   1.952   2.672   4.170 -0.2073  0.4610 -0.4960
 6750SOL    HW131709   1.972   2.604   4.105  0.3268  1.1644 -1.0672
 6750SOL    HW231710   1.909   2.613   4.232 -0.6648  0.5743 -0.7087
 6751SOL     OW31711   2.838   2.467   3.888 -0.1222  0.4293 -0.2862
 6751SOL    HW131712   2.855   2.392   3.830  0.4760 -0.6740  1.3249
 6751SOL    HW231713   2.927   2.484   3.918 -0.5139 -0.3028  1.2738
 6752SOL     OW31714   1.219   3.415   2.651 -0.2484 -0.3849  0.2078
 6752SOL    HW131715   1.240   3.383   2.563  0.3821  2.2451 -0.5874
 6752SOL    HW231716   1.189   3.500   2.619  1.5505 -0.3331 -1.3066
 6753SOL     OW31717   4.370   3.277   7.932 -0.1796  0.2691  0.0678
 6753SOL    HW131718   4.355   3.370   7.917 -0.7224  0.0641 -0.6254
 6753SOL    HW231719   4.313   3.241   7.865 -1.1113  0.2233  0.8810
 6754SOL     OW31720   2.850   2.312   4.962  0.1967  0.4818 -0.0819
 6754SOL    HW131721   2.837   2.253   5.036 -2.5942 -0.4477 -1.3174
 6754SOL    HW231722   2.851   2.252   4.888 -2.6685 -1.0953  1.1664
 6755SOL     OW31723   4.615   0.949  12.859  0.0128  0.5387 -0.4056
 6755SOL    HW131724   4.688   0.925  12.917 -0.2271  1.4425  0.2587
 6755SOL    HW231725   4.654   0.923  12.775 -2.6361 -0.5482 -1.3091
 6756SOL     OW31726   1.663   4.152   8.972 -0.0464 -0.1567  0.2006
 6756SOL    HW131727   1.702   4.224   9.021 -1.5936  1.4304 -0.9059
 6756SOL    HW231728   1.664   4.180   8.881 -1.7946  2.4661  1.0014
 6757SOL     OW31729   3.794   3.520   9.040  0.5614  0.0208 -0.4629
 6757SOL    HW131730   3.748   3.603   9.027 -1.9296 -1.7217 -2.8175
 6757SOL    HW231731   3.882   3.552   9.020  0.1344  1.0867 -0.6341
 6758SOL     OW31732   2.091   2.329  17.020 -0.1887  0.1371 -0.0667
 6758SOL    HW131733   2.100   2.234  17.029 -0.0988  0.3898  2.5143
 6758SOL    HW231734   2.070   2.341  16.928  0.8648  0.2715 -0.2935
 6759SOL     OW31735   1.018   2.489   0.421  0.1767  0.0264  0.2284
 6759SOL    HW131736   0.953   2.553   0.452  1.2811  2.3722 -2.3303
 6759SOL    HW231737   1.091   2.543   0.391  0.7235  1.1912  3.5353
 6760SOL     OW31738   4.470   1.127   8.006  0.0118  0.1210 -0.4096
 6760SOL    HW131739   4.526   1.054   7.982  1.5936  1.1430  0.1806
 6760SOL    HW231740   4.455   1.110   8.099 -0.4207 -0.4530 -0.5827
 6761SOL     OW31741   0.595   3.728   8.754 -0.2508  0.0218  0.3953
 6761SOL    HW131742   0.590   3.814   8.712 -2.3648 -1.6758 -2.8696
 6761SOL    HW231743   0.510   3.718   8.798 -0.5038 -1.7412 -0.4743
 6762SOL     OW31744   0.419   4.493  14.131 -0.3984  0.1861  0.4906
 6762SOL    HW131745   0.412   4.447  14.047 -0.3697  1.7932 -0.3905
 6762SOL    HW231746   0.335   4.539  14.130 -1.3831 -1.6096  0.1374
 6763SOL     OW31747   2.345   4.434   0.203  0.1550  0.5463 -0.1760
 6763SOL    HW131748   2.410   4.458   0.268 -0.7448 -0.2028  1.0069
 6763SOL    HW231749   2.264   4.428   0.254 -0.4545  1.0398 -1.0850
 6764SOL     OW31750   2.044   3.257  16.966 -0.1814 -0.2139 -0.1469
 6764SOL    HW131751   1.957   3.288  16.988  0.3714 -0.7590  2.8708
 6764SOL    HW231752   2.089   3.315  17.027  2.8025 -3.8622  1.1264
 6765SOL     OW31753   2.535   1.928  11.035  0.1120 -0.0622  0.2090
 6765SOL    HW131754   2.520   1.859  10.970  0.4502  0.4249 -0.3885
 6765SOL    HW231755   2.591   1.991  10.990 -1.5582 -1.0299 -3.2270
 6766SOL     OW31756   3.555   1.492  14.501 -0.4686 -0.2338  0.1075
 6766SOL    HW131757   3.466   1.461  14.482  0.5240 -3.1481  0.2577
 6766SOL    HW231758   3.563   1.488  14.596  0.4928  1.3169  0.1007
 6767SOL     OW31759   1.011   2.167  12.127 -0.0187 -0.5257 -1.3313
 6767SOL    HW131760   0.957   2.245  12.129 -0.0713 -0.6162  0.8905
 6767SOL    HW231761   0.979   2.131  12.045 -2.6858  0.0342 -0.5294
 6768SOL     OW31762   1.900   1.746   3.849 -0.0399  0.0385  0.2823
 6768SOL    HW131763   1.879   1.655   3.874 -0.2500 -0.2303 -0.8790
 6768SOL    HW231764   1.838   1.766   3.779  0.8740  3.2812  0.4041
 6769SOL     OW31765   3.470   3.627   2.566  0.0818  0.4040 -0.3489
 6769SOL    HW131766   3.535   3.560   2.590 -1.2378 -1.3396 -1.6054
 6769SOL    HW231767   3.388   3.581   2.586  0.4848  0.3452  1.2035
 6770SOL     OW31768   3.441   2.644   4.239  0.5348 -0.4179 -0.1190
 6770SOL    HW131769   3.374   2.688   4.186  0.8505  0.7054  0.3981
 6770SOL    HW231770   3.501   2.719   4.240 -3.7730  2.9361  3.8214
 6771SOL     OW31771   3.994   2.256  10.594  0.9399 -0.7149 -0.1296
 6771SOL    HW131772   4.075   2.222  10.633 -0.1184 -2.8277  0.2488
 6771SOL    HW231773   3.958   2.295  10.673 -2.0986 -1.0213 -1.3715
 6772SOL     OW31774   1.161   0.828   7.842 -0.1683 -0.3250 -0.1474
 6772SOL    HW131775   1.209   0.907   7.817 -1.2961  0.6093  0.6498
 6772SOL    HW231776   1.153   0.849   7.935 -1.2232  1.6655 -0.6823
 6773SOL     OW31777   3.248   0.139   3.012 -0.5836  0.7693 -0.2594
 6773SOL    HW131778   3.273   0.097   3.095 -1.9549  0.6579  0.0931
 6773SOL    HW231779   3.322   0.193   2.982 -0.4509  1.0535  0.5692
 6774SOL     OW31780   0.412   1.122   6.499 -0.1300 -0.3107  0.0535
 6774SOL    HW131781   0.340   1.076   6.542 -1.2055  1.6041  0.3239
 6774SOL    HW231782   0.472   1.104   6.571  1.6905 -1.0597 -1.6465
 6775SOL     OW31783   0.281   4.513  17.190 -0.3458  0.0906 -0.4861
 6775SOL    HW131784   0.189   4.526  17.167 -0.0063 -0.4142 -2.0981
 6775SOL    HW231785   0.300   4.420  17.178 -0.9762 -0.1599  0.4302
 6776SOL     OW31786   3.734   2.536  14.265  0.8145  0.2450 -0.0175
 6776SOL    HW131787   3.705   2.607  14.209 -0.0606  0.4481  0.6957
 6776SOL    HW231788   3.808   2.497  14.218 -1.0231 -2.9482 -0.2582
 6777SOL     OW31789   2.630   3.631   2.577  0.0216  0.0933  0.3742
 6777SOL    HW131790   2.691   3.597   2.511 -0.6661  0.5979 -0.5170
 6777SOL    HW231791   2.624   3.560   2.641  2.6540 -0.8595 -0.4362
 6778SOL     OW31792   1.977   3.416   4.548  0.4812 -0.1999 -0.1155
 6778SOL    HW131793   2.020   3.490   4.591 -1.0305  2.4587 -3.1128
 6778SOL    HW231794   1.885   3.430   4.573  1.1242  0.1105  2.0232
 6779SOL     OW31795   3.416   1.183   3.375  0.1826  0.8846 -0.5628
 6779SOL    HW131796   3.423   1.151   3.465 -0.7289  1.2405 -0.3580
 6779SOL    HW231797   3.327   1.161   3.347  0.5436  0.3594 -1.2860
 6780SOL     OW31798   2.375   4.307  15.465  0.4789 -0.6798  0.1990
 6780SOL    HW131799   2.344   4.260  15.387  2.5189  0.3377 -1.2266
 6780SOL    HW231800   2.303   4.366  15.484  0.9718  0.4801 -1.5472
 6781SOL     OW31801   3.927   3.686  17.624 -0.0199  0.4526  0.2458
 6781SOL    HW131802   3.893   3.689  17.534  0.9404  0.1014 -0.1241
 6781SOL    HW231803   3.935   3.592  17.636  1.5011  0.4246 -0.9708
 6782SOL     OW31804   2.901   4.465   3.046 -0.0337  0.3652  0.2553
 6782SOL    HW131805   2.898   4.553   3.008 -1.1671 -0.3946 -1.4114
 6782SOL    HW231806   2.962   4.425   2.985  0.4633 -0.7786  1.5051
 6783SOL     OW31807   3.061   1.073   7.545 -0.3649  0.0607  0.1608
 6783SOL    HW131808   3.028   1.163   7.537 -0.5084  0.1205  1.4082
 6783SOL    HW231809   3.152   1.076   7.576 -1.0786  2.7448  2.0598
 6784SOL     OW31810   1.785   3.143   6.990 -1.3705  0.6024 -0.3434
 6784SOL    HW131811   1.783   3.064   6.937  0.4022  0.3436 -0.0144
 6784SOL    HW231812   1.879   3.150   7.003 -1.7746  1.0624  2.3771
 6785SOL     OW31813   1.673   4.653  15.777 -0.5414  0.3927 -0.2890
 6785SOL    HW131814   1.582   4.657  15.806  0.2528 -0.9077  2.3532
 6785SOL    HW231815   1.704   0.023  15.796 -3.0003  0.7424  2.0678
 6786SOL     OW31816   2.490   0.924   6.590 -0.2301 -0.1034 -0.1670
 6786SOL    HW131817   2.558   0.989   6.574 -1.6684  1.2301 -0.8067
 6786SOL    HW231818   2.539   0.855   6.635 -0.9653  1.1162  2.4579
 6787SOL     OW31819   0.806   3.052   0.834  0.0928  0.4019  0.7013
 6787SOL    HW131820   0.854   3.131   0.808 -1.6792  0.8268 -1.2562
 6787SOL    HW231821   0.827   3.040   0.927  0.7872  1.1752  0.6489
 6788SOL     OW31822   3.602   2.133   2.682 -0.0049 -0.1510  1.1663
 6788SOL    HW131823   3.564   2.209   2.638  0.5813 -0.8716 -0.5633
 6788SOL    HW231824   3.531   2.070   2.668  1.4649 -1.4128 -0.6008
 6789SOL     OW31825   2.314   0.690   7.698 -0.0906 -0.0232  0.6859
 6789SOL    HW131826   2.320   0.678   7.603  1.1806  0.8663  0.6629
 6789SOL    HW231827   2.402   0.661   7.724  0.1574  0.8286  0.7842
 6790SOL     OW31828   0.421   0.557   7.483  0.3319  0.3024  0.2932
 6790SOL    HW131829   0.416   0.653   7.483  0.1183  0.2851  2.4194
 6790SOL    HW231830   0.395   0.541   7.574 -0.5596  0.9947  0.1565
 6791SOL     OW31831   2.899   1.010   1.604 -0.5349  0.8732 -0.5343
 6791SOL    HW131832   2.807   0.983   1.605 -0.4241  0.4922 -0.7843
 6791SOL    HW231833   2.933   0.942   1.546 -1.1965  0.1686 -0.1121
 6792SOL     OW31834   4.400   1.731   4.458  0.4319  0.1355  0.6941
 6792SOL    HW131835   4.442   1.670   4.398  2.8384  2.0802  0.4075
 6792SOL    HW231836   4.355   1.786   4.393  0.8845  0.1493  0.3920
 6793SOL     OW31837   3.188   3.866   4.461  0.4753 -0.4502 -0.0797
 6793SOL    HW131838   3.249   3.901   4.397 -0.5722 -1.4421 -1.6120
 6793SOL    HW231839   3.114   3.841   4.405 -0.7237  0.5470  1.0695
 6794SOL     OW31840   2.071   3.834   0.790 -0.0376  0.0411 -0.2640
 6794SOL    HW131841   2.061   3.776   0.715 -0.3482 -0.9106  0.5115
 6794SOL    HW231842   1.989   3.881   0.772  0.0310 -0.1102 -0.9516
 6795SOL     OW31843   2.101   4.358   0.334 -0.0729  0.1972  0.4474
 6795SOL    HW131844   2.112   4.393   0.422 -2.0688  0.8683  0.4220
 6795SOL    HW231845   2.008   4.378   0.320  0.0618  1.3675  1.3093
 6796SOL     OW31846   4.447   3.216  11.195 -0.6963 -0.6842  0.4629
 6796SOL    HW131847   4.504   3.236  11.121 -4.8048  1.1362 -2.2317
 6796SOL    HW231848   4.366   3.225  11.144  0.0695  3.9322 -0.0122
 6797SOL     OW31849   2.020   3.078   6.624 -0.0323 -0.5426  0.1197
 6797SOL    HW131850   1.944   3.098   6.570  0.5944  0.1927 -0.5027
 6797SOL    HW231851   2.038   2.994   6.582 -0.0228 -0.1744 -0.6202
 6798SOL     OW31852   1.870   4.069   2.527 -0.1911  0.0136  0.5208
 6798SOL    HW131853   1.947   4.081   2.471 -0.5002 -0.0191  0.0865
 6798SOL    HW231854   1.908   4.007   2.589 -1.5402 -1.1450  0.1948
 6799SOL     OW31855   3.588   0.917   6.581  0.3933 -0.3176 -0.1330
 6799SOL    HW131856   3.546   0.931   6.496  0.7100 -1.7452 -0.5274
 6799SOL    HW231857   3.674   0.949   6.553  0.7864 -1.1107  0.1691
 6800SOL     OW31858   0.681   3.851   5.474 -0.2074 -0.0632 -0.2586
 6800SOL    HW131859   0.711   3.913   5.407  1.2730 -0.6840 -0.1723
 6800SOL    HW231860   0.670   3.769   5.426  0.9637 -0.8101  0.7461
 6801SOL     OW31861   1.653   2.132   8.832  0.0003  0.2876 -0.2033
 6801SOL    HW131862   1.666   2.160   8.923 -1.5565  0.4735 -0.0323
 6801SOL    HW231863   1.612   2.046   8.843 -0.7018  0.5223 -1.0057
 6802SOL     OW31864   2.337   4.625   2.514  0.1837  0.1730  0.6785
 6802SOL    HW131865   2.332   4.559   2.583 -0.2135 -0.3204  0.1824
 6802SOL    HW231866   2.368   4.709   2.547 -1.1102  0.4869  1.0809
 6803SOL     OW31867   0.932   4.154  10.361  0.0957 -0.1344  0.1795
 6803SOL    HW131868   0.865   4.093  10.392 -0.7274  0.3704 -0.6067
 6803SOL    HW231869   0.882   4.236  10.366 -0.2490 -0.3792  0.7186
 6804SOL     OW31870   4.072   0.304   4.819  0.1598  0.1090 -0.2705
 6804SOL    HW131871   4.122   0.225   4.841  2.0908  1.5303  0.4154
 6804SOL    HW231872   3.992   0.296   4.871 -0.3689  2.1921 -0.7866
 6805SOL     OW31873   0.697   1.175   6.981  0.3058  0.3753 -0.4623
 6805SOL    HW131874   0.791   1.191   6.984  0.3931 -0.0778 -0.8155
 6805SOL    HW231875   0.676   1.179   7.074 -1.2975 -0.0601 -0.8094
 6806SOL     OW31876   1.405   0.473  17.194 -0.4856 -0.1838 -0.0792
 6806SOL    HW131877   1.353   0.494  17.116  0.8200 -0.6600 -1.0749
 6806SOL    HW231878   1.381   0.544  17.253 -0.6949 -1.1793  1.0401
 6807SOL     OW31879   2.446   3.245   6.576 -0.5757  0.2508  0.5932
 6807SOL    HW131880   2.469   3.271   6.487 -0.4740 -0.3213  0.4582
 6807SOL    HW231881   2.521   3.204   6.619 -0.8572 -0.9251 -0.0463
 6808SOL     OW31882   2.753   0.008  15.391 -0.4823 -0.2388  0.1690
 6808SOL    HW131883   2.698   0.066  15.339  0.7737  1.4470  0.7265
 6808SOL    HW231884   2.699   4.710  15.468  1.3939  0.6667  1.6865
 6809SOL     OW31885   0.215   4.100   2.833  0.2668  0.2788  0.1752
 6809SOL    HW131886   0.265   4.168   2.789 -1.4629  0.3146 -1.7547
 6809SOL    HW231887   0.151   4.079   2.765 -0.5977  1.1467  0.7254
 6810SOL     OW31888   0.243   1.857   1.936 -0.1431  0.8284 -0.0008
 6810SOL    HW131889   0.182   1.905   1.992 -0.8607  1.0257 -0.9439
 6810SOL    HW231890   0.187   1.787   1.902  1.5802 -1.8476  2.7187
 6811SOL     OW31891   3.822   4.684   1.666 -0.0507  0.3818 -0.7828
 6811SOL    HW131892   3.761   4.649   1.731  0.3611  0.8800 -0.1265
 6811SOL    HW231893   3.872   0.026   1.720 -3.3251  2.1097  0.2764
 6812SOL     OW31894   2.839   2.627   9.462 -0.1061  0.1812 -0.1432
 6812SOL    HW131895   2.892   2.604   9.538 -1.5149 -2.0316  0.1477
 6812SOL    HW231896   2.851   2.722   9.474 -1.1743  0.0450  1.9176
 6813SOL     OW31897   2.088   3.487   3.779  0.0572  0.2887 -0.2119
 6813SOL    HW131898   2.074   3.499   3.873 -1.1076 -0.3221 -0.3011
 6813SOL    HW231899   2.173   3.528   3.761  0.8962 -1.8032 -1.1230
 6814SOL     OW31900   3.485   4.274  16.570 -0.0217  0.1194 -0.4968
 6814SOL    HW131901   3.563   4.327  16.553 -0.0397 -0.7729 -3.3710
 6814SOL    HW231902   3.456   4.245  16.483  0.1965  0.3114 -0.6349
 6815SOL     OW31903   3.084   2.474  10.626  0.2273 -0.3355 -0.4443
 6815SOL    HW131904   3.089   2.561  10.587  0.5120 -0.3667 -0.4734
 6815SOL    HW231905   2.992   2.451  10.609 -0.5770  1.6278  1.3081
 6816SOL     OW31906   0.541   3.934  17.407 -0.0460 -0.2619  0.6055
 6816SOL    HW131907   0.471   3.918  17.470 -1.1716 -0.8692 -0.8053
 6816SOL    HW231908   0.591   3.999  17.457 -0.7262 -0.0270  0.9840
 6817SOL     OW31909   2.766   1.560  11.399  0.4967 -0.6620 -0.2584
 6817SOL    HW131910   2.676   1.587  11.380  0.1670 -1.0938  0.6631
 6817SOL    HW231911   2.773   1.502  11.324  1.3146 -0.9856  0.0703
 6818SOL     OW31912   0.647   2.352  14.661 -0.0103  0.1067 -0.9572
 6818SOL    HW131913   0.564   2.304  14.654  0.2794 -0.3676 -1.1935
 6818SOL    HW231914   0.690   2.300  14.729  0.9750  1.9030 -0.2133
 6819SOL     OW31915   4.147   4.609   7.641  0.1141 -0.6883  0.0175
 6819SOL    HW131916   4.058   4.590   7.612 -0.2282  1.5677 -0.4266
 6819SOL    HW231917   4.176   4.519   7.655 -0.0928 -0.7963 -0.2532
 6820SOL     OW31918   2.338   3.361   7.630 -0.6521 -0.6801 -0.1378
 6820SOL    HW131919   2.389   3.293   7.587 -1.0513 -0.4851 -0.9202
 6820SOL    HW231920   2.275   3.394   7.567  0.1976  1.7597  0.2973
 6821SOL     OW31921   0.384   1.092   1.086  0.5392 -0.4317  0.7696
 6821SOL    HW131922   0.294   1.063   1.100 -0.0828  0.9907 -0.3025
 6821SOL    HW231923   0.399   1.161   1.151  2.7352  0.2774 -0.5003
 6822SOL     OW31924   4.716   3.143   5.542 -0.8761 -0.3124 -0.4182
 6822SOL    HW131925   4.660   3.105   5.610 -1.0426  1.4675  0.4281
 6822SOL    HW231926   0.022   3.224   5.586  1.8445 -1.5390  0.2910
 6823SOL     OW31927   2.682   3.598   8.398  0.6379  0.4469  0.2773
 6823SOL    HW131928   2.696   3.693   8.398 -0.5809  0.6283 -0.6310
 6823SOL    HW231929   2.729   3.563   8.323  2.2053  0.9988  1.0006
 6824SOL     OW31930   3.518   3.902  14.397 -0.6382 -0.7123  0.8463
 6824SOL    HW131931   3.547   3.815  14.369  0.9934 -0.1545  0.8471
 6824SOL    HW231932   3.591   3.924  14.455 -0.5372  0.6311  0.2021
 6825SOL     OW31933   3.875   0.077   2.594  0.1322 -0.1080 -0.2413
 6825SOL    HW131934   3.907   4.717   2.637  1.6498  0.6466  0.0224
 6825SOL    HW231935   3.950   0.110   2.546  0.6143 -1.9722 -0.7289
 6826SOL     OW31936   1.913   0.673  12.054  0.1258 -0.4926 -0.1546
 6826SOL    HW131937   1.845   0.728  12.013 -0.3104 -1.1826 -0.3552
 6826SOL    HW231938   1.935   0.708  12.140  0.4212 -0.4939 -0.2313
 6827SOL     OW31939   4.574   2.011   5.732  0.3597  0.1810  0.0679
 6827SOL    HW131940   4.523   2.027   5.812  0.7710  1.1637  0.1354
 6827SOL    HW231941   4.506   1.989   5.668 -0.2818 -2.7378  1.7575
 6828SOL     OW31942   3.708   2.829   3.084  0.2256 -0.2522  0.0240
 6828SOL    HW131943   3.713   2.755   3.144  4.2047  0.3436  0.4442
 6828SOL    HW231944   3.781   2.818   3.024 -1.1617  0.5689 -1.8150
 6829SOL     OW31945   1.403   3.318   4.654  0.1827  0.5042  0.2113
 6829SOL    HW131946   1.474   3.283   4.600 -1.4547  0.4302 -1.9130
 6829SOL    HW231947   1.347   3.337   4.579 -0.7848 -1.1512  0.5055
 6830SOL     OW31948   4.269   0.435   8.333 -0.0339 -0.0062  0.2655
 6830SOL    HW131949   4.177   0.411   8.344 -0.8877  2.9749 -0.3640
 6830SOL    HW231950   4.289   0.463   8.423 -2.7202  1.0584  0.5239
 6831SOL     OW31951   3.715   3.942   8.958 -0.0407 -0.1427 -0.6961
 6831SOL    HW131952   3.709   3.876   8.888  0.8300  0.3391 -1.2224
 6831SOL    HW231953   3.793   3.991   8.935  0.8014 -1.4088 -0.5423
 6832SOL     OW31954   2.671   3.077   5.252  0.5015  0.2294 -0.1788
 6832SOL    HW131955   2.688   3.168   5.228  2.2286 -0.3378 -1.1307
 6832SOL    HW231956   2.584   3.073   5.213  0.4554 -0.3758 -0.0218
 6833SOL     OW31957   3.367   4.684  16.472  0.0249 -0.0911 -0.1578
 6833SOL    HW131958   3.317   0.037  16.508  1.8895 -0.1988  2.6336
 6833SOL    HW231959   3.425   4.681  16.548 -2.1264  1.5760  1.5388
 6834SOL     OW31960   1.073   0.617   2.028  0.5651  0.4144  0.0900
 6834SOL    HW131961   1.044   0.689   2.084 -0.8177 -0.5994  0.6874
 6834SOL    HW231962   1.047   0.550   2.092 -0.1950  1.2774  0.6812
 6835SOL     OW31963   0.468   0.263   2.595 -0.2365 -0.6293 -0.0524
 6835SOL    HW131964   0.519   0.271   2.515  1.3087 -1.9983  0.8107
 6835SOL    HW231965   0.389   0.302   2.558 -0.0239  0.4262  0.6170
 6836SOL     OW31966   4.186   2.916   4.720  0.0146  0.0018  0.0659
 6836SOL    HW131967   4.232   3.000   4.718 -1.6101  0.8602 -1.6482
 6836SOL    HW231968   4.109   2.929   4.664  0.8676 -2.2437 -1.5873
 6837SOL     OW31969   3.433   2.453   5.451 -0.1353  0.1220  0.0231
 6837SOL    HW131970   3.432   2.358   5.465  0.4943  0.6589  3.6150
 6837SOL    HW231971   3.342   2.475   5.471 -0.6719 -1.1264 -1.0442
 6838SOL     OW31972   2.572   2.529   7.806 -1.0879 -0.3156  0.2430
 6838SOL    HW131973   2.591   2.455   7.863 -0.4307  1.4032  2.2567
 6838SOL    HW231974   2.561   2.590   7.878 -2.5868  1.2195 -1.2883
 6839SOL     OW31975   0.683   0.681  12.208  0.5613  0.1882  0.5766
 6839SOL    HW131976   0.751   0.654  12.270  3.1443  0.7527 -1.9966
 6839SOL    HW231977   0.612   0.704  12.267  1.6945 -0.2685  2.1110
 6840SOL     OW31978   1.022   3.455   3.153  0.2946  0.0571  0.1133
 6840SOL    HW131979   1.089   3.448   3.221 -0.4004  0.9831  0.8970
 6840SOL    HW231980   1.015   3.548   3.134  0.2113 -0.3429 -1.7889
 6841SOL     OW31981   2.873   2.891  10.077  0.8233  0.0624  0.1532
 6841SOL    HW131982   2.874   2.962  10.142  0.1333 -0.7971  1.1029
 6841SOL    HW231983   2.896   2.937   9.996  1.5846  0.2416  0.4690
 6842SOL     OW31984   2.390   4.146  11.376 -0.6199  0.0798 -0.3862
 6842SOL    HW131985   2.362   4.234  11.401 -1.2385  0.2084 -1.5176
 6842SOL    HW231986   2.360   4.090  11.448 -0.1309  1.5714  0.9679
 6843SOL     OW31987   4.216   3.747   5.657 -0.2103  0.2977  0.0070
 6843SOL    HW131988   4.158   3.823   5.664 -0.6223  0.0565 -0.6711
 6843SOL    HW231989   4.259   3.759   5.741 -0.3766 -1.5738  0.3449
 6844SOL     OW31990   2.173   0.348   7.148  0.4843  0.1548 -0.1910
 6844SOL    HW131991   2.157   0.347   7.243 -0.0055  1.0125 -0.2683
 6844SOL    HW231992   2.254   0.297   7.147 -0.8460 -1.9134 -2.1054
 6845SOL     OW31993   1.086   4.595   6.239 -0.4889  0.5123  0.4317
 6845SOL    HW131994   1.068   4.684   6.209 -0.3527  1.1376  2.1878
 6845SOL    HW231995   1.021   4.545   6.190 -0.6675  0.9376  0.2392
 6846SOL     OW31996   4.098   3.453  12.886  0.2946  0.0303  0.1181
 6846SOL    HW131997   4.004   3.442  12.897  0.2350 -0.6752 -1.0262
 6846SOL    HW231998   4.101   3.539  12.844 -0.2005  0.3756  0.7898
 6847SOL     OW31999   2.580   4.194   2.993  0.3219  0.2438 -0.4312
 6847SOL    HW132000   2.561   4.286   3.007  1.5218  0.4971 -0.5430
 6847SOL    HW232001   2.673   4.183   3.013 -0.0124 -0.8992  0.5141
 6848SOL     OW32002   3.865   1.301   7.274  0.0856  0.6112 -0.2304
 6848SOL    HW132003   3.850   1.357   7.198  3.6481  0.5497 -0.9778
 6848SOL    HW232004   3.960   1.312   7.274 -0.1152  2.2075 -1.5307
 6849SOL     OW32005   4.026   3.382   1.815 -0.7612  0.4732  0.3434
 6849SOL    HW132006   4.106   3.344   1.850  0.1929  1.4312 -0.7662
 6849SOL    HW232007   3.955   3.343   1.866 -0.7618  1.0781  0.8130
 6850SOL     OW32008   1.022   0.791   5.800  0.7515  0.1216 -0.0614
 6850SOL    HW132009   0.948   0.850   5.811 -0.5397 -1.5420  0.1228
 6850SOL    HW232010   1.082   0.861   5.773  0.1409  0.7015  0.0911
 6851SOL     OW32011   1.027   3.023   4.079  0.2666 -0.1202  0.2663
 6851SOL    HW132012   0.977   3.021   3.997 -0.3165 -3.5703  0.6946
 6851SOL    HW232013   1.084   3.097   4.059 -0.3260  0.5561  1.0586
 6852SOL     OW32014   4.188   0.970  12.124 -0.1120 -0.3561 -0.1665
 6852SOL    HW132015   4.236   0.929  12.195  0.6314  2.0597  0.7353
 6852SOL    HW232016   4.098   0.957  12.152 -0.2471  0.2948 -0.2940
 6853SOL     OW32017   2.736   0.252  15.160 -0.3767  0.2561 -0.5963
 6853SOL    HW132018   2.826   0.232  15.185  0.2992  0.0436 -3.2179
 6853SOL    HW232019   2.735   0.348  15.159  2.0315  0.3165  2.2873
 6854SOL     OW32020   1.020   3.410   2.857 -0.2520 -0.0647 -0.0473
 6854SOL    HW132021   1.093   3.370   2.811 -0.5323  0.2601 -0.7827
 6854SOL    HW232022   1.048   3.424   2.948 -0.2571 -0.9274  0.0822
 6855SOL     OW32023   4.391   2.076   8.283  0.0959 -0.3974 -0.4402
 6855SOL    HW132024   4.335   2.011   8.239  0.9212  0.5128 -2.8464
 6855SOL    HW232025   4.403   2.135   8.208 -0.5884  1.0482  0.5941
 6856SOL     OW32026   0.425   0.854   7.960 -0.3370 -0.1539 -0.5499
 6856SOL    HW132027   0.395   0.908   7.887 -1.6586  2.0551  1.6067
 6856SOL    HW232028   0.479   0.919   8.006 -0.8708 -0.4535  0.5082
 6857SOL     OW32029   2.978   2.301  13.222 -0.1021 -0.5458  0.2861
 6857SOL    HW132030   3.044   2.318  13.289 -0.6068  1.1080  0.3678
 6857SOL    HW232031   2.972   2.387  13.181  2.3234 -0.2705  0.5036
 6858SOL     OW32032   0.356   2.129  11.985 -0.0156 -0.3566  0.1287
 6858SOL    HW132033   0.408   2.208  11.971 -1.8188  0.7815 -0.0706
 6858SOL    HW232034   0.322   2.139  12.073  0.1866 -0.9331  0.2753
 6859SOL     OW32035   2.650   2.127  10.907 -0.9210  0.4997  0.2234
 6859SOL    HW132036   2.738   2.164  10.920 -1.2524  1.1655  0.5811
 6859SOL    HW232037   2.618   2.189  10.842 -1.2144  0.4608  0.3318
 6860SOL     OW32038   3.986   2.413   6.724 -0.2292  0.3312 -0.3389
 6860SOL    HW132039   4.073   2.428   6.760 -0.4765 -0.4931  0.6050
 6860SOL    HW232040   4.008   2.360   6.647 -0.5978 -0.5869  0.1853
 6861SOL     OW32041   2.834   0.726  11.600  0.6960  0.1247  0.1795
 6861SOL    HW132042   2.901   0.791  11.622  2.1341 -0.5277 -2.3558
 6861SOL    HW232043   2.859   0.719  11.508  0.6443 -2.4550  0.3637
 6862SOL     OW32044   3.793   2.189   7.960  0.0766 -0.0839 -0.2586
 6862SOL    HW132045   3.738   2.251   7.911 -0.4800  0.7653  1.4308
 6862SOL    HW232046   3.772   2.103   7.923 -1.3539  0.5460 -0.9157
 6863SOL     OW32047   1.154   2.641  17.301 -0.4840  0.0062  0.0257
 6863SOL    HW132048   1.240   2.599  17.298  0.4150  1.9340 -1.2918
 6863SOL    HW232049   1.154   2.688  17.218  1.3867  0.2986  0.1860
 6864SOL     OW32050   4.639   4.268   4.230  0.5276  0.1640  0.0331
 6864SOL    HW132051   4.640   4.352   4.276  0.7884  0.8353 -1.1975
 6864SOL    HW232052   4.544   4.253   4.226  0.4997 -0.8077  4.0913
 6865SOL     OW32053   0.620   1.948   6.303  0.1636  0.7749  0.1695
 6865SOL    HW132054   0.552   1.987   6.357 -0.7529  0.1064 -0.5004
 6865SOL    HW232055   0.622   2.008   6.229  0.5264  1.0751  0.4223
 6866SOL     OW32056   1.937   3.892  16.947  0.0755  0.0684  0.0978
 6866SOL    HW132057   1.984   3.883  17.030 -1.8855 -0.4599  1.1405
 6866SOL    HW232058   2.022   3.891  16.903  1.0102  0.5022  1.8808
 6867SOL     OW32059   1.024   1.913  11.468 -0.3596 -0.7590  0.6969
 6867SOL    HW132060   1.075   1.851  11.415 -0.8869  0.6964 -1.4767
 6867SOL    HW232061   0.943   1.910  11.418 -0.6641  0.5060  1.1243
 6868SOL     OW32062   1.050   1.460  10.229  0.1435  0.1802  0.0655
 6868SOL    HW132063   1.054   1.364  10.240  1.1477 -0.0677 -2.5708
 6868SOL    HW232064   1.028   1.489  10.318  0.1043  0.1646  0.0611
 6869SOL     OW32065   4.186   1.463   7.540 -0.1655  0.4020 -0.1336
 6869SOL    HW132066   4.240   1.540   7.527 -1.4784  1.2970 -0.3156
 6869SOL    HW232067   4.135   1.479   7.620  0.3888  0.5282  0.1901
 6870SOL     OW32068   4.453   2.929   8.566 -0.0896  0.2412 -0.2340
 6870SOL    HW132069   4.390   2.859   8.552  2.1449 -1.2610 -2.6253
 6870SOL    HW232070   4.401   3.009   8.561 -1.4225 -0.4083  2.7458
 6871SOL     OW32071   3.211   0.976  16.040 -0.4447  0.1291 -0.0281
 6871SOL    HW132072   3.244   0.958  16.128  0.9721  1.7984 -0.2318
 6871SOL    HW232073   3.143   0.910  16.026 -1.4286  0.9525  0.9004
 6872SOL     OW32074   4.286   0.154  12.406 -0.1559 -0.2413 -0.3113
 6872SOL    HW132075   4.269   0.202  12.325 -0.1111 -0.9246 -0.7237
 6872SOL    HW232076   4.381   0.146  12.399 -0.1798 -0.7462 -0.0746
 6873SOL     OW32077   1.199   2.151   0.751  0.3616 -0.1440  0.8390
 6873SOL    HW132078   1.155   2.199   0.681 -0.0027  0.8068  1.7192
 6873SOL    HW232079   1.220   2.074   0.698 -1.3758  0.8210 -1.2336
 6874SOL     OW32080   1.351   0.643   8.551 -1.1798  0.4384 -0.2670
 6874SOL    HW132081   1.416   0.576   8.569  0.4435  2.0095 -0.3126
 6874SOL    HW232082   1.281   0.613   8.609  0.7665 -2.2062  0.7182
 6875SOL     OW32083   2.090   1.286   7.155 -0.0086  0.3303 -0.4339
 6875SOL    HW132084   2.135   1.342   7.218  1.2367  0.5787 -1.5384
 6875SOL    HW232085   2.159   1.285   7.089 -1.0149 -3.1386 -1.4021
 6876SOL     OW32086   2.283   2.764   7.150 -0.6754  0.0227  0.4795
 6876SOL    HW132087   2.227   2.758   7.228 -0.7374 -3.3117  0.1580
 6876SOL    HW232088   2.357   2.809   7.191 -0.2153 -0.7914  0.5497
 6877SOL     OW32089   2.259   4.620   2.946  0.0083 -0.1707  0.0213
 6877SOL    HW132090   2.222   4.543   2.990 -1.1785  1.1581  1.3806
 6877SOL    HW232091   2.325   4.583   2.888  1.0432  0.8963  0.5248
 6878SOL     OW32092   2.049   2.572   5.179 -0.4777  0.3670  0.2526
 6878SOL    HW132093   2.077   2.664   5.186  1.2317 -0.2105  0.9641
 6878SOL    HW232094   2.118   2.527   5.227  0.3196  0.7295 -0.5453
 6879SOL     OW32095   3.053   1.268   4.486 -0.1216 -0.7559 -0.3741
 6879SOL    HW132096   3.097   1.353   4.492 -0.4755 -0.4674 -1.7357
 6879SOL    HW232097   3.116   1.223   4.542 -1.7161  1.3264  3.0826
 6880SOL     OW32098   1.294   2.345   5.897 -0.3193  0.1531 -0.2064
 6880SOL    HW132099   1.264   2.356   5.806  0.0824 -1.3766 -0.5100
 6880SOL    HW232100   1.386   2.320   5.890 -0.1777  0.8384 -0.8584
 6881SOL     OW32101   1.951   1.737   5.283 -0.3345 -0.1049 -0.1112
 6881SOL    HW132102   1.981   1.677   5.351 -3.0385 -1.1883  0.1014
 6881SOL    HW232103   1.945   1.818   5.334  0.2421  0.4167 -0.8773
 6882SOL     OW32104   1.501   0.016   6.419 -0.1900  0.6083  0.1118
 6882SOL    HW132105   1.426   0.071   6.395  0.0877  1.7968  1.8887
 6882SOL    HW232106   1.460   4.654   6.390  2.6841 -0.5190 -0.7735
 6883SOL     OW32107   3.588   2.487   4.678  0.4562  0.0828  0.4071
 6883SOL    HW132108   3.563   2.404   4.718 -1.6340  0.3234 -0.4223
 6883SOL    HW232109   3.517   2.498   4.615  0.7477 -0.0234  0.0593
 6884SOL     OW32110   4.234   4.497   2.928  0.3124 -0.5459 -0.2607
 6884SOL    HW132111   4.297   4.442   2.880  1.4700  1.9537 -1.6193
 6884SOL    HW232112   4.220   4.568   2.865 -0.8619 -0.8179 -0.3075
 6885SOL     OW32113   2.204   1.998   4.627 -0.0391 -0.2340 -0.7433
 6885SOL    HW132114   2.193   2.072   4.688 -1.3330  1.2614 -2.7935
 6885SOL    HW232115   2.128   2.007   4.570  0.3429  1.5342 -0.9986
 6886SOL     OW32116   4.663   0.761   8.294  0.1459  0.3235  0.2801
 6886SOL    HW132117   4.670   0.668   8.314  1.2027  0.5498  0.9995
 6886SOL    HW232118   4.569   0.777   8.299  0.2611  1.5621 -1.5728
 6887SOL     OW32119   0.923   1.263  13.467  0.3898  0.1031  0.2331
 6887SOL    HW132120   0.933   1.236  13.376 -0.1310  0.6348  0.0153
 6887SOL    HW232121   0.995   1.220  13.512  0.6399  1.6287  1.3105
 6888SOL     OW32122   3.716   2.398  11.623 -0.3112 -0.2252  0.1135
 6888SOL    HW132123   3.662   2.433  11.694  2.8857  2.2562  1.3335
 6888SOL    HW232124   3.791   2.369  11.676  1.0612 -1.7643 -2.6483
 6889SOL     OW32125   0.750   3.894   5.732 -0.4667 -0.2243 -0.6254
 6889SOL    HW132126   0.726   3.881   5.640 -1.0892 -0.3991 -0.4438
 6889SOL    HW232127   0.816   3.963   5.723  0.0465 -0.6411  0.0371
 6890SOL     OW32128   2.696   0.084   8.186  0.2707  0.2951 -0.2607
 6890SOL    HW132129   2.603   0.063   8.199  0.0832  1.3068  0.0536
 6890SOL    HW232130   2.743   0.055   8.263  0.5469 -1.0300 -0.9425
 6891SOL     OW32131   0.257   0.909   4.699  0.1762  0.6852  0.0872
 6891SOL    HW132132   0.342   0.922   4.742 -1.9183  2.4631  3.6292
 6891SOL    HW232133   0.191   0.949   4.755 -1.3098  0.3014 -1.3745
 6892SOL     OW32134   3.868   2.859  12.425 -0.9836 -0.0429 -0.1106
 6892SOL    HW132135   3.832   2.770  12.428 -1.7469  0.2443 -0.7570
 6892SOL    HW232136   3.899   2.875  12.514  0.8072 -0.6254 -0.6168
 6893SOL     OW32137   3.077   1.876   9.340 -0.4031  0.1810 -0.3222
 6893SOL    HW132138   3.067   1.889   9.246 -0.3904  0.5889 -0.2662
 6893SOL    HW232139   2.997   1.919   9.371  1.0515  2.1495  0.7103
 6894SOL     OW32140   4.060   3.945  14.964 -0.0294  0.3627  0.8386
 6894SOL    HW132141   4.140   3.894  14.948 -2.0375 -2.7270  0.6035
 6894SOL    HW232142   3.989   3.892  14.926 -0.1707  0.5676  0.8179
 6895SOL     OW32143   3.457   0.080   0.153  0.2104 -0.2564  0.3558
 6895SOL    HW132144   3.462   0.140   0.227  1.3240  1.0041 -0.7444
 6895SOL    HW232145   3.550   0.059   0.154  0.5994  1.5054  0.9273
 6896SOL     OW32146   4.080   3.486  12.202 -0.1266 -0.1650 -0.1375
 6896SOL    HW132147   4.156   3.429  12.211  1.9326  2.4494 -0.7975
 6896SOL    HW232148   4.083   3.525  12.290  3.2330  3.0022 -1.6451
 6897SOL     OW32149   2.007   1.668   5.851 -0.0630 -0.4666  0.1644
 6897SOL    HW132150   2.009   1.590   5.794  1.1247  0.2062 -0.6981
 6897SOL    HW232151   2.073   1.653   5.918 -0.3375  0.1445  0.5621
 6898SOL     OW32152   0.973   2.530   4.067 -0.2373 -0.0124  1.0219
 6898SOL    HW132153   0.996   2.438   4.050 -1.7580 -0.0135 -1.0029
 6898SOL    HW232154   1.056   2.572   4.044 -0.6075  1.0380  1.6019
 6899SOL     OW32155   4.677   4.003   4.305  0.1481  0.2815 -0.3072
 6899SOL    HW132156   4.642   4.007   4.394  1.8869 -2.3684  0.4654
 6899SOL    HW232157   4.681   4.097   4.286  0.3040  0.5461  1.0905
 6900SOL     OW32158   2.956   3.784   4.302  0.0998 -0.0372 -0.2619
 6900SOL    HW132159   2.930   3.798   4.393  1.3109  1.2330 -0.1115
 6900SOL    HW232160   2.877   3.818   4.261  0.1447  0.6411  0.2217
 6901SOL     OW32161   3.241   2.908   3.629 -0.0528  0.8905 -0.4283
 6901SOL    HW132162   3.298   2.832   3.642 -1.1284 -0.5688 -4.2437
 6901SOL    HW232163   3.226   2.915   3.535  0.3940  1.1978 -0.4797
 6902SOL     OW32164   4.086   3.915   3.445 -0.4198  0.4327  0.1477
 6902SOL    HW132165   4.132   3.965   3.378  0.8500  1.2414  1.6242
 6902SOL    HW232166   4.024   3.983   3.471 -2.7178 -1.9410  0.8765
 6903SOL     OW32167   4.092   4.623   6.239 -0.2096 -1.1143 -0.0594
 6903SOL    HW132168   3.998   4.606   6.245 -0.3427 -0.0977  0.8483
 6903SOL    HW232169   4.132   4.537   6.232 -0.5186 -1.3054  0.5329
 6904SOL     OW32170   2.520   3.056  17.166  0.4376  0.2767  0.0827
 6904SOL    HW132171   2.570   3.108  17.229 -0.4435  0.9515  0.2150
 6904SOL    HW232172   2.530   3.097  17.081 -0.6592  0.3298 -0.0222
 6905SOL     OW32173   2.242   4.396   4.107 -0.0945 -0.2658  0.2573
 6905SOL    HW132174   2.274   4.385   4.197 -1.2949 -0.8693  0.6161
 6905SOL    HW232175   2.264   4.308   4.078 -2.5951 -0.3315 -1.4284
 6906SOL     OW32176   0.497   2.828   1.148 -0.3071 -0.0802 -0.0917
 6906SOL    HW132177   0.545   2.867   1.222  2.0323 -2.0454 -0.5682
 6906SOL    HW232178   0.533   2.739   1.147  0.9020  0.4102 -0.5268
 6907SOL     OW32179   4.661   1.394   1.481  0.0524 -0.1546 -0.1573
 6907SOL    HW132180   4.576   1.354   1.465 -0.6496  1.4224 -0.3232
 6907SOL    HW232181   4.677   1.425   1.392  1.0559 -0.0603  0.0590
 6908SOL     OW32182   3.352   3.049   1.621 -0.4454 -0.2899  0.5077
 6908SOL    HW132183   3.362   3.094   1.705  2.3904  0.6020 -0.3146
 6908SOL    HW232184   3.404   3.107   1.567 -1.4830  0.5588  0.4302
 6909SOL     OW32185   3.904   0.838   3.374  0.7245  0.2057 -0.6222
 6909SOL    HW132186   3.978   0.894   3.351 -0.1315 -0.2895 -4.4822
 6909SOL    HW232187   3.915   0.751   3.338 -3.0060  0.2974 -2.0027
 6910SOL     OW32188   1.139   3.787   8.330  0.4485 -0.3233 -0.0539
 6910SOL    HW132189   1.097   3.807   8.413  1.7493  1.3979  0.1971
 6910SOL    HW232190   1.199   3.716   8.354  1.4504  0.2425 -0.8427
 6911SOL     OW32191   4.450   2.467   7.036  0.0930 -0.3370  0.4909
 6911SOL    HW132192   4.489   2.520   7.106 -2.4009  1.2768  0.6631
 6911SOL    HW232193   4.452   2.390   7.092  0.3946 -0.5677  0.1590
 6912SOL     OW32194   0.569   4.670  14.542  0.0909 -0.6034 -0.5433
 6912SOL    HW132195   0.586   0.002  14.463  1.7363 -1.6046 -0.8463
 6912SOL    HW232196   0.648   4.616  14.538 -1.5922 -3.0204 -0.8842
 6913SOL     OW32197   0.431   2.853   7.478  0.2675 -0.4639  0.4507
 6913SOL    HW132198   0.409   2.920   7.543 -0.1865 -0.8678  0.7214
 6913SOL    HW232199   0.445   2.910   7.403  3.7743  2.0782  3.0567
 6914SOL     OW32200   3.968   4.605   4.351 -0.1838 -0.4410 -0.5949
 6914SOL    HW132201   3.976   4.524   4.401 -0.3970  0.5131  0.9647
 6914SOL    HW232202   3.995   4.673   4.412 -1.2512  1.2615 -2.0243
 6915SOL     OW32203   2.085   1.092   5.424  0.0378 -0.2081  0.6973
 6915SOL    HW132204   2.055   1.058   5.508 -0.1952  0.9010  1.0547
 6915SOL    HW232205   2.163   1.037   5.410  1.6659  2.0164  1.0487
 6916SOL     OW32206   3.381   0.896   7.458  0.1706  0.2557  0.1907
 6916SOL    HW132207   3.332   0.814   7.469  0.6804 -0.2581 -1.3595
 6916SOL    HW232208   3.337   0.932   7.380  0.0666 -2.2524 -0.9072
 6917SOL     OW32209   3.054   4.229   9.512  0.2462 -0.9040 -0.9807
 6917SOL    HW132210   2.995   4.215   9.586  1.0361  0.8149 -0.0374
 6917SOL    HW232211   3.027   4.316   9.485 -1.0377 -0.8310  0.5462
 6918SOL     OW32212   4.540   3.415  13.010 -0.0156 -0.3180 -0.4260
 6918SOL    HW132213   4.445   3.413  13.021 -0.0662 -1.0974 -0.9668
 6918SOL    HW232214   4.557   3.408  13.104  0.5025 -0.0737 -0.4997
 6919SOL     OW32215   0.049   0.490   7.386 -0.5163  0.0526  0.2648
 6919SOL    HW132216   0.118   0.537   7.339 -0.6133  0.1896  0.2600
 6919SOL    HW232217   0.062   0.403   7.347  2.1132  0.8813 -0.7113
 6920SOL     OW32218   4.323   1.255   7.802  0.1251  0.5181 -0.3909
 6920SOL    HW132219   4.251   1.293   7.853  1.5808  0.5172  1.6781
 6920SOL    HW232220   4.378   1.227   7.875 -0.2932  2.3792  0.6338
 6921SOL     OW32221   1.964   1.260   4.991 -0.1904 -0.5359 -0.7110
 6921SOL    HW132222   2.055   1.230   4.989  0.2878  0.8085  1.0549
 6921SOL    HW232223   1.941   1.239   5.081 -0.2415  1.3000 -0.2881
 6922SOL     OW32224   2.452   3.030  17.457  0.2636  0.7424 -0.3900
 6922SOL    HW132225   2.448   3.095  17.528 -4.6721 -1.8228  1.7284
 6922SOL    HW232226   2.417   2.948  17.491  2.4375 -0.1408 -0.2892
 6923SOL     OW32227   0.313   4.111   1.051 -0.1283 -0.1455 -0.7158
 6923SOL    HW132228   0.262   4.119   0.970  0.1463 -0.2276 -0.8969
 6923SOL    HW232229   0.374   4.044   1.021  0.9273  0.3807  0.2771
 6924SOL     OW32230   0.156   2.703   1.049 -0.1301 -0.0111 -0.2327
 6924SOL    HW132231   0.105   2.685   0.969  0.8113  0.3749 -0.9220
 6924SOL    HW232232   0.242   2.671   1.020 -0.0887  1.0546 -1.3151
 6925SOL     OW32233   0.354   0.981  11.659  0.6930  0.3269 -0.4575
 6925SOL    HW132234   0.285   0.918  11.642  0.4878  0.5071 -0.2947
 6925SOL    HW232235   0.416   0.967  11.587 -0.5786 -1.4615 -1.1843
 6926SOL     OW32236   2.501   1.729   4.321  0.2216 -0.0559  0.2642
 6926SOL    HW132237   2.552   1.691   4.393  0.0994 -0.4318  0.1517
 6926SOL    HW232238   2.519   1.822   4.330  1.0299 -0.2060  0.1844
 6927SOL     OW32239   4.559   0.520   5.300 -0.3725 -0.4190 -0.1583
 6927SOL    HW132240   4.568   0.596   5.242  0.7738  0.3181  1.0059
 6927SOL    HW232241   4.591   0.448   5.246 -0.0638 -0.5281  0.1718
 6928SOL     OW32242   0.259   0.031   7.813  0.2032 -0.1449 -0.7559
 6928SOL    HW132243   0.266   0.014   7.719  0.5222  0.3134 -0.8152
 6928SOL    HW232244   0.211   4.670   7.834 -2.0642  1.0506 -1.4184
 6929SOL     OW32245   0.696   3.895   1.727 -0.3317  0.6951 -0.3352
 6929SOL    HW132246   0.678   3.803   1.745  0.7337  0.3039 -1.2983
 6929SOL    HW232247   0.610   3.927   1.754  0.9366  2.4953  1.5738
 6930SOL     OW32248   2.229   0.550   1.140  0.5589  0.6768  0.2022
 6930SOL    HW132249   2.173   0.506   1.076  0.4724 -1.0769  1.5024
 6930SOL    HW232250   2.172   0.563   1.216 -0.5449  2.2046 -0.8771
 6931SOL     OW32251   2.304   3.023   6.408 -0.0254  0.0782  0.1565
 6931SOL    HW132252   2.215   2.997   6.433  0.3582 -0.4662  0.9234
 6931SOL    HW232253   2.342   3.048   6.492 -0.4852 -0.1177  0.4226
 6932SOL     OW32254   0.638   1.799  15.205  0.3165 -0.8956  0.0904
 6932SOL    HW132255   0.700   1.728  15.217  0.1739 -0.9874  0.2928
 6932SOL    HW232256   0.610   1.781  15.115 -1.0044 -2.0045  0.7194
 6933SOL     OW32257   2.309   4.645   6.449  0.1745  0.3313 -0.5295
 6933SOL    HW132258   2.349   4.678   6.369 -0.7648  1.1096 -0.6683
 6933SOL    HW232259   2.380   4.604   6.500 -0.1495  2.3585  1.5821
 6934SOL     OW32260   3.892   0.033  10.172  0.5417  0.4746  0.2784
 6934SOL    HW132261   3.941   4.670  10.179  2.8544  1.6086 -2.1548
 6934SOL    HW232262   3.949   0.093  10.221  0.8909  0.2756  0.1207
 6935SOL     OW32263   4.535   4.615   5.324 -0.3824  0.4669 -0.2730
 6935SOL    HW132264   4.511   4.550   5.390 -0.4479  0.7742  0.0105
 6935SOL    HW232265   4.609   4.660   5.364 -0.2379  0.4093 -0.4759
 6936SOL     OW32266   2.855   1.655   7.039 -0.0231  1.1666  0.2794
 6936SOL    HW132267   2.894   1.742   7.039 -0.8543  1.5334  0.5515
 6936SOL    HW232268   2.772   1.671   7.084 -0.5944 -2.1537  0.4485
 6937SOL     OW32269   1.617   1.147  11.769 -0.3097 -0.4989  0.1297
 6937SOL    HW132270   1.700   1.195  11.761  0.0862 -0.8760  1.8803
 6937SOL    HW232271   1.584   1.183  11.851 -3.0377 -0.5193 -0.9686
 6938SOL     OW32272   0.908   4.719   3.359  0.0866  0.0443  0.5860
 6938SOL    HW132273   0.823   0.016   3.399 -0.8732  0.7402 -1.7482
 6938SOL    HW232274   0.934   0.081   3.315  0.9391 -3.0053 -4.6410
 6939SOL     OW32275   4.059   1.384   9.521  0.3095  0.2691  0.0086
 6939SOL    HW132276   3.965   1.396   9.530 -0.0677 -3.1751  0.7953
 6939SOL    HW232277   4.079   1.352   9.609  1.1528 -2.7470 -1.2743
 6940SOL     OW32278   3.802   4.237   7.207  0.1898 -0.2625  0.6201
 6940SOL    HW132279   3.735   4.205   7.268  1.1386 -1.5153  1.0249
 6940SOL    HW232280   3.885   4.223   7.253 -0.2097  1.0424  1.7242
 6941SOL     OW32281   0.821   1.906   8.303 -0.3677  0.5075  0.0868
 6941SOL    HW132282   0.864   1.990   8.288  0.2322  0.3779  1.0812
 6941SOL    HW232283   0.730   1.934   8.299 -0.3349  0.6963  0.5961
 6942SOL     OW32284   2.493   0.690   0.347  0.1760  1.0164 -0.3013
 6942SOL    HW132285   2.507   0.643   0.429  0.0332  1.8331  0.1907
 6942SOL    HW232286   2.555   0.637   0.297 -0.9781  0.1219 -0.7995
 6943SOL     OW32287   3.382   2.865   9.691 -0.3793  0.3039  0.2734
 6943SOL    HW132288   3.451   2.926   9.716  0.6391 -0.3011 -1.0755
 6943SOL    HW232289   3.431   2.783   9.683 -0.2522  0.3170  0.9274
 6944SOL     OW32290   2.893   0.046   1.358 -0.1399 -0.6497 -0.5416
 6944SOL    HW132291   2.977   0.024   1.398 -0.6818 -0.3837  0.7788
 6944SOL    HW232292   2.918   0.128   1.317 -0.8008 -0.0052  0.3357
 6945SOL     OW32293   4.601   2.758   7.876 -0.6766 -0.2430  0.3506
 6945SOL    HW132294   4.674   2.716   7.831 -0.8945 -1.1479  0.8218
 6945SOL    HW232295   4.585   2.831   7.817 -2.2090  1.5287  2.9781
 6946SOL     OW32296   3.735   2.307   8.635  0.4652 -0.2183 -0.6173
 6946SOL    HW132297   3.678   2.260   8.575 -1.4513 -0.8976  1.7612
 6946SOL    HW232298   3.787   2.238   8.676  1.4831  1.4493  0.8980
 6947SOL     OW32299   2.174   2.001   1.454 -0.7187 -0.3400 -0.2384
 6947SOL    HW132300   2.117   1.929   1.483 -0.9113 -0.9086 -2.0173
 6947SOL    HW232301   2.106   2.047   1.405 -1.7063  1.2513  2.6062
 6948SOL     OW32302   2.518   1.017   8.237  0.2570 -0.2169 -0.0748
 6948SOL    HW132303   2.498   1.021   8.330  0.9512  0.7534  0.0288
 6948SOL    HW232304   2.478   0.933   8.212  0.2974 -0.3523  0.3112
 6949SOL     OW32305   4.713   0.806  14.859 -0.6513  0.0258  0.4083
 6949SOL    HW132306   4.622   0.783  14.881 -1.0482  1.2684  0.0193
 6949SOL    HW232307   0.005   0.756  14.778 -2.1568  0.3543 -0.0132
 6950SOL     OW32308   0.710   4.039   7.863 -0.4780  0.3315  0.1676
 6950SOL    HW132309   0.756   4.120   7.880  0.8824  0.1087 -2.4319
 6950SOL    HW232310   0.789   3.989   7.841 -0.6550 -0.6261  1.7148
 6951SOL     OW32311   1.320   3.216   3.468  0.0354  0.3001 -0.0409
 6951SOL    HW132312   1.380   3.152   3.429 -2.1092 -0.8996 -1.3734
 6951SOL    HW232313   1.250   3.219   3.403  1.5703  2.1506 -1.5925
 6952SOL     OW32314   1.756   0.699   8.344  0.4082 -0.5577 -0.2090
 6952SOL    HW132315   1.736   0.757   8.270 -2.3395 -1.0684  0.1338
 6952SOL    HW232316   1.807   0.630   8.301 -1.1404 -1.9990  0.2610
 6953SOL     OW32317   3.405   4.545   1.993  0.4770 -0.0756 -0.1115
 6953SOL    HW132318   3.311   4.529   1.984  0.1279  2.5264 -1.2957
 6953SOL    HW232319   3.405   4.641   1.996 -0.1994 -0.1114  1.0010
 6954SOL     OW32320   0.020   1.236   2.373  0.5210  0.1653 -0.9587
 6954SOL    HW132321   0.026   1.318   2.422 -0.8247 -0.8304  0.8730
 6954SOL    HW232322   0.095   1.260   2.319  0.5494 -1.4113 -1.6308
 6955SOL     OW32323   2.866   3.910  12.732 -0.1412 -0.0393 -0.3962
 6955SOL    HW132324   2.834   3.929  12.820 -0.3743 -0.2996 -0.4244
 6955SOL    HW232325   2.798   3.961  12.688  0.2285  0.0810 -0.8234
 6956SOL     OW32326   3.988   2.386   6.247 -0.5164  0.9296 -0.7428
 6956SOL    HW132327   3.938   2.342   6.178  0.0762  0.7244 -1.0435
 6956SOL    HW232328   4.068   2.407   6.198 -0.0650  1.5733  0.2748
 6957SOL     OW32329   2.047   1.751   5.029 -0.4743  0.5097  0.0696
 6957SOL    HW132330   1.995   1.761   5.108  2.2807 -0.3604  2.0216
 6957SOL    HW232331   2.024   1.660   5.009 -1.1195  0.7092 -0.0681
 6958SOL     OW32332   2.807   2.483   8.574  0.1984  0.5855  0.0418
 6958SOL    HW132333   2.740   2.542   8.610  1.2640  1.7693  0.1337
 6958SOL    HW232334   2.784   2.402   8.620 -0.9802  2.4586  2.8040
 6959SOL     OW32335   0.007   0.504   8.363 -0.9931  0.3554 -0.0255
 6959SOL    HW132336   0.035   0.531   8.451 -1.9925 -0.0255  0.4030
 6959SOL    HW232337   4.691   0.418   8.383  0.9074  0.1118  2.4180
 6960SOL     OW32338   3.031   1.616   2.855 -0.0431  0.1191  0.4966
 6960SOL    HW132339   2.982   1.647   2.779 -0.6398  0.2303  0.9257
 6960SOL    HW232340   2.989   1.657   2.930  2.0973  0.0564  1.7310
 6961SOL     OW32341   0.373   2.574   9.463 -0.4020 -0.2451  0.5649
 6961SOL    HW132342   0.344   2.593   9.374 -0.6814  1.5469  1.0459
 6961SOL    HW232343   0.298   2.605   9.514 -0.0168 -0.5729  1.3338
 6962SOL     OW32344   1.594   4.432   2.658  0.2058 -0.7356  0.2265
 6962SOL    HW132345   1.573   4.416   2.566  0.1044  0.4566  0.0362
 6962SOL    HW232346   1.514   4.480   2.679 -1.6365 -3.6811 -0.1820
 6963SOL     OW32347   3.052   4.581   3.741 -0.0441  0.2060  0.0429
 6963SOL    HW132348   3.014   4.553   3.658 -3.0309 -2.8352  2.4519
 6963SOL    HW232349   3.087   4.669   3.726  0.0079 -0.0671 -1.4237
 6964SOL     OW32350   3.815   3.518   9.360  0.2499 -0.2630 -0.4416
 6964SOL    HW132351   3.808   3.612   9.374 -1.3991 -0.8028  2.5337
 6964SOL    HW232352   3.802   3.503   9.267  1.0092  1.2976 -0.7893
 6965SOL     OW32353   2.940   3.678   5.934  0.1702  0.3947 -0.1542
 6965SOL    HW132354   2.860   3.658   5.982 -0.2616 -0.8414 -1.3918
 6965SOL    HW232355   2.921   3.683   5.840  1.6827  1.1752 -0.4246
 6966SOL     OW32356   1.296   3.683   8.560  0.2567  0.4179 -0.1536
 6966SOL    HW132357   1.249   3.622   8.616  0.0090 -0.1402 -0.9741
 6966SOL    HW232358   1.343   3.630   8.496  1.7770  3.4983 -1.5675
 6967SOL     OW32359   1.352   2.268   9.041  0.3943  0.9187 -0.2832
 6967SOL    HW132360   1.281   2.275   9.105  1.0402 -2.3791  0.8312
 6967SOL    HW232361   1.415   2.221   9.096  0.6959  2.3244  0.5643
 6968SOL     OW32362   1.019   4.236   5.621  0.3682  0.4129 -0.2852
 6968SOL    HW132363   1.000   4.161   5.677  1.3147  0.2149 -0.2226
 6968SOL    HW232364   0.980   4.308   5.672  0.9883  0.1468  0.5703
 6969SOL     OW32365   1.536   1.128   9.030  0.1642 -0.1045  0.0495
 6969SOL    HW132366   1.592   1.191   8.983 -0.0365 -0.1132 -0.2027
 6969SOL    HW232367   1.535   1.166   9.118 -5.0266 -0.1026 -0.0502
 6970SOL     OW32368   0.287   1.522   1.051 -0.2006 -0.4875  0.9363
 6970SOL    HW132369   0.199   1.485   1.052  0.1029 -1.2408 -1.0723
 6970SOL    HW232370   0.301   1.506   0.958  0.6947  1.3694  0.7387
 6971SOL     OW32371   3.167   0.362  11.874 -0.1104 -0.1449  0.2526
 6971SOL    HW132372   3.241   0.362  11.812 -1.2766  1.1658 -1.1083
 6971SOL    HW232373   3.160   0.456  11.885 -2.3855 -0.5025  1.8683
 6972SOL     OW32374   3.342   1.633   4.320  0.1723  0.1278 -0.0090
 6972SOL    HW132375   3.403   1.616   4.249 -1.3825  1.0078 -1.5472
 6972SOL    HW232376   3.391   1.707   4.357  0.1716  0.5577 -0.8851
 6973SOL     OW32377   4.118   1.041  12.997  0.4111 -0.2838  0.1769
 6973SOL    HW132378   4.146   0.951  13.013  1.1134  0.0642  0.8976
 6973SOL    HW232379   4.096   1.081  13.081  2.3500 -0.1882  0.6445
 6974SOL     OW32380   0.344   0.063   5.018 -0.6118 -0.3688 -0.1441
 6974SOL    HW132381   0.416   0.031   4.964  0.7206 -0.1005  1.4611
 6974SOL    HW232382   0.389   0.126   5.076  1.1193  1.2680 -3.2630
 6975SOL     OW32383   1.598   2.178   4.107 -0.3204 -0.4898 -0.1003
 6975SOL    HW132384   1.645   2.097   4.087 -1.2080 -1.2009  0.6520
 6975SOL    HW232385   1.630   2.207   4.192  0.9076 -1.2433 -0.3111
 6976SOL     OW32386   0.936   4.710   8.601  0.3912 -0.2652 -0.1144
 6976SOL    HW132387   0.955   4.626   8.643 -1.3795 -0.5367  0.1474
 6976SOL    HW232388   1.003   0.033   8.655  0.6952  0.2008 -0.8610
 6977SOL     OW32389   3.096   0.601   6.342  0.1182 -0.2151 -0.1660
 6977SOL    HW132390   3.107   0.694   6.321 -0.9099  0.0295  0.3721
 6977SOL    HW232391   3.182   0.564   6.326  0.5901  0.9155 -0.2299
 6978SOL     OW32392   2.773   3.105   6.175 -0.2701 -0.2214  0.1363
 6978SOL    HW132393   2.854   3.056   6.190 -0.8903 -1.3235 -0.0974
 6978SOL    HW232394   2.748   3.087   6.084 -0.4859  2.2652 -0.2953
 6979SOL     OW32395   1.678   1.543   8.607  0.0275  0.2326  0.4436
 6979SOL    HW132396   1.708   1.601   8.537 -0.4460  0.6689  0.5998
 6979SOL    HW232397   1.750   1.480   8.603 -1.1580 -1.0947  0.3577
 6980SOL     OW32398   3.187   3.904   5.369 -0.7832 -0.1383  0.1463
 6980SOL    HW132399   3.128   3.952   5.427  0.2233 -0.0874  1.1069
 6980SOL    HW232400   3.131   3.888   5.293  1.0820  2.2312 -1.7309
 6981SOL     OW32401   4.005   1.064   0.577 -0.5972 -0.5492 -0.6758
 6981SOL    HW132402   4.013   0.997   0.510  0.9700 -0.6278 -0.3967
 6981SOL    HW232403   4.070   1.039   0.642 -1.4683  2.5224  1.3949
 6982SOL     OW32404   1.087   3.514   1.840 -0.0234 -0.3198 -0.5673
 6982SOL    HW132405   1.160   3.561   1.799 -1.2032  1.2271 -0.8627
 6982SOL    HW232406   1.030   3.582   1.875  0.1083  0.1492 -1.2724
 6983SOL     OW32407   2.378   3.814   3.477  0.1309 -0.0676  0.0238
 6983SOL    HW132408   2.373   3.835   3.384 -1.8007  0.3348  0.2276
 6983SOL    HW232409   2.440   3.741   3.467 -2.1666 -1.8598 -1.0774
 6984SOL     OW32410   1.258   2.325  12.053  0.3716 -1.0622  0.0609
 6984SOL    HW132411   1.199   2.390  12.016  1.5271  0.3569  0.7007
 6984SOL    HW232412   1.203   2.261  12.098  0.4726 -1.8608 -0.9588
 6985SOL     OW32413   1.885   0.341   3.402 -0.2721 -0.3235  0.6520
 6985SOL    HW132414   1.962   0.396   3.387 -0.8035  0.0082 -0.8144
 6985SOL    HW232415   1.815   0.406   3.395  0.5598  0.6964  1.6819
 6986SOL     OW32416   1.657   3.109   2.807  0.5035  0.2976  0.2449
 6986SOL    HW132417   1.578   3.162   2.800  1.0122  1.1271  0.7175
 6986SOL    HW232418   1.679   3.096   2.715  1.4159  1.7233  0.2489
 6987SOL     OW32419   4.000   1.886   5.023  0.2172  0.2275  0.8241
 6987SOL    HW132420   3.933   1.867   5.089  0.6328 -1.8187  0.6424
 6987SOL    HW232421   3.956   1.947   4.963  0.6493 -0.7686 -0.5201
 6988SOL     OW32422   3.976   3.016   4.227  0.2928  0.2206  0.2078
 6988SOL    HW132423   4.058   3.062   4.209  2.0869 -2.7432  0.6575
 6988SOL    HW232424   3.915   3.084   4.201 -0.6426 -0.6283  0.2175
 6989SOL     OW32425   2.232   4.649  12.223 -0.5041 -0.1115 -0.3373
 6989SOL    HW132426   2.320   4.659  12.188 -0.7991  2.9528 -0.1724
 6989SOL    HW232427   2.245   4.597  12.303  1.0677  2.0812  0.8259
 6990SOL     OW32428   4.339   3.615   2.532  0.1043  0.0074  0.5569
 6990SOL    HW132429   4.361   3.590   2.442 -1.6796 -0.7791  0.3286
 6990SOL    HW232430   4.349   3.710   2.523  1.6708  0.0362  2.6678
 6991SOL     OW32431   2.353   3.510   0.881 -0.1372 -0.7436 -0.7355
 6991SOL    HW132432   2.351   3.437   0.819 -2.4879  0.0777 -1.6317
 6991SOL    HW232433   2.321   3.467   0.960 -0.6952 -0.5949 -0.8818
 6992SOL     OW32434   3.145   4.206  10.717 -0.2888  0.4080 -0.2051
 6992SOL    HW132435   3.212   4.190  10.650 -0.9321  0.8903 -0.9693
 6992SOL    HW232436   3.194   4.191  10.798  0.2862  0.5659 -0.5166
 6993SOL     OW32437   4.137   2.309  12.837 -0.3557  0.0574  0.6554
 6993SOL    HW132438   4.157   2.299  12.930 -0.0234  3.9104  0.9909
 6993SOL    HW232439   4.119   2.217  12.818  3.0500  0.0370 -2.3343
 6994SOL     OW32440   3.569   2.403  11.277  0.1050  0.3086  0.0689
 6994SOL    HW132441   3.513   2.469  11.317 -1.8942 -0.7175 -1.0435
 6994SOL    HW232442   3.508   2.346  11.229  0.4493 -0.5237  0.6100
 6995SOL     OW32443   0.973   1.450   2.375  0.2998 -0.1146 -0.0757
 6995SOL    HW132444   1.013   1.401   2.447  0.9550  1.6243  0.7474
 6995SOL    HW232445   0.883   1.423   2.387  0.9388 -1.8286  0.8526
 6996SOL     OW32446   2.273   1.702   7.604 -0.1682  0.2100  0.3716
 6996SOL    HW132447   2.194   1.699   7.550 -0.4395 -0.5494  0.8063
 6996SOL    HW232448   2.260   1.619   7.649  1.4273  0.4587  1.3001
 6997SOL     OW32449   0.027   3.693   4.121 -0.3199 -0.2831 -0.3565
 6997SOL    HW132450   0.091   3.636   4.078  0.9728  1.0323 -0.1622
 6997SOL    HW232451   0.008   3.755   4.051 -0.6987 -1.3464 -1.1802
 6998SOL     OW32452   4.169   2.431   0.493 -0.0263 -0.0079 -0.6000
 6998SOL    HW132453   4.172   2.508   0.549 -2.4037 -0.6447  0.3854
 6998SOL    HW232454   4.131   2.462   0.410 -0.2410  1.2962 -0.0119
 6999SOL     OW32455   4.717   2.697   0.049  0.0712 -0.3306  0.2336
 6999SOL    HW132456   0.003   2.627  17.665  1.2200 -0.0376  0.0199
 6999SOL    HW232457   4.717   2.781   0.003  0.8169 -0.6651 -0.3661
 7000SOL     OW32458   0.018   3.696   4.896  0.1469  0.1023 -0.0506
 7000SOL    HW132459   0.027   3.791   4.897 -2.2109  0.3267 -1.2746
 7000SOL    HW232460   0.105   3.677   4.860 -0.7087 -1.3518 -1.3503
 7001SOL     OW32461   3.193   3.057   3.111 -0.1034 -0.1060  0.4966
 7001SOL    HW132462   3.185   3.005   3.031  1.9010 -0.5292  0.5624
 7001SOL    HW232463   3.195   3.147   3.076 -0.2049  0.0647  0.9343
 7002SOL     OW32464   3.304   1.426   4.729  0.2052 -0.7934  0.0508
 7002SOL    HW132465   3.382   1.481   4.737 -1.9696  2.4806 -0.9122
 7002SOL    HW232466   3.351   1.344   4.747  1.4340 -0.2972 -0.8518
 7003SOL     OW32467   1.547   0.308   6.106 -0.1249 -0.4096  0.0184
 7003SOL    HW132468   1.627   0.288   6.155 -0.4923 -0.1619  0.7198
 7003SOL    HW232469   1.499   0.358   6.172 -1.3044 -1.1081 -0.3254
 7004SOL     OW32470   3.180   1.295  17.432 -0.4357 -0.2804 -0.2059
 7004SOL    HW132471   3.253   1.358  17.431 -0.6974  0.0686  1.9525
 7004SOL    HW232472   3.219   1.243  17.503 -0.6176  0.0814  0.1608
 7005SOL     OW32473   3.904   0.813   6.116 -0.0902 -0.2748 -0.1547
 7005SOL    HW132474   3.977   0.752   6.130 -0.5307 -0.6530  0.5517
 7005SOL    HW232475   3.936   0.898   6.145  1.3873 -1.4604  1.7174
 7006SOL     OW32476   3.188   0.426  13.732  0.6654 -0.5295  0.4275
 7006SOL    HW132477   3.138   0.402  13.811  0.0725 -2.5112 -0.5503
 7006SOL    HW232478   3.169   0.520  13.734 -0.6674 -0.7959  0.3118
 7007SOL     OW32479   1.191   1.610   8.927 -0.6434  0.2464 -0.2850
 7007SOL    HW132480   1.188   1.548   8.854 -0.0052 -0.7051  0.5083
 7007SOL    HW232481   1.101   1.614   8.959 -0.7143  1.2117 -0.6036
 7008SOL     OW32482   4.158   3.467   2.676 -0.2384  0.1504  0.7718
 7008SOL    HW132483   4.239   3.502   2.638  0.2672 -0.3089  1.4149
 7008SOL    HW232484   4.194   3.390   2.722 -0.2920 -1.0964 -1.2955
 7009SOL     OW32485   4.610   0.480  14.487 -0.4069  0.1652  0.4134
 7009SOL    HW132486   4.588   0.478  14.580  1.6337 -1.4359  0.8735
 7009SOL    HW232487   4.549   0.548  14.458 -0.2467  0.4169  0.6645
 7010SOL     OW32488   3.762   3.134   4.473  0.1460  0.0550 -0.3239
 7010SOL    HW132489   3.740   3.085   4.553 -0.6166 -1.3398 -1.3781
 7010SOL    HW232490   3.820   3.204   4.502  0.6427  0.0808 -1.3858
 7011SOL     OW32491   2.000   4.277   6.797  0.0679 -0.0315  0.6368
 7011SOL    HW132492   1.945   4.199   6.788  0.9019 -0.9536  3.4215
 7011SOL    HW232493   2.066   4.270   6.729 -1.5144 -2.5589 -0.6429
 7012SOL     OW32494   3.559   0.266   4.788  0.4437  0.2002  0.3090
 7012SOL    HW132495   3.571   0.236   4.878  0.5719 -1.1119 -0.1416
 7012SOL    HW232496   3.465   0.247   4.784 -0.1686  3.1146  1.1764
 7013SOL     OW32497   2.105   4.104   4.460  0.4661  0.0762 -0.2001
 7013SOL    HW132498   2.037   4.162   4.493  1.7896  0.2194  2.2617
 7013SOL    HW232499   2.186   4.148   4.486 -0.5458 -0.3200  3.6650
 7014SOL     OW32500   3.116   0.902   3.550  0.2962 -0.1213  0.4356
 7014SOL    HW132501   3.094   0.984   3.594  0.2016  0.3396 -0.4872
 7014SOL    HW232502   3.127   0.930   3.460 -3.0740 -2.1803 -0.5934
 7015SOL     OW32503   1.342   0.078   7.260 -0.3195 -0.0735 -0.3036
 7015SOL    HW132504   1.350   0.164   7.218  2.6255 -0.6599 -0.9562
 7015SOL    HW232505   1.434   0.053   7.249  0.6478  2.3239  1.9762
 7016SOL     OW32506   0.442   2.404   0.582 -0.0908  0.7049 -0.1548
 7016SOL    HW132507   0.460   2.320   0.623  0.9821  1.5866  1.1950
 7016SOL    HW232508   0.485   2.461   0.646 -0.4988 -1.2415  1.8777
 7017SOL     OW32509   0.453   4.513   8.534 -0.6564  0.3887 -0.5944
 7017SOL    HW132510   0.427   4.466   8.613 -0.6740 -0.8320 -1.3235
 7017SOL    HW232511   0.406   4.461   8.468  0.5419 -0.2648 -0.9384
 7018SOL     OW32512   0.625   4.661   9.167  0.0723 -0.2156  0.4742
 7018SOL    HW132513   0.571   0.020   9.167  0.0391 -0.2378  1.1933
 7018SOL    HW232514   0.649   4.655   9.260 -0.9639 -0.0024  0.7584
 7019SOL     OW32515   1.466   1.457  11.507  0.1578  0.0442 -0.7341
 7019SOL    HW132516   1.404   1.392  11.543 -0.7012 -0.2955 -2.8322
 7019SOL    HW232517   1.544   1.458  11.561  0.1410 -0.5136 -0.7040
 7020SOL     OW32518   0.019   1.675   3.145  0.1139  0.2888 -0.2123
 7020SOL    HW132519   0.024   1.670   3.050  1.5488 -0.7952 -0.0860
 7020SOL    HW232520   0.030   1.768   3.160 -2.5376  0.3631  1.2816
 7021SOL     OW32521   3.529   1.572   4.714 -0.0073  0.3130 -0.0746
 7021SOL    HW132522   3.577   1.587   4.632 -0.1017  2.4620  0.2492
 7021SOL    HW232523   3.578   1.620   4.781  1.1489  0.8565 -1.3100
 7022SOL     OW32524   2.590   2.563   3.936 -0.9366  0.3604  0.2220
 7022SOL    HW132525   2.571   2.634   3.873 -0.2972 -0.3216 -0.7412
 7022SOL    HW232526   2.680   2.533   3.923 -1.3260 -0.2022 -1.1304
 7023SOL     OW32527   4.196   2.962   2.941 -0.1741  0.2428 -0.6795
 7023SOL    HW132528   4.149   2.886   2.906  0.4618 -1.5757  2.3494
 7023SOL    HW232529   4.177   2.960   3.035  0.6046 -0.6461 -0.5304
 7024SOL     OW32530   0.461   4.359   1.925  0.4263 -0.8174  0.7857
 7024SOL    HW132531   0.460   4.317   1.839  1.9181 -0.4989  0.6153
 7024SOL    HW232532   0.440   4.450   1.903 -1.0028 -1.0810  1.0481
 7025SOL     OW32533   1.988   3.427  11.616  0.5415  0.1919  0.2734
 7025SOL    HW132534   1.956   3.507  11.657  0.7441  0.7723 -0.6973
 7025SOL    HW232535   2.014   3.373  11.691 -2.8180  1.1327  2.0777
 7026SOL     OW32536   0.863   4.225   1.022  0.2515  0.1069  0.3352
 7026SOL    HW132537   0.773   4.224   1.054 -0.0062  1.2896 -0.3630
 7026SOL    HW232538   0.865   4.137   0.984  0.7783  0.4776 -0.5067
 7027SOL     OW32539   1.623   0.959   7.239  0.2684 -0.4264  0.6150
 7027SOL    HW132540   1.535   0.921   7.242 -0.3151  0.7875 -1.6602
 7027SOL    HW232541   1.606   1.047   7.275 -0.8448 -0.1166 -0.6895
 7028SOL     OW32542   3.155   0.912   3.937 -0.2829  0.6104  0.3685
 7028SOL    HW132543   3.225   0.948   3.883 -0.0188  1.2488  1.1405
 7028SOL    HW232544   3.089   0.970   3.901  0.3063  1.0124 -0.0656
 7029SOL     OW32545   4.564   2.528  14.381  0.2567 -0.0465 -0.1448
 7029SOL    HW132546   4.529   2.560  14.298 -0.6181  1.4919  0.8125
 7029SOL    HW232547   4.610   2.605  14.413  1.2060 -0.0245 -1.5806
 7030SOL     OW32548   4.252   0.964  16.599 -0.0173 -0.3277 -0.2670
 7030SOL    HW132549   4.175   0.921  16.636  0.5083 -1.9456 -1.0415
 7030SOL    HW232550   4.326   0.932  16.651  0.0941  0.3674 -0.0019
 7031SOL     OW32551   0.144   3.493   1.290  0.0443  0.3037  0.2867
 7031SOL    HW132552   0.228   3.488   1.244 -1.1592 -2.3953 -1.5741
 7031SOL    HW232553   0.097   3.557   1.236 -0.8137  0.0129  0.6880
 7032SOL     OW32554   3.607   2.122   5.838 -0.6005  0.2118 -0.1338
 7032SOL    HW132555   3.544   2.058   5.804 -0.1621 -0.0564 -0.4538
 7032SOL    HW232556   3.559   2.159   5.912  1.1095 -1.0341  1.6168
 7033SOL     OW32557   1.072   3.722  16.378  0.2290 -0.6378  0.2012
 7033SOL    HW132558   0.997   3.693  16.430 -0.2561 -0.3972 -0.3516
 7033SOL    HW232559   1.072   3.814  16.403 -1.9357 -0.7090  0.4809
 7034SOL     OW32560   4.638   4.252   3.532 -0.7272  0.0776 -0.0738
 7034SOL    HW132561   4.596   4.223   3.451  0.4630  0.6293 -0.8834
 7034SOL    HW232562   4.587   4.327   3.564  0.1373  0.6044  0.0757
 7035SOL     OW32563   4.288   4.559   6.929 -0.2885  0.5707  0.2755
 7035SOL    HW132564   4.210   4.568   6.875  0.6614 -0.8029 -1.3365
 7035SOL    HW232565   4.253   4.515   7.005 -3.1302  1.8633 -0.2957
 7036SOL     OW32566   2.259   0.924  12.797  0.2722 -0.2342  0.7239
 7036SOL    HW132567   2.170   0.893  12.779  0.4269  1.0309 -2.0693
 7036SOL    HW232568   2.266   0.893  12.888  0.8643  2.2254  1.5076
 7037SOL     OW32569   0.295   0.993   7.763  0.3522  0.1404 -0.2286
 7037SOL    HW132570   0.296   1.083   7.728 -0.7346  0.0233 -0.5547
 7037SOL    HW232571   0.201   0.986   7.775  0.4082 -0.0412  0.1138
 7038SOL     OW32572   4.224   0.773   2.069 -0.0435 -0.4004  0.3790
 7038SOL    HW132573   4.259   0.718   2.139  0.7364 -0.1301  0.2096
 7038SOL    HW232574   4.179   0.718   2.005 -0.6629  0.8539 -0.2676
 7039SOL     OW32575   0.908   3.811   1.576 -0.2039  0.1952 -0.0150
 7039SOL    HW132576   0.890   3.869   1.651 -0.9371 -0.1671  0.0915
 7039SOL    HW232577   0.899   3.864   1.497  0.4981 -0.4375 -0.5110
 7040SOL     OW32578   0.026   2.197   5.182  0.0624  0.1018  0.5054
 7040SOL    HW132579   0.099   2.255   5.205  1.9745 -1.0586 -2.6247
 7040SOL    HW232580   0.015   2.150   5.265 -0.6533  0.4191  0.5927
 7041SOL     OW32581   2.264   0.347   1.453 -0.7871 -0.3850 -0.2662
 7041SOL    HW132582   2.246   0.425   1.506 -0.5892  0.1700 -1.0154
 7041SOL    HW232583   2.219   0.352   1.369  1.1384 -1.0429 -1.3188
 7042SOL     OW32584   0.075   0.583   1.655  0.3803 -0.1035  0.6175
 7042SOL    HW132585   0.072   0.532   1.736  1.2277 -0.5220  0.3859
 7042SOL    HW232586   0.073   0.673   1.689  2.5475  0.8789 -1.8591
 7043SOL     OW32587   0.023   1.988   3.168  0.3223  0.2043  0.3306
 7043SOL    HW132588   0.036   2.070   3.216 -3.5336 -0.2795  2.1938
 7043SOL    HW232589   0.023   2.029   3.082 -0.0097  0.6940  0.5679
 7044SOL     OW32590   1.659   0.478   3.426  0.0928  0.0951  0.2762
 7044SOL    HW132591   1.660   0.553   3.485 -0.8186 -0.4610  0.9965
 7044SOL    HW232592   1.608   0.424   3.487  0.4635  0.2309  0.7112
 7045SOL     OW32593   1.566   3.366   3.485 -0.2581  0.4325  0.2704
 7045SOL    HW132594   1.475   3.394   3.497 -0.3092  0.7794 -0.8842
 7045SOL    HW232595   1.580   3.398   3.396  0.2687  4.4960  1.8447
 7046SOL     OW32596   2.448   0.586   4.765 -0.6953 -0.7753 -0.2287
 7046SOL    HW132597   2.397   0.631   4.833  0.3582  0.5204 -0.3001
 7046SOL    HW232598   2.378   0.534   4.726 -0.9842 -0.1029 -0.6078
 7047SOL     OW32599   1.881   4.583   5.839  0.7473 -0.4182  0.4375
 7047SOL    HW132600   1.856   4.555   5.750  2.5213 -0.5543 -0.0103
 7047SOL    HW232601   1.852   4.674   5.839 -0.0101 -0.6565  0.9240
 7048SOL     OW32602   1.898   0.740   8.872  0.3281 -0.2174 -0.0760
 7048SOL    HW132603   1.990   0.760   8.853  0.7314 -1.4751  0.6001
 7048SOL    HW232604   1.906   0.646   8.886  2.0521 -0.0650 -0.0536
 7049SOL     OW32605   0.543   1.908  17.291 -0.2453  0.4986 -0.0773
 7049SOL    HW132606   0.448   1.908  17.303 -0.2801  0.5943 -0.3457
 7049SOL    HW232607   0.584   1.994  17.285 -0.0210  0.2934 -1.4411
 7050SOL     OW32608   0.008   2.893   1.734  0.4368  0.4932  0.0605
 7050SOL    HW132609   0.015   2.924   1.644  0.5642 -1.1987 -0.5130
 7050SOL    HW232610   0.100   2.891   1.759  0.2158  1.3562  0.9746
 7051SOL     OW32611   2.403   4.655  14.848 -0.2520 -0.4258 -0.4810
 7051SOL    HW132612   2.470   4.706  14.802  0.4638  0.7495  1.8909
 7051SOL    HW232613   2.455   4.596  14.902 -1.2547 -1.6111 -0.7826
 7052SOL     OW32614   2.377   1.213   7.120 -0.0067  0.2428  0.1361
 7052SOL    HW132615   2.321   1.187   7.047  0.3557 -0.9809  0.2821
 7052SOL    HW232616   2.371   1.134   7.174 -1.0061  0.8171  0.8650
 7053SOL     OW32617   4.124   0.359   1.978  0.4776  0.2751  0.0863
 7053SOL    HW132618   4.162   0.436   1.936 -2.0615  1.8628  0.6858
 7053SOL    HW232619   4.195   0.296   1.969  1.2266  1.1429 -0.1323
 7054SOL     OW32620   2.007   1.081   6.345  0.0674 -0.0409  0.4350
 7054SOL    HW132621   2.029   1.115   6.432  1.2940 -0.0267  0.1134
 7054SOL    HW232622   2.046   0.994   6.345 -1.0744 -0.5529  0.3337
 7055SOL     OW32623   1.872   0.626  14.425 -0.8120  0.1784  0.8894
 7055SOL    HW132624   1.893   0.584  14.508  1.0600 -1.2250 -0.3066
 7055SOL    HW232625   1.868   0.714  14.463 -1.6612 -0.0366  1.3062
 7056SOL     OW32626   0.324   0.208   3.597  0.1034  0.6418  0.6874
 7056SOL    HW132627   0.416   0.224   3.576 -0.6733  0.3892 -2.8096
 7056SOL    HW232628   0.309   0.115   3.579  0.2970  0.9009 -0.7743
 7057SOL     OW32629   2.876   1.216  16.689  0.7955  0.4180 -0.3211
 7057SOL    HW132630   2.967   1.247  16.693  0.9938 -0.1159 -0.6499
 7057SOL    HW232631   2.899   1.149  16.625  1.8580 -0.8256  1.3770
 7058SOL     OW32632   3.621   4.536  11.875 -0.0441  0.1242 -0.5372
 7058SOL    HW132633   3.673   4.536  11.794 -0.3033  1.3223 -0.7047
 7058SOL    HW232634   3.599   4.628  11.887 -0.7580 -0.0103 -0.8053
 7059SOL     OW32635   3.520   1.968   6.513  0.6798  0.5617 -0.1448
 7059SOL    HW132636   3.486   1.987   6.601  1.3970  2.4627 -0.2626
 7059SOL    HW232637   3.562   1.885   6.535  1.7375  0.8496 -1.0462
 7060SOL     OW32638   3.318   0.978  14.350  0.0959  0.0929  0.7215
 7060SOL    HW132639   3.317   0.883  14.350  0.8519  0.0704 -1.9770
 7060SOL    HW232640   3.280   1.004  14.266  0.5141 -0.7066  0.2807
 7061SOL     OW32641   2.379   2.660   0.190 -0.5209  0.0805  0.4485
 7061SOL    HW132642   2.388   2.609   0.109  0.4934  2.4142 -0.9167
 7061SOL    HW232643   2.468   2.651   0.225 -0.8452 -0.8420  1.0468
 7062SOL     OW32644   4.052   3.414   3.118  0.3175  0.2770 -0.3775
 7062SOL    HW132645   4.004   3.332   3.110  0.6113 -0.1241  1.8836
 7062SOL    HW232646   4.012   3.444   3.199  1.4688  0.4046  0.1489
 7063SOL     OW32647   3.593   3.882   3.959 -0.0461  0.1072 -0.1095
 7063SOL    HW132648   3.509   3.911   3.925  1.2713  2.3791 -1.4502
 7063SOL    HW232649   3.648   3.955   3.931  0.3085 -0.6234 -1.3443
 7064SOL     OW32650   3.739   4.109   2.030  0.0269 -0.3726  0.1328
 7064SOL    HW132651   3.811   4.091   2.091 -0.6440  0.8497  1.2890
 7064SOL    HW232652   3.772   4.183   1.979 -1.9489  0.3963 -0.0079
 7065SOL     OW32653   0.576   3.846  16.384  0.1008  0.8647 -0.3243
 7065SOL    HW132654   0.532   3.871  16.303 -3.5076 -1.5797  0.8969
 7065SOL    HW232655   0.667   3.867  16.360  0.1746  0.8930 -0.0218
 7066SOL     OW32656   0.742   2.770   8.181 -0.2182 -1.1374  0.1586
 7066SOL    HW132657   0.795   2.712   8.127  0.9394  0.4095 -0.3830
 7066SOL    HW232658   0.726   2.717   8.259  2.3960 -1.1048  0.7048
 7067SOL     OW32659   3.582   4.481   6.304  0.7703 -0.0979  0.5185
 7067SOL    HW132660   3.570   4.414   6.237  1.1071 -0.8385  1.1983
 7067SOL    HW232661   3.496   4.523   6.306  0.2951 -1.0098 -0.6762
 7068SOL     OW32662   3.885   0.461   7.085 -0.5343 -0.0326 -0.5408
 7068SOL    HW132663   3.893   0.461   6.990  2.3178  2.8564 -0.3030
 7068SOL    HW232664   3.810   0.516   7.109 -1.8961 -2.8114  1.5874
 7069SOL     OW32665   1.287   3.530  14.889 -0.5072 -0.1428  0.0361
 7069SOL    HW132666   1.327   3.455  14.932 -0.8848 -0.1210  0.4290
 7069SOL    HW232667   1.251   3.494  14.808 -2.8282 -2.5362  2.1166
 7070SOL     OW32668   1.326   4.410   6.812 -0.5572 -0.8549  0.0050
 7070SOL    HW132669   1.374   4.432   6.732  0.5733  0.7015  1.1337
 7070SOL    HW232670   1.387   4.439   6.879 -0.8891 -0.4547  0.1348
 7071SOL     OW32671   4.405   1.235  12.920  0.3075  0.0700 -0.5659
 7071SOL    HW132672   4.412   1.151  12.965  0.0177  0.7680  0.7716
 7071SOL    HW232673   4.497   1.256  12.903  0.1322 -1.3623 -3.3111
 7072SOL     OW32674   4.329   4.037   4.993 -0.0569  0.1505  0.2386
 7072SOL    HW132675   4.388   3.979   4.945 -0.6041 -1.1245  1.0886
 7072SOL    HW232676   4.366   4.120   4.965 -0.1999  0.6314  1.4828
 7073SOL     OW32677   2.982   4.575   9.064  0.2292  0.1002 -0.0611
 7073SOL    HW132678   2.954   4.626   8.988 -0.3188 -0.5973 -0.3268
 7073SOL    HW232679   2.897   4.552   9.101  0.7626 -2.4839 -0.4153
 7074SOL     OW32680   3.215   2.010   7.477  0.2350  0.7980  0.4965
 7074SOL    HW132681   3.165   1.940   7.434  0.8235  0.0006  1.1042
 7074SOL    HW232682   3.144   2.019   7.541  0.6597 -0.6843  1.1772
 7075SOL     OW32683   0.405   2.464  10.521  0.0109 -0.3391 -0.2504
 7075SOL    HW132684   0.450   2.451  10.437  0.1598  0.4183 -0.2849
 7075SOL    HW232685   0.317   2.430  10.505 -0.5814  1.0082  0.1402
 7076SOL     OW32686   1.355   3.298  16.600 -0.1993 -0.3219 -0.1682
 7076SOL    HW132687   1.269   3.299  16.558  0.2469 -0.7884 -1.0957
 7076SOL    HW232688   1.334   3.270  16.689 -0.5610  0.7497  0.0862
 7077SOL     OW32689   0.153   0.449   9.173  0.4779 -0.5346 -0.0358
 7077SOL    HW132690   0.138   0.518   9.108  1.4021 -0.4858 -0.1959
 7077SOL    HW232691   0.087   0.384   9.148  0.3003 -0.6617  0.7636
 7078SOL     OW32692   2.596   4.184   8.405 -0.2013  0.3791 -0.0889
 7078SOL    HW132693   2.599   4.275   8.374 -1.1039  1.5440  3.2512
 7078SOL    HW232694   2.635   4.191   8.492  0.0644 -0.4789 -0.1359
 7079SOL     OW32695   4.241   0.744  11.911  0.1632 -0.3384  0.3829
 7079SOL    HW132696   4.229   0.769  11.820 -0.0103 -2.0541 -0.0685
 7079SOL    HW232697   4.196   0.819  11.950  0.1039 -0.2363  0.1163
 7080SOL     OW32698   0.060   0.897  12.655  0.5330 -0.5766 -0.1084
 7080SOL    HW132699   0.051   0.986  12.622 -1.6362 -0.1755  1.5966
 7080SOL    HW232700   0.148   0.864  12.636  1.8245  2.2567  1.0050
 7081SOL     OW32701   2.494   3.445  11.711 -0.6666  0.2571 -0.0473
 7081SOL    HW132702   2.533   3.451  11.798  2.3849 -1.8510 -1.2707
 7081SOL    HW232703   2.562   3.492  11.662  0.5573 -2.3039 -0.8048
 7082SOL     OW32704   1.729   2.534   9.785 -0.2066 -0.0029 -0.1577
 7082SOL    HW132705   1.704   2.485   9.706 -0.5453  0.1355 -0.1353
 7082SOL    HW232706   1.648   2.539   9.836  0.9212 -3.6258  2.0521
 7083SOL     OW32707   0.372   3.809  11.552  0.4742  0.1577  0.1702
 7083SOL    HW132708   0.407   3.734  11.502 -1.3188 -0.4798 -0.1455
 7083SOL    HW232709   0.308   3.751  11.594 -0.6701  1.3940  0.1166
 7084SOL     OW32710   1.202   2.890   2.634 -0.0403 -0.1716  0.2330
 7084SOL    HW132711   1.262   2.963   2.616 -0.6450  0.4778  0.8329
 7084SOL    HW232712   1.210   2.844   2.550 -1.0263 -0.9723  0.5834
 7085SOL     OW32713   4.267   2.620   6.871  0.3103  0.3225  0.3158
 7085SOL    HW132714   4.321   2.570   6.810  0.7131  0.2568  0.7271
 7085SOL    HW232715   4.298   2.567   6.945  1.8351 -0.1627 -0.6927
 7086SOL     OW32716   2.156   3.695   8.142 -0.0926  0.0993  0.0839
 7086SOL    HW132717   2.101   3.754   8.090 -0.8604  0.4759  1.3386
 7086SOL    HW232718   2.089   3.651   8.194 -0.6357  0.4768 -0.2900
 7087SOL     OW32719   2.674   1.860   3.082 -0.1632 -0.0044 -0.5971
 7087SOL    HW132720   2.633   1.786   3.038 -1.6003  0.1838  0.4161
 7087SOL    HW232721   2.633   1.933   3.035 -2.1922 -1.7311 -1.4859
 7088SOL     OW32722   0.387   1.011   0.385  0.6984 -0.4170  0.0842
 7088SOL    HW132723   0.439   1.085   0.417 -2.1871  1.2116  1.0613
 7088SOL    HW232724   0.430   0.946   0.440  0.8157  0.2108  0.7443
 7089SOL     OW32725   1.205   3.598   6.494  0.1250  0.3741  0.0271
 7089SOL    HW132726   1.208   3.519   6.549 -2.3941  2.5707  3.3318
 7089SOL    HW232727   1.290   3.638   6.508  0.7936 -1.4649  1.2589
 7090SOL     OW32728   2.475   1.851   5.039 -0.5406 -0.4261 -0.2669
 7090SOL    HW132729   2.410   1.870   4.972  1.2047 -0.3822 -1.9485
 7090SOL    HW232730   2.430   1.775   5.076  1.4007  0.4392  3.9236
 7091SOL     OW32731   0.131   2.885   4.173  0.0769 -0.0420 -0.2382
 7091SOL    HW132732   0.183   2.816   4.214 -0.9596 -1.0420 -0.6193
 7091SOL    HW232733   0.204   2.940   4.143 -1.3237  1.4012 -1.0347
 7092SOL     OW32734   1.275   0.973  17.522 -0.4390  0.3239  0.0865
 7092SOL    HW132735   1.228   1.016  17.451 -0.2160 -1.9797 -1.4700
 7092SOL    HW232736   1.233   0.887  17.518 -2.1796  1.4061 -4.9997
 7093SOL     OW32737   4.395   1.264   8.329  0.0239 -1.1754  0.3872
 7093SOL    HW132738   4.486   1.267   8.361 -0.3670  1.3810  1.2533
 7093SOL    HW232739   4.381   1.170   8.316 -0.6354 -1.1089  0.6315
 7094SOL     OW32740   3.689   0.095   5.436  0.0883  0.5080  0.3053
 7094SOL    HW132741   3.650   0.165   5.383 -0.5241 -0.8254 -1.0230
 7094SOL    HW232742   3.646   0.013   5.412 -0.4576  0.5273  1.2071
 7095SOL     OW32743   3.108   4.700   5.278  0.3041 -0.1816 -0.0948
 7095SOL    HW132744   3.166   0.037   5.227  0.6078  1.8587  2.4324
 7095SOL    HW232745   3.126   0.017   5.365  0.9876  0.3757 -0.4705
 7096SOL     OW32746   0.601   1.194   2.796 -0.2492  0.4630  0.0815
 7096SOL    HW132747   0.527   1.174   2.853  0.3553 -1.4535  0.2066
 7096SOL    HW232748   0.637   1.276   2.829 -0.2209  0.1204  0.9147
 7097SOL     OW32749   1.455   3.856   0.512  0.1809  0.1792  0.0466
 7097SOL    HW132750   1.507   3.866   0.432 -1.7263  1.0754 -1.0694
 7097SOL    HW232751   1.435   3.947   0.534 -0.3057 -0.4689  2.3143
 7098SOL     OW32752   1.764   2.316   0.072  0.0913 -0.0825 -0.6536
 7098SOL    HW132753   1.776   2.330   0.166  1.8174 -1.1854 -0.7120
 7098SOL    HW232754   1.676   2.279   0.067 -0.5539  1.3465  0.2603
 7099SOL     OW32755   1.714   4.109  15.886  0.8248 -0.1727 -0.6356
 7099SOL    HW132756   1.688   4.042  15.823 -0.5331 -2.1368  2.0222
 7099SOL    HW232757   1.662   4.185  15.862 -1.3913 -1.2722  0.6206
 7100SOL     OW32758   3.474   2.675   8.829  0.1233  0.0936  0.1826
 7100SOL    HW132759   3.382   2.652   8.840 -0.2419  1.8621  0.8409
 7100SOL    HW232760   3.496   2.684   8.922 -0.2511 -0.6749  0.3410
 7101SOL     OW32761   3.042   1.127   3.831  0.2430 -0.0010  0.6513
 7101SOL    HW132762   2.962   1.163   3.869 -0.2992  0.4136 -0.9145
 7101SOL    HW232763   3.058   1.193   3.764 -1.9835 -1.0519 -0.9238
 7102SOL     OW32764   3.487   0.813  14.045  0.5916 -0.0795 -0.1513
 7102SOL    HW132765   3.394   0.803  14.022  0.9641 -2.1985 -0.7377
 7102SOL    HW232766   3.524   0.839  13.960  0.6580 -0.6250 -0.2834
 7103SOL     OW32767   3.637   4.280  15.634  0.5587  0.7363  1.0250
 7103SOL    HW132768   3.570   4.348  15.646  3.5408  3.8259  0.2034
 7103SOL    HW232769   3.668   4.254  15.720  1.1492 -2.9143 -0.3187
 7104SOL     OW32770   3.954   0.440   5.228  0.0107  0.1441  0.5184
 7104SOL    HW132771   4.031   0.417   5.176 -0.9322 -0.7265 -0.5107
 7104SOL    HW232772   3.971   0.529   5.257 -1.1766  0.1399  1.2073
 7105SOL     OW32773   4.636   0.902  13.213  0.1534 -0.2007  0.8100
 7105SOL    HW132774   4.692   0.898  13.136 -0.5218  0.4075  0.2840
 7105SOL    HW232775   4.575   0.971  13.186  0.1629  0.1052  1.5766
 7106SOL     OW32776   3.807   2.496  16.160 -0.0224 -0.0399  0.3868
 7106SOL    HW132777   3.868   2.441  16.112 -1.9736  0.0713 -2.2527
 7106SOL    HW232778   3.838   2.576  16.118 -1.4276  0.2842 -0.0643
 7107SOL     OW32779   3.598   0.901   8.404  0.2403  0.2621 -0.4210
 7107SOL    HW132780   3.688   0.916   8.434  1.1258 -2.3763 -1.7068
 7107SOL    HW232781   3.549   0.980   8.425  0.6026  0.6232 -0.9219
 7108SOL     OW32782   2.526   4.565   3.475 -0.4837  0.0062 -0.6825
 7108SOL    HW132783   2.507   4.478   3.512 -1.8531 -0.2700 -2.0390
 7108SOL    HW232784   2.573   4.539   3.395  0.5312  3.2190 -1.1106
 7109SOL     OW32785   4.369   1.003  17.590  0.0640 -0.2078 -0.2272
 7109SOL    HW132786   4.396   0.949  17.515  1.1930  1.8814 -1.3118
 7109SOL    HW232787   4.434   0.971  17.654  0.8360 -1.3895 -1.5942
 7110SOL     OW32788   0.210   2.043   6.181  0.0584 -0.0135 -0.5414
 7110SOL    HW132789   0.247   2.071   6.265 -0.6753 -1.9923  0.4444
 7110SOL    HW232790   0.181   2.121   6.135 -1.2333 -0.5314 -0.6100
 7111SOL     OW32791   0.180   1.892   7.308  0.0217 -0.2051  0.3798
 7111SOL    HW132792   0.153   1.960   7.370  0.6635  1.3425 -1.0433
 7111SOL    HW232793   0.266   1.874   7.347  0.7660  0.0083 -1.1520
 7112SOL     OW32794   3.870   0.969   8.444 -0.2520 -0.5198 -0.4790
 7112SOL    HW132795   3.948   0.981   8.499  0.0468 -1.0266 -0.7904
 7112SOL    HW232796   3.904   0.903   8.384  2.5509 -1.2240  1.9147
 7113SOL     OW32797   0.326   4.090   7.442 -0.0771 -0.2518 -0.0532
 7113SOL    HW132798   0.390   4.105   7.372 -0.8565 -0.1515 -0.7442
 7113SOL    HW232799   0.249   4.065   7.390  0.1156 -2.5763  0.7945
 7114SOL     OW32800   2.793   2.580   9.043  0.6570 -0.6772 -0.9953
 7114SOL    HW132801   2.754   2.541   9.121  2.2947  1.5730  0.9656
 7114SOL    HW232802   2.813   2.665   9.082 -1.5753 -0.8126  0.4350
 7115SOL     OW32803   2.617   0.253   0.290 -0.2326  0.5542 -0.0158
 7115SOL    HW132804   2.529   0.214   0.293  0.7879 -1.6447  0.9900
 7115SOL    HW232805   2.663   0.217   0.365 -0.4476 -0.7492 -0.5172
 7116SOL     OW32806   0.778   0.036   7.273 -0.3906  0.1718  0.3290
 7116SOL    HW132807   0.826   0.029   7.191 -1.0557 -1.2084  0.0464
 7116SOL    HW232808   0.687   0.033   7.245 -0.0333 -0.5552 -0.7353
 7117SOL     OW32809   0.810   3.058   2.643  0.0071 -0.0323  0.4100
 7117SOL    HW132810   0.716   3.045   2.627 -0.1864 -1.2733  2.5817
 7117SOL    HW232811   0.832   3.151   2.651  3.1689 -0.6947 -0.5985
 7118SOL     OW32812   1.122   0.690  12.068 -0.9468  0.3327  0.0337
 7118SOL    HW132813   1.138   0.602  12.102 -0.8093 -0.1019 -1.1751
 7118SOL    HW232814   1.094   0.738  12.146 -0.1407  1.1474 -0.1689
 7119SOL     OW32815   2.518   0.432  11.523  0.7567  0.8485 -0.5966
 7119SOL    HW132816   2.518   0.525  11.547 -4.5189  0.6591  0.1838
 7119SOL    HW232817   2.430   0.431  11.485  0.8322  0.7005 -0.7661
 7120SOL     OW32818   0.880   2.643   0.149  0.1453  0.0472 -0.4109
 7120SOL    HW132819   0.872   2.549   0.165  0.7675 -0.1045 -0.9811
 7120SOL    HW232820   0.787   2.655   0.128 -0.0551 -3.1149 -1.4494
 7121SOL     OW32821   1.013   4.508  12.433  0.1550  0.3449 -0.2650
 7121SOL    HW132822   1.047   4.553  12.356 -0.3874  0.7740 -0.2598
 7121SOL    HW232823   0.919   4.505  12.414  0.4360  1.5688 -1.8671
 7122SOL     OW32824   1.822   1.803   6.926 -0.6890 -0.1804  0.0654
 7122SOL    HW132825   1.899   1.754   6.955 -1.7574 -2.4472 -0.9404
 7122SOL    HW232826   1.821   1.787   6.831  1.2992  1.0761 -0.1582
 7123SOL     OW32827   2.663   1.877   2.519  0.0070 -0.1638 -0.1768
 7123SOL    HW132828   2.586   1.890   2.463  1.2058 -1.5051 -2.1704
 7123SOL    HW232829   2.637   1.795   2.559 -0.1338 -1.0375 -2.0558
 7124SOL     OW32830   1.374   1.159   0.030 -0.5544  0.2740 -0.2659
 7124SOL    HW132831   1.351   1.079  17.664  1.1037  0.0117 -0.6119
 7124SOL    HW232832   1.312   1.145   0.102  2.5047 -1.7556  1.9802
 7125SOL     OW32833   4.280   2.195   8.815 -0.1093 -0.2304  1.1664
 7125SOL    HW132834   4.305   2.236   8.732 -0.3467  1.5592  1.9902
 7125SOL    HW232835   4.188   2.218   8.829 -0.0108  1.1859 -0.5324
 7126SOL     OW32836   3.021   1.551  10.147 -0.2796 -0.3858 -0.5261
 7126SOL    HW132837   3.088   1.549  10.079  1.3572 -2.3675  1.1578
 7126SOL    HW232838   2.947   1.533  10.088  0.3514 -0.8327 -1.1799
 7127SOL     OW32839   4.510   2.339   1.108 -0.0936 -0.0186 -0.5980
 7127SOL    HW132840   4.501   2.336   1.012 -0.9348  0.6549 -0.5379
 7127SOL    HW232841   4.497   2.433   1.121  0.2632  0.1196 -1.1924
 7128SOL     OW32842   0.438   4.454  15.336  0.1021  0.5429  0.2444
 7128SOL    HW132843   0.481   4.373  15.308 -1.4692 -0.5972  1.0770
 7128SOL    HW232844   0.386   4.409  15.403  0.1666 -0.9168 -0.6907
 7129SOL     OW32845   1.749   4.629   6.433  0.1872 -0.4656  0.7991
 7129SOL    HW132846   1.672   4.687   6.432  0.8962  0.4580 -0.0561
 7129SOL    HW232847   1.809   4.661   6.499 -0.5214 -2.0755  2.2111
 7130SOL     OW32848   3.602   0.348   8.052  0.0343  0.1256 -0.1905
 7130SOL    HW132849   3.633   0.277   7.996 -1.1193 -1.5749  1.3207
 7130SOL    HW232850   3.674   0.349   8.114 -0.7832  1.1473  0.7466
 7131SOL     OW32851   2.606   2.973   5.787 -0.3701  0.5588  0.3669
 7131SOL    HW132852   2.628   3.062   5.813 -0.0003  0.9290 -1.1976
 7131SOL    HW232853   2.591   2.931   5.872 -0.5515  2.2353  1.1530
 7132SOL     OW32854   4.371   1.312   1.442  0.5070 -0.0922 -0.0221
 7132SOL    HW132855   4.343   1.347   1.527 -1.7484  0.5837 -1.0629
 7132SOL    HW232856   4.331   1.368   1.376 -0.7503 -1.4540 -0.4086
 7133SOL     OW32857   0.139   4.059   1.261 -0.2863  0.3048 -0.5149
 7133SOL    HW132858   0.212   4.083   1.204  0.8445 -1.0628  0.3424
 7133SOL    HW232859   0.176   4.066   1.349 -1.5470 -2.4482  0.2336
 7134SOL     OW32860   2.169   3.249   2.954  0.0342 -0.1263  0.4107
 7134SOL    HW132861   2.244   3.255   2.895 -0.5157  2.7760 -0.0015
 7134SOL    HW232862   2.107   3.200   2.901  0.5097  0.8760 -1.0565
 7135SOL     OW32863   3.312   4.053   8.457 -0.3831 -0.0563 -0.0774
 7135SOL    HW132864   3.277   3.980   8.406  1.0416 -0.1815 -0.8955
 7135SOL    HW232865   3.362   4.008   8.526  2.4121 -2.3116 -3.5640
 7136SOL     OW32866   2.551   3.129  16.263 -0.7675 -0.1887  0.4888
 7136SOL    HW132867   2.575   3.107  16.353  0.3721 -1.3485 -0.0929
 7136SOL    HW232868   2.570   3.048  16.216  2.5869  0.0827  1.3486
 7137SOL     OW32869   0.565   0.108   9.464  0.0720 -0.3038  0.1064
 7137SOL    HW132870   0.646   0.151   9.436 -0.5804  1.2212  0.5291
 7137SOL    HW232871   0.587   0.015   9.465 -0.6932 -0.4838 -0.7849
 7138SOL     OW32872   4.306   2.332   2.399 -0.0541 -0.4887  0.3325
 7138SOL    HW132873   4.255   2.256   2.371  0.5126 -1.1889  1.1909
 7138SOL    HW232874   4.239   2.393   2.430 -0.8504 -0.7875 -0.7866
 7139SOL     OW32875   0.529   4.038   8.955  0.6945  0.4265 -0.3481
 7139SOL    HW132876   0.493   4.071   9.038  3.6693  0.5479  0.9240
 7139SOL    HW232877   0.531   3.945   8.975  2.3743 -0.0994 -3.0752
 7140SOL     OW32878   3.771   2.698   4.716 -0.4985  0.2613 -0.5586
 7140SOL    HW132879   3.710   2.625   4.718  0.1277 -0.1975  1.7705
 7140SOL    HW232880   3.808   2.690   4.804 -1.1515 -0.6961 -0.3704
 7141SOL     OW32881   3.276   0.051   1.691 -0.1096  0.9564  0.3957
 7141SOL    HW132882   3.244   0.131   1.733 -0.1690  1.1178  0.0375
 7141SOL    HW232883   3.247   4.703   1.753 -0.2272  0.9006  0.2791
 7142SOL     OW32884   1.878   2.588  10.856  0.5808 -0.5971 -0.3914
 7142SOL    HW132885   1.928   2.578  10.775 -3.3006  0.7409 -2.9887
 7142SOL    HW232886   1.885   2.678  10.887 -0.5057  0.0465 -2.0219
 7143SOL     OW32887   3.989   4.163   4.053 -0.2340 -0.3834 -0.1728
 7143SOL    HW132888   3.934   4.236   4.079  0.6032 -0.0022  0.5136
 7143SOL    HW232889   3.941   4.085   4.081 -2.4602  2.1661  2.9073
 7144SOL     OW32890   2.874   4.017   9.380  0.3551 -0.3598 -0.8734
 7144SOL    HW132891   2.935   4.067   9.433 -2.9214  1.9176  0.7216
 7144SOL    HW232892   2.926   4.001   9.301  0.6125 -1.2714 -0.5232
 7145SOL     OW32893   1.933   1.793  17.172  0.4024 -0.1674 -0.3724
 7145SOL    HW132894   1.877   1.770  17.098  1.6682 -0.0093 -1.3887
 7145SOL    HW232895   1.905   1.731  17.238  0.0141  0.2517 -0.1419
 7146SOL     OW32896   2.553   4.220   2.393 -0.2079  0.3729 -0.1581
 7146SOL    HW132897   2.611   4.193   2.464  0.1085  0.9834 -0.1879
 7146SOL    HW232898   2.466   4.240   2.427 -0.2085 -0.0936  0.1147
 7147SOL     OW32899   3.922   3.078   9.262  0.3011 -0.5103 -0.2652
 7147SOL    HW132900   3.853   3.123   9.212 -0.4872 -1.1694  0.2310
 7147SOL    HW232901   3.881   2.992   9.252  0.4938 -0.6758  0.3867
 7148SOL     OW32902   2.076   2.021  12.366 -0.2430 -0.2897 -0.0089
 7148SOL    HW132903   2.114   2.089  12.310 -0.1886 -0.5733 -0.3206
 7148SOL    HW232904   2.024   2.079  12.421 -1.3626  0.2081 -1.5862
 7149SOL     OW32905   1.297   2.492   8.910  0.2408 -0.8999 -0.1468
 7149SOL    HW132906   1.293   2.420   8.974 -0.4626 -1.3596 -0.7046
 7149SOL    HW232907   1.392   2.499   8.899 -0.0817 -0.3481 -2.5615
 7150SOL     OW32908   1.309   0.594  15.994 -0.2074 -0.0187 -0.1012
 7150SOL    HW132909   1.275   0.622  16.079 -1.0715  0.0108 -0.4490
 7150SOL    HW232910   1.381   0.550  16.039 -0.8518 -0.1911  0.7635
 7151SOL     OW32911   3.706   2.971   0.050  0.2770  0.5954 -0.6604
 7151SOL    HW132912   3.723   2.891   0.100 -1.1166  1.5363  1.3232
 7151SOL    HW232913   3.676   3.035   0.114 -0.2577 -1.1604  0.8730
 7152SOL     OW32914   2.972   3.207   1.510  0.4734  0.0939 -0.6047
 7152SOL    HW132915   2.923   3.158   1.576  2.6014  0.8088  1.4869
 7152SOL    HW232916   2.948   3.154   1.434  3.7235 -0.0169 -1.5439
 7153SOL     OW32917   3.194   2.116   0.998  0.2090 -0.5324 -0.2000
 7153SOL    HW132918   3.174   2.209   0.993 -0.9820 -0.7250  1.0419
 7153SOL    HW232919   3.104   2.085   0.998 -0.2859  0.9353 -1.2485
 7154SOL     OW32920   2.978   4.251   5.723 -0.3864  0.4403 -0.0117
 7154SOL    HW132921   2.976   4.323   5.785  0.7685  0.6933 -0.2747
 7154SOL    HW232922   2.925   4.176   5.748 -0.5466  0.1810 -1.1152
 7155SOL     OW32923   4.231   0.768   7.446 -0.4888 -0.1610  0.0805
 7155SOL    HW132924   4.217   0.855   7.409  0.6149 -0.4599 -1.0179
 7155SOL    HW232925   4.273   0.720   7.376 -1.5842 -0.2940 -0.4815
 7156SOL     OW32926   1.071   1.784  10.651 -0.5059 -0.2922  0.1058
 7156SOL    HW132927   1.076   1.773  10.556  0.4572 -0.6989  0.1993
 7156SOL    HW232928   1.156   1.825  10.668 -0.2037 -0.2046 -1.5789
 7157SOL     OW32929   0.767   2.829   4.958 -0.1760 -0.0452  0.0376
 7157SOL    HW132930   0.715   2.771   4.903  0.7754  1.0090 -1.9975
 7157SOL    HW232931   0.850   2.781   4.956 -1.2646 -1.7825 -3.4486
 7158SOL     OW32932   4.035   1.910   4.046 -0.1749  0.2660  0.0721
 7158SOL    HW132933   3.980   1.856   4.103  1.2680 -0.8752  0.3749
 7158SOL    HW232934   4.005   1.891   3.958 -0.7405  0.7427  0.1607
 7159SOL     OW32935   0.056   3.885  15.785 -0.2195  0.6007 -0.2975
 7159SOL    HW132936   4.689   3.877  15.823  0.6475 -1.5545  1.2047
 7159SOL    HW232937   0.086   3.803  15.824 -1.4343  0.3915  0.1686
 7160SOL     OW32938   1.323   0.988   6.949  0.0923 -0.1539  0.0398
 7160SOL    HW132939   1.346   0.984   7.041 -2.0154  1.1846  0.6429
 7160SOL    HW232940   1.383   1.057   6.921 -0.0463  0.5144  1.3786
 7161SOL     OW32941   1.167   0.403  14.921 -0.4095  0.1130  0.3062
 7161SOL    HW132942   1.164   0.429  14.829  3.0798  1.8682  0.6763
 7161SOL    HW232943   1.097   0.458  14.956  0.1024  0.4859  0.7504
 7162SOL     OW32944   3.277   4.380   3.879 -0.1125  0.0070  0.3263
 7162SOL    HW132945   3.200   4.436   3.864 -1.0789 -1.0439  1.3859
 7162SOL    HW232946   3.308   4.377   3.788 -0.4771 -2.9292  0.3022
 7163SOL     OW32947   0.894   2.092  13.407 -0.4943 -0.2025  0.0557
 7163SOL    HW132948   0.968   2.059  13.459 -0.5611 -0.6768 -0.1448
 7163SOL    HW232949   0.898   2.047  13.323  2.9969 -0.6294  0.4573
 7164SOL     OW32950   1.244   4.591   9.905 -0.4592 -0.1249 -0.3333
 7164SOL    HW132951   1.236   4.497   9.889  0.2101 -0.1169 -0.7100
 7164SOL    HW232952   1.281   4.585   9.993  0.3698  0.5667 -0.6331
 7165SOL     OW32953   0.617   1.282  12.523 -0.0826  0.0026  0.2701
 7165SOL    HW132954   0.620   1.301  12.429 -0.5252  2.0278  0.6876
 7165SOL    HW232955   0.673   1.350  12.559  1.2754  0.0436 -1.8732
 7166SOL     OW32956   1.574   1.845   2.953  0.0536  0.3719  0.9132
 7166SOL    HW132957   1.664   1.813   2.946  0.0410  0.3087  1.0380
 7166SOL    HW232958   1.587   1.934   2.918  1.0669 -0.1643 -0.0848
 7167SOL     OW32959   1.427   2.470  10.543 -0.1348 -0.3968 -0.3720
 7167SOL    HW132960   1.367   2.458  10.470 -0.8131  0.2731  0.0751
 7167SOL    HW232961   1.405   2.389  10.590  1.6097 -0.9391 -0.4768
 7168SOL     OW32962   3.489   0.833   7.176 -0.0604 -0.4443  0.5804
 7168SOL    HW132963   3.403   0.871   7.197 -0.3771 -0.6825 -0.2939
 7168SOL    HW232964   3.494   0.859   7.084 -1.9535 -2.1798 -0.0021
 7169SOL     OW32965   1.584   1.353  17.000 -0.4944 -0.5877  0.7303
 7169SOL    HW132966   1.495   1.335  16.972 -1.1883  0.7449  2.0580
 7169SOL    HW232967   1.639   1.331  16.925 -0.3525  0.3286  0.5620
 7170SOL     OW32968   3.686   1.972  14.386 -0.2854 -0.0347  0.1596
 7170SOL    HW132969   3.666   1.888  14.427  0.7790 -0.2125  0.3120
 7170SOL    HW232970   3.748   1.940  14.320 -2.0862  0.2409 -1.6715
 7171SOL     OW32971   3.205   0.688   5.915 -0.2817 -0.3319  0.3855
 7171SOL    HW132972   3.138   0.658   5.976 -2.1157  0.8315 -1.0548
 7171SOL    HW232973   3.280   0.662   5.969 -1.8067 -2.4166  1.5169
 7172SOL     OW32974   3.426   2.701   6.584  0.0785 -0.1031  0.0289
 7172SOL    HW132975   3.352   2.753   6.617 -1.1892 -1.0950 -1.2384
 7172SOL    HW232976   3.489   2.730   6.649  0.3504 -1.6232  0.4465
 7173SOL     OW32977   4.489   1.538   5.986 -0.3371  0.1407 -0.7512
 7173SOL    HW132978   4.579   1.554   5.957 -1.3627  2.2062 -2.7033
 7173SOL    HW232979   4.498   1.449   6.022  0.2537  0.2357 -0.6638
 7174SOL     OW32980   3.039   2.222   3.854  0.7514 -0.4589  0.1382
 7174SOL    HW132981   3.093   2.268   3.790  0.1075  0.7762  0.4782
 7174SOL    HW232982   2.957   2.217   3.806  0.1107  1.1078  1.0712
 7175SOL     OW32983   2.261   1.201   3.065  0.0460 -0.3113 -0.4252
 7175SOL    HW132984   2.302   1.272   3.016 -1.2353  0.2348 -0.7149
 7175SOL    HW232985   2.329   1.134   3.060 -1.3738 -1.5985 -2.3783
 7176SOL     OW32986   1.335   3.475   2.053 -0.0679  0.2724  0.0363
 7176SOL    HW132987   1.415   3.527   2.065  1.3806 -2.2024  1.1449
 7176SOL    HW232988   1.345   3.460   1.959 -3.7885 -0.0384 -0.3011
 7177SOL     OW32989   0.808   1.808  11.322 -0.1180  0.1496 -0.6649
 7177SOL    HW132990   0.715   1.823  11.338  0.0152  0.3743 -0.0787
 7177SOL    HW232991   0.827   1.724  11.365 -1.0793  0.6985  0.8467
 7178SOL     OW32992   3.260   0.953   7.233 -0.1578  0.0042 -0.1432
 7178SOL    HW132993   3.233   1.040   7.202  2.1526  0.4850 -0.8281
 7178SOL    HW232994   3.182   0.898   7.229  1.5481 -2.3596 -1.2268
 7179SOL     OW32995   3.259   0.648  11.915 -0.5236 -1.1010  0.1500
 7179SOL    HW132996   3.210   0.719  11.871  1.0427 -0.0739  0.0520
 7179SOL    HW232997   3.202   0.646  11.992 -0.6782 -0.2572  0.0622
 7180SOL     OW32998   1.171   1.522   3.470 -0.2631 -0.3472 -0.6504
 7180SOL    HW132999   1.161   1.567   3.554 -2.5790  0.2493 -1.2390
 7180SOL    HW233000   1.265   1.508   3.469 -0.4402 -1.5579  0.6559
 7181SOL     OW33001   0.012   4.241   7.235  0.3171  0.2086  0.1422
 7181SOL    HW133002   4.659   4.206   7.183  1.1398  0.9116 -1.4619
 7181SOL    HW233003   0.068   4.164   7.233 -1.2508 -0.9280 -0.2962
 7182SOL     OW33004   0.117   1.866   5.709 -0.5173  0.5746  0.1524
 7182SOL    HW133005   0.048   1.933   5.719 -1.2156 -0.3476  1.4970
 7182SOL    HW233006   0.176   1.898   5.778 -1.8076 -1.3658  2.1612
 7183SOL     OW33007   0.595   3.728   6.420  0.6848  0.4470  0.3445
 7183SOL    HW133008   0.597   3.635   6.444  0.9481  0.6545  1.1358
 7183SOL    HW233009   0.684   3.763   6.430  1.2888 -0.7334 -0.9304
 7184SOL     OW33010   4.365   1.583   9.541 -0.3092 -0.1172  0.2639
 7184SOL    HW133011   4.404   1.670   9.537 -0.3606 -0.0384  1.5132
 7184SOL    HW233012   4.285   1.597   9.592  0.1541 -1.8307  1.4783
 7185SOL     OW33013   2.774   2.819   7.225 -0.3190  0.0452 -0.4322
 7185SOL    HW133014   2.728   2.760   7.285 -0.6068  2.3456  1.5917
 7185SOL    HW233015   2.749   2.768   7.148 -0.7094  0.0589 -0.3185
 7186SOL     OW33016   2.624   1.087   7.124  0.4145 -0.3216 -0.3801
 7186SOL    HW133017   2.614   1.078   7.218  2.1564 -1.9513 -0.3562
 7186SOL    HW233018   2.541   1.132   7.107  1.5403  1.2238 -1.8561
 7187SOL     OW33019   0.545   1.499   7.711  0.2406 -0.0775  0.0174
 7187SOL    HW133020   0.475   1.494   7.776 -0.7570 -1.7606 -1.1950
 7187SOL    HW233021   0.571   1.408   7.721  1.3639  0.1360 -0.8991
 7188SOL     OW33022   1.139   2.095  10.777  0.0328 -0.4835 -0.0497
 7188SOL    HW133023   1.197   2.026  10.744  1.6297  0.1304  1.5183
 7188SOL    HW233024   1.191   2.172  10.755 -1.5846  0.5250 -0.3493
 7189SOL     OW33025   2.047   4.265   5.434  0.0355  0.2572  0.2874
 7189SOL    HW133026   2.123   4.215   5.463 -1.7643 -1.8801  1.2429
 7189SOL    HW233027   2.093   4.301   5.358  1.5383 -0.3562  0.9004
 7190SOL     OW33028   2.554   0.829   6.979  0.2697 -0.5278  0.3806
 7190SOL    HW133029   2.625   0.892   6.974 -0.3788  0.3402  2.1357
 7190SOL    HW233030   2.594   0.770   6.915  2.4800  0.8796  0.4632
 7191SOL     OW33031   2.936   1.958  16.048  0.0250  0.0483  0.1360
 7191SOL    HW133032   2.985   1.920  16.121 -0.3435 -0.0475  0.3345
 7191SOL    HW233033   2.879   2.013  16.102 -0.1785  1.0017 -1.0374
 7192SOL     OW33034   1.546   0.281   8.564 -0.1965 -0.1662  0.4288
 7192SOL    HW133035   1.577   0.190   8.557 -1.5170 -0.6639  1.0312
 7192SOL    HW233036   1.492   0.299   8.487 -0.4568 -2.3068  0.1074
 7193SOL     OW33037   1.800   4.684  17.581  0.1650 -0.1584  0.1632
 7193SOL    HW133038   1.848   0.037  17.621  0.3344  0.8988 -1.9551
 7193SOL    HW233039   1.868   4.618  17.586  0.4716  0.3287  2.5515
 7194SOL     OW33040   1.946   2.105   6.847 -0.1658 -0.2279  0.1979
 7194SOL    HW133041   1.903   2.184   6.879  3.4590  1.0916  1.8764
 7194SOL    HW233042   1.895   2.086   6.768  0.3412 -3.6785  0.7041
 7195SOL     OW33043   3.165   1.555   4.517  0.5340 -0.5313 -0.3209
 7195SOL    HW133044   3.220   1.601   4.454  2.8887  0.0603  2.1370
 7195SOL    HW233045   3.220   1.540   4.594  1.3108  1.7564 -0.4288
 7196SOL     OW33046   0.466   0.439   3.681 -0.1919  0.3263  0.1374
 7196SOL    HW133047   0.438   0.500   3.750 -1.6925 -0.2310  0.0126
 7196SOL    HW233048   0.382   0.419   3.641  0.6502 -0.5969 -1.1831
 7197SOL     OW33049   1.505   2.989   6.872 -0.1072 -0.1635 -0.1610
 7197SOL    HW133050   1.598   2.969   6.880  0.6553  2.1828 -3.0989
 7197SOL    HW233051   1.481   2.905   6.834 -2.1331 -0.9470  2.8677
 7198SOL     OW33052   2.657   0.282   2.790  0.1146 -0.1231 -0.0756
 7198SOL    HW133053   2.630   0.205   2.840  1.7474  0.2247  1.3430
 7198SOL    HW233054   2.719   0.322   2.851 -0.7150 -0.8418  1.2291
 7199SOL     OW33055   2.364   3.717   6.019  0.2970 -0.6628  0.0582
 7199SOL    HW133056   2.446   3.764   6.035 -0.5555  0.1698  1.9578
 7199SOL    HW233057   2.321   3.719   6.104  1.9456 -2.5986  0.9317
 7200SOL     OW33058   0.801   2.631  15.867  0.0614 -0.1717  0.1103
 7200SOL    HW133059   0.894   2.631  15.845 -0.2627 -2.3855 -1.3079
 7200SOL    HW233060   0.781   2.685  15.790 -0.1270 -0.2838  0.0822
 7201SOL     OW33061   0.200   3.601   1.561  0.3165 -0.0762  0.0288
 7201SOL    HW133062   0.167   3.574   1.476  0.0980  1.8156 -0.4823
 7201SOL    HW233063   0.173   3.528   1.617 -1.8640 -1.1274 -2.4194
 7202SOL     OW33064   3.595   4.589   8.312  0.8702  0.3567  0.0304
 7202SOL    HW133065   3.516   4.637   8.337 -0.2606 -2.0136  1.0178
 7202SOL    HW233066   3.645   4.662   8.275  0.1800 -0.0518 -1.7241
 7203SOL     OW33067   3.525   1.050   0.775  0.8201 -0.1686  0.4531
 7203SOL    HW133068   3.572   1.133   0.767  0.2040  0.1121 -0.2040
 7203SOL    HW233069   3.518   1.028   0.683 -2.2757 -0.3370  0.7488
 7204SOL     OW33070   2.622   0.934   4.843 -0.3619  0.3291  0.3879
 7204SOL    HW133071   2.621   0.878   4.766  0.2745  0.4210  0.3096
 7204SOL    HW233072   2.646   1.021   4.812  0.4094  0.6745  1.9400
 7205SOL     OW33073   4.552   1.559   3.620  0.7822 -0.0314 -0.1571
 7205SOL    HW133074   4.568   1.623   3.550  1.9822  1.0624  1.1077
 7205SOL    HW233075   4.494   1.613   3.674  0.7495 -0.4224  0.1965
 7206SOL     OW33076   1.007   3.750   3.137  0.7271  0.0036  0.1531
 7206SOL    HW133077   1.009   3.845   3.122 -0.6871  0.0574  0.3418
 7206SOL    HW233078   1.014   3.747   3.232  2.3290  2.0351  0.1053
 7207SOL     OW33079   3.710   4.399  14.922 -0.6152  0.0292 -0.1276
 7207SOL    HW133080   3.643   4.461  14.951 -3.0818 -2.1601 -1.1136
 7207SOL    HW233081   3.658   4.319  14.908 -1.0380  0.1610  0.7305
 7208SOL     OW33082   2.106   3.268  17.492 -0.0628  0.5151 -0.1139
 7208SOL    HW133083   2.124   3.219  17.572  1.3989  0.4607 -0.4753
 7208SOL    HW233084   2.151   3.214  17.428  0.6322 -2.0095  2.4855
 7209SOL     OW33085   0.179   4.007  14.592 -0.0239 -0.4457  0.0837
 7209SOL    HW133086   0.104   3.988  14.536 -0.2662 -1.2136  0.6778
 7209SOL    HW233087   0.242   4.050  14.534  0.3016 -2.8416 -1.3332
 7210SOL     OW33088   4.040   4.057  10.352  0.2683  0.2103 -0.5634
 7210SOL    HW133089   4.080   4.144  10.345  1.6721 -0.5701 -2.1065
 7210SOL    HW233090   4.005   4.058  10.442 -2.1332  0.1107 -1.5031
 7211SOL     OW33091   0.846   1.822   2.399  0.8242 -0.2012 -0.6856
 7211SOL    HW133092   0.844   1.798   2.306 -1.6619 -1.9728 -0.1894
 7211SOL    HW233093   0.933   1.786   2.412  1.5318  1.1372 -1.7327
 7212SOL     OW33094   4.559   3.671   1.604 -0.4975  0.6048 -0.0953
 7212SOL    HW133095   4.513   3.701   1.682 -4.5282 -2.1068 -1.3779
 7212SOL    HW233096   4.600   3.591   1.636  2.2848  1.8399 -0.6319
 7213SOL     OW33097   2.736   1.373   2.481 -0.0182 -0.4070  0.3666
 7213SOL    HW133098   2.707   1.370   2.390  1.9350  0.8403 -0.2941
 7213SOL    HW233099   2.798   1.301   2.488  0.1223 -0.3224 -0.0536
 7214SOL     OW33100   2.308   4.563   9.329 -0.1863 -0.2395 -0.0581
 7214SOL    HW133101   2.367   4.488   9.319  1.3094  0.8835  0.3648
 7214SOL    HW233102   2.348   4.624   9.391 -1.4178  0.1807  0.3122
 7215SOL     OW33103   1.425   2.375   0.410 -0.0877 -0.7999 -0.0805
 7215SOL    HW133104   1.364   2.303   0.395  0.5417 -1.2417 -0.5111
 7215SOL    HW233105   1.422   2.366   0.506  1.9257  2.0765  0.2456
 7216SOL     OW33106   0.202   2.688  12.036  0.2504 -0.2424  0.2171
 7216SOL    HW133107   0.145   2.611  12.027  0.3795 -0.3581  0.3784
 7216SOL    HW233108   0.279   2.640  12.067 -0.4914  0.7516  3.6236
 7217SOL     OW33109   2.812   4.012  12.394 -0.4242 -0.1541  0.4199
 7217SOL    HW133110   2.803   3.917  12.385 -1.4651 -0.0956  0.7789
 7217SOL    HW233111   2.730   4.023  12.443  1.1313 -1.5313  3.2821
 7218SOL     OW33112   0.804   4.225   8.142 -0.6835  0.0232  0.2538
 7218SOL    HW133113   0.878   4.190   8.192 -1.3994 -2.3314 -0.3880
 7218SOL    HW233114   0.854   4.275   8.077 -0.5334 -0.1427  0.2426
 7219SOL     OW33115   2.717   3.203   4.440 -0.0592 -0.1206  0.1179
 7219SOL    HW133116   2.760   3.248   4.367 -1.0539 -0.3736 -0.6212
 7219SOL    HW233117   2.737   3.115   4.409  0.9007 -0.3965  1.5072
 7220SOL     OW33118   2.604   2.054  11.519 -0.1000 -0.2959 -0.0602
 7220SOL    HW133119   2.556   2.085  11.595 -1.2567  1.4782 -1.5430
 7220SOL    HW233120   2.697   2.066  11.541 -0.7796  1.4820  1.7415
 7221SOL     OW33121   0.514   2.674   4.038 -0.5997 -0.3607  0.3624
 7221SOL    HW133122   0.526   2.607   3.972  1.6799  1.7786 -1.3747
 7221SOL    HW233123   0.509   2.616   4.114 -1.7228  1.3879  1.6553
 7222SOL     OW33124   4.552   0.191   9.582 -0.4993 -0.2584  0.2053
 7222SOL    HW133125   4.573   0.283   9.570 -1.1104 -0.2748 -0.9730
 7222SOL    HW233126   4.471   0.202   9.633 -0.5323  1.0009 -0.1404
 7223SOL     OW33127   2.810   3.158   4.947  0.4691 -0.0881  0.8081
 7223SOL    HW133128   2.746   3.089   4.965 -1.7581  1.8858  0.4668
 7223SOL    HW233129   2.849   3.132   4.864 -0.2754 -2.2424  1.1336
 7224SOL     OW33130   2.500   3.363   6.027  0.8689 -0.4425 -0.0081
 7224SOL    HW133131   2.453   3.422   5.968 -1.3809  0.3039  2.5505
 7224SOL    HW233132   2.555   3.319   5.962  0.3121  1.0767 -1.5268
 7225SOL     OW33133   2.055   1.211   2.607  0.1683 -0.0035  0.0744
 7225SOL    HW133134   2.042   1.127   2.652  1.1886 -0.0922  0.2038
 7225SOL    HW233135   2.067   1.183   2.516  0.3692 -0.6237  0.2896
 7226SOL     OW33136   4.694   0.259   9.082  0.4019 -0.4458  0.3113
 7226SOL    HW133137   4.689   0.204   9.161  1.5029 -1.0477 -0.0407
 7226SOL    HW233138   0.041   0.213   9.032 -0.5334 -1.4028 -0.0607
 7227SOL     OW33139   1.295   3.718   5.292  0.0150  0.4880 -0.0700
 7227SOL    HW133140   1.251   3.714   5.207  0.1797 -1.9498 -0.0627
 7227SOL    HW233141   1.372   3.662   5.281 -1.6860 -2.0259  0.8588
 7228SOL     OW33142   2.505   1.180   2.357  0.7669 -0.1379 -0.1043
 7228SOL    HW133143   2.590   1.140   2.374  2.0627  3.3052  1.7526
 7228SOL    HW233144   2.463   1.114   2.303  0.9176  1.6420 -2.3832
 7229SOL     OW33145   2.188   4.204   6.616 -0.2182 -0.1525  0.4249
 7229SOL    HW133146   2.267   4.153   6.601 -0.8189 -0.2974 -2.2457
 7229SOL    HW233147   2.204   4.274   6.552 -0.3409 -1.8323 -1.4432
 7230SOL     OW33148   3.414   4.065   7.595  0.4016  0.1813 -0.2317
 7230SOL    HW133149   3.453   4.048   7.681 -0.7574  1.1064  0.4726
 7230SOL    HW233150   3.322   4.044   7.615  0.5377  2.2634  2.7050
 7231SOL     OW33151   1.392   1.889  15.692 -0.4069 -0.5908  0.1452
 7231SOL    HW133152   1.361   1.817  15.637  0.4310 -0.0877 -0.9860
 7231SOL    HW233153   1.450   1.843  15.753  1.4885  0.7796 -0.6086
 7232SOL     OW33154   4.113   2.109   6.153  0.1583  0.1824 -0.5678
 7232SOL    HW133155   4.206   2.113   6.175  0.9475  0.4787 -3.9308
 7232SOL    HW233156   4.107   2.177   6.086 -2.4305  1.1755  0.6604
 7233SOL     OW33157   3.220   3.520   5.831  0.2015  0.3548  0.2706
 7233SOL    HW133158   3.166   3.441   5.825  0.8176 -0.0268 -0.2668
 7233SOL    HW233159   3.215   3.550   5.741 -0.6591  0.1241  0.2484
 7234SOL     OW33160   1.663   2.750   2.255 -0.2577  0.3002 -0.2056
 7234SOL    HW133161   1.731   2.739   2.321 -3.8883  1.9390  3.7524
 7234SOL    HW233162   1.598   2.686   2.285 -0.5927  0.0475 -1.4594
 7235SOL     OW33163   1.050   1.597   4.590 -0.4416  0.1477  0.9045
 7235SOL    HW133164   1.116   1.618   4.524  0.2670 -2.8231  0.6396
 7235SOL    HW233165   1.100   1.534   4.641  0.8027 -1.1187 -1.9058
 7236SOL     OW33166   2.881   0.610   4.622 -0.2640 -0.1452  0.1823
 7236SOL    HW133167   2.830   0.691   4.625 -0.4414 -0.2634  0.3947
 7236SOL    HW233168   2.825   0.537   4.647 -0.2395  0.9257  3.3432
 7237SOL     OW33169   1.736   0.551   7.056 -0.4707  0.5375 -0.1837
 7237SOL    HW133170   1.662   0.568   7.115 -0.7433  0.0346 -0.3807
 7237SOL    HW233171   1.767   0.464   7.078  0.3391  0.8387 -0.1372
 7238SOL     OW33172   2.430   2.502   8.155 -0.3394 -0.2935 -0.1896
 7238SOL    HW133173   2.384   2.473   8.234  2.2679 -0.3325  1.3252
 7238SOL    HW233174   2.517   2.470   8.177 -0.2417  1.5494  2.1529
 7239SOL     OW33175   2.812   1.208   1.430  0.4807  0.1083 -0.5778
 7239SOL    HW133176   2.853   1.156   1.500  1.7266  0.0535 -1.3589
 7239SOL    HW233177   2.848   1.293   1.453  0.2826  0.6355 -2.2152
 7240SOL     OW33178   2.614   1.622  13.029 -0.6561 -0.5668  0.4566
 7240SOL    HW133179   2.641   1.708  12.997 -1.9227  0.0280  0.9784
 7240SOL    HW233180   2.628   1.567  12.951 -2.3924 -0.4222  0.0342
 7241SOL     OW33181   0.474   3.507   0.170  0.1629 -0.1557 -0.1573
 7241SOL    HW133182   0.450   3.431   0.118 -1.9456  0.7023 -0.4826
 7241SOL    HW233183   0.492   3.570   0.100 -0.5217  0.6938  0.4276
 7242SOL     OW33184   1.416   1.655   5.678 -0.0982 -0.1854 -0.5381
 7242SOL    HW133185   1.402   1.563   5.658 -0.5166  0.4151 -3.0472
 7242SOL    HW233186   1.479   1.671   5.608 -2.6968  1.5372 -2.4801
 7243SOL     OW33187   3.201   2.827   6.712  0.2363 -0.4559 -0.0933
 7243SOL    HW133188   3.141   2.835   6.638 -2.0242  0.2421  1.7947
 7243SOL    HW233189   3.149   2.851   6.789 -0.0076 -0.8099 -0.1470
 7244SOL     OW33190   3.927   4.512   9.888  0.1053 -0.7947 -0.1050
 7244SOL    HW133191   3.888   4.533   9.972 -0.0685  0.0903 -0.4026
 7244SOL    HW233192   3.893   4.581   9.831 -0.2848 -0.3619  0.6550
 7245SOL     OW33193   3.127   2.286   7.840  0.1233 -0.0397  0.5781
 7245SOL    HW133194   3.151   2.354   7.902  0.0213 -0.2647  0.8641
 7245SOL    HW233195   3.170   2.211   7.882 -0.8923  0.5580  2.6685
 7246SOL     OW33196   0.174   2.793   3.556  0.0573  0.0138 -0.6629
 7246SOL    HW133197   0.179   2.744   3.473  0.1836 -0.9635 -0.0739
 7246SOL    HW233198   0.148   2.727   3.620  0.7830 -0.2480 -0.6372
 7247SOL     OW33199   2.536   2.110   8.136  0.5035  0.1762  0.1021
 7247SOL    HW133200   2.469   2.047   8.163 -0.1247  0.5668 -0.5290
 7247SOL    HW233201   2.579   2.118   8.220  1.7506  0.0746 -0.5347
 7248SOL     OW33202   1.019   2.120   8.232 -0.4166 -0.0514 -0.7004
 7248SOL    HW133203   1.027   2.033   8.193 -1.0775 -1.1465  1.6107
 7248SOL    HW233204   1.010   2.175   8.154 -0.7685 -0.5542 -1.0135
 7249SOL     OW33205   3.073   2.964   6.508  0.0625  0.6521 -0.2550
 7249SOL    HW133206   3.156   2.953   6.461 -0.6358  2.1441 -1.8592
 7249SOL    HW233207   3.011   2.907   6.463 -0.0959  1.7799 -1.4558
 7250SOL     OW33208   0.479   3.829   2.168 -0.2988 -0.0032  0.4087
 7250SOL    HW133209   0.552   3.852   2.226 -2.2903  0.8748  2.5399
 7250SOL    HW233210   0.502   3.737   2.152 -0.3007 -0.3223  2.1602
 7251SOL     OW33211   0.341   2.362   7.474  0.1232  0.0496  0.4416
 7251SOL    HW133212   0.432   2.386   7.487  0.6890 -1.3828 -0.8612
 7251SOL    HW233213   0.303   2.430   7.530  1.1872  0.7290  0.3457
 7252SOL     OW33214   1.409   3.159   9.879  0.1139  0.3099  0.2445
 7252SOL    HW133215   1.458   3.241   9.887  0.9371 -0.2058  0.5615
 7252SOL    HW233216   1.348   3.180   9.808 -0.5053  1.9741  1.2750
 7253SOL     OW33217   2.229   1.471   7.279 -0.0163 -0.0996  0.3642
 7253SOL    HW133218   2.306   1.436   7.324  1.2865 -0.6949 -2.3317
 7253SOL    HW233219   2.258   1.560   7.257 -0.2981  1.1290  4.8689
 7254SOL     OW33220   0.126   4.052  10.691 -0.0898 -0.9991  0.4780
 7254SOL    HW133221   0.217   4.072  10.715  0.1538 -0.0154 -1.2804
 7254SOL    HW233222   0.132   3.957  10.675  0.5240 -0.6015 -1.7292
 7255SOL     OW33223   1.028   3.067  10.433  0.2217 -0.5531  0.8702
 7255SOL    HW133224   0.981   3.110  10.361  1.3977  1.2870  1.2177
 7255SOL    HW233225   0.992   3.111  10.510  2.8047  1.5376  0.8712
 7256SOL     OW33226   3.701   2.757  15.981  0.3636 -0.0788 -0.0851
 7256SOL    HW133227   3.678   2.711  15.900 -1.1434  1.0378 -0.2852
 7256SOL    HW233228   3.794   2.769  15.959 -0.1531  0.5289 -1.9583
 7257SOL     OW33229   1.510   0.742   2.703  0.1643 -0.4555 -0.1857
 7257SOL    HW133230   1.463   0.780   2.777 -0.5684 -0.0598 -0.8523
 7257SOL    HW233231   1.468   0.656   2.699 -0.0278 -0.2338 -2.9860
 7258SOL     OW33232   4.241   1.288  14.859  0.0645  0.0981  0.1984
 7258SOL    HW133233   4.162   1.254  14.899  0.1841  0.0008  0.3481
 7258SOL    HW233234   4.301   1.303  14.932 -0.6242 -1.0799  0.9811
 7259SOL     OW33235   1.476   1.645  11.823  0.0799 -0.1277  0.3325
 7259SOL    HW133236   1.533   1.571  11.801 -1.2961 -0.9663 -0.3628
 7259SOL    HW233237   1.409   1.595  11.870 -0.6310  1.6222  1.1739
 7260SOL     OW33238   0.972   0.676   9.355 -0.3185 -1.1782 -0.0346
 7260SOL    HW133239   0.988   0.658   9.262 -0.5589  1.5921 -0.5990
 7260SOL    HW233240   0.883   0.644   9.367 -1.2730  2.1310  1.6672
 7261SOL     OW33241   2.619   1.813  16.416  0.0432  0.3177 -0.3863
 7261SOL    HW133242   2.645   1.796  16.506  1.2049 -0.0246 -0.7794
 7261SOL    HW233243   2.544   1.871  16.430  0.4804  1.0943 -1.2600
 7262SOL     OW33244   0.682   4.676   1.496 -0.1569 -0.6276  0.3800
 7262SOL    HW133245   0.712   0.012   1.423 -1.1512 -1.9329 -1.0216
 7262SOL    HW233246   0.659   4.604   1.437 -0.6552  0.6376 -0.9595
 7263SOL     OW33247   3.346   3.690   5.164  0.1201 -0.3740  0.1919
 7263SOL    HW133248   3.303   3.754   5.107 -2.9975 -0.4461  2.4750
 7263SOL    HW233249   3.410   3.657   5.100 -0.1943 -2.6455  1.0412
 7264SOL     OW33250   0.879   0.661   0.355  0.5914  0.7590  0.9930
 7264SOL    HW133251   0.886   0.595   0.425 -0.0547  1.4217  1.6767
 7264SOL    HW233252   0.808   0.716   0.387 -1.6690 -1.1018 -0.7686
 7265SOL     OW33253   1.053   4.502   2.285 -0.5346 -0.3335  0.5722
 7265SOL    HW133254   1.021   4.412   2.293 -0.7957 -0.2584  0.3820
 7265SOL    HW233255   0.981   4.554   2.321  0.9561  2.2730 -0.1935
 7266SOL     OW33256   2.420   2.150   1.382 -0.1237  0.4792 -0.3295
 7266SOL    HW133257   2.473   2.219   1.422  3.5657 -2.1601 -0.6953
 7266SOL    HW233258   2.349   2.204   1.348  0.2788 -0.7112 -3.1093
 7267SOL     OW33259   1.992   2.945   0.499 -0.8253 -0.4371 -0.1946
 7267SOL    HW133260   2.057   2.912   0.562 -1.2917  0.1423  0.6003
 7267SOL    HW233261   1.988   2.867   0.444 -1.0509  0.1081 -0.9460
 7268SOL     OW33262   3.107   1.889   8.604  0.3737  0.9076  0.0597
 7268SOL    HW133263   3.124   1.951   8.675 -0.2890  0.1616  0.8792
 7268SOL    HW233264   3.014   1.873   8.621  0.7976 -2.4503 -0.7465
 7269SOL     OW33265   3.598   0.365   8.791 -0.0564 -0.1457  0.0015
 7269SOL    HW133266   3.538   0.295   8.818 -0.1373  0.4310  1.3228
 7269SOL    HW233267   3.567   0.369   8.700 -1.0115 -1.9810  0.2394
 7270SOL     OW33268   3.651   1.507  12.818  0.5954  0.1327 -0.4621
 7270SOL    HW133269   3.608   1.591  12.805  2.3860  1.1300 -0.0018
 7270SOL    HW233270   3.654   1.504  12.914 -0.0983  1.2813 -0.4107
 7271SOL     OW33271   2.682   4.076   1.519 -0.4159 -0.1475 -0.1683
 7271SOL    HW133272   2.718   4.078   1.608  0.1597  2.0664 -0.4710
 7271SOL    HW233273   2.589   4.085   1.539 -0.2961 -1.5316  1.0583
 7272SOL     OW33274   2.994   2.822   2.912  0.2041  0.6110  0.0866
 7272SOL    HW133275   3.026   2.743   2.955 -1.1982  0.4233  0.7816
 7272SOL    HW233276   3.013   2.811   2.819  1.4208 -0.3009  0.4346
 7273SOL     OW33277   4.677   1.911  10.709  0.0666  0.5919 -0.1737
 7273SOL    HW133278   4.648   1.836  10.656 -1.3097  0.7057  0.4379
 7273SOL    HW233279   4.596   1.936  10.753  1.0506  3.8862 -0.2455
 7274SOL     OW33280   3.961   2.708  14.663 -0.0108  0.4804  0.3294
 7274SOL    HW133281   4.052   2.698  14.691  0.3655 -0.8191 -1.3275
 7274SOL    HW233282   3.974   2.697  14.569  0.6984 -0.3460  0.5204
 7275SOL     OW33283   0.675   4.652   5.547 -0.4564 -0.3246  0.2382
 7275SOL    HW133284   0.647   0.017   5.513 -0.6438 -0.4305  0.1290
 7275SOL    HW233285   0.589   4.612   5.561 -0.6152  0.2047  0.8001
 7276SOL     OW33286   0.304   4.149   5.479  0.0467 -0.6663 -0.6565
 7276SOL    HW133287   0.316   4.066   5.432  0.6879 -0.4101 -0.9486
 7276SOL    HW233288   0.382   4.156   5.534 -0.7471  1.1353  0.2224
 7277SOL     OW33289   1.637   0.926   6.362 -0.1435 -0.2653  0.2985
 7277SOL    HW133290   1.545   0.913   6.387 -1.3315  3.1003 -2.3184
 7277SOL    HW233291   1.650   1.018   6.338  1.9445 -0.1811  1.7899
 7278SOL     OW33292   1.963   4.286   4.025  0.0288  0.3317  0.3892
 7278SOL    HW133293   2.036   4.331   4.067 -0.1097 -0.0048  0.9972
 7278SOL    HW233294   2.006   4.225   3.965 -0.8855  0.1579 -0.1010
 7279SOL     OW33295   2.828   0.741   3.587  0.4253 -0.6918  0.0955
 7279SOL    HW133296   2.912   0.776   3.556  0.1096 -0.6583 -0.7390
 7279SOL    HW233297   2.827   0.752   3.682 -1.2858  3.3358 -0.4063
 7280SOL     OW33298   0.980   1.537   7.263  0.3198  0.4926  0.6615
 7280SOL    HW133299   1.067   1.507   7.239  0.6909  2.1515 -0.0492
 7280SOL    HW233300   0.958   1.605   7.199 -0.1509 -0.1126  0.1717
 7281SOL     OW33301   0.080   3.006   2.669  0.1861 -0.1073 -0.5206
 7281SOL    HW133302   0.160   3.044   2.706 -0.7487  0.9702  0.4052
 7281SOL    HW233303   0.105   3.007   2.577  2.5720 -2.7470  0.1033
 7282SOL     OW33304   3.953   2.032   6.897  0.0380  0.4000 -0.6270
 7282SOL    HW133305   4.030   2.079   6.927 -0.5988  1.0045  0.0526
 7282SOL    HW233306   3.892   2.096   6.860  0.2079 -0.2877 -2.1006
 7283SOL     OW33307   3.220   0.195   4.030  0.0428 -0.0219 -0.0239
 7283SOL    HW133308   3.190   0.277   3.990  2.6672  0.7114 -0.5518
 7283SOL    HW233309   3.143   0.143   4.050 -1.3663  1.6239 -1.1375
 7284SOL     OW33310   0.070   1.892  10.275  0.2061  0.4682 -0.0257
 7284SOL    HW133311   0.157   1.875  10.313  1.0309  0.7536 -1.7717
 7284SOL    HW233312   0.053   1.799  10.261 -1.7224  0.8254  0.0417
 7285SOL     OW33313   0.936   0.422  10.119  0.4359  0.1000  0.0858
 7285SOL    HW133314   1.026   0.412  10.150  0.3515 -1.4854 -0.2080
 7285SOL    HW233315   0.943   0.387  10.030 -0.0230 -0.1833  0.1649
 7286SOL     OW33316   3.814   2.693   4.995 -0.4694 -1.0006  0.0328
 7286SOL    HW133317   3.806   2.786   5.014  2.4279 -0.3756 -1.8416
 7286SOL    HW233318   3.724   2.669   5.017 -0.8337  0.6193  0.2770
 7287SOL     OW33319   4.517   3.136   1.294  0.0067  0.2437 -0.2666
 7287SOL    HW133320   4.541   3.184   1.215  3.8093 -0.9238  0.1884
 7287SOL    HW233321   4.601   3.113   1.333  0.2340  0.3678 -0.6898
 7288SOL     OW33322   4.118   2.986   3.526  0.0116 -0.0633  0.2342
 7288SOL    HW133323   4.056   2.917   3.504  0.3768 -0.9853  2.0608
 7288SOL    HW233324   4.108   2.999   3.620 -0.8166  0.9969 -0.0083
 7289SOL     OW33325   2.829   3.559  11.660 -0.7182  0.5737 -0.1674
 7289SOL    HW133326   2.789   3.591  11.740  0.5647 -0.3819  0.8497
 7289SOL    HW233327   2.924   3.564  11.675 -0.9262  0.3359  1.1651
 7290SOL     OW33328   0.477   0.733   3.560  0.1287 -0.0030 -0.3762
 7290SOL    HW133329   0.520   0.814   3.531 -0.9021  1.1572  1.3266
 7290SOL    HW233330   0.542   0.665   3.546  1.0212  0.6935  0.3955
 7291SOL     OW33331   2.635   4.455   4.758 -0.2180 -0.2494  0.0888
 7291SOL    HW133332   2.596   4.527   4.807  1.4513  2.2522 -2.2210
 7291SOL    HW233333   2.720   4.484   4.726  0.4852 -1.5168  0.7852
 7292SOL     OW33334   1.573   2.859   0.467  0.3936 -0.0486  0.0923
 7292SOL    HW133335   1.632   2.846   0.393 -0.0258  1.9961 -0.5992
 7292SOL    HW233336   1.494   2.892   0.425  0.6032 -0.6450 -0.7703
 7293SOL     OW33337   1.804   3.623  16.536  0.5357  0.0258  0.0612
 7293SOL    HW133338   1.757   3.703  16.560  1.2906  0.2008  0.9593
 7293SOL    HW233339   1.735   3.563  16.566 -1.1638  1.0801 -1.7598
 7294SOL     OW33340   0.454   4.390   4.787  0.9328 -0.0812  0.2740
 7294SOL    HW133341   0.534   4.401   4.737  1.5197  0.9745  1.4337
 7294SOL    HW233342   0.449   4.296   4.802 -1.0825 -0.1576 -0.9557
 7295SOL     OW33343   2.487   1.103   5.125 -0.1577 -0.7530 -0.0084
 7295SOL    HW133344   2.500   1.181   5.072  0.4780  0.7698  2.4051
 7295SOL    HW233345   2.506   1.136   5.213  0.2035 -1.7745  0.2989
 7296SOL     OW33346   4.495   3.389   6.324  0.1611 -0.0522  0.3393
 7296SOL    HW133347   4.459   3.326   6.262  0.3594 -0.9855  1.1806
 7296SOL    HW233348   4.584   3.397   6.291  0.0903  0.8324  0.3536
 7297SOL     OW33349   0.789   3.268  13.166  0.4089 -0.1186  0.4931
 7297SOL    HW133350   0.884   3.267  13.175  0.3727 -1.7667  0.6990
 7297SOL    HW233351   0.767   3.176  13.179 -0.2686 -0.1169 -0.6274
 7298SOL     OW33352   3.730   2.182   8.929  0.3798  0.0724 -0.1327
 7298SOL    HW133353   3.669   2.115   8.899  0.5720 -0.1723  0.0271
 7298SOL    HW233354   3.793   2.123   8.970 -0.7305 -2.4173 -1.9913
 7299SOL     OW33355   4.159   0.122   0.790 -0.1607  0.1665 -0.1140
 7299SOL    HW133356   4.082   0.163   0.752  0.0725 -1.4925 -2.3711
 7299SOL    HW233357   4.136   0.126   0.883 -2.0541 -1.2824 -0.5124
 7300SOL     OW33358   4.479   0.172  17.315 -0.4521 -0.0181 -0.0133
 7300SOL    HW133359   4.477   0.078  17.298 -0.8368 -0.1300  0.6117
 7300SOL    HW233360   4.393   0.191  17.278  0.6576 -0.3632 -2.7122
 7301SOL     OW33361   1.025   3.530   3.798 -0.0842 -0.3976 -0.1723
 7301SOL    HW133362   0.942   3.494   3.767 -0.2613  0.8944 -1.2056
 7301SOL    HW233363   1.015   3.622   3.773  0.1516 -0.5470 -0.8304
 7302SOL     OW33364   3.624   1.927   3.691 -0.4163 -0.4536  0.5528
 7302SOL    HW133365   3.569   1.849   3.699  0.4309 -1.0997  0.0388
 7302SOL    HW233366   3.659   1.920   3.602  1.4734 -1.4363  1.3511
 7303SOL     OW33367   2.385   2.390   0.404  0.3867  0.5867  0.4049
 7303SOL    HW133368   2.466   2.371   0.357  0.2577 -3.9802  2.0271
 7303SOL    HW233369   2.385   2.316   0.465  2.4964  1.4154  1.4094
 7304SOL     OW33370   4.341   3.553   0.869 -0.3996 -0.7502 -0.7347
 7304SOL    HW133371   4.251   3.553   0.901 -1.1136 -4.6551 -2.8044
 7304SOL    HW233372   4.372   3.639   0.899 -0.6653 -0.0029 -2.5727
 7305SOL     OW33373   1.546   2.540   1.784  0.3253 -0.4875 -0.0694
 7305SOL    HW133374   1.501   2.495   1.856  0.8347  0.8482  1.1081
 7305SOL    HW233375   1.476   2.592   1.745 -0.4892 -2.5020 -1.2500
 7306SOL     OW33376   0.545   3.107   1.991 -0.9445 -0.3384  0.0267
 7306SOL    HW133377   0.581   3.045   2.055  1.4845  0.5011 -0.5204
 7306SOL    HW233378   0.481   3.155   2.043 -2.3278 -3.4313  1.1958
 7307SOL     OW33379   0.693   1.058   3.756 -0.2957  0.0396  0.7059
 7307SOL    HW133380   0.775   1.056   3.804 -0.6333 -2.6501  1.1259
 7307SOL    HW233381   0.706   0.983   3.698 -1.5737  0.2523  0.1432
 7308SOL     OW33382   0.556   1.348   1.713 -0.8396  0.0953 -0.0811
 7308SOL    HW133383   0.652   1.343   1.711 -0.7311  1.4926  1.3244
 7308SOL    HW233384   0.529   1.406   1.643  1.0214 -1.1483 -1.8090
 7309SOL     OW33385   3.788   3.978   4.123  0.7019 -0.5573 -0.2111
 7309SOL    HW133386   3.710   4.022   4.158  1.0409 -1.1826  1.3235
 7309SOL    HW233387   3.749   3.900   4.085 -1.8446 -0.6248  2.5299
 7310SOL     OW33388   4.268   2.973   3.244 -0.5950  0.1571 -0.5545
 7310SOL    HW133389   4.219   2.962   3.326 -0.6736 -0.5593 -0.7022
 7310SOL    HW233390   4.301   3.062   3.257 -1.3244  0.6071 -1.7698
 7311SOL     OW33391   1.661   1.412  15.597  0.4610 -0.7843 -0.3521
 7311SOL    HW133392   1.602   1.344  15.630 -0.3785  0.1227  0.0088
 7311SOL    HW233393   1.631   1.482  15.655 -0.3257  0.7066 -2.5399
 7312SOL     OW33394   1.424   2.912   4.806  0.0492  0.6029 -0.1261
 7312SOL    HW133395   1.389   2.994   4.842  2.5946  0.8077  1.8961
 7312SOL    HW233396   1.473   2.951   4.734  1.2162  2.3819  1.6349
 7313SOL     OW33397   3.983   1.844   8.436 -0.1265 -0.3213 -0.3315
 7313SOL    HW133398   3.910   1.793   8.401  0.1341 -0.6959 -0.3232
 7313SOL    HW233399   4.037   1.778   8.479  1.2268 -0.0700 -1.6698
 7314SOL     OW33400   3.843   0.250   4.381 -0.3269 -0.3934  0.3313
 7314SOL    HW133401   3.909   0.200   4.430 -0.0492  0.7814  1.1575
 7314SOL    HW233402   3.827   0.327   4.436 -4.3542 -0.8593 -0.2502
 7315SOL     OW33403   3.599   3.243  15.329 -0.2073 -0.1777  0.2065
 7315SOL    HW133404   3.584   3.285  15.245  0.2839 -0.2584  0.0779
 7315SOL    HW233405   3.692   3.256  15.348 -0.4014 -2.1755  2.4599
 7316SOL     OW33406   2.834   3.741  12.380  0.4441  0.5729 -0.1315
 7316SOL    HW133407   2.753   3.691  12.392  0.5601  0.2870 -0.5521
 7316SOL    HW233408   2.856   3.718  12.290 -0.3225 -2.5884  0.4878
 7317SOL     OW33409   4.690   0.526   2.181  0.3520  0.5924 -0.4100
 7317SOL    HW133410   4.708   0.563   2.267 -0.3263 -2.3211  0.9993
 7317SOL    HW233411   4.633   0.595   2.148 -1.0243 -0.3051  0.0750
 7318SOL     OW33412   3.420   1.779   6.145 -0.2382 -0.1171  0.2565
 7318SOL    HW133413   3.388   1.853   6.094 -0.1085  0.7386  1.4521
 7318SOL    HW233414   3.504   1.812   6.177  0.2003 -1.7199  0.7559
 7319SOL     OW33415   4.503   2.094   4.410  0.8887 -0.2705  0.2350
 7319SOL    HW133416   4.542   2.033   4.347 -0.2140 -2.1484  1.3554
 7319SOL    HW233417   4.519   2.180   4.371  3.0552 -1.0676 -0.6335
 7320SOL     OW33418   0.992   4.150   4.743  0.1991 -0.1095 -0.1382
 7320SOL    HW133419   0.998   4.077   4.681  1.8361  0.2974 -0.4602
 7320SOL    HW233420   0.905   4.190   4.735  0.2608  0.3782  1.7786
 7321SOL     OW33421   3.433   3.674   5.727 -0.4261  0.2872 -0.2325
 7321SOL    HW133422   3.343   3.653   5.751 -0.4150 -0.1210 -0.5410
 7321SOL    HW233423   3.435   3.696   5.633 -0.0796 -1.4293 -0.6284
 7322SOL     OW33424   2.210   3.374  17.165  0.7076 -0.2975  0.2934
 7322SOL    HW133425   2.257   3.411  17.091 -0.0616  0.6527  0.2832
 7322SOL    HW233426   2.254   3.414  17.240 -0.9172  3.2408 -0.6655
 7323SOL     OW33427   2.838   0.021   7.377 -0.0597  0.0877  0.2213
 7323SOL    HW133428   2.867   4.685   7.305  0.2315  0.5009  0.0198
 7323SOL    HW233429   2.921   0.039   7.421  0.2449 -0.5308 -0.1091
 7324SOL     OW33430   3.527   4.481   9.401 -0.3960 -0.0677  0.1530
 7324SOL    HW133431   3.566   4.395   9.390  1.4530  0.6098  1.4604
 7324SOL    HW233432   3.440   4.463   9.439 -0.6119  3.0583  1.1855
 7325SOL     OW33433   1.399   2.857   4.213  0.5152  0.0522 -0.0626
 7325SOL    HW133434   1.483   2.839   4.256  1.5881  1.6031 -1.5490
 7325SOL    HW233435   1.410   2.803   4.135  1.0277 -0.5168  0.3948
 7326SOL     OW33436   0.125   1.223   9.370  0.2110 -0.3378 -0.6001
 7326SOL    HW133437   0.119   1.265   9.284 -2.0377  1.2172  0.3181
 7326SOL    HW233438   0.034   1.229   9.400  0.4934  1.5354 -0.1003
 7327SOL     OW33439   2.105   0.525   6.669  0.0074 -0.2862  0.3306
 7327SOL    HW133440   2.125   0.461   6.738  2.1780  1.0865  0.9989
 7327SOL    HW233441   2.032   0.575   6.706 -0.7239 -0.9350 -0.2454
 7328SOL     OW33442   0.023   3.474   3.024 -0.0060 -0.0266  0.3640
 7328SOL    HW133443   0.083   3.546   3.045 -2.4160  2.2881 -0.7708
 7328SOL    HW233444   0.015   3.501   2.933 -2.0070 -0.3500  0.4393
 7329SOL     OW33445   1.034   1.286  11.909  0.3626 -0.0178 -0.4171
 7329SOL    HW133446   1.058   1.202  11.872  0.1484  0.0764 -0.7679
 7329SOL    HW233447   0.950   1.263  11.950  0.6732  1.7155  1.1862
 7330SOL     OW33448   2.736   1.421   3.494 -0.0146  0.3076  0.0008
 7330SOL    HW133449   2.655   1.469   3.481 -0.2632  0.2315  1.3117
 7330SOL    HW233450   2.722   1.343   3.439 -1.4077 -0.5874  1.6129
 7331SOL     OW33451   2.698   3.023   2.517 -0.3240  0.2983 -0.1557
 7331SOL    HW133452   2.766   2.960   2.493 -0.2186  1.2626 -2.4299
 7331SOL    HW233453   2.711   3.087   2.447  1.0799  0.5718  0.3564
 7332SOL     OW33454   1.567   2.074  15.603  0.5106  0.4325 -0.0317
 7332SOL    HW133455   1.573   2.168  15.616 -1.5017  0.5850 -0.2186
 7332SOL    HW233456   1.508   2.040  15.670  1.1059 -0.5517 -0.0036
 7333SOL     OW33457   4.688   0.409   2.621 -0.0248 -0.5732 -0.2241
 7333SOL    HW133458   0.043   0.407   2.681 -0.9378  1.1115  0.9496
 7333SOL    HW233459   4.645   0.333   2.660 -2.0768 -0.3603 -2.0814
 7334SOL     OW33460   4.618   0.367  15.277  0.6639  0.6794  0.4264
 7334SOL    HW133461   4.568   0.415  15.211  2.5604  0.6772 -1.0037
 7334SOL    HW233462   4.695   0.422  15.285  1.1232  0.0253  0.5222
 7335SOL     OW33463   0.603   1.086   6.720 -0.2252 -0.4696  0.3616
 7335SOL    HW133464   0.629   1.103   6.811  0.7046 -2.2978  0.4499
 7335SOL    HW233465   0.586   0.992   6.707 -1.0382 -0.6622  2.7001
 7336SOL     OW33466   2.324   3.501  17.374  0.4106 -0.2539 -0.0047
 7336SOL    HW133467   2.300   3.535  17.460 -0.9484 -0.1185 -0.4437
 7336SOL    HW233468   2.379   3.577  17.355 -2.1240  1.5310 -0.2703
 7337SOL     OW33469   2.894   0.816   2.567  0.0940  0.3054 -0.7088
 7337SOL    HW133470   2.863   0.727   2.579  2.8831 -0.6908 -0.9562
 7337SOL    HW233471   2.923   0.806   2.476 -0.5826 -0.9974 -0.7821
 7338SOL     OW33472   4.679   1.534  11.588  0.0235 -0.0077 -0.4213
 7338SOL    HW133473   4.644   1.618  11.619 -1.6762 -0.8996  0.0612
 7338SOL    HW233474   4.661   1.544  11.495  1.2372 -0.6741 -0.7246
 7339SOL     OW33475   3.284   1.423  14.545 -0.3694 -0.0138  0.2334
 7339SOL    HW133476   3.250   1.493  14.489 -1.9199 -0.6480  0.3595
 7339SOL    HW233477   3.201   1.375  14.545 -1.9146  2.6804 -1.8205
 7340SOL     OW33478   0.630   1.644  13.587 -0.4446 -0.7686 -0.2901
 7340SOL    HW133479   0.639   1.657  13.681  0.4966  0.8916 -0.6139
 7340SOL    HW233480   0.560   1.579  13.593 -2.4511  1.6002  2.2187
 7341SOL     OW33481   1.952   4.675  12.171  0.7619 -0.3666  0.1268
 7341SOL    HW133482   1.986   4.617  12.102 -2.4957 -0.9556 -0.9728
 7341SOL    HW233483   2.039   4.683  12.209  0.1490  1.6242  1.1171
 7342SOL     OW33484   1.202   2.023   2.780  0.0968 -0.4413  0.3231
 7342SOL    HW133485   1.131   1.967   2.812 -0.3417  0.3857  0.7730
 7342SOL    HW233486   1.261   1.963   2.734 -1.7014 -0.4480 -1.9632
 7343SOL     OW33487   4.398   2.941   5.992 -0.2436  0.5827 -0.0883
 7343SOL    HW133488   4.451   2.886   5.934  0.5228  0.3557  0.8229
 7343SOL    HW233489   4.437   2.910   6.074  0.3004  3.0084  0.5779
 7344SOL     OW33490   4.012   2.739   0.720 -0.0857 -0.2273  0.7433
 7344SOL    HW133491   4.063   2.658   0.716  0.0577 -0.1721  1.3894
 7344SOL    HW233492   3.984   2.733   0.812 -0.0370 -1.2662  0.6965
 7345SOL     OW33493   4.155   0.135  14.267  0.0336  0.2431 -0.0562
 7345SOL    HW133494   4.145   0.053  14.315 -3.3034  1.9864  2.1215
 7345SOL    HW233495   4.108   0.116  14.186  2.1318 -0.8069 -1.0304
 7346SOL     OW33496   1.862   2.271   7.146  0.1514  0.4644  0.3638
 7346SOL    HW133497   1.954   2.284   7.121  0.1832  0.4166  0.4574
 7346SOL    HW233498   1.830   2.325   7.073 -0.6690 -1.0717 -0.4102
 7347SOL     OW33499   1.409   4.633  12.618 -0.0107 -0.4633 -0.8020
 7347SOL    HW133500   1.437   0.004  12.633  1.5651 -0.9169 -0.9889
 7347SOL    HW233501   1.315   4.636  12.634  0.1211 -0.7436  0.0269
 7348SOL     OW33502   3.824   1.217   3.577 -0.1015 -0.2300  0.4112
 7348SOL    HW133503   3.882   1.146   3.605 -0.9734 -0.7257  0.9498
 7348SOL    HW233504   3.848   1.238   3.487  1.8859 -0.8943  0.7804
 7349SOL     OW33505   0.283   1.511   6.376  0.6694  0.1326 -0.1568
 7349SOL    HW133506   0.342   1.455   6.426  0.3349  0.6836  0.8531
 7349SOL    HW233507   0.341   1.556   6.314  1.1044  0.7119  0.6787
 7350SOL     OW33508   0.273   2.906   1.934  0.4618  0.1654 -0.2835
 7350SOL    HW133509   0.336   2.847   1.975 -0.3014  0.8711  1.9149
 7350SOL    HW233510   0.192   2.879   1.978  1.0704 -0.1974  0.5991
 7351SOL     OW33511   2.647   4.650   1.371  0.1600  0.2966  0.1750
 7351SOL    HW133512   2.712   4.719   1.385 -0.1112  0.5034  0.4039
 7351SOL    HW233513   2.703   4.585   1.329 -0.9030 -0.0127 -0.7729
 7352SOL     OW33514   3.390   1.276   8.668 -0.4880  0.0294  0.5572
 7352SOL    HW133515   3.391   1.191   8.711  0.9684 -0.7663 -1.0425
 7352SOL    HW233516   3.458   1.315   8.723 -1.2919  1.1703  0.7577
 7353SOL     OW33517   1.823   2.852   8.379  0.3972  0.3430  0.3223
 7353SOL    HW133518   1.822   2.827   8.472 -0.3732 -0.9424 -0.0340
 7353SOL    HW233519   1.803   2.766   8.341  1.5407 -0.2412  1.0137
 7354SOL     OW33520   2.448   4.433   3.864 -0.2781 -0.1258 -0.3976
 7354SOL    HW133521   2.353   4.430   3.851 -0.7683 -1.1506  3.4615
 7354SOL    HW233522   2.455   4.369   3.934 -3.1732  0.5974  0.5727
 7355SOL     OW33523   4.369   4.294  10.615 -0.1419  0.0964  0.2438
 7355SOL    HW133524   4.436   4.235  10.649 -0.7731 -1.5429 -1.3330
 7355SOL    HW233525   4.372   4.278  10.520  1.0160 -0.7477  0.4231
 7356SOL     OW33526   2.593   3.773   7.218  0.6047  0.0793 -0.2506
 7356SOL    HW133527   2.618   3.783   7.126  0.7385 -0.7023 -0.2953
 7356SOL    HW233528   2.595   3.680   7.240  1.7883  0.3664  0.8805
 7357SOL     OW33529   1.272   0.493   4.185  0.5031 -0.1655  0.3659
 7357SOL    HW133530   1.320   0.499   4.267  0.0703  5.2991  0.1789
 7357SOL    HW233531   1.344   0.497   4.122 -0.2284  1.4487 -0.3825
 7358SOL     OW33532   0.210   0.548   3.866 -0.4338  0.0657  0.6718
 7358SOL    HW133533   0.141   0.486   3.890 -0.6830 -0.0101 -0.2549
 7358SOL    HW233534   0.226   0.588   3.951  0.1056  2.9830 -0.7874
 7359SOL     OW33535   2.933   3.929   6.885 -0.3808 -0.5225  0.3916
 7359SOL    HW133536   2.998   3.893   6.945  0.5203 -0.3080 -0.4749
 7359SOL    HW233537   2.943   3.869   6.811 -2.2203 -1.2222  0.6924
 7360SOL     OW33538   3.700   2.276   2.997 -0.1756 -0.4317  0.3888
 7360SOL    HW133539   3.612   2.295   3.027 -1.0466 -1.0146 -1.7851
 7360SOL    HW233540   3.700   2.339   2.925 -0.5974  1.0042  1.6563
 7361SOL     OW33541   4.400   0.449   6.456  0.7056 -0.8529  0.8096
 7361SOL    HW133542   4.446   0.389   6.396 -2.1634 -1.5933 -0.6325
 7361SOL    HW233543   4.465   0.511   6.488  0.6796 -1.3407  1.8073
 7362SOL     OW33544   1.442   1.882   7.420  0.0461  0.1005  0.2045
 7362SOL    HW133545   1.483   1.946   7.361 -0.0463  1.2791  1.4109
 7362SOL    HW233546   1.452   1.921   7.507 -4.0566 -1.2492  1.2648
 7363SOL     OW33547   1.539   2.266   4.984 -1.0360 -0.5237 -0.1638
 7363SOL    HW133548   1.626   2.232   4.963 -0.3553  1.5646 -0.8003
 7363SOL    HW233549   1.521   2.206   5.056  2.4013 -1.0201  0.2592
 7364SOL     OW33550   3.828   2.485   8.825 -0.0217  0.4799  0.3877
 7364SOL    HW133551   3.791   2.424   8.761  1.4813  1.5613 -1.4844
 7364SOL    HW233552   3.763   2.464   8.892 -0.0181 -1.3112 -0.1638
 7365SOL     OW33553   2.609   0.896   4.133  0.3996  0.6077  0.2927
 7365SOL    HW133554   2.690   0.846   4.133  0.2929  0.4491  1.8263
 7365SOL    HW233555   2.630   0.990   4.136 -1.1089  1.0958 -3.7817
 7366SOL     OW33556   0.736   3.031   8.304 -0.2837 -0.0686  0.0610
 7366SOL    HW133557   0.768   2.945   8.278 -1.3695 -0.4627  0.0217
 7366SOL    HW233558   0.807   3.093   8.287 -1.4575  1.2062 -0.2343
 7367SOL     OW33559   2.339   1.630  14.961 -0.3838 -0.0814  0.3628
 7367SOL    HW133560   2.328   1.653  15.053  1.3967 -0.9723  0.8031
 7367SOL    HW233561   2.415   1.684  14.940 -0.0578 -0.2208  1.1953
 7368SOL     OW33562   4.233   1.245   3.997 -0.2779 -0.2697  0.3042
 7368SOL    HW133563   4.295   1.270   3.928 -0.2282  1.2563  0.8912
 7368SOL    HW233564   4.154   1.259   3.945  0.6689 -0.6376 -1.2313
 7369SOL     OW33565   2.409   4.709   9.065 -0.3959  1.0715  0.4065
 7369SOL    HW133566   2.393   4.636   9.124  0.1031  0.0962 -0.6659
 7369SOL    HW233567   2.407   0.066   9.123  1.3548  1.4312  0.0044
 7370SOL     OW33568   2.820   4.257   8.234  0.1590 -0.0747  0.4088
 7370SOL    HW133569   2.740   4.308   8.247  0.4921  0.2754  1.0405
 7370SOL    HW233570   2.843   4.271   8.142 -0.8625 -0.4816  0.0867
 7371SOL     OW33571   1.629   2.547  16.525  0.3152 -0.0214  0.1050
 7371SOL    HW133572   1.671   2.495  16.456 -0.1330  0.7633 -0.7461
 7371SOL    HW233573   1.686   2.622  16.510 -0.9987  1.1369  0.9351
 7372SOL     OW33574   3.433   0.068   9.381 -0.5576  1.0260  0.0875
 7372SOL    HW133575   3.422   0.126   9.305 -0.7905  2.4524  1.2262
 7372SOL    HW233576   3.345   0.032   9.394 -1.0969  0.8164 -3.8767
 7373SOL     OW33577   2.993   0.302  13.921  0.1726  0.0892  0.8725
 7373SOL    HW133578   2.978   0.345  14.005 -0.1762  1.3803  0.1388
 7373SOL    HW233579   2.931   0.345  13.862  0.2250  0.0277  0.7742
 7374SOL     OW33580   2.895   2.370   2.369  0.6728 -0.0808  0.6207
 7374SOL    HW133581   2.894   2.292   2.424 -0.5890  0.6904  1.6859
 7374SOL    HW233582   2.819   2.418   2.403 -0.7796 -1.4605 -0.6365
 7375SOL     OW33583   3.438   1.186   3.945  0.3722  0.0955 -0.0806
 7375SOL    HW133584   3.441   1.113   4.006 -1.6228 -0.1565 -0.2899
 7375SOL    HW233585   3.383   1.241   4.000 -0.8056 -2.5260  1.3512
 7376SOL     OW33586   3.009   3.052   7.629  0.0195  1.1380 -0.4618
 7376SOL    HW133587   3.058   3.056   7.547 -0.3616  3.1163 -0.5780
 7376SOL    HW233588   2.958   2.972   7.618 -1.1049  1.6204  1.2865
 7377SOL     OW33589   2.500   2.371  16.261 -0.5843 -0.1349 -0.2065
 7377SOL    HW133590   2.433   2.321  16.215  0.4608  1.6336 -3.6702
 7377SOL    HW233591   2.521   2.324  16.342  2.0869 -0.6771 -1.2109
 7378SOL     OW33592   2.826   2.422   7.161  0.4436 -0.4941  0.5872
 7378SOL    HW133593   2.890   2.352   7.151  0.6735 -0.1498 -0.2860
 7378SOL    HW233594   2.854   2.481   7.231  0.7184 -1.7368  1.5332
 7379SOL     OW33595   1.442   1.590   6.944  0.3454  0.7208  0.6870
 7379SOL    HW133596   1.454   1.667   6.999  2.4582  1.6407 -1.0434
 7379SOL    HW233597   1.529   1.565   6.913 -0.3659  1.8379 -2.2995
 7380SOL     OW33598   0.835   3.337   2.698  0.4800  0.4817 -0.0974
 7380SOL    HW133599   0.909   3.360   2.643 -1.0358 -0.0371 -2.3573
 7380SOL    HW233600   0.870   3.385   2.773  1.4262 -2.2995  1.2729
 7381SOL     OW33601   3.422   0.266   4.182  0.4816 -0.0506 -0.4084
 7381SOL    HW133602   3.366   0.301   4.252 -1.0717 -1.2265 -1.0649
 7381SOL    HW233603   3.361   0.228   4.119 -0.1185  0.6105 -0.2221
 7382SOL     OW33604   2.740   4.502   9.151 -0.4377 -0.2574  0.0924
 7382SOL    HW133605   2.745   4.483   9.245 -1.3437  2.4576  0.6969
 7382SOL    HW233606   2.653   4.474   9.124 -1.3451  3.2459 -0.6210
 7383SOL     OW33607   1.625   4.630   7.786 -0.1141  0.0945  0.5865
 7383SOL    HW133608   1.571   4.602   7.860  1.4681 -1.3146  1.1991
 7383SOL    HW233609   1.582   4.704   7.744 -0.6289 -1.2452 -1.2690
 7384SOL     OW33610   1.345   3.707   5.860 -0.4904  0.2849 -0.6834
 7384SOL    HW133611   1.256   3.682   5.884  0.0555 -0.4912  0.5234
 7384SOL    HW233612   1.342   3.750   5.774 -1.7730  0.8264 -0.3625
 7385SOL     OW33613   4.403   3.372   3.630 -0.0349 -0.2710 -0.1643
 7385SOL    HW133614   4.476   3.423   3.594  0.0007  0.4080  0.8584
 7385SOL    HW233615   4.337   3.440   3.644  2.0787  1.9889 -1.0172
 7386SOL     OW33616   3.177   4.047   3.213  0.8621 -0.2562  0.0958
 7386SOL    HW133617   3.199   3.959   3.182 -0.3472  0.3167 -2.3268
 7386SOL    HW233618   3.216   4.117   3.161  0.1304  0.3405  0.3583
 7387SOL     OW33619   1.858   2.376   1.744 -0.5906 -0.1357 -0.0525
 7387SOL    HW133620   1.778   2.340   1.782 -0.0915 -0.7876  0.3741
 7387SOL    HW233621   1.851   2.321   1.667 -0.8000 -0.4628  0.2010
 7388SOL     OW33622   0.177   0.988   8.126 -0.2667  0.2291  0.8520
 7388SOL    HW133623   0.266   1.009   8.097  0.7541 -3.1108  1.5585
 7388SOL    HW233624   0.201   0.923   8.192  2.1944  1.3587  1.0551
 7389SOL     OW33625   3.386   0.209   7.633 -0.0310 -0.3013  0.0540
 7389SOL    HW133626   3.385   0.185   7.726 -0.6739  0.8549  0.3450
 7389SOL    HW233627   3.406   0.125   7.592  1.2585 -0.5815  1.2697
 7390SOL     OW33628   0.045   0.288   3.886  0.4658  0.5431 -0.2982
 7390SOL    HW133629   0.064   0.282   3.792 -0.2364  0.6290 -0.4408
 7390SOL    HW233630   4.671   0.306   3.895  0.9636  4.0888 -2.2226
 7391SOL     OW33631   3.381   1.461  14.177  0.0903 -0.3512 -0.5508
 7391SOL    HW133632   3.339   1.524  14.236  1.9101 -1.8075  2.2925
 7391SOL    HW233633   3.325   1.388  14.204  0.9094  0.0988  2.4072
 7392SOL     OW33634   0.783   4.400  16.266  0.2190  0.6493 -0.2629
 7392SOL    HW133635   0.816   4.387  16.355 -3.4399 -0.5334  0.9628
 7392SOL    HW233636   0.807   4.312  16.238  0.4955  0.2940  1.0774
 7393SOL     OW33637   2.501   2.477   4.181  1.0370  0.0086  0.2815
 7393SOL    HW133638   2.532   2.499   4.093 -3.2917 -0.3266 -1.3682
 7393SOL    HW233639   2.584   2.466   4.226  0.8192 -1.4722  0.3173
 7394SOL     OW33640   0.545   1.644  11.342 -0.0240  1.1293 -0.4951
 7394SOL    HW133641   0.529   1.736  11.320  0.9287  1.6701  1.0477
 7394SOL    HW233642   0.631   1.622  11.305  0.7458  3.8564 -0.3231
 7395SOL     OW33643   2.149   1.603   6.289 -0.0412  0.4481  0.3172
 7395SOL    HW133644   2.185   1.521   6.258 -2.0093 -0.5473  0.6261
 7395SOL    HW233645   2.222   1.640   6.339  0.2849  0.4979 -0.1964
 7396SOL     OW33646   2.528   2.785   7.884  0.2613 -0.4349 -0.4258
 7396SOL    HW133647   2.562   2.816   7.800  1.9294  2.7327  1.4506
 7396SOL    HW233648   2.434   2.799   7.873 -0.0509  1.7586  5.0549
 7397SOL     OW33649   1.758   3.998   2.239 -0.2212  0.0475 -0.3924
 7397SOL    HW133650   1.807   4.080   2.245  1.2169 -1.1825  4.2763
 7397SOL    HW233651   1.754   3.970   2.330 -1.3954 -1.2647 -0.8484
 7398SOL     OW33652   0.812   2.049   3.581 -0.0673 -0.7491  0.2307
 7398SOL    HW133653   0.754   1.979   3.610 -0.6840 -0.3778 -0.1035
 7398SOL    HW233654   0.848   2.010   3.502  1.8846 -0.6130  1.0677
 7399SOL     OW33655   2.997   4.280   7.016  0.1728  0.0035 -0.3829
 7399SOL    HW133656   3.082   4.236   7.022 -0.4396 -1.1332 -0.0436
 7399SOL    HW233657   3.013   4.340   7.089 -0.4178 -0.5548  0.2033
 7400SOL     OW33658   0.714   4.364   7.807 -0.4237  0.0600  0.2004
 7400SOL    HW133659   0.804   4.353   7.775  0.0820  2.1785  0.8603
 7400SOL    HW233660   0.727   4.425   7.880  0.7447  2.2102 -1.8120
 7401SOL     OW33661   1.315   4.105  17.422  0.1629  0.0871 -0.4973
 7401SOL    HW133662   1.251   4.046  17.463  1.9893 -0.4164  1.5880
 7401SOL    HW233663   1.277   4.187  17.455  2.5691  0.2142  1.9442
 7402SOL     OW33664   3.997   2.914   2.688  0.3220 -0.7791 -0.1582
 7402SOL    HW133665   4.090   2.935   2.680  0.1276 -0.0504 -0.5374
 7402SOL    HW233666   3.970   2.902   2.596  0.2318  1.2473 -0.4076
 7403SOL     OW33667   2.029   1.228  11.532 -0.1861 -0.1271  0.1847
 7403SOL    HW133668   2.014   1.181  11.450 -0.1376 -0.6386  0.4725
 7403SOL    HW233669   2.114   1.272  11.520 -0.8398  1.2695  0.6143
 7404SOL     OW33670   4.092   2.259   9.359  0.1001 -0.1189  1.0448
 7404SOL    HW133671   4.087   2.343   9.403  0.4310  0.3521  0.1991
 7404SOL    HW233672   4.091   2.293   9.269 -0.9034 -0.9602  0.7426
 7405SOL     OW33673   2.475   2.930   1.989  0.1654 -0.0869 -0.7673
 7405SOL    HW133674   2.488   3.023   2.007 -0.4515 -0.3417  0.9494
 7405SOL    HW233675   2.549   2.916   1.930  2.2409  1.8085  1.3524
 7406SOL     OW33676   3.788   1.371   0.465  0.0256 -0.5882 -0.0036
 7406SOL    HW133677   3.744   1.456   0.471 -0.1928 -0.6545 -0.6231
 7406SOL    HW233678   3.809   1.364   0.558 -1.4968  1.8124  0.5186
 7407SOL     OW33679   3.370   2.256   6.002 -0.5532  0.1157 -0.0539
 7407SOL    HW133680   3.328   2.319   5.943  1.7871  2.2852  0.6190
 7407SOL    HW233681   3.416   2.308   6.068 -0.1800  0.8490 -0.8812
 7408SOL     OW33682   4.122   0.648   3.749  0.0308  0.3209 -0.2925
 7408SOL    HW133683   4.215   0.669   3.762  0.0749 -0.0663  0.0023
 7408SOL    HW233684   4.070   0.717   3.790 -0.3824 -0.8487  1.1083
 7409SOL     OW33685   1.030   4.719  12.191  0.0557  0.1293  0.4290
 7409SOL    HW133686   0.946   4.709  12.145  0.4726 -0.1742 -0.2647
 7409SOL    HW233687   1.095   4.695  12.124 -0.3739 -0.3143  0.1622
 7410SOL     OW33688   2.073   1.241   6.113 -0.1336 -0.5594  0.5156
 7410SOL    HW133689   2.078   1.177   6.184 -1.7801 -1.3543 -0.0769
 7410SOL    HW233690   2.021   1.199   6.044 -0.5026 -1.4559  1.3386
 7411SOL     OW33691   0.975   2.551   2.473 -0.0928  0.7084 -0.0234
 7411SOL    HW133692   0.933   2.591   2.397  0.3734  0.5431 -0.3704
 7411SOL    HW233693   1.066   2.581   2.468 -0.3645  1.2587 -1.6245
 7412SOL     OW33694   3.215   3.827   4.972 -0.5315 -0.0165 -0.0992
 7412SOL    HW133695   3.158   3.881   5.026 -2.5291 -0.6725 -1.5577
 7412SOL    HW233696   3.148   3.816   4.904 -0.0177  1.2463 -0.8038
 7413SOL     OW33697   0.965   4.095   3.730  0.1608 -0.1294  0.2183
 7413SOL    HW133698   0.942   4.002   3.728  0.2325 -0.1105 -1.0967
 7413SOL    HW233699   0.901   4.146   3.681 -0.5249 -1.4111 -0.2203
 7414SOL     OW33700   4.649   2.167   4.681 -0.3062  0.8383 -0.1952
 7414SOL    HW133701   4.579   2.150   4.618 -2.2446  0.6820  1.9996
 7414SOL    HW233702   4.619   2.114   4.755 -0.3450  2.8940  1.2546
 7415SOL     OW33703   2.394   4.357   2.088  0.1418  0.1082  0.1544
 7415SOL    HW133704   2.375   4.380   1.997 -1.5804 -0.8429  0.2859
 7415SOL    HW233705   2.366   4.266   2.085 -0.8233  0.3573  1.6908
 7416SOL     OW33706   1.755   2.838   7.212 -0.4016 -0.1547  0.0699
 7416SOL    HW133707   1.788   2.873   7.295  1.7894  1.3048 -1.4071
 7416SOL    HW233708   1.713   2.758   7.242  2.2396 -1.5518  0.0689
 7417SOL     OW33709   3.957   0.659   4.119 -0.7444  0.3832  0.3976
 7417SOL    HW133710   4.017   0.651   4.045 -1.2538 -2.4452  0.2667
 7417SOL    HW233711   4.010   0.627   4.192 -0.3052  0.9391  0.3178
 7418SOL     OW33712   2.475   0.684   5.341 -0.1214 -0.6194 -0.0288
 7418SOL    HW133713   2.479   0.605   5.394 -0.7827  0.8805  2.2510
 7418SOL    HW233714   2.558   0.716   5.377 -0.0339 -2.5485  1.4652
 7419SOL     OW33715   0.166   2.606   5.220  0.0803 -0.6945  0.2456
 7419SOL    HW133716   0.139   2.679   5.165 -1.3780 -1.8621 -0.5791
 7419SOL    HW233717   0.172   2.535   5.155 -0.2261  0.1456 -0.6968
 7420SOL     OW33718   4.072   3.741   6.910  0.2072  0.1136  0.9796
 7420SOL    HW133719   3.976   3.748   6.911  0.1086 -0.8689 -2.0943
 7420SOL    HW233720   4.083   3.660   6.860 -0.1249  1.2032 -0.8652
 7421SOL     OW33721   1.705   4.324   7.943 -0.1503  0.6092  0.2245
 7421SOL    HW133722   1.620   4.312   7.986  0.5621 -3.5737  0.4537
 7421SOL    HW233723   1.691   4.293   7.854 -0.8266  0.4642  0.3812
 7422SOL     OW33724   2.767   2.408  10.313 -0.2103 -0.2294 -0.7729
 7422SOL    HW133725   2.774   2.458  10.232 -1.4730  1.7075  0.3244
 7422SOL    HW233726   2.838   2.345  10.301 -1.6430 -2.1289  0.7246
 7423SOL     OW33727   2.209   4.442  12.442  0.1786 -0.5695 -0.1832
 7423SOL    HW133728   2.256   4.360  12.451  0.2186 -0.5710 -0.4078
 7423SOL    HW233729   2.232   4.487  12.523  1.0895 -2.2977  0.5098
 7424SOL     OW33730   1.850   3.399   2.862  0.2655  0.2847 -0.4710
 7424SOL    HW133731   1.785   3.372   2.927 -0.0788  0.5294 -0.7146
 7424SOL    HW233732   1.893   3.465   2.917 -0.2467 -1.2602  1.8253
 7425SOL     OW33733   0.431   0.860   7.543 -0.0050  0.1751 -0.2112
 7425SOL    HW133734   0.395   0.910   7.616  0.1312 -3.3786  2.3180
 7425SOL    HW233735   0.372   0.879   7.471  2.0318  1.6783 -1.4707
 7426SOL     OW33736   1.750   1.593   4.130 -0.1522 -0.2119 -0.4679
 7426SOL    HW133737   1.797   1.595   4.214 -1.5096  0.6665  0.2787
 7426SOL    HW233738   1.811   1.545   4.075 -0.2417 -1.6120  0.6296
 7427SOL     OW33739   2.259   2.732   4.490  0.4814  0.6175 -0.0066
 7427SOL    HW133740   2.233   2.756   4.579 -2.3530 -0.1194 -0.6366
 7427SOL    HW233741   2.224   2.808   4.442 -0.7642  1.0024  1.5224
 7428SOL     OW33742   4.392   2.568  15.154 -0.2558  0.4010  0.0955
 7428SOL    HW133743   4.383   2.480  15.190  0.9743 -0.1604 -0.9292
 7428SOL    HW233744   4.458   2.541  15.089  2.5246 -0.2975  3.1920
 7429SOL     OW33745   3.813   3.780   6.963 -0.1631 -0.0148  0.7023
 7429SOL    HW133746   3.724   3.746   6.956 -0.0978 -0.6279  2.9583
 7429SOL    HW233747   3.793   3.865   6.922  0.7173  0.1084  0.5387
 7430SOL     OW33748   3.940   0.573   9.488 -0.0779 -0.3128 -0.0296
 7430SOL    HW133749   3.897   0.520   9.554  2.2386 -0.4946  1.3343
 7430SOL    HW233750   3.905   0.554   9.401  0.2925  1.0575 -0.4835
 7431SOL     OW33751   3.996   4.597   9.259  0.4864 -0.3652  0.0281
 7431SOL    HW133752   3.992   4.596   9.354  1.1850 -0.1110  0.0627
 7431SOL    HW233753   4.027   4.507   9.252 -1.8204 -1.1595  0.0190
 7432SOL     OW33754   3.935   3.061   5.749  0.9000  0.7913 -0.1893
 7432SOL    HW133755   3.894   2.991   5.799 -3.1842  0.8358 -3.4205
 7432SOL    HW233756   4.010   3.091   5.800  1.1802  0.1324 -0.2181
 7433SOL     OW33757   0.262   0.742  14.146 -0.1850 -0.5233 -0.5498
 7433SOL    HW133758   0.288   0.833  14.164  1.6854 -1.4082  1.1263
 7433SOL    HW233759   0.266   0.734  14.051  0.3943 -0.7792 -0.4980
 7434SOL     OW33760   2.153   2.929   6.919  0.8607 -0.0685  0.5915
 7434SOL    HW133761   2.117   2.848   6.885  4.2010 -1.2242 -0.2373
 7434SOL    HW233762   2.215   2.882   6.975  1.1790  0.2690  0.5214
 7435SOL     OW33763   2.102   3.877   3.258 -0.2221 -0.1280 -0.2900
 7435SOL    HW133764   2.114   3.782   3.260 -1.7315 -0.3075  0.4687
 7435SOL    HW233765   2.131   3.896   3.169  1.8207 -4.0039 -0.4543
 7436SOL     OW33766   4.210   0.394  14.230  0.0078 -0.0250  0.0589
 7436SOL    HW133767   4.192   0.434  14.315 -0.1838 -0.6479  0.3118
 7436SOL    HW233768   4.183   0.303  14.245 -0.3914  0.5268  2.6992
 7437SOL     OW33769   0.737   3.158   0.306 -0.3733  0.4594  0.7432
 7437SOL    HW133770   0.674   3.110   0.253 -0.0161 -1.4076  2.0305
 7437SOL    HW233771   0.695   3.169   0.391 -1.5682  0.3300  0.1659
 7438SOL     OW33772   0.514   0.187   9.173  0.1348  0.4881  0.4122
 7438SOL    HW133773   0.561   0.270   9.176  0.8208  0.1114  0.1620
 7438SOL    HW233774   0.470   0.197   9.257 -2.8620 -1.4711 -0.9270
 7439SOL     OW33775   0.038   0.297  11.509 -0.1626 -0.0437 -0.7996
 7439SOL    HW133776   4.700   0.302  11.432 -2.1675  0.4361  0.7240
 7439SOL    HW233777   0.025   0.206  11.535  0.6883 -0.1564 -0.7704
 7440SOL     OW33778   1.166   1.037  13.254 -0.3460  0.4153  0.3026
 7440SOL    HW133779   1.247   1.051  13.204 -0.0664 -0.4453  0.5250
 7440SOL    HW233780   1.198   1.027  13.343 -0.4628  0.0879  0.3066
 7441SOL     OW33781   3.602   4.178  10.580 -0.5257  0.0910 -0.1069
 7441SOL    HW133782   3.557   4.139  10.654  0.2647 -0.2055  0.2079
 7441SOL    HW233783   3.624   4.263  10.619 -1.9406  0.1584  0.5278
 7442SOL     OW33784   3.533   1.063   5.048  0.6561 -0.6393 -0.2460
 7442SOL    HW133785   3.597   0.995   5.071 -0.4752 -1.1066  1.5328
 7442SOL    HW233786   3.488   1.025   4.973 -1.2107  0.9199  0.0963
 7443SOL     OW33787   3.809   0.619   8.435 -0.3583 -0.1760 -0.1345
 7443SOL    HW133788   3.833   0.685   8.500  0.5249 -1.4744  0.8476
 7443SOL    HW233789   3.713   0.621   8.431 -0.4374 -0.3277  1.7928
 7444SOL     OW33790   4.177   3.581  15.789 -0.6199 -0.1500  0.2215
 7444SOL    HW133791   4.221   3.586  15.704  1.7685  0.7146  1.5110
 7444SOL    HW233792   4.253   3.543  15.834 -1.9296 -0.9422  1.7765
 7445SOL     OW33793   0.031   0.682   2.396 -0.0912  0.2817 -0.4203
 7445SOL    HW133794   0.042   0.701   2.489 -0.0003  0.4930 -0.4733
 7445SOL    HW233795   4.717   0.764   2.361 -1.6421 -0.8173 -1.4968
 7446SOL     OW33796   2.700   1.745  15.822 -0.7040 -0.5310  0.0368
 7446SOL    HW133797   2.682   1.686  15.895 -0.2927  2.4501  2.5404
 7446SOL    HW233798   2.663   1.829  15.851  2.8942  0.9908  0.2440
 7447SOL     OW33799   0.755   3.578   3.752  0.0138 -0.3133  0.4426
 7447SOL    HW133800   0.760   3.652   3.690  2.2687  1.3569  2.6256
 7447SOL    HW233801   0.666   3.570   3.786 -0.0652 -0.5159  0.1889
 7448SOL     OW33802   1.038   4.375   4.905  0.1271  0.2305  0.0108
 7448SOL    HW133803   1.020   4.288   4.867 -2.5355  1.2119 -0.9441
 7448SOL    HW233804   1.131   4.354   4.910  0.4565  2.0016  1.2032
 7449SOL     OW33805   1.064   0.083  16.242  0.1385 -0.0343  0.2351
 7449SOL    HW133806   1.150   0.042  16.253  1.5077  1.9976 -2.9575
 7449SOL    HW233807   1.090   0.158  16.188  0.5065  0.5867  1.2583
 7450SOL     OW33808   1.646   3.413   7.898  0.1899 -0.0550 -0.8481
 7450SOL    HW133809   1.569   3.366   7.930 -0.6240  0.5606 -1.8620
 7450SOL    HW233810   1.640   3.413   7.802  0.3319  0.0171 -0.8566
 7451SOL     OW33811   1.863   2.793   4.524  0.1899 -0.1817 -0.3540
 7451SOL    HW133812   1.879   2.719   4.465  0.4138 -0.7681  0.4387
 7451SOL    HW233813   1.857   2.752   4.610 -1.1315 -1.1433 -0.8996
 7452SOL     OW33814   4.128   1.107   8.496  0.7800 -0.5879 -0.2714
 7452SOL    HW133815   4.114   1.129   8.404  0.6523  2.0565  0.3830
 7452SOL    HW233816   4.198   1.161   8.533  0.1742 -0.5376  0.7947
 7453SOL     OW33817   3.373   2.212   8.438  0.0235 -0.1719  0.2047
 7453SOL    HW133818   3.421   2.160   8.503  0.8486 -0.6091 -0.7537
 7453SOL    HW233819   3.281   2.212   8.467 -0.9861 -0.6543 -3.0322
 7454SOL     OW33820   0.406   1.377   8.578 -0.8120  0.0431  0.0390
 7454SOL    HW133821   0.475   1.424   8.531  0.7002 -2.5080 -0.2544
 7454SOL    HW233822   0.330   1.427   8.548 -0.5080  2.3684  3.1045
 7455SOL     OW33823   1.223   3.779   7.392  0.1545  0.0814 -0.0230
 7455SOL    HW133824   1.191   3.836   7.322  1.8858  2.2755  0.9384
 7455SOL    HW233825   1.299   3.828   7.424  1.2671 -0.5492 -1.7214
 7456SOL     OW33826   2.682   0.473   6.618 -0.2300  0.2530  0.6535
 7456SOL    HW133827   2.598   0.504   6.583  0.3985 -1.0883 -2.1016
 7456SOL    HW233828   2.748   0.462   6.549  0.1145  0.6269  0.9255
 7457SOL     OW33829   1.769   1.669   7.563 -0.0456  0.3269 -0.2253
 7457SOL    HW133830   1.708   1.716   7.619 -2.2250 -0.4922 -1.8898
 7457SOL    HW233831   1.744   1.694   7.474  1.1410 -0.2299 -0.7106
 7458SOL     OW33832   2.358   3.700   7.807  0.1957 -0.2681  0.0384
 7458SOL    HW133833   2.309   3.621   7.831 -0.9939  0.8824  1.4673
 7458SOL    HW233834   2.429   3.688   7.869 -0.3648 -2.5195  0.2435
 7459SOL     OW33835   2.727   0.500   3.513 -0.5462 -0.0455 -0.4866
 7459SOL    HW133836   2.771   0.459   3.587 -0.6368 -0.8613 -0.8882
 7459SOL    HW233837   2.736   0.594   3.528  1.0366 -0.3557  0.4659
 7460SOL     OW33838   1.917   0.911   7.970 -0.3729 -0.3458 -0.4065
 7460SOL    HW133839   1.963   0.985   8.009  0.3346 -0.9066 -0.1853
 7460SOL    HW233840   1.859   0.957   7.909  1.8207  0.9027 -1.5236
 7461SOL     OW33841   2.343   0.099  11.283 -0.2530 -0.1524 -0.1663
 7461SOL    HW133842   2.405   0.064  11.347 -1.0072 -1.1427  0.0202
 7461SOL    HW233843   2.286   0.026  11.259 -0.1864  0.3156 -1.7312
 7462SOL     OW33844   3.859   1.883   3.842 -0.5949 -0.3378  0.0394
 7462SOL    HW133845   3.778   1.884   3.790 -0.2579  1.5603 -0.4308
 7462SOL    HW233846   3.869   1.978   3.832  0.9255 -0.6402 -1.1901
 7463SOL     OW33847   3.415   2.351   2.954 -0.2425 -0.1335  0.0886
 7463SOL    HW133848   3.422   2.256   2.944  1.8337 -0.2956  3.2707
 7463SOL    HW233849   3.326   2.370   2.923  0.3183 -0.6253 -1.8386
 7464SOL     OW33850   2.007   1.551   8.473  0.1548  0.5010  0.4628
 7464SOL    HW133851   1.967   1.467   8.496 -1.3666  1.3013  0.7347
 7464SOL    HW233852   1.932   1.598   8.436  1.6540  2.7927  0.3479
 7465SOL     OW33853   4.021   1.096   6.675  0.6038  0.5128  0.4406
 7465SOL    HW133854   4.085   1.026   6.673  1.1484  1.0054  0.5935
 7465SOL    HW233855   4.012   1.119   6.768  0.4947  1.0631  0.2984
 7466SOL     OW33856   1.902   3.670   2.429 -0.0919 -0.2724 -0.1017
 7466SOL    HW133857   1.846   3.663   2.352  0.4773 -2.5624 -0.3185
 7466SOL    HW233858   1.858   3.618   2.496  0.8885 -1.2944 -0.2438
 7467SOL     OW33859   3.553   2.058  15.508 -1.5713 -0.2417 -0.6100
 7467SOL    HW133860   3.507   2.106  15.576 -0.2452 -0.5042  0.4941
 7467SOL    HW233861   3.495   2.068  15.433  0.2011 -1.0131 -2.0971
 7468SOL     OW33862   2.050   0.249   3.794  0.1959  0.3038  0.2563
 7468SOL    HW133863   1.990   0.217   3.726  0.3055 -0.4324  0.5122
 7468SOL    HW233864   2.007   0.208   3.869 -0.5195  0.0691 -0.2753
 7469SOL     OW33865   2.105   4.686  15.189 -0.4602 -0.3609  0.0600
 7469SOL    HW133866   2.011   4.704  15.180 -0.2470  0.8996  0.3231
 7469SOL    HW233867   2.117   4.599  15.151  1.9074 -0.5626  1.2881
 7470SOL     OW33868   2.184   0.615   2.699 -0.5742 -0.3497 -0.2148
 7470SOL    HW133869   2.165   0.522   2.687 -0.1729 -0.9163  3.6280
 7470SOL    HW233870   2.093   0.644   2.714 -0.8349 -0.0849 -2.3431
 7471SOL     OW33871   4.270   1.462   9.902 -0.6501 -0.0079  0.6239
 7471SOL    HW133872   4.262   1.419   9.987  1.1974 -2.2728 -0.3447
 7471SOL    HW233873   4.356   1.431   9.874 -0.8429 -0.0445  0.0686
 7472SOL     OW33874   2.001   1.195  10.278  0.2867 -0.3421 -0.2763
 7472SOL    HW133875   2.039   1.112  10.308 -1.2588 -1.9235 -2.7232
 7472SOL    HW233876   1.924   1.155  10.239 -1.8308  2.2288  1.3227
 7473SOL     OW33877   4.197   3.207  12.232  0.3589 -0.2249  0.1226
 7473SOL    HW133878   4.200   3.198  12.327 -0.0763  1.0513  0.2482
 7473SOL    HW233879   4.110   3.169  12.216  0.6956 -1.4171  1.1011
 7474SOL     OW33880   2.882   0.486  13.737 -0.3741  0.2538 -0.0171
 7474SOL    HW133881   2.916   0.478  13.648  1.3910  0.3133  0.6413
 7474SOL    HW233882   2.899   0.580  13.748  1.0477 -0.3239  2.6343
 7475SOL     OW33883   0.756   2.948   7.574 -0.1454 -0.4874 -0.0581
 7475SOL    HW133884   0.732   2.896   7.497  4.1936 -0.5179 -1.4037
 7475SOL    HW233885   0.682   3.007   7.569  0.2638 -0.1363 -2.1735
 7476SOL     OW33886   1.609   4.318   0.153 -0.2533 -0.0189 -0.0140
 7476SOL    HW133887   1.536   4.362   0.109 -0.4438  0.8514  1.1840
 7476SOL    HW233888   1.620   4.239   0.100  0.1313  0.8956 -1.3006
 7477SOL     OW33889   3.119   4.492   5.469 -0.6425 -0.0732 -0.0906
 7477SOL    HW133890   3.125   4.566   5.529 -0.4037 -1.0665  1.1311
 7477SOL    HW233891   3.108   4.547   5.392  0.0173  0.6868  0.3644
 7478SOL     OW33892   4.505   3.284   5.067 -0.2719  0.6265 -0.1053
 7478SOL    HW133893   4.530   3.218   5.132 -2.6326 -0.1259  0.0209
 7478SOL    HW233894   4.561   3.358   5.090 -0.5249  0.9059 -0.3839
 7479SOL     OW33895   0.450   4.278   8.361  0.0430  0.5218  0.1191
 7479SOL    HW133896   0.360   4.258   8.337  0.3696 -0.4778 -0.2831
 7479SOL    HW233897   0.495   4.250   8.282  0.8211  0.8831  0.4367
 7480SOL     OW33898   3.392   4.022   5.248  0.1154 -0.3682 -0.0543
 7480SOL    HW133899   3.317   3.981   5.290 -0.9461  0.7450 -0.8632
 7480SOL    HW233900   3.425   3.944   5.203 -0.0153 -0.3373 -0.2039
 7481SOL     OW33901   3.225   4.480   2.212  0.5758 -0.1525  0.2289
 7481SOL    HW133902   3.302   4.522   2.249  0.1191 -0.0741  1.0962
 7481SOL    HW233903   3.252   4.399   2.168  0.7427 -0.6340  1.2311
 7482SOL     OW33904   1.551   2.693  10.717  0.1063  0.1739  0.2974
 7482SOL    HW133905   1.563   2.660  10.627  0.9216  0.0733  0.4400
 7482SOL    HW233906   1.591   2.780  10.707  0.0730  0.1019 -0.4654
 7483SOL     OW33907   1.516   2.509   2.332 -0.2519 -0.1468  0.0373
 7483SOL    HW133908   1.527   2.490   2.425  0.8819 -1.6535 -0.4127
 7483SOL    HW233909   1.561   2.432   2.296 -0.9954 -0.4203 -0.3211
 7484SOL     OW33910   0.620   0.048   6.344  0.4919  0.3190 -0.2291
 7484SOL    HW133911   0.541   0.037   6.397  0.5275 -1.2856 -0.5114
 7484SOL    HW233912   0.588   0.091   6.264  0.8213  2.5881  0.8667
 7485SOL     OW33913   3.611   1.209   6.064 -0.2960 -0.5636  0.1430
 7485SOL    HW133914   3.645   1.294   6.035 -1.6385  0.5969  1.9828
 7485SOL    HW233915   3.641   1.217   6.154 -0.1118 -0.6956  0.0926
 7486SOL     OW33916   3.107   1.986  16.894 -0.1654 -0.3765  0.5121
 7486SOL    HW133917   3.154   2.025  16.967  0.5078 -1.1574  0.4909
 7486SOL    HW233918   3.016   2.017  16.896 -0.2337 -0.4282 -1.4182
 7487SOL     OW33919   3.061   1.118   8.904  0.4474  0.1424  0.7120
 7487SOL    HW133920   3.047   1.202   8.860  1.1965 -0.2402 -0.2388
 7487SOL    HW233921   3.057   1.148   8.995 -1.7639  0.0318  0.6606
 7488SOL     OW33922   3.726   1.484   6.093 -0.6977  0.0285  0.0773
 7488SOL    HW133923   3.649   1.533   6.066  1.3103  1.1103 -3.6796
 7488SOL    HW233924   3.777   1.554   6.135  0.4221 -0.6087 -0.2230
 7489SOL     OW33925   1.649   4.503   8.236  0.0652 -0.3273  0.1419
 7489SOL    HW133926   1.564   4.475   8.270 -0.5981 -1.0236 -2.0804
 7489SOL    HW233927   1.632   4.559   8.160  1.7874  0.4252  0.3140
 7490SOL     OW33928   0.670   4.116   3.652 -0.4808  0.1514  0.1159
 7490SOL    HW133929   0.649   4.206   3.626  2.1075  0.4769 -0.8660
 7490SOL    HW233930   0.625   4.072   3.580 -2.3742  3.8174 -0.9683
 7491SOL     OW33931   3.118   3.824   7.093  0.6328  0.5456 -0.1809
 7491SOL    HW133932   3.037   3.782   7.124  1.2757 -0.3395  0.2952
 7491SOL    HW233933   3.140   3.877   7.169  1.8827  1.5171 -1.2301
 7492SOL     OW33934   1.685   0.568   1.288 -0.1249  0.4780 -0.5466
 7492SOL    HW133935   1.710   0.559   1.380  0.4475  1.2458 -0.6336
 7492SOL    HW233936   1.610   0.509   1.298 -0.5144  1.1944  0.7956
 7493SOL     OW33937   0.070   4.014   5.656 -0.0482 -0.2612 -0.7467
 7493SOL    HW133938   0.112   4.093   5.622  1.9113 -0.5022  1.1412
 7493SOL    HW233939   4.699   4.046   5.645  0.8902  3.4407  2.2921
 7494SOL     OW33940   4.495   0.348   3.914 -0.0056 -0.5043 -0.3932
 7494SOL    HW133941   4.526   0.395   3.992 -0.5788 -0.7398 -0.0192
 7494SOL    HW233942   4.423   0.297   3.953 -0.7787  0.9074  0.0331
 7495SOL     OW33943   3.457   4.218   6.883 -0.4416  0.8739  0.0435
 7495SOL    HW133944   3.535   4.164   6.894  0.0577  1.9905  1.8407
 7495SOL    HW233945   3.473   4.262   6.967  1.0907  1.7146 -0.6731
 7496SOL     OW33946   2.383   2.592   4.874  0.2981 -0.1147  0.2739
 7496SOL    HW133947   2.449   2.579   4.806 -0.0836  1.2401 -0.3684
 7496SOL    HW233948   2.433   2.653   4.928  0.4130  2.2666 -2.5150
 7497SOL     OW33949   2.855   0.937   7.381  0.3758  0.3625  0.4751
 7497SOL    HW133950   2.925   0.974   7.434  1.0141 -0.6678  0.3614
 7497SOL    HW233951   2.885   0.960   7.293  2.1633 -2.3208  0.3646
 7498SOL     OW33952   0.146   3.499   1.858 -0.7629  0.2142 -0.2702
 7498SOL    HW133953   0.171   3.511   1.949  3.7156 -2.1538 -1.1852
 7498SOL    HW233954   0.223   3.459   1.818  0.3749  0.8662  1.2848
 7499SOL     OW33955   0.754   0.153  16.594  0.4765 -0.2549  0.0045
 7499SOL    HW133956   0.670   0.132  16.635  0.5131  0.5955  0.5218
 7499SOL    HW233957   0.804   0.074  16.614 -1.9145 -1.6896  0.3579
 7500SOL     OW33958   0.217   2.451   9.223 -0.3182  0.6473  0.1065
 7500SOL    HW133959   0.185   2.476   9.136  2.3980 -1.0326 -1.3988
 7500SOL    HW233960   0.141   2.407   9.260  0.5596 -0.1857  0.9466
 7501SOL     OW33961   0.501   2.327   1.380  0.1101 -0.6957 -0.3746
 7501SOL    HW133962   0.436   2.326   1.451 -0.5846 -0.9812 -1.0038
 7501SOL    HW233963   0.550   2.253   1.415  1.8928  0.0457 -1.2947
 7502SOL     OW33964   3.162   2.043   7.983 -0.0383  0.3389 -0.1605
 7502SOL    HW133965   3.195   2.085   8.062  1.5491 -1.0025 -0.1226
 7502SOL    HW233966   3.161   1.949   8.002 -0.0353  0.2574 -0.5678
 7503SOL     OW33967   1.505   0.637   7.790 -0.1294 -0.2311  0.3591
 7503SOL    HW133968   1.460   0.595   7.864  1.0370  0.1731  1.3050
 7503SOL    HW233969   1.539   0.716   7.831  0.6008 -0.7954  0.8406
 7504SOL     OW33970   0.511   4.111   7.258 -0.2940 -0.1223 -0.1214
 7504SOL    HW133971   0.481   4.125   7.169  0.9156  2.8752 -0.0531
 7504SOL    HW233972   0.585   4.052   7.241  1.6243  1.2575  3.4056
 7505SOL     OW33973   3.387   2.764   8.208  0.1129 -0.1358  0.1691
 7505SOL    HW133974   3.392   2.715   8.126  1.5996  0.2929 -0.0047
 7505SOL    HW233975   3.304   2.809   8.195  0.1063 -0.7967 -2.0637
 7506SOL     OW33976   3.659   3.839   3.422 -0.5865 -0.2736 -0.1571
 7506SOL    HW133977   3.741   3.800   3.451 -0.5893 -1.7823 -2.1639
 7506SOL    HW233978   3.647   3.898   3.496 -0.1694 -0.5401  0.1171
 7507SOL     OW33979   0.499   3.266  12.291  0.0380 -0.1126 -0.4574
 7507SOL    HW133980   0.429   3.255  12.227 -0.6656 -1.9567  0.6208
 7507SOL    HW233981   0.452   3.304  12.366  0.4681 -1.5949  0.5470
 7508SOL     OW33982   2.089   0.875   7.043 -0.1503  0.3924  0.5199
 7508SOL    HW133983   2.092   0.851   7.135 -0.8954 -1.2233  0.1324
 7508SOL    HW233984   2.177   0.867   7.007  0.7395  3.0452  2.1310
 7509SOL     OW33985   1.539   3.031   7.634  0.1570  0.2385  0.3541
 7509SOL    HW133986   1.539   2.968   7.707 -1.4147  1.7595  1.6499
 7509SOL    HW233987   1.618   3.081   7.655 -0.5750  0.5007  2.4943
 7510SOL     OW33988   2.172   0.657   1.933  0.1813  0.1065 -0.3416
 7510SOL    HW133989   2.161   0.581   1.991  0.6173  1.1271  1.0568
 7510SOL    HW233990   2.263   0.684   1.934  0.0105  0.6343  1.2137
 7511SOL     OW33991   0.865   1.192   2.551 -0.3812 -0.1656  0.2297
 7511SOL    HW133992   0.883   1.242   2.631 -0.8626 -2.7383  1.9484
 7511SOL    HW233993   0.793   1.247   2.519 -0.1861  0.5153  0.9556
 7512SOL     OW33994   2.028   1.474  16.287 -0.1616  0.7695  0.6183
 7512SOL    HW133995   2.101   1.422  16.255  0.5420  0.7757  2.2094
 7512SOL    HW233996   2.055   1.507  16.373 -0.0566 -0.0016  0.8824
 7513SOL     OW33997   3.826   2.953   5.044  0.1198  0.1424  0.0574
 7513SOL    HW133998   3.918   2.976   5.032  0.2301 -0.7723 -0.9157
 7513SOL    HW233999   3.817   2.973   5.137 -0.2863 -0.0210  0.0562
 7514SOL     OW34000   0.942   0.379   6.251  0.3761  0.1376  0.3017
 7514SOL    HW134001   0.918   0.452   6.308 -1.2757 -0.7576  0.7574
 7514SOL    HW234002   0.885   0.391   6.175  0.7502 -1.9529 -0.3208
 7515SOL     OW34003   1.317   1.140   9.458 -0.4597 -0.3255  0.0012
 7515SOL    HW134004   1.302   1.234   9.444 -2.6728 -0.7748 -0.6342
 7515SOL    HW234005   1.313   1.134   9.554  1.7801 -0.1175  0.1248
 7516SOL     OW34006   0.949   3.439   2.449  0.6788  1.0470  0.1966
 7516SOL    HW134007   1.004   3.501   2.498  2.3391 -0.9755  0.9186
 7516SOL    HW234008   1.013   3.387   2.400  0.3613  0.0376  0.8469
 7517SOL     OW34009   0.636   4.499   6.336  0.1742 -0.4666  0.1203
 7517SOL    HW134010   0.561   4.491   6.278  1.6003 -0.9860 -1.6331
 7517SOL    HW234011   0.640   4.593   6.355  0.3743 -0.7483  1.4981
 7518SOL     OW34012   1.471   1.344   3.673  0.3940 -0.1675  0.4601
 7518SOL    HW134013   1.418   1.329   3.594 -1.0948  2.5324  0.9303
 7518SOL    HW234014   1.434   1.426   3.706 -0.5838  0.6921 -2.7518
 7519SOL     OW34015   2.033   0.134   4.860  0.7545  0.3265  0.5948
 7519SOL    HW134016   2.044   0.056   4.805 -0.6120  1.1113 -0.7888
 7519SOL    HW234017   2.048   0.203   4.795  0.9919  0.0732  0.3796
 7520SOL     OW34018   2.118   0.970  10.411  0.2236  0.1136  0.4187
 7520SOL    HW134019   2.126   1.009  10.497  1.0413 -1.2282  0.9530
 7520SOL    HW234020   2.204   0.928  10.402 -0.1199 -0.6799  0.7888
 7521SOL     OW34021   1.732   1.596   9.429 -0.1006  0.1041  0.0633
 7521SOL    HW134022   1.683   1.527   9.474 -0.9804 -0.3387 -1.5715
 7521SOL    HW234023   1.671   1.661   9.392 -0.0792 -0.0370 -0.2204
 7522SOL     OW34024   4.048   2.976   0.371  0.2633  1.1950  0.1020
 7522SOL    HW134025   4.118   3.040   0.382  0.9657  0.6200 -1.0053
 7522SOL    HW234026   4.056   2.964   0.277  1.2270 -0.4777  0.3936
 7523SOL     OW34027   3.222   0.724  15.062  0.3147 -0.4865 -0.1217
 7523SOL    HW134028   3.149   0.669  15.090  0.0192  0.2682  0.6028
 7523SOL    HW234029   3.271   0.740  15.142 -1.3083  1.5849  0.4690
 7524SOL     OW34030   0.331   4.117   4.820 -0.6467  0.2689  0.0704
 7524SOL    HW134031   0.347   4.024   4.804  0.1038  0.0190  2.3141
 7524SOL    HW234032   0.283   4.144   4.742 -0.0987  1.4554  0.1464
 7525SOL     OW34033   0.142   3.386  10.173  0.2953  0.2485  0.5130
 7525SOL    HW134034   0.173   3.349  10.255 -1.2688  1.6678  1.7439
 7525SOL    HW234035   0.206   3.451  10.143  0.0592  1.5878  2.9587
 7526SOL     OW34036   1.965   4.238   5.062 -0.3516 -0.0415 -0.1661
 7526SOL    HW134037   2.014   4.256   5.142  0.5144 -0.6223 -0.5631
 7526SOL    HW234038   1.889   4.293   5.081 -0.3983  0.1635 -0.9426
 7527SOL     OW34039   3.704   1.050   5.455 -0.0968  0.7863  0.4927
 7527SOL    HW134040   3.612   1.077   5.446 -0.6443 -1.5245 -0.8693
 7527SOL    HW234041   3.685   0.957   5.453  2.3597  0.2737  0.9576
 7528SOL     OW34042   0.254   3.594   4.885  0.0310  0.3833  0.0932
 7528SOL    HW134043   0.270   3.542   4.964 -2.1606 -0.4354 -0.0060
 7528SOL    HW234044   0.334   3.580   4.835 -1.1193  0.3096 -1.7193
 7529SOL     OW34045   1.541   3.502  16.549 -0.2692 -0.0380 -0.3244
 7529SOL    HW134046   1.511   3.537  16.465 -2.4027 -2.1519 -0.4508
 7529SOL    HW234047   1.476   3.432  16.559  0.1064 -0.2867  0.3661
 7530SOL     OW34048   3.023   1.799   7.529  0.0308  0.3819 -0.2342
 7530SOL    HW134049   2.974   1.718   7.511  0.2578 -0.3627  2.4776
 7530SOL    HW234050   3.025   1.808   7.625  3.5310 -1.3295 -0.1443
 7531SOL     OW34051   2.254   2.238  16.548 -0.2833 -0.0373 -0.3962
 7531SOL    HW134052   2.280   2.330  16.558  1.2461 -0.6157  0.9493
 7531SOL    HW234053   2.331   2.192  16.583 -0.6601  0.9913  1.7993
 7532SOL     OW34054   3.551   1.071   9.743  0.3476  0.6860 -0.1589
 7532SOL    HW134055   3.622   1.090   9.804  0.8170  0.5157 -0.6530
 7532SOL    HW234056   3.585   0.997   9.693  0.4179  0.8135 -0.2982
 7533SOL     OW34057   0.510   2.817   2.805 -0.3624 -0.0418 -0.0804
 7533SOL    HW134058   0.490   2.902   2.766 -3.3639  0.2340  1.9900
 7533SOL    HW234059   0.594   2.843   2.843 -0.5435 -1.6506  1.3856
 7534SOL     OW34060   2.993   3.977  10.780  0.2506  0.3019  0.3712
 7534SOL    HW134061   2.922   4.002  10.720 -0.3070  0.1405  0.9644
 7534SOL    HW234062   3.042   4.059  10.773  0.7500  0.0015  0.3965
 7535SOL     OW34063   1.061   4.019   3.141 -0.1798 -0.3794 -0.2011
 7535SOL    HW134064   1.154   4.000   3.124 -0.0721 -0.7130  0.7416
 7535SOL    HW234065   1.045   4.104   3.101  3.0748 -0.1535 -1.0416
 7536SOL     OW34066   1.798   3.571   2.651 -0.1576  0.2875  0.2316
 7536SOL    HW134067   1.734   3.639   2.671 -0.2343  0.5331 -0.8643
 7536SOL    HW234068   1.802   3.504   2.720 -1.5338  0.5829  0.5993
 7537SOL     OW34069   4.167   2.655  11.394 -0.7769  0.2664  0.6027
 7537SOL    HW134070   4.253   2.615  11.387 -1.3375 -0.3779 -2.5585
 7537SOL    HW234071   4.181   2.737  11.346 -1.3905 -0.6266 -1.0710
 7538SOL     OW34072   1.212   4.586   5.826 -0.3609 -0.2306 -1.1737
 7538SOL    HW134073   1.258   4.505   5.804  1.5350 -0.3405  3.2963
 7538SOL    HW234074   1.292   4.634   5.847 -0.2611 -1.0848  0.3793
 7539SOL     OW34075   1.018   1.536  16.771  0.2738  0.1585 -0.7432
 7539SOL    HW134076   0.981   1.608  16.720  0.4781  1.3312  0.8011
 7539SOL    HW234077   1.072   1.507  16.696  0.2489 -1.6281 -0.0768
 7540SOL     OW34078   3.308   3.020  10.859 -0.2446 -0.0283  0.2387
 7540SOL    HW134079   3.380   3.076  10.831  0.5732 -0.5803  1.2040
 7540SOL    HW234080   3.340   3.002  10.948  0.1203 -0.9648 -0.0813
 7541SOL     OW34081   0.172   2.785   0.267  0.2348 -0.6177  0.1555
 7541SOL    HW134082   0.143   2.765   0.178 -0.7610 -0.5838  0.4692
 7541SOL    HW234083   0.233   2.856   0.245 -1.7216  0.4659 -1.7317
 7542SOL     OW34084   3.187   0.163  16.584 -0.1029  0.4471  0.3222
 7542SOL    HW134085   3.107   0.110  16.580 -0.1385  0.4877  0.4775
 7542SOL    HW234086   3.197   0.186  16.677 -0.1848  0.6482  0.2794
 7543SOL     OW34087   0.691   1.353   8.815 -0.4667 -0.4644  0.2539
 7543SOL    HW134088   0.652   1.437   8.793  0.4914 -0.4789 -1.4762
 7543SOL    HW234089   0.746   1.340   8.738 -0.1145  1.2448  0.2338
 7544SOL     OW34090   2.703   1.297  12.639  0.6321 -0.1977 -0.0862
 7544SOL    HW134091   2.673   1.356  12.570  2.0057 -0.6726 -1.1031
 7544SOL    HW234092   2.767   1.251  12.583  0.1185 -0.5971 -0.3473
 7545SOL     OW34093   2.189   2.449   3.597  0.7467  0.5681 -0.0095
 7545SOL    HW134094   2.163   2.430   3.507 -1.0739 -0.0687  0.6605
 7545SOL    HW234095   2.230   2.370   3.632  2.9939  1.0237 -1.6020
 7546SOL     OW34096   3.382   4.227  16.330  0.4256  0.1833 -0.3764
 7546SOL    HW134097   3.435   4.238  16.251  2.0972  1.5495  0.9396
 7546SOL    HW234098   3.302   4.260  16.288  0.8207  2.4357  0.6458
 7547SOL     OW34099   2.237   3.479   6.181  0.6868 -0.0660 -0.5234
 7547SOL    HW134100   2.303   3.495   6.114  1.4705  2.4032  0.8573
 7547SOL    HW234101   2.248   3.387   6.207 -1.7797  0.0578  0.9506
 7548SOL     OW34102   0.714   2.253   6.512  0.4155  0.2253  0.2219
 7548SOL    HW134103   0.691   2.343   6.534  2.3391  0.9662 -0.7653
 7548SOL    HW234104   0.659   2.191   6.559  2.1103 -1.3528  0.1463
 7549SOL     OW34105   2.278   1.316  14.928 -0.4474  0.3877  0.4986
 7549SOL    HW134106   2.295   1.410  14.935 -1.2839  0.7745 -2.4580
 7549SOL    HW234107   2.329   1.288  15.003 -0.7696  2.0187  1.3155
 7550SOL     OW34108   3.250   2.507   6.862  0.0103 -0.4703  0.1948
 7550SOL    HW134109   3.269   2.594   6.897  1.1913 -0.4598 -0.4694
 7550SOL    HW234110   3.338   2.479   6.837  0.0190  0.5811 -0.9465
 7551SOL     OW34111   3.216   2.354   2.492 -0.2250  0.5688 -0.1410
 7551SOL    HW134112   3.142   2.296   2.509 -0.8965  1.4922  0.0960
 7551SOL    HW234113   3.216   2.332   2.399  1.7116 -0.9576  0.2087
 7552SOL     OW34114   1.838   0.464  15.868  0.0727  0.0137  0.0173
 7552SOL    HW134115   1.790   0.529  15.817 -0.0537  0.0001  0.1176
 7552SOL    HW234116   1.918   0.480  15.819 -1.0712  0.0284 -1.8471
 7553SOL     OW34117   2.947   1.103  13.899  0.2614  0.1416 -0.2709
 7553SOL    HW134118   2.893   1.168  13.945 -2.0306 -2.9888  1.5281
 7553SOL    HW234119   3.029   1.145  13.875  0.8229 -0.5655  0.4231
 7554SOL     OW34120   1.973   3.138   8.661  0.2496 -0.0772 -0.3655
 7554SOL    HW134121   1.888   3.133   8.705 -0.4272  2.7160 -1.3212
 7554SOL    HW234122   2.030   3.095   8.724  0.1611  1.2088  0.6015
 7555SOL     OW34123   1.712   4.297   4.739  0.2008 -0.0995  0.6543
 7555SOL    HW134124   1.683   4.387   4.752 -0.8226 -0.2968 -0.2737
 7555SOL    HW234125   1.627   4.261   4.715  1.4401 -1.6189 -1.4339
 7556SOL     OW34126   1.237   3.051   0.949  0.0573  0.2363 -0.2706
 7556SOL    HW134127   1.198   2.965   0.964  3.8491 -1.3569  0.4206
 7556SOL    HW234128   1.286   3.047   1.031 -0.2354 -2.7723 -0.2440
 7557SOL     OW34129   2.629   1.529  16.477  0.0366  0.1144 -0.0454
 7557SOL    HW134130   2.602   1.618  16.499  1.3799  0.6835 -0.7424
 7557SOL    HW234131   2.614   1.524  16.383 -0.9245  1.5520  0.0336
 7558SOL     OW34132   3.084   0.203   9.006 -1.3469  0.2999  0.4300
 7558SOL    HW134133   3.103   0.119   8.963 -2.5411 -0.6400  1.7862
 7558SOL    HW234134   3.158   0.229   9.061 -1.2071 -0.3945  0.5748
 7559SOL     OW34135   0.478   0.811  10.655  0.0424  0.3233  0.0755
 7559SOL    HW134136   0.472   0.870  10.730 -0.0604 -0.0703  0.3792
 7559SOL    HW234137   0.557   0.845  10.612 -1.3059  1.0938 -1.7776
 7560SOL     OW34138   3.771   1.089  13.177 -0.3281  0.7223 -0.4765
 7560SOL    HW134139   3.811   1.043  13.250 -1.4551  1.2348  0.4628
 7560SOL    HW234140   3.842   1.151  13.159 -0.2663  0.4517 -1.1632
 7561SOL     OW34141   0.564   2.404  10.303 -0.2713  0.3900  0.4485
 7561SOL    HW134142   0.547   2.321  10.259  2.7813 -0.1113  0.1886
 7561SOL    HW234143   0.655   2.421  10.278  1.0327 -1.3934  3.8689
 7562SOL     OW34144   1.350   2.017   3.320 -0.1409  0.4545  0.5107
 7562SOL    HW134145   1.309   1.934   3.345 -0.1479 -0.0374 -1.1329
 7562SOL    HW234146   1.272   2.056   3.280  1.3304 -0.3683 -3.1771
 7563SOL     OW34147   3.229   2.483  17.629  0.2369  0.1449 -0.1666
 7563SOL    HW134148   3.293   2.419  17.657  0.0841 -0.1098 -0.4000
 7563SOL    HW234149   3.284   2.559  17.647  0.1211  0.6433 -1.8751
 7564SOL     OW34150   3.955   4.619   0.663  0.4228  0.2280 -0.2079
 7564SOL    HW134151   4.036   4.668   0.656  0.2923  0.6089  0.8351
 7564SOL    HW234152   3.939   4.625   0.758  4.6471 -0.2444  0.5275
 7565SOL     OW34153   0.654   0.055   6.702  0.1190  0.8692  0.4785
 7565SOL    HW134154   0.723   0.057   6.635  2.2387 -1.0631  2.5851
 7565SOL    HW234155   0.705   0.074   6.781  1.2759  1.9628 -0.5148
 7566SOL     OW34156   0.543   0.807   6.522 -0.1676 -0.8319 -0.8393
 7566SOL    HW134157   0.607   0.878   6.511 -0.2351 -0.5895  0.2562
 7566SOL    HW234158   0.575   0.765   6.602  0.4685  0.6130 -0.3342
 7567SOL     OW34159   3.072   2.606   3.100  0.6392 -0.2990 -0.2746
 7567SOL    HW134160   3.070   2.616   3.195 -0.5214  0.6174 -0.3968
 7567SOL    HW234161   3.161   2.569   3.101  0.0492 -1.7063 -0.7805
 7568SOL     OW34162   3.556   0.950   6.295 -0.0476 -0.3362 -0.5680
 7568SOL    HW134163   3.625   1.013   6.275 -0.0215 -0.0443  0.4935
 7568SOL    HW234164   3.550   0.898   6.214 -3.2096  0.3767 -0.7887
 7569SOL     OW34165   4.352   2.107   8.559  0.1104  0.0621  0.4916
 7569SOL    HW134166   4.380   2.137   8.473 -0.4003 -0.8873  0.0087
 7569SOL    HW234167   4.258   2.097   8.542  0.2539  0.9655 -0.8213
 7570SOL     OW34168   2.514   1.161   4.249 -0.0574 -0.4455 -0.3571
 7570SOL    HW134169   2.506   1.145   4.343 -1.3410 -0.2675 -0.4404
 7570SOL    HW234170   2.587   1.222   4.242  1.5450 -2.5228 -1.8144
 7571SOL     OW34171   0.841   2.572   1.754  0.4638  0.5722  0.0927
 7571SOL    HW134172   0.913   2.631   1.731  0.1034  0.4889 -1.2593
 7571SOL    HW234173   0.769   2.605   1.701  0.3075  0.1320  0.0322
 7572SOL     OW34174   1.340   4.363   8.559  0.4614 -0.3861 -0.2907
 7572SOL    HW134175   1.276   4.302   8.594  1.2517 -1.9643 -1.5957
 7572SOL    HW234176   1.327   4.444   8.609  0.9392 -0.2027 -0.4575
 7573SOL     OW34177   2.960   3.557  15.986 -0.0385 -0.2198 -0.6433
 7573SOL    HW134178   3.000   3.564  16.073 -2.8481 -0.8880  0.7144
 7573SOL    HW234179   2.945   3.648  15.962 -1.1920 -0.5603 -1.2009
 7574SOL     OW34180   3.480   0.491  16.619  0.5654 -0.1859  0.1782
 7574SOL    HW134181   3.467   0.487  16.714 -1.0830 -0.3996 -0.0643
 7574SOL    HW234182   3.573   0.508  16.605 -0.1689  1.1459 -3.0565
 7575SOL     OW34183   3.992   1.155   4.598 -0.0846 -0.8117  0.2592
 7575SOL    HW134184   3.950   1.240   4.612 -0.0782 -0.8830  0.7076
 7575SOL    HW234185   4.065   1.180   4.541 -0.0431 -2.4256 -0.3922
 7576SOL     OW34186   0.557   1.932   3.251 -0.3662  0.4032  0.4678
 7576SOL    HW134187   0.498   2.006   3.238  0.4098  0.8592 -0.3970
 7576SOL    HW234188   0.607   1.933   3.170  0.8906 -1.9747  1.2283
 7577SOL     OW34189   2.152   2.215   2.843 -0.7075  0.4542 -0.1650
 7577SOL    HW134190   2.157   2.306   2.874 -1.3136  0.1806  0.7271
 7577SOL    HW234191   2.098   2.174   2.910 -0.5765 -3.9573 -2.7336
 7578SOL     OW34192   2.346   3.802  11.461 -0.3172  0.2626  0.5291
 7578SOL    HW134193   2.290   3.846  11.526  0.7601  0.3868  1.3597
 7578SOL    HW234194   2.325   3.709  11.467 -0.3713  0.1718 -1.0849
 7579SOL     OW34195   3.088   3.160   8.581  0.3549  0.4177 -0.5208
 7579SOL    HW134196   3.147   3.163   8.506  0.0727  1.4893 -0.6907
 7579SOL    HW234197   3.131   3.108   8.649  1.3650  2.1800  0.1973
 7580SOL     OW34198   4.323   0.690   5.608 -0.3974  0.2447  0.3769
 7580SOL    HW134199   4.311   0.596   5.616  2.5455 -0.4270 -3.0167
 7580SOL    HW234200   4.315   0.716   5.700  1.0133 -2.7325  1.3376
 7581SOL     OW34201   1.800   4.080   4.143 -0.0690  0.6403  0.1504
 7581SOL    HW134202   1.850   4.150   4.101 -0.2019  0.7231  0.1325
 7581SOL    HW234203   1.737   4.137   4.187 -2.0758 -0.8580 -0.8129
 7582SOL     OW34204   2.371   4.711   8.019 -0.3658 -0.2861 -0.6074
 7582SOL    HW134205   2.410   0.059   7.964  0.7316 -1.1681 -0.9179
 7582SOL    HW234206   2.299   4.686   7.961 -1.3810  1.4096 -0.0760
 7583SOL     OW34207   4.223   0.120  17.205 -0.2992 -0.7576  0.1386
 7583SOL    HW134208   4.164   0.154  17.137  1.1225 -2.1227 -1.7611
 7583SOL    HW234209   4.230   0.031  17.169  1.7551  0.0830 -1.5353
 7584SOL     OW34210   4.122   4.572   0.238 -0.8399  0.3898  0.0078
 7584SOL    HW134211   4.217   4.582   0.230 -0.8349  1.2289  1.1938
 7584SOL    HW234212   4.101   4.639   0.174 -1.1552  0.6329  0.3660
 7585SOL     OW34213   1.646   3.543   9.694 -0.2026 -0.4037  0.2228
 7585SOL    HW134214   1.733   3.571   9.666  0.2618  0.2159  2.2365
 7585SOL    HW234215   1.642   3.573   9.785  0.3761  1.1793 -0.2737
 7586SOL     OW34216   3.093   4.286   7.535  0.2048  0.1439  0.1305
 7586SOL    HW134217   3.083   4.351   7.605 -2.0680 -0.2384  0.1501
 7586SOL    HW234218   3.105   4.201   7.578 -1.9835 -0.2053  0.0536
 7587SOL     OW34219   0.174   4.284   1.951  0.5182  0.1374 -0.3173
 7587SOL    HW134220   0.260   4.292   1.992  0.2537  1.2638  0.0426
 7587SOL    HW234221   0.127   4.212   1.994  0.6694  0.1615 -0.1085
 7588SOL     OW34222   3.997   4.289   5.067  0.3157  0.4797  0.4474
 7588SOL    HW134223   3.957   4.315   5.151  0.4295  1.1456  0.2981
 7588SOL    HW234224   4.006   4.194   5.074 -1.0448  0.4214  1.3843
 7589SOL     OW34225   3.842   0.991   6.497 -0.3759 -0.9937 -0.1828
 7589SOL    HW134226   3.880   0.903   6.491 -0.5283 -1.0387 -0.4864
 7589SOL    HW234227   3.902   1.028   6.563  0.5932 -0.6588 -1.2479
 7590SOL     OW34228   1.021   3.330   1.627 -0.2359  0.3396 -0.5061
 7590SOL    HW134229   0.973   3.404   1.663 -0.4116  0.7700 -1.6432
 7590SOL    HW234230   0.962   3.257   1.645 -0.4450  0.6179 -0.0789
 7591SOL     OW34231   3.831   2.159   3.977 -0.2630  0.4772 -0.0675
 7591SOL    HW134232   3.737   2.149   3.992  0.4718 -3.1240  2.0609
 7591SOL    HW234233   3.830   2.241   3.928  1.7782  0.3879 -0.2532
 7592SOL     OW34234   4.478   2.984   2.930 -0.3802  0.1618 -0.0420
 7592SOL    HW134235   4.397   2.956   2.973  0.9015 -0.3256  2.0563
 7592SOL    HW234236   4.536   2.979   3.006  0.6159  2.5288 -0.6551
 7593SOL     OW34237   1.107   3.056   7.837 -0.0431  0.3385 -0.3681
 7593SOL    HW134238   1.046   3.096   7.900  0.1558 -3.7466  2.4236
 7593SOL    HW234239   1.051   3.064   7.760  0.8055 -3.2994 -1.3770
 7594SOL     OW34240   0.949   1.438  10.497  0.3801 -0.3659 -0.1307
 7594SOL    HW134241   0.873   1.392  10.533  0.8263 -0.8437  0.1966
 7594SOL    HW234242   1.006   1.362  10.488  0.7014 -0.3834  2.0944
 7595SOL     OW34243   2.641   2.452   5.051 -0.6451  0.2219 -0.4306
 7595SOL    HW134244   2.674   2.508   5.121  3.2373 -3.3920  0.6081
 7595SOL    HW234245   2.721   2.412   5.019  0.8618  3.0999 -0.2743
 7596SOL     OW34246   1.955   4.194  13.225 -0.3687 -0.6291 -0.2067
 7596SOL    HW134247   1.932   4.128  13.160  1.6141 -0.7979 -0.7476
 7596SOL    HW234248   1.868   4.233  13.233 -0.5969 -1.4001  1.0910
 7597SOL     OW34249   4.405   2.969   4.494  0.1606 -0.3789  0.0862
 7597SOL    HW134250   4.431   3.038   4.433  0.5932 -0.1310  0.5458
 7597SOL    HW234251   4.442   3.006   4.575 -0.0197  2.4088 -1.0903
 7598SOL     OW34252   0.814   2.054  10.772  0.0491 -0.3055 -0.5904
 7598SOL    HW134253   0.771   2.136  10.749  1.1936  0.2316 -0.8051
 7598SOL    HW234254   0.737   1.997  10.763  1.9508 -2.8670 -0.7376
 7599SOL     OW34255   4.435   0.692  12.117  0.2972 -0.3222 -0.3155
 7599SOL    HW134256   4.363   0.719  12.061  1.3469  1.7589 -0.6668
 7599SOL    HW234257   4.512   0.722  12.068  0.7376 -1.1326 -0.1253
 7600SOL     OW34258   2.787   1.170   8.318  0.3550 -0.0673  0.6440
 7600SOL    HW134259   2.741   1.143   8.398 -0.3187  1.3900  0.7601
 7600SOL    HW234260   2.755   1.105   8.255  0.4591  1.9938 -1.5285
 7601SOL     OW34261   4.022   1.244   5.782  0.1842  0.1183 -0.0659
 7601SOL    HW134262   3.946   1.188   5.763  1.1756 -0.7667 -1.3750
 7601SOL    HW234263   3.984   1.327   5.811  0.6782  0.6383 -0.9169
 7602SOL     OW34264   0.109   2.522   4.199 -0.6507  0.0869 -0.1987
 7602SOL    HW134265   0.196   2.560   4.191 -0.0027 -1.1117  1.2433
 7602SOL    HW234266   0.069   2.545   4.115 -2.6419 -0.8911  0.4776
 7603SOL     OW34267   0.674   0.336   7.478  0.5727  0.4467 -0.0429
 7603SOL    HW134268   0.662   0.422   7.519  2.6899  1.3715 -1.3568
 7603SOL    HW234269   0.698   0.368   7.391 -0.9787 -0.4698 -0.8170
 7604SOL     OW34270   1.313   2.163   1.872 -0.1696 -0.0261  0.1983
 7604SOL    HW134271   1.302   2.146   1.778  1.9883  0.6635 -0.1885
 7604SOL    HW234272   1.268   2.090   1.914 -2.1828  0.4995 -1.0368
 7605SOL     OW34273   2.177   3.654  13.848 -0.0185 -0.3751  0.1839
 7605SOL    HW134274   2.197   3.748  13.850  0.5357 -0.4419 -3.1850
 7605SOL    HW234275   2.220   3.616  13.771 -1.2978  1.4429 -1.3999
 7606SOL     OW34276   3.962   2.980   2.419  0.1818 -0.1504 -0.3310
 7606SOL    HW134277   3.988   3.068   2.446  1.0998 -0.8018  0.8885
 7606SOL    HW234278   4.042   2.953   2.373  1.4391  1.4375  0.9152
 7607SOL     OW34279   2.723   2.216  12.508  0.2455 -0.3517  0.4136
 7607SOL    HW134280   2.640   2.228  12.554 -1.3021 -0.1324 -2.4411
 7607SOL    HW234281   2.725   2.299  12.459 -2.1017  1.9645  4.2516
 7608SOL     OW34282   2.635   4.095  10.238  0.1070 -0.3151 -0.0168
 7608SOL    HW134283   2.662   4.005  10.223  1.5183  0.3886 -1.7244
 7608SOL    HW234284   2.595   4.081  10.324  1.1374  1.4335  0.7681
 7609SOL     OW34285   2.655   3.643   5.690 -0.2571 -0.5487  0.2551
 7609SOL    HW134286   2.674   3.549   5.686  1.5838 -0.0237 -3.3823
 7609SOL    HW234287   2.744   3.674   5.673 -0.0465 -0.3244  1.7270
 7610SOL     OW34288   1.999   1.365   7.858 -0.4081 -0.3267 -0.1376
 7610SOL    HW134289   1.999   1.432   7.790 -2.3538  1.0201  1.1694
 7610SOL    HW234290   1.905   1.350   7.864 -0.4907 -0.3684 -1.6236
 7611SOL     OW34291   1.899   0.539  16.277 -0.4925 -0.3738  0.1551
 7611SOL    HW134292   1.868   0.599  16.345  2.7599 -0.1343  1.4333
 7611SOL    HW234293   1.990   0.564  16.261 -0.5901 -1.1711 -1.7019
 7612SOL     OW34294   2.724   1.860   3.943 -0.0878  0.4373 -0.8773
 7612SOL    HW134295   2.728   1.839   3.850 -0.8737 -2.7263 -0.2083
 7612SOL    HW234296   2.685   1.781   3.981  1.5988 -1.0246 -2.2041
 7613SOL     OW34297   2.461   0.561   3.137 -0.0327  0.1768 -0.0439
 7613SOL    HW134298   2.460   0.543   3.043 -2.9012 -1.8458  0.4076
 7613SOL    HW234299   2.477   0.655   3.144  0.4387  0.0358  0.7209
 7614SOL     OW34300   3.262   1.797   8.396  0.3848 -0.0359  0.4925
 7614SOL    HW134301   3.210   1.821   8.473  0.0141  2.4091 -0.5157
 7614SOL    HW234302   3.198   1.786   8.326 -0.2341  0.6899  0.9517
 7615SOL     OW34303   1.755   0.178   4.598 -0.1441 -0.0140  0.3626
 7615SOL    HW134304   1.699   0.101   4.589  1.3756 -1.1024  0.2638
 7615SOL    HW234305   1.782   0.180   4.690 -0.1130 -1.9033  0.4063
 7616SOL     OW34306   3.325   0.116   5.151 -0.2219  0.6326 -0.0340
 7616SOL    HW134307   3.279   0.066   5.084  0.9009 -0.5735  0.0763
 7616SOL    HW234308   3.417   0.088   5.146 -0.0752  0.4551  3.8790
 7617SOL     OW34309   2.415   4.297   9.339 -0.1345  0.4664  0.7630
 7617SOL    HW134310   2.494   4.264   9.380  1.0201 -0.3576 -2.0959
 7617SOL    HW234311   2.358   4.223   9.361 -2.2713  0.7104 -3.8269
 7618SOL     OW34312   1.148   3.837   1.173 -0.1651 -0.3566 -0.1933
 7618SOL    HW134313   1.237   3.832   1.210 -0.5778 -2.1394  0.5653
 7618SOL    HW234314   1.175   3.828   1.082  0.3973 -0.2863 -0.0355
 7619SOL     OW34315   4.272   0.095   4.145 -0.2875 -0.5725 -0.0647
 7619SOL    HW134316   4.261   0.190   4.150  2.7522 -0.1496 -1.4177
 7619SOL    HW234317   4.323   0.084   4.065 -0.8611  2.8262 -0.8763
 7620SOL     OW34318   3.937   1.509   8.684 -0.0247 -1.0178 -0.5037
 7620SOL    HW134319   3.891   1.590   8.707 -0.7848 -0.7550 -2.9615
 7620SOL    HW234320   3.880   1.477   8.615  0.8017 -1.0392 -1.1737
 7621SOL     OW34321   4.408   4.372   9.248  0.1397  0.7533  0.1959
 7621SOL    HW134322   4.469   4.394   9.177  1.4285 -0.2733  0.9855
 7621SOL    HW234323   4.406   4.277   9.238  2.1601  0.3867  3.3714
 7622SOL     OW34324   1.612   0.611  13.308  0.2463 -0.1566 -0.0241
 7622SOL    HW134325   1.547   0.545  13.332 -1.1450  1.6384  1.0972
 7622SOL    HW234326   1.558   0.682  13.274  0.1679  0.3603  1.2070
 7623SOL     OW34327   1.207   3.595  15.356 -0.2013 -0.1258  0.0762
 7623SOL    HW134328   1.122   3.601  15.400 -0.8910  1.4433 -1.4560
 7623SOL    HW234329   1.244   3.679  15.381 -0.4010 -0.3535  1.1144
 7624SOL     OW34330   0.015   0.710   2.667  0.1316  0.1651  0.0114
 7624SOL    HW134331   4.690   0.627   2.652  2.3362 -0.7290 -1.5067
 7624SOL    HW234332   4.676   0.749   2.732  0.7156 -0.7788  1.1058
 7625SOL     OW34333   3.417   0.789   2.896  0.5139 -0.3648 -0.0628
 7625SOL    HW134334   3.396   0.848   2.824  1.5297 -1.1714 -1.0392
 7625SOL    HW234335   3.503   0.815   2.932 -0.2707  0.8194  0.9545
 7626SOL     OW34336   4.387   4.174  13.729  0.0091  0.5462  0.3120
 7626SOL    HW134337   4.338   4.111  13.781 -0.7313  0.1914 -0.8284
 7626SOL    HW234338   4.333   4.253  13.738 -0.3706  0.3590 -0.2861
 7627SOL     OW34339   1.742   2.041   7.555 -0.8131 -0.3140  0.3885
 7627SOL    HW134340   1.800   1.984   7.505 -1.5775 -1.2089  0.5204
 7627SOL    HW234341   1.782   2.035   7.642 -0.0730 -1.1151 -0.0149
 7628SOL     OW34342   4.676   2.577   7.197 -0.0455  0.3147  0.1538
 7628SOL    HW134343   4.636   2.602   7.280  0.6264 -0.1280  0.6022
 7628SOL    HW234344   0.035   2.529   7.223  0.6463  1.3263 -0.0599
 7629SOL     OW34345   1.611   2.425   2.605 -0.0911  0.4124 -0.0035
 7629SOL    HW134346   1.565   2.343   2.620  1.0405  0.3183  2.9622
 7629SOL    HW234347   1.548   2.479   2.652  0.4998 -0.2414  1.5264
 7630SOL     OW34348   3.282   1.130   1.830 -0.1294  0.5779 -0.0353
 7630SOL    HW134349   3.214   1.195   1.849 -0.2892  0.2470  0.5224
 7630SOL    HW234350   3.362   1.183   1.828 -0.5313  1.2678  2.0915
 7631SOL     OW34351   3.379   3.363   6.388  0.7002 -0.0653 -0.3651
 7631SOL    HW134352   3.343   3.359   6.300 -0.3573 -1.8754  0.1488
 7631SOL    HW234353   3.395   3.271   6.407  0.8068 -0.0767 -0.5163
 7632SOL     OW34354   2.393   1.995  16.389 -0.3839 -0.2538 -0.7133
 7632SOL    HW134355   2.364   2.079  16.354 -0.2826  0.7366  1.5813
 7632SOL    HW234356   2.310   1.956  16.415 -0.8607 -0.7238 -2.9325
 7633SOL     OW34357   3.960   3.813  11.219  0.2419  0.4397  0.5045
 7633SOL    HW134358   3.882   3.869  11.215 -0.3749 -0.4362  0.3761
 7633SOL    HW234359   4.011   3.876  11.270  1.0942 -0.0292  0.2240
 7634SOL     OW34360   3.556   2.881   5.613  0.3810  0.7034 -0.3577
 7634SOL    HW134361   3.578   2.788   5.603 -0.2225  0.4539  0.5560
 7634SOL    HW234362   3.605   2.919   5.541 -0.9242  4.4262  0.7470
 7635SOL     OW34363   0.716   4.226   4.919 -0.8609  0.0957 -0.3084
 7635SOL    HW134364   0.727   4.307   4.969  1.6761 -0.0601 -0.5939
 7635SOL    HW234365   0.718   4.256   4.828 -0.1851  1.0331  0.0135
 7636SOL     OW34366   2.271   1.696   3.501  0.6229 -0.2558  0.6445
 7636SOL    HW134367   2.266   1.776   3.448  0.9926 -0.0192  0.9763
 7636SOL    HW234368   2.190   1.653   3.473  0.2532  2.0518 -1.9184
 7637SOL     OW34369   4.558   1.555   7.682  0.6667  0.0878 -0.2794
 7637SOL    HW134370   4.481   1.561   7.739 -0.0634  1.1461 -1.3733
 7637SOL    HW234371   4.602   1.639   7.694  2.6184 -1.2592  2.1098
 7638SOL     OW34372   1.635   3.440  16.960 -0.6067 -0.2339 -0.2633
 7638SOL    HW134373   1.639   3.354  16.919  0.8892  0.0176 -0.6415
 7638SOL    HW234374   1.722   3.449  16.999 -0.9454  0.1703  0.4041
 7639SOL     OW34375   0.492   0.904  14.934  0.0893 -0.1479  0.0648
 7639SOL    HW134376   0.451   0.927  14.850  1.4895  3.3579  0.3167
 7639SOL    HW234377   0.421   0.857  14.977  1.2198 -0.4596  1.5867
 7640SOL     OW34378   4.466   3.172  13.476 -0.2658  0.0275  0.2700
 7640SOL    HW134379   4.497   3.085  13.452 -1.6735 -0.7073  1.1387
 7640SOL    HW234380   4.502   3.176  13.565 -0.2704  0.5105  0.2532
 7641SOL     OW34381   3.431   0.848   1.625 -0.0928 -0.2952  0.4852
 7641SOL    HW134382   3.415   0.858   1.719 -1.9168  1.6838 -0.0320
 7641SOL    HW234383   3.338   0.841   1.603 -0.1894 -1.8498  1.4020
 7642SOL     OW34384   2.106   3.478   6.911  0.4215 -0.6602 -0.3112
 7642SOL    HW134385   2.068   3.539   6.973  2.5963  0.1388  0.2479
 7642SOL    HW234386   2.047   3.495   6.837 -2.0909  0.2191  1.9068
 7643SOL     OW34387   1.406   1.095   4.932  0.4686 -0.2195  0.2979
 7643SOL    HW134388   1.498   1.071   4.916 -0.1551 -2.6722  0.4269
 7643SOL    HW234389   1.395   1.179   4.887 -1.3890  0.1996  1.5321
 7644SOL     OW34390   2.601   3.548  13.703  0.0898  0.1960 -0.4728
 7644SOL    HW134391   2.679   3.551  13.648 -1.4564 -0.3877 -2.6663
 7644SOL    HW234392   2.566   3.636  13.689  1.0486  0.2247 -2.7585
 7645SOL     OW34393   0.782   1.299   6.688  0.4337 -0.3844  0.0087
 7645SOL    HW134394   0.766   1.386   6.725 -0.6386 -0.6068  0.0758
 7645SOL    HW234395   0.701   1.249   6.702  0.6505 -0.6250  0.4070
 7646SOL     OW34396   2.821   1.453  16.826 -0.5165  0.4732 -0.2056
 7646SOL    HW134397   2.846   1.479  16.738  0.6157  0.5439  0.1350
 7646SOL    HW234398   2.822   1.357  16.822  0.8057  0.4658  0.2523
 7647SOL     OW34399   4.600   0.631   0.780 -0.1509 -1.1492  0.2654
 7647SOL    HW134400   4.650   0.696   0.828  2.6477 -0.5063 -3.5429
 7647SOL    HW234401   4.664   0.607   0.712  1.4755  2.0391  0.7107
 7648SOL     OW34402   4.530   2.438   6.433 -0.1646 -0.2841  0.0696
 7648SOL    HW134403   4.559   2.397   6.515  0.9420 -0.2082 -0.2729
 7648SOL    HW234404   4.539   2.532   6.449 -3.2852  0.0777 -0.4555
 7649SOL     OW34405   0.007   1.240   3.837 -0.3107 -0.5914 -0.3632
 7649SOL    HW134406   0.086   1.196   3.869  0.1351  0.8758  0.5785
 7649SOL    HW234407   0.042   1.261   3.750 -1.2923  1.4266 -0.2760
 7650SOL     OW34408   4.283   0.917  13.410  0.2675  0.2068 -0.0979
 7650SOL    HW134409   4.274   0.832  13.453  1.6058 -0.3679 -0.9276
 7650SOL    HW234410   4.351   0.963  13.460  0.7420  0.3920 -0.8984
 7651SOL     OW34411   3.139   1.637  15.881  0.4174  0.2744  0.4961
 7651SOL    HW134412   3.118   1.709  15.821  1.1685  0.1461  0.0701
 7651SOL    HW234413   3.063   1.635  15.938 -1.0175  0.5109 -1.3991
 7652SOL     OW34414   1.562   1.375   3.220 -0.2851 -0.4229  0.2874
 7652SOL    HW134415   1.496   1.440   3.247  0.6708  0.5234  0.3241
 7652SOL    HW234416   1.504   1.311   3.178 -0.0227  0.2510 -1.0977
 7653SOL     OW34417   4.564   0.840   5.876 -0.4385 -0.5608  0.1479
 7653SOL    HW134418   4.544   0.872   5.789 -3.5248 -2.8007  0.0152
 7653SOL    HW234419   4.652   0.874   5.895 -1.1590  1.4376 -0.1536
 7654SOL     OW34420   0.871   2.298   9.014 -0.1554  0.4119  0.2639
 7654SOL    HW134421   0.876   2.355   9.090 -1.1511  1.8075 -0.7326
 7654SOL    HW234422   0.826   2.356   8.952 -1.6119 -1.3579 -0.3539
 7655SOL     OW34423   4.665   3.329   2.596  0.5153  0.2823 -0.3502
 7655SOL    HW134424   4.632   3.249   2.637  1.2318 -0.0340 -0.3845
 7655SOL    HW234425   4.667   3.391   2.669  0.9177  0.2138 -0.3012
 7656SOL     OW34426   4.643   1.770   7.211  0.6270 -0.3520  0.0217
 7656SOL    HW134427   4.607   1.790   7.298 -2.8934 -0.4104 -1.4374
 7656SOL    HW234428   0.016   1.773   7.233  0.2176  1.9419  1.4495
 7657SOL     OW34429   0.445   0.935   3.844 -0.0716  0.6460  0.2479
 7657SOL    HW134430   0.472   0.866   3.905 -0.8898  1.6945  1.7817
 7657SOL    HW234431   0.527   0.981   3.827  0.1402  0.5656  1.0631
 7658SOL     OW34432   1.547   2.290   4.569  0.2769 -0.1537  0.6588
 7658SOL    HW134433   1.600   2.350   4.621 -0.2970 -0.4086  1.5392
 7658SOL    HW234434   1.470   2.346   4.553  0.0407 -0.6368  0.1236
 7659SOL     OW34435   0.098   2.648   7.718  0.3126  0.2908 -0.1928
 7659SOL    HW134436   0.142   2.718   7.766  2.0747 -0.1403 -1.2127
 7659SOL    HW234437   0.178   2.621   7.674  0.9112  1.9816 -0.1499
 7660SOL     OW34438   4.662   3.629   5.815 -0.1194  0.4510  0.2762
 7660SOL    HW134439   4.630   3.686   5.745  1.1781  1.1489  0.2604
 7660SOL    HW234440   4.673   3.542   5.776  1.9072  0.2713  1.2432
 7661SOL     OW34441   0.884   4.093   3.379  0.1334 -0.6757 -0.3881
 7661SOL    HW134442   0.949   4.026   3.400  0.7574  0.1300  0.2800
 7661SOL    HW234443   0.866   4.067   3.289 -2.3356  0.4467 -0.2290
 7662SOL     OW34444   2.128   0.784   4.120  0.1152  0.1492  0.2762
 7662SOL    HW134445   2.108   0.722   4.051  0.7619  1.0004 -0.6704
 7662SOL    HW234446   2.185   0.846   4.076 -0.6412  0.7152  0.0968
 7663SOL     OW34447   1.816   1.307   3.339 -0.2796 -0.4495 -0.1466
 7663SOL    HW134448   1.735   1.324   3.291  0.3697 -0.0064 -1.0966
 7663SOL    HW234449   1.871   1.250   3.286 -2.1936 -2.1105 -0.3315
 7664SOL     OW34450   2.527   4.311   3.297  0.2985 -0.0231  0.3615
 7664SOL    HW134451   2.612   4.272   3.277  1.2282  1.6370  1.1273
 7664SOL    HW234452   2.520   4.359   3.214  2.8663 -0.9281 -0.3743
 7665SOL     OW34453   0.219   0.564   5.937 -0.6314 -0.4159  0.0363
 7665SOL    HW134454   0.216   0.632   6.005  0.1080 -0.0651 -0.2857
 7665SOL    HW234455   0.137   0.560   5.888 -1.0246  3.0538  0.3775
 7666SOL     OW34456   1.490   3.469   5.784  0.2505  0.3057 -0.1723
 7666SOL    HW134457   1.459   3.513   5.863  0.5255  0.6924 -0.2819
 7666SOL    HW234458   1.433   3.395   5.764  0.7466  0.0799 -0.7519
 7667SOL     OW34459   0.059   1.638   1.861 -0.3332 -0.2758  0.2284
 7667SOL    HW134460   0.033   1.550   1.834 -1.9368  0.0807  0.6073
 7667SOL    HW234461   4.713   1.652   1.930 -0.1621  1.0407  0.1228
 7668SOL     OW34462   1.099   4.682   2.826  0.2877 -0.1141 -0.5218
 7668SOL    HW134463   1.128   4.608   2.774  0.3790  0.5853 -1.4756
 7668SOL    HW234464   1.120   4.651   2.914 -0.0581  1.8662  0.2709
 7669SOL     OW34465   2.588   0.494   5.109 -0.3285  0.1105  0.3059
 7669SOL    HW134466   2.605   0.470   5.200 -0.0135 -2.2217 -0.3617
 7669SOL    HW234467   2.572   0.588   5.117  1.5922  0.3505  1.4532
 7670SOL     OW34468   0.880   2.027   9.141  0.5959  0.0091 -0.3034
 7670SOL    HW134469   0.954   1.985   9.098  1.3644  0.2189  0.8263
 7670SOL    HW234470   0.891   2.115   9.105 -0.5755 -0.3847 -1.6552
 7671SOL     OW34471   3.031   0.821  10.384 -0.6130 -0.4164 -0.1256
 7671SOL    HW134472   2.955   0.793  10.436 -0.7376  2.1941  1.0862
 7671SOL    HW234473   2.995   0.806  10.297 -0.4453  0.7554 -0.3967
 7672SOL     OW34474   3.962   3.456   5.246  0.1729 -0.2593 -0.2134
 7672SOL    HW134475   3.986   3.368   5.274 -1.1224 -0.0869  1.4060
 7672SOL    HW234476   3.903   3.481   5.318 -1.8222 -1.3253 -1.4702
 7673SOL     OW34477   0.848   1.334   8.599  0.3972  0.6175 -0.1650
 7673SOL    HW134478   0.799   1.275   8.541  0.9004  0.5073 -0.4771
 7673SOL    HW234479   0.856   1.408   8.539  2.9377 -0.6927 -1.4258
 7674SOL     OW34480   3.578   1.363   6.491 -0.2383 -0.1316  0.0794
 7674SOL    HW134481   3.542   1.286   6.447  2.7362 -1.1886 -0.4815
 7674SOL    HW234482   3.527   1.435   6.454  0.2826  0.2955  0.1893
 7675SOL     OW34483   4.143   3.245  16.360 -0.0571  0.4931 -0.1876
 7675SOL    HW134484   4.077   3.192  16.315  0.7588 -0.7002  0.0141
 7675SOL    HW234485   4.118   3.334  16.337 -2.5502  0.3425  1.9887
 7676SOL     OW34486   1.350   1.277   5.189  0.3050 -0.0564 -0.2324
 7676SOL    HW134487   1.410   1.352   5.183 -0.3818  0.3397 -2.2183
 7676SOL    HW234488   1.401   1.196   5.180  0.8970  0.3837 -0.9030
 7677SOL     OW34489   1.199   2.356   2.236  0.0790  0.1898 -0.5132
 7677SOL    HW134490   1.214   2.447   2.212  0.0253  0.8760  1.9906
 7677SOL    HW234491   1.282   2.313   2.214 -0.3326  0.6167 -2.8614
 7678SOL     OW34492   1.764   2.459   4.707  0.4558  0.1190 -0.2881
 7678SOL    HW134493   1.853   2.440   4.676  0.5667  0.1849 -0.0031
 7678SOL    HW234494   1.782   2.540   4.754  0.3041 -0.1469  0.2327
 7679SOL     OW34495   1.112   1.192   2.269 -0.1453 -0.2199 -0.0283
 7679SOL    HW134496   1.154   1.278   2.261  0.6609 -0.6113 -0.0122
 7679SOL    HW234497   1.147   1.141   2.196 -1.1979  1.2941 -1.5966
 7680SOL     OW34498   1.272   3.472   3.676 -0.0615  0.1533  1.1246
 7680SOL    HW134499   1.191   3.463   3.726 -1.8869  0.4746 -1.8440
 7680SOL    HW234500   1.329   3.429   3.740  2.7086  0.7799 -0.9303
 7681SOL     OW34501   4.637   0.817  16.945 -0.1035 -0.7977  0.1860
 7681SOL    HW134502   4.642   0.777  17.032 -1.1346  1.4709  1.2769
 7681SOL    HW234503   4.618   0.736  16.896 -0.8821  0.0023 -0.8332
 7682SOL     OW34504   1.676   2.349   9.598 -0.0397  0.1523  0.1047
 7682SOL    HW134505   1.701   2.272   9.648 -0.0818 -0.0118 -0.1242
 7682SOL    HW234506   1.633   2.306   9.524  0.6926 -0.1585 -0.1425
 7683SOL     OW34507   0.433   3.489   7.131  0.5258 -0.0963  0.0605
 7683SOL    HW134508   0.457   3.469   7.041  2.1153  0.1312  0.4325
 7683SOL    HW234509   0.345   3.518   7.108  0.0595 -0.1848  1.7197
 7684SOL     OW34510   1.526   3.294  13.503  0.6242  0.5043  0.0454
 7684SOL    HW134511   1.536   3.244  13.584  1.4888 -0.8464 -0.8879
 7684SOL    HW234512   1.513   3.382  13.537 -0.4468  0.2234  0.3479
 7685SOL     OW34513   1.899   0.512   2.205 -0.1670  0.3196 -0.2265
 7685SOL    HW134514   1.958   0.471   2.268  0.3533  1.8479  0.2712
 7685SOL    HW234515   1.872   0.433   2.159 -1.4851  0.3925  0.4310
 7686SOL     OW34516   0.233   0.115   6.955 -0.0968  0.2204  0.1721
 7686SOL    HW134517   0.314   0.158   6.928 -0.2242  0.3499  0.0066
 7686SOL    HW234518   0.213   0.158   7.038 -0.0338  1.5044 -0.4834
 7687SOL     OW34519   1.416   0.246  11.742  0.1738 -0.5462 -0.0427
 7687SOL    HW134520   1.366   0.326  11.760  1.0693 -0.1801  0.8432
 7687SOL    HW234521   1.503   0.272  11.771 -0.8259  2.6940  0.0863
 7688SOL     OW34522   1.727   3.827   4.576 -0.2126  0.0792  0.5027
 7688SOL    HW134523   1.712   3.860   4.488  1.0124 -2.2721 -0.6014
 7688SOL    HW234524   1.814   3.864   4.588  1.1564 -2.6919 -0.7084
 7689SOL     OW34525   3.015   3.667   8.336 -0.1397 -0.3770 -0.1524
 7689SOL    HW134526   2.954   3.635   8.270  1.1357 -2.0792 -0.5196
 7689SOL    HW234527   2.984   3.632   8.420  2.2031 -0.7361  0.5620
 7690SOL     OW34528   1.690   2.283   7.485  0.1465  0.0698  0.5072
 7690SOL    HW134529   1.735   2.199   7.494  0.3861  0.4011  2.3118
 7690SOL    HW234530   1.743   2.332   7.548 -1.7663  2.9481 -0.1303
 7691SOL     OW34531   4.445   3.825   7.741  0.2304  0.3172 -0.0830
 7691SOL    HW134532   4.374   3.883   7.713 -0.5369 -0.1175  0.9577
 7691SOL    HW234533   4.445   3.761   7.670  0.4161 -1.3236  1.4022
 7692SOL     OW34534   4.138   2.551   4.279  0.3902 -0.2678  0.4626
 7692SOL    HW134535   4.194   2.527   4.205  1.7170  3.1243  0.3724
 7692SOL    HW234536   4.170   2.639   4.300 -0.0464 -0.2524  1.0736
 7693SOL     OW34537   4.626   1.217   0.849  0.3096  0.4943 -0.1625
 7693SOL    HW134538   4.629   1.231   0.943 -0.7506 -0.8536  0.0727
 7693SOL    HW234539   4.622   1.121   0.851 -1.9863  0.6083  1.0663
 7694SOL     OW34540   0.851   4.501   4.758  0.1805  0.0172  0.1278
 7694SOL    HW134541   0.901   4.455   4.826  0.6357 -1.2076 -1.0448
 7694SOL    HW234542   0.888   4.589   4.760 -0.9878  0.4961  0.4168
 7695SOL     OW34543   2.116   4.427   9.485 -0.3443  0.1397  0.1740
 7695SOL    HW134544   2.171   4.383   9.550  0.8695  1.5410  0.0808
 7695SOL    HW234545   2.182   4.488   9.452  0.4686 -0.7346  0.1871
 7696SOL     OW34546   2.300   1.345   6.406  0.1172  0.1316 -0.3472
 7696SOL    HW134547   2.205   1.339   6.400  0.3718 -2.5523 -1.8385
 7696SOL    HW234548   2.311   1.371   6.498 -1.4079  1.2021 -0.4655
 7697SOL     OW34549   0.915   4.604  16.735  0.3433 -0.0525  0.0326
 7697SOL    HW134550   0.954   4.671  16.791  1.7713  0.3035 -1.3851
 7697SOL    HW234551   0.829   4.586  16.773  0.9932 -0.2598  1.4225
 7698SOL     OW34552   4.258   3.338   6.578 -0.2052  0.4612  0.4630
 7698SOL    HW134553   4.314   3.380   6.643  1.7264 -0.8588 -0.3461
 7698SOL    HW234554   4.301   3.361   6.496  0.7564  1.8301  1.3454
 7699SOL     OW34555   1.021   3.232   1.009 -0.5546 -0.7181 -0.1268
 7699SOL    HW134556   1.100   3.178   1.006  0.4004  0.7349 -1.2598
 7699SOL    HW234557   0.976   3.221   0.926 -0.2136  2.0362 -0.6928
 7700SOL     OW34558   2.329   3.131   2.595  0.8615  0.3593 -0.0935
 7700SOL    HW134559   2.238   3.142   2.566  1.4718  0.8094 -1.8696
 7700SOL    HW234560   2.332   3.036   2.594  0.6898  0.3642 -1.6014
 7701SOL     OW34561   0.681   2.507  15.629  0.1057  0.1518  0.1287
 7701SOL    HW134562   0.641   2.500  15.542  0.1717 -3.7771  0.4191
 7701SOL    HW234563   0.720   2.592  15.611  2.1866 -0.8967 -0.3486
 7702SOL     OW34564   1.112   1.122   3.727  0.2160  0.3317  0.2553
 7702SOL    HW134565   1.164   1.100   3.649  2.9542  2.2710  1.5272
 7702SOL    HW234566   1.192   1.135   3.779 -1.0805 -2.6000  2.9790
 7703SOL     OW34567   0.528   2.415   2.660 -0.1406 -0.1841  0.6024
 7703SOL    HW134568   0.510   2.321   2.659  1.9364 -0.6092  2.4787
 7703SOL    HW234569   0.620   2.416   2.631 -0.8702 -0.5111 -1.7301
 7704SOL     OW34570   3.256   3.724   7.795 -0.4206  0.4994  0.3975
 7704SOL    HW134571   3.213   3.785   7.854  0.1430  0.4253  0.8826
 7704SOL    HW234572   3.185   3.661   7.788  0.2406 -0.0370 -1.4801
 7705SOL     OW34573   0.264   1.497   7.820  0.0756 -0.0435 -0.0161
 7705SOL    HW134574   0.188   1.458   7.862  0.2105 -0.7978 -0.4810
 7705SOL    HW234575   0.226   1.584   7.804 -0.3591 -0.5790 -1.9556
 7706SOL     OW34576   0.310   3.506   0.725 -0.1907 -0.0091 -0.6269
 7706SOL    HW134577   0.305   3.489   0.819  0.5360 -0.7835 -0.7342
 7706SOL    HW234578   0.264   3.430   0.690 -1.9327  0.8487 -0.2089
 7707SOL     OW34579   2.721   4.703   9.464 -0.2711  0.1927  0.5165
 7707SOL    HW134580   2.645   0.040   9.478 -0.9469 -0.1464 -1.7613
 7707SOL    HW234581   2.780   0.038   9.412  1.8548 -1.9138  0.7449
 7708SOL     OW34582   4.652   3.202   9.117  0.2480  0.0533  0.1233
 7708SOL    HW134583   4.560   3.178   9.114  0.8491 -2.2841  0.7317
 7708SOL    HW234584   4.683   3.142   9.050  3.3843  0.0012  1.5974
 7709SOL     OW34585   2.806   4.705  16.998 -0.1784  0.4563  0.3196
 7709SOL    HW134586   2.837   4.691  16.909  1.3888  0.0598  0.9330
 7709SOL    HW234587   2.808   4.616  17.034 -0.5988  0.7664  1.1001
 7710SOL     OW34588   4.203   2.825   9.150 -0.3107  0.1521  0.0588
 7710SOL    HW134589   4.294   2.823   9.179  0.0441 -1.2454 -1.1776
 7710SOL    HW234590   4.198   2.744   9.100 -0.0835  1.1652 -1.5766
 7711SOL     OW34591   4.417   2.714   0.804 -0.4493 -0.0037  0.6024
 7711SOL    HW134592   4.472   2.747   0.732  1.8133 -2.0658  1.3801
 7711SOL    HW234593   4.403   2.798   0.848  1.3188 -0.2689  1.6413
 7712SOL     OW34594   3.420   4.266   1.418  0.5166 -0.4148  0.2000
 7712SOL    HW134595   3.348   4.311   1.462  0.8304  1.1272 -0.8694
 7712SOL    HW234596   3.494   4.326   1.432  0.0199 -0.3685  2.6410
 7713SOL     OW34597   4.197   1.349   3.150 -0.0555 -1.0487  0.1532
 7713SOL    HW134598   4.200   1.280   3.083 -0.0003 -0.7236 -0.1752
 7713SOL    HW234599   4.288   1.354   3.177  0.1233  0.1197 -0.6924
 7714SOL     OW34600   1.379   4.416   8.300 -0.0092 -0.5269  0.3496
 7714SOL    HW134601   1.320   4.486   8.328 -1.2785 -1.0207 -1.0877
 7714SOL    HW234602   1.399   4.372   8.383  1.3503  1.2723  0.9608
 7715SOL     OW34603   1.555   3.792  12.448 -0.5546 -0.0136 -0.1227
 7715SOL    HW134604   1.635   3.807  12.498  1.1065 -1.7589 -2.2970
 7715SOL    HW234605   1.526   3.877  12.413  0.5413 -0.1677 -1.4041
 7716SOL     OW34606   1.335   2.800  15.997  0.4142  0.0539  0.0246
 7716SOL    HW134607   1.311   2.801  16.090 -0.2144  1.8375 -0.1631
 7716SOL    HW234608   1.430   2.793  16.009  0.2737 -0.5950  0.7103
 7717SOL     OW34609   3.437   1.102  12.939 -0.0837  0.2630  0.1322
 7717SOL    HW134610   3.403   1.012  12.938  0.0195  0.2195  0.5290
 7717SOL    HW234611   3.487   1.094  13.020  0.1287 -0.1095 -0.0317
 7718SOL     OW34612   1.039   2.488   3.439 -0.3490  0.4324 -0.3653
 7718SOL    HW134613   1.099   2.476   3.366  1.4083 -0.8059  1.2531
 7718SOL    HW234614   1.098   2.507   3.512  0.5533 -0.1126 -0.9505
 7719SOL     OW34615   3.059   0.050   6.631 -0.6155  0.0305  0.3346
 7719SOL    HW134616   2.986   0.018   6.580  0.1648 -2.0337  0.5238
 7719SOL    HW234617   3.125   4.704   6.608  2.1852  1.7976  3.1784
 7720SOL     OW34618   0.015   0.051  11.536 -0.4201  0.7131  0.7025
 7720SOL    HW134619   0.053   0.015  11.616 -0.2522  0.7043  0.6201
 7720SOL    HW234620   0.097   0.045  11.485  1.0794 -1.9846  3.4457
 7721SOL     OW34621   4.517   1.875   8.458  0.6693  0.4708 -0.0250
 7721SOL    HW134622   4.471   1.958   8.446 -2.1952 -1.0940 -0.0417
 7721SOL    HW234623   4.484   1.839   8.375  1.9328 -0.0516 -0.2907
 7722SOL     OW34624   0.874   0.009   6.951  0.2619  0.2404  0.3943
 7722SOL    HW134625   0.828   4.646   6.937  2.4389 -0.7609 -0.6933
 7722SOL    HW234626   0.954   4.712   6.901 -0.6455 -0.1752 -0.9243
 7723SOL     OW34627   2.499   1.524   3.509 -0.1753  0.0508  0.2930
 7723SOL    HW134628   2.509   1.521   3.604 -1.5420  0.3086  0.4471
 7723SOL    HW234629   2.412   1.563   3.509  0.2653  1.0424 -0.5095
 7724SOL     OW34630   1.131   1.286   4.998 -0.0570  0.6295 -0.0107
 7724SOL    HW134631   1.111   1.198   4.967 -1.9565  1.6232 -1.6366
 7724SOL    HW234632   1.212   1.275   5.048  0.2970  1.7353 -0.3332
 7725SOL     OW34633   0.483   4.705  17.365  0.1507  0.4971  0.1907
 7725SOL    HW134634   0.418   0.055  17.368 -1.1740 -0.8182  2.1734
 7725SOL    HW234635   0.428   4.633  17.335  0.0741  0.2205  1.0021
 7726SOL     OW34636   3.298   2.606  10.438 -0.4043 -0.3914  0.5511
 7726SOL    HW134637   3.232   2.578  10.375 -1.7998  0.8711  1.4449
 7726SOL    HW234638   3.293   2.702  10.429  0.5823 -0.5010 -1.1362
 7727SOL     OW34639   1.003   4.064   5.823  0.5812 -0.0511 -0.2132
 7727SOL    HW134640   1.028   3.980   5.860 -0.7236  0.4815  1.8897
 7727SOL    HW234641   0.988   4.110   5.906  0.8246  0.7003 -0.5817
 7728SOL     OW34642   3.715   2.999   4.703 -0.7267  0.1112  0.1541
 7728SOL    HW134643   3.788   2.965   4.754 -1.2374  1.1248  1.5679
 7728SOL    HW234644   3.655   2.925   4.710  0.9920 -1.4122 -1.5838
 7729SOL     OW34645   2.510   4.527  17.665  0.8122 -0.3261 -0.2176
 7729SOL    HW134646   2.575   4.566   0.043  0.2292  1.1040 -0.5339
 7729SOL    HW234647   2.448   4.492   0.049 -2.0102  0.2945 -2.5742
 7730SOL     OW34648   0.541   3.467   6.887  0.0599  0.1824  0.1322
 7730SOL    HW134649   0.515   3.428   6.803 -2.6152 -1.4567  1.7068
 7730SOL    HW234650   0.603   3.526   6.845 -0.3213  0.3677 -0.1740
 7731SOL     OW34651   3.038   2.736   7.969 -0.0051  0.0999 -0.3442
 7731SOL    HW134652   3.112   2.730   7.909 -0.8464  3.1710 -1.6481
 7731SOL    HW234653   2.985   2.657   7.952 -1.3032  0.5553  1.6117
 7732SOL     OW34654   3.627   3.300   2.281 -0.6712 -0.4457 -0.7629
 7732SOL    HW134655   3.597   3.240   2.350  2.2326  2.0507  2.5945
 7732SOL    HW234656   3.590   3.250   2.207 -0.0262 -2.5156  0.3115
 7733SOL     OW34657   4.150   2.823   8.387  0.5381  0.5738 -0.3185
 7733SOL    HW134658   4.099   2.742   8.383 -0.7898  1.3730  0.4490
 7733SOL    HW234659   4.179   2.838   8.297  0.6988  0.9644 -0.2013
 7734SOL     OW34660   0.862   1.536   2.695 -0.0486  0.4355 -0.2024
 7734SOL    HW134661   0.777   1.560   2.659 -0.0577  0.4912 -0.1453
 7734SOL    HW234662   0.835   1.497   2.778  0.6979 -0.1803 -0.2490
 7735SOL     OW34663   2.174   1.129   2.393 -0.1483 -0.1483  0.1266
 7735SOL    HW134664   2.236   1.100   2.326  0.4212 -0.6119  0.8508
 7735SOL    HW234665   2.109   1.061   2.379 -0.5483  0.8518 -3.0014
 7736SOL     OW34666   3.754   1.497   3.381 -0.3805 -0.3046  0.2552
 7736SOL    HW134667   3.844   1.464   3.374 -1.1468 -2.0773 -1.0812
 7736SOL    HW234668   3.714   1.444   3.312  2.2622 -1.6124 -0.2583
 7737SOL     OW34669   4.361   3.753   6.716 -0.1862  0.2586 -0.1611
 7737SOL    HW134670   4.388   3.776   6.627  0.7700 -2.9021 -0.6952
 7737SOL    HW234671   4.275   3.795   6.716 -0.2553  0.0969  2.8657
 7738SOL     OW34672   0.561   4.563   2.445 -0.0996  0.3670  0.0716
 7738SOL    HW134673   0.474   4.591   2.477 -1.0448 -1.5869 -0.8390
 7738SOL    HW234674   0.542   4.484   2.396  0.1252  0.3080  0.0812
 7739SOL     OW34675   4.529   0.216  13.263 -0.0032  0.4197  0.3915
 7739SOL    HW134676   4.489   0.226  13.177  1.4630  0.1637 -0.3332
 7739SOL    HW234677   4.616   0.192  13.230 -0.7811 -0.6599 -0.8489
 7740SOL     OW34678   0.328   0.952  15.589 -0.7712 -0.6891  0.0958
 7740SOL    HW134679   0.274   0.944  15.511 -0.5207 -0.2719 -0.1181
 7740SOL    HW234680   0.403   0.898  15.564 -0.5264 -0.1645 -0.3024
 7741SOL     OW34681   2.726   2.111   6.085  0.0097 -0.7770 -0.0959
 7741SOL    HW134682   2.801   2.069   6.043 -2.2537 -3.1757 -1.6971
 7741SOL    HW234683   2.657   2.053   6.053  0.0995 -0.4984 -0.8002
 7742SOL     OW34684   3.422   2.092   7.303 -0.4967 -0.2198 -0.1869
 7742SOL    HW134685   3.475   2.018   7.334  1.9889  1.8969  0.5329
 7742SOL    HW234686   3.343   2.083   7.356 -1.4651 -0.1874 -1.6053
 7743SOL     OW34687   1.443   3.907   7.438 -0.3863  0.2969 -0.1879
 7743SOL    HW134688   1.456   3.957   7.519  0.6863 -0.5905  0.1844
 7743SOL    HW234689   1.523   3.856   7.433 -0.6300  0.0235 -1.1733
 7744SOL     OW34690   1.585   4.399  13.413 -0.2666  0.2117 -0.4711
 7744SOL    HW134691   1.540   4.451  13.347 -1.3543 -1.5038 -1.0898
 7744SOL    HW234692   1.529   4.418  13.488  2.5817  0.6976  1.5600
 7745SOL     OW34693   0.311   4.543  11.149 -0.6731 -0.8018 -0.4477
 7745SOL    HW134694   0.219   4.557  11.172 -0.8035 -0.0845 -1.4404
 7745SOL    HW234695   0.359   4.530  11.231 -3.4464  0.7516  1.4054
 7746SOL     OW34696   1.316   0.331  13.045  0.0687 -0.0860 -0.0052
 7746SOL    HW134697   1.331   0.264  13.111  2.1289 -0.7809 -1.1719
 7746SOL    HW234698   1.408   0.345  13.021 -0.2497  1.9067 -0.0893
 7747SOL     OW34699   0.780   2.255  13.606  0.1131 -0.6973 -0.3204
 7747SOL    HW134700   0.809   2.203  13.531  1.6904 -0.2518 -0.0050
 7747SOL    HW234701   0.706   2.207  13.643  2.0801 -2.7574  0.9219
 7748SOL     OW34702   1.098   1.038   6.769 -0.1470  0.0277 -0.0682
 7748SOL    HW134703   1.172   0.983   6.795 -0.2383  0.0703  0.2887
 7748SOL    HW234704   1.076   1.062   6.859  0.2532  0.4293 -0.0795
 7749SOL     OW34705   3.840   4.256   8.228  0.4242 -0.8670  0.2261
 7749SOL    HW134706   3.896   4.187   8.193  3.8163  1.9221  0.1784
 7749SOL    HW234707   3.811   4.210   8.307  1.4072 -2.3788 -0.2870
 7750SOL     OW34708   0.228   1.708   5.465 -0.2742 -1.3463 -0.4113
 7750SOL    HW134709   0.208   1.762   5.541  0.4995 -2.5821  0.6728
 7750SOL    HW234710   0.246   1.631   5.519 -0.1609 -0.7413  0.4104
 7751SOL     OW34711   0.062   2.067   8.684  0.2966  0.2180 -0.1263
 7751SOL    HW134712   0.158   2.064   8.684  0.3162  0.6862 -1.2708
 7751SOL    HW234713   0.048   2.127   8.610 -2.2546 -0.8461 -0.5030
 7752SOL     OW34714   0.060   1.451   2.547  0.0643 -0.0687 -0.3986
 7752SOL    HW134715   0.155   1.462   2.548  0.2130 -1.3693 -0.0755
 7752SOL    HW234716   0.026   1.532   2.507  1.1300  0.6101  0.0655
 7753SOL     OW34717   2.980   2.238  10.304  0.0522  0.1316 -0.1161
 7753SOL    HW134718   2.995   2.179  10.230 -1.6085 -1.6842  0.9874
 7753SOL    HW234719   3.031   2.189  10.368 -1.4131  1.4034  2.0113
 7754SOL     OW34720   4.555   0.703   0.426 -0.0044  0.0970 -0.9575
 7754SOL    HW134721   4.609   0.782   0.435 -0.4563  0.6224 -2.7139
 7754SOL    HW234722   4.622   0.643   0.458 -0.0296  1.8121  2.2488
 7755SOL     OW34723   3.060   1.208   6.030 -0.2412 -0.6641  0.6011
 7755SOL    HW134724   3.057   1.113   6.040  0.1154 -0.4787  2.4833
 7755SOL    HW234725   3.002   1.216   5.955  1.0541  1.5095 -0.1586
 7756SOL     OW34726   1.707   4.260   5.539 -0.3184  0.7614  0.1698
 7756SOL    HW134727   1.645   4.231   5.471  0.6888  2.1337 -1.3399
 7756SOL    HW234728   1.775   4.192   5.539 -0.2185  0.8807  1.7041
 7757SOL     OW34729   4.502   0.647   9.050 -0.3797  0.7983 -0.1880
 7757SOL    HW134730   4.417   0.686   9.072 -0.3854  0.9398 -0.4585
 7757SOL    HW234731   4.468   0.558   9.064  1.5372  0.2506  1.0590
 7758SOL     OW34732   2.565   0.024   3.670 -1.0583  0.1573  0.0554
 7758SOL    HW134733   2.478   0.063   3.658 -0.8665  1.3610  2.6067
 7758SOL    HW234734   2.558   4.682   3.597  2.3979  0.8626 -0.8779
 7759SOL     OW34735   0.395   1.810  11.108  0.8593 -0.3189 -0.0412
 7759SOL    HW134736   0.354   1.884  11.064  2.0476  0.0507 -0.5247
 7759SOL    HW234737   0.422   1.848  11.192 -0.1067  0.4916 -0.1027
 7760SOL     OW34738   1.207   3.416   6.667  0.0511 -0.2311  0.7135
 7760SOL    HW134739   1.272   3.350   6.690 -0.4632 -0.2744  2.0502
 7760SOL    HW234740   1.161   3.414   6.751  0.3385 -1.8655  0.8446
 7761SOL     OW34741   2.597   4.589   0.251  0.5611 -0.3323 -0.0335
 7761SOL    HW134742   2.589   4.521   0.318  0.2328  0.6520  0.9094
 7761SOL    HW234743   2.518   4.638   0.276  0.4904 -0.1902 -0.5370
 7762SOL     OW34744   1.662   4.165   6.464  0.6027 -0.0041 -0.0475
 7762SOL    HW134745   1.724   4.236   6.446  1.4082 -0.2958  1.5252
 7762SOL    HW234746   1.713   4.101   6.514 -0.5884 -1.9899 -1.3954
 7763SOL     OW34747   0.935   3.569   7.936 -0.6309 -0.0253  0.3383
 7763SOL    HW134748   0.842   3.563   7.955 -0.4368  0.0943  1.3267
 7763SOL    HW234749   0.924   3.537   7.846 -0.1990  1.7338 -0.3363
 7764SOL     OW34750   3.351   3.852   6.120 -0.3651 -0.0424  0.7640
 7764SOL    HW134751   3.267   3.886   6.090 -0.4492 -1.3270 -0.4339
 7764SOL    HW234752   3.320   3.768   6.155  0.8270 -0.3008  1.2236
 7765SOL     OW34753   2.539   3.321   5.193 -0.6077  0.0126 -0.0619
 7765SOL    HW134754   2.468   3.316   5.257  0.2577  0.9033  0.9657
 7765SOL    HW234755   2.483   3.313   5.116 -0.8753  0.5251  0.0817
 7766SOL     OW34756   4.558   3.399   2.349  0.4170 -0.4298 -0.0464
 7766SOL    HW134757   4.477   3.348   2.353  1.2104 -1.6495  0.5116
 7766SOL    HW234758   4.599   3.375   2.432 -0.0518  1.0564  0.5996
 7767SOL     OW34759   2.229   2.029   9.247 -0.1367  0.2788  0.3290
 7767SOL    HW134760   2.172   2.047   9.171  0.6092  3.4123  0.5353
 7767SOL    HW234761   2.162   2.041   9.314 -0.2465  0.8487  0.1158
 7768SOL     OW34762   2.512   1.012   0.506  0.0365 -0.0885  1.0605
 7768SOL    HW134763   2.507   1.071   0.430  1.0918 -3.4617 -1.6407
 7768SOL    HW234764   2.471   0.932   0.474  0.6339  0.5453 -1.3002
 7769SOL     OW34765   4.203   3.339  15.233 -0.3985  0.4720 -0.2757
 7769SOL    HW134766   4.295   3.331  15.259 -0.7468  0.4591  0.9945
 7769SOL    HW234767   4.171   3.251  15.250 -0.4352  0.5406  0.0245
 7770SOL     OW34768   2.571   2.795   5.267  0.9908  0.5373 -0.2427
 7770SOL    HW134769   2.560   2.890   5.265 -2.3073  0.1587 -0.5996
 7770SOL    HW234770   2.543   2.772   5.356 -0.2167  0.7483 -0.5687
 7771SOL     OW34771   4.419   0.517  12.620 -0.4543 -0.2684 -0.0020
 7771SOL    HW134772   4.450   0.593  12.572 -0.7821 -0.5402 -0.6421
 7771SOL    HW234773   4.353   0.561  12.674 -0.8105 -1.9079  0.9318
 7772SOL     OW34774   3.124   3.385   5.607 -0.2543  0.1913 -0.0453
 7772SOL    HW134775   3.088   3.438   5.536 -1.1994 -0.4462 -0.0439
 7772SOL    HW234776   3.216   3.396   5.587 -0.5141  0.3585 -1.1544
 7773SOL     OW34777   3.246   1.909  12.393  0.0118  0.0592 -0.2847
 7773SOL    HW134778   3.277   1.953  12.472  0.0291  1.8374 -1.2788
 7773SOL    HW234779   3.171   1.859  12.426  1.0233 -0.0773  1.7534
 7774SOL     OW34780   1.253   0.536  14.148  0.2212 -0.0159 -0.3892
 7774SOL    HW134781   1.196   0.549  14.073  0.3447  1.3725 -0.2316
 7774SOL    HW234782   1.214   0.452  14.172  0.0149  0.5700  1.3120
 7775SOL     OW34783   3.937   0.270  15.608  0.0371 -0.7471 -0.5097
 7775SOL    HW134784   3.989   0.245  15.684  0.2736  0.7867 -0.1597
 7775SOL    HW234785   3.892   0.351  15.633 -1.2080 -1.6496  0.1708
 7776SOL     OW34786   1.215   0.423   6.131 -0.4329  0.1584 -0.1695
 7776SOL    HW134787   1.131   0.381   6.115 -0.0547 -0.7121  0.1423
 7776SOL    HW234788   1.262   0.385   6.057 -0.6166  0.9550 -0.7051
 7777SOL     OW34789   1.542   4.409  17.316 -0.7530 -0.0033  0.3777
 7777SOL    HW134790   1.501   4.366  17.241 -0.0506 -0.1459  0.0780
 7777SOL    HW234791   1.568   4.489  17.269  3.1742 -1.3149  0.3545
 7778SOL     OW34792   1.365   3.164   4.878 -0.4641  0.5225 -0.1957
 7778SOL    HW134793   1.388   3.229   4.813 -0.4037 -0.1508 -0.8527
 7778SOL    HW234794   1.309   3.218   4.933 -0.0682  1.0237 -0.2825
 7779SOL     OW34795   3.715   4.388   6.755 -0.6219 -0.3654 -0.0466
 7779SOL    HW134796   3.730   4.443   6.678 -1.1405 -0.7731 -0.4395
 7779SOL    HW234797   3.634   4.425   6.789 -0.3994 -0.3505  0.4823
 7780SOL     OW34798   3.090   3.687   2.544 -0.5051 -0.3192  0.5490
 7780SOL    HW134799   3.161   3.631   2.574 -1.4447 -0.7142  2.0257
 7780SOL    HW234800   3.118   3.732   2.464 -1.1239  2.1257  1.7253
 7781SOL     OW34801   4.576   3.167   6.905  0.2238 -0.3829 -0.0405
 7781SOL    HW134802   4.565   3.247   6.855  0.4969 -0.3909 -0.1123
 7781SOL    HW234803   4.663   3.182   6.943  0.5723 -3.2802  0.3514
 7782SOL     OW34804   0.503   2.448   5.584  0.3656  0.5107 -0.6974
 7782SOL    HW134805   0.490   2.465   5.677 -0.3052  0.6171 -0.8106
 7782SOL    HW234806   0.457   2.517   5.537 -1.9943  0.4170  1.4460
 7783SOL     OW34807   3.025   1.165   9.167 -0.0303 -0.1674  0.6092
 7783SOL    HW134808   2.988   1.155   9.254 -2.0868 -0.5680 -0.2970
 7783SOL    HW234809   3.099   1.105   9.168  0.1485  0.0062 -2.4470
 7784SOL     OW34810   4.359   1.017   8.262 -0.2512 -0.2726 -0.1921
 7784SOL    HW134811   4.313   0.942   8.224  0.3715  0.0065 -1.4992
 7784SOL    HW234812   4.370   0.980   8.349  0.8947 -2.0259 -1.0720
 7785SOL     OW34813   2.300   0.821   6.892 -0.6267  0.3483  0.0043
 7785SOL    HW134814   2.385   0.861   6.910 -0.5190  0.7806 -1.4751
 7785SOL    HW234815   2.324   0.739   6.848  0.2033  0.0070  1.1120
 7786SOL     OW34816   3.728   2.493   3.856  0.0466  0.0932  0.2521
 7786SOL    HW134817   3.817   2.513   3.888  0.4734  0.1306 -0.9686
 7786SOL    HW234818   3.752   2.415   3.805 -0.4004 -1.7309  2.8058
 7787SOL     OW34819   1.537   1.601   2.028 -0.4634  0.3547  0.4991
 7787SOL    HW134820   1.524   1.647   1.945 -0.1256 -0.5565 -0.0511
 7787SOL    HW234821   1.606   1.657   2.064 -2.0612  2.1902  0.7213
 7788SOL     OW34822   3.859   3.822   4.364  0.1967 -0.0277  0.7653
 7788SOL    HW134823   3.906   3.881   4.424  2.1085 -0.0023 -0.7617
 7788SOL    HW234824   3.840   3.891   4.301  2.2414  0.5491  0.7755
 7789SOL     OW34825   0.992   0.703   6.113  0.1072  0.4965 -1.1055
 7789SOL    HW134826   0.932   0.773   6.136  1.5725  1.5518 -0.4878
 7789SOL    HW234827   0.974   0.703   6.020 -0.6713 -0.1172 -0.9542
 7790SOL     OW34828   4.113   3.579   7.253  0.5110  0.0311 -0.6771
 7790SOL    HW134829   4.179   3.642   7.225  0.5880  1.1155  2.0388
 7790SOL    HW234830   4.146   3.493   7.225 -2.5663 -1.3953  0.0373
 7791SOL     OW34831   2.655   3.844  10.234  0.2955 -0.1710 -0.3017
 7791SOL    HW134832   2.600   3.827  10.157 -2.0412  1.1929  1.0637
 7791SOL    HW234833   2.696   3.758  10.245 -1.8488 -0.9268  1.8080
 7792SOL     OW34834   3.244   1.524  12.673  0.4249 -0.4728 -0.0822
 7792SOL    HW134835   3.198   1.471  12.608  0.7916 -0.4323 -0.3777
 7792SOL    HW234836   3.260   1.460  12.743 -1.3038 -0.1237  0.6128
 7793SOL     OW34837   2.855   0.963   1.250 -0.1848  0.8802  0.2752
 7793SOL    HW134838   2.834   1.039   1.304  0.0330  3.0954 -2.7913
 7793SOL    HW234839   2.903   0.899   1.303 -0.4553  0.1312 -0.3773
 7794SOL     OW34840   3.261   4.104   6.426 -0.2714 -0.9007  0.5009
 7794SOL    HW134841   3.168   4.096   6.447 -0.9262 -1.4465 -2.5544
 7794SOL    HW234842   3.293   4.139   6.509 -0.2137  2.5322 -0.9413
 7795SOL     OW34843   4.580   2.527   1.412 -0.0317 -0.2538 -0.0912
 7795SOL    HW134844   4.501   2.562   1.371 -0.6667  1.6198  2.7796
 7795SOL    HW234845   4.650   2.572   1.364  0.4342  0.1092  0.9248
 7796SOL     OW34846   1.706   2.109   9.710 -0.1889 -0.4031  0.1925
 7796SOL    HW134847   1.734   2.107   9.802 -2.5368  0.1612  0.9403
 7796SOL    HW234848   1.685   2.017   9.695  0.2684 -0.7492  1.7090
 7797SOL     OW34849   4.290   2.088   2.737 -0.0600 -0.1249  0.5776
 7797SOL    HW134850   4.223   2.129   2.792  0.6074  0.5430  0.8952
 7797SOL    HW234851   4.230   2.059   2.668  0.3312  1.5185 -0.4491
 7798SOL     OW34852   2.698   1.020   3.805  0.6378 -0.4831 -0.0488
 7798SOL    HW134853   2.724   1.058   3.888  1.4534 -0.5656 -0.2701
 7798SOL    HW234854   2.782   0.978   3.786  0.8508  0.1430 -0.4779
 7799SOL     OW34855   2.909   0.035   1.038  0.1078 -0.3288  0.1795
 7799SOL    HW134856   2.990   4.704   1.039  0.2830 -0.0660 -1.2120
 7799SOL    HW234857   2.870   0.021   1.125 -0.2919  0.3255  0.1041
 7800SOL     OW34858   3.345   1.232  17.117  0.1722 -0.5111  0.3636
 7800SOL    HW134859   3.283   1.175  17.163 -0.1179 -0.6620 -0.2270
 7800SOL    HW234860   3.298   1.314  17.101 -0.7615 -0.6293  2.4581
 7801SOL     OW34861   3.402   0.231   9.176 -0.8530  0.5958  0.0879
 7801SOL    HW134862   3.399   0.326   9.182 -1.8776  0.8686 -4.9421
 7801SOL    HW234863   3.403   0.221   9.081 -0.1742 -1.5975  0.3109
 7802SOL     OW34864   1.338   3.878  17.025  0.3890  0.1461  0.6615
 7802SOL    HW134865   1.335   3.850  17.116 -3.4484 -1.9066 -0.0756
 7802SOL    HW234866   1.353   3.972  17.037  0.0131  0.2278  0.5168
 7803SOL     OW34867   2.009   3.000   5.744  0.2473  0.3655  0.3028
 7803SOL    HW134868   2.085   3.056   5.724  0.4619 -0.0383 -0.0016
 7803SOL    HW234869   1.986   2.984   5.653 -2.3238 -1.2685  1.2312
 7804SOL     OW34870   3.665   1.403  10.202 -0.4971 -0.2736  0.2495
 7804SOL    HW134871   3.620   1.409  10.118  0.8426  0.2377 -0.4446
 7804SOL    HW234872   3.615   1.332  10.241  2.1982 -2.5503 -0.4131
 7805SOL     OW34873   3.933   3.160   3.143 -0.9517 -0.1325 -0.1719
 7805SOL    HW134874   3.935   3.111   3.061  2.4609 -0.6285  0.1998
 7805SOL    HW234875   3.847   3.134   3.176 -0.0894 -2.1090  0.5031
 7806SOL     OW34876   0.212   3.314   8.061 -0.5890 -0.5732  0.0418
 7806SOL    HW134877   0.123   3.340   8.086 -0.0617 -0.2362  1.5425
 7806SOL    HW234878   0.202   3.219   8.073 -1.1201 -0.6256 -0.8079
 7807SOL     OW34879   1.002   2.874  12.394 -0.5195 -0.2311  0.1311
 7807SOL    HW134880   1.047   2.955  12.420 -0.0665 -0.0730 -1.1382
 7807SOL    HW234881   1.025   2.830  12.476  2.7268 -1.3201 -1.3742
 7808SOL     OW34882   3.921   3.083   2.899  0.1571 -0.2614 -0.5350
 7808SOL    HW134883   3.930   3.026   2.823 -0.4442 -1.8507  0.5990
 7808SOL    HW234884   3.828   3.109   2.897  0.1761  0.0235  2.3471
 7809SOL     OW34885   3.542   3.914   5.850  0.5880 -0.4382  0.6410
 7809SOL    HW134886   3.459   3.919   5.898 -0.8400 -1.1718 -1.7517
 7809SOL    HW234887   3.521   3.841   5.791  0.6915  0.1980 -0.1765
 7810SOL     OW34888   1.027   4.537   8.259 -0.7888  0.2893 -0.2247
 7810SOL    HW134889   1.070   4.455   8.283 -1.5922  0.3695  1.4984
 7810SOL    HW234890   0.936   4.515   8.279 -0.4986 -1.5315 -0.8987
 7811SOL     OW34891   0.994   4.111   8.669  0.1640  0.4927 -0.1386
 7811SOL    HW134892   0.948   4.194   8.656  0.3698  0.5389 -0.5616
 7811SOL    HW234893   1.078   4.148   8.694  0.3235  0.0696 -0.0463
 7812SOL     OW34894   3.635   2.424   8.981 -0.5652  0.0822 -0.2249
 7812SOL    HW134895   3.652   2.331   8.965 -0.7263 -0.0178  0.1766
 7812SOL    HW234896   3.543   2.431   9.005  0.5953  0.6024  4.0627
 7813SOL     OW34897   4.540   2.341   4.272 -0.3255  0.2118  0.2679
 7813SOL    HW134898   4.566   2.298   4.190  1.2946  2.4202 -0.4030
 7813SOL    HW234899   4.620   2.385   4.302 -0.1900  0.2031 -0.0732
 7814SOL     OW34900   3.780   0.838  11.673  0.7629 -0.0911 -0.1669
 7814SOL    HW134901   3.725   0.805  11.744  0.4931  1.3460  0.2705
 7814SOL    HW234902   3.718   0.865  11.605 -1.7458 -4.5621  0.2900
 7815SOL     OW34903   2.151   2.935   4.675 -0.5919  0.0163  0.4642
 7815SOL    HW134904   2.140   2.916   4.769 -0.9436  1.7607  0.7711
 7815SOL    HW234905   2.094   3.006   4.647 -1.3508 -1.5556 -1.9433
 7816SOL     OW34906   0.676   3.170  12.863  0.2911 -0.7114 -0.2490
 7816SOL    HW134907   0.763   3.185  12.900  1.4732  1.2093 -3.8863
 7816SOL    HW234908   0.671   3.075  12.854  0.0246 -0.6345 -0.8958
 7817SOL     OW34909   3.666   4.462   2.699 -0.1967  0.8139  0.5101
 7817SOL    HW134910   3.727   4.500   2.636 -1.1597  2.7383  0.7427
 7817SOL    HW234911   3.598   4.529   2.686 -1.9544 -1.2493 -0.9749
 7818SOL     OW34912   2.161   4.437   8.053  0.1332  0.1155  0.3222
 7818SOL    HW134913   2.212   4.370   8.007 -0.1934 -0.4576  0.8001
 7818SOL    HW234914   2.143   4.497   7.981 -0.2388  1.2218  1.3257
 7819SOL     OW34915   4.469   2.979   5.593  0.0883  0.1373  0.4103
 7819SOL    HW134916   4.450   2.945   5.505 -0.2055 -1.6596  1.1750
 7819SOL    HW234917   4.397   3.042   5.607  1.8471  2.6296 -1.8078
 7820SOL     OW34918   4.621   3.843  10.867 -0.1127  0.3110 -0.0807
 7820SOL    HW134919   4.712   3.838  10.837 -0.0750  2.3504 -0.3294
 7820SOL    HW234920   4.581   3.757  10.877  0.7153  0.2449  2.6239
 7821SOL     OW34921   1.587   4.028   3.190 -0.0741  0.4763  0.0064
 7821SOL    HW134922   1.660   4.090   3.193 -0.4253  0.8495  0.9589
 7821SOL    HW234923   1.616   3.971   3.119 -1.2653 -1.9151  1.4238
 7822SOL     OW34924   2.293   3.905  13.801 -0.1568 -0.1652 -0.4694
 7822SOL    HW134925   2.250   3.948  13.727 -0.2696  2.2561  1.0074
 7822SOL    HW234926   2.283   3.969  13.872 -1.8710  0.7972 -1.5936
 7823SOL     OW34927   1.134   1.316   1.017  0.4128  0.2169 -0.0214
 7823SOL    HW134928   1.067   1.357   1.072 -0.2269 -2.0603  0.8987
 7823SOL    HW234929   1.220   1.351   1.039  0.2235 -0.5955  2.0869
 7824SOL     OW34930   1.627   3.347  14.133  0.0773 -0.5500  0.5960
 7824SOL    HW134931   1.657   3.321  14.046  0.2643 -1.1984  0.8601
 7824SOL    HW234932   1.685   3.420  14.155 -0.1648 -0.1770  0.0046
 7825SOL     OW34933   1.041   2.374   4.365  0.2066  0.0679 -0.9069
 7825SOL    HW134934   1.106   2.425   4.316  1.3726  0.0609  0.6244
 7825SOL    HW234935   1.082   2.362   4.451  1.2565 -0.5304 -1.4943
 7826SOL     OW34936   0.849   0.386   1.267 -0.4361  0.3479  0.5508
 7826SOL    HW134937   0.863   0.359   1.358 -0.5823  0.6815  0.6698
 7826SOL    HW234938   0.800   0.308   1.239  2.1744 -1.3388  0.7026
 7827SOL     OW34939   3.525   3.623  13.679 -0.3518 -0.1694  0.0081
 7827SOL    HW134940   3.471   3.690  13.638 -0.6966 -0.8221 -0.6101
 7827SOL    HW234941   3.492   3.621  13.769 -1.7747  1.4339 -0.4766
 7828SOL     OW34942   0.912   3.174   8.013  0.0082  0.6172  0.0035
 7828SOL    HW134943   0.831   3.169   7.963  0.7073 -0.5282 -1.0268
 7828SOL    HW234944   0.896   3.231   8.089  0.1064  1.4880 -0.6328
 7829SOL     OW34945   2.106   1.818   3.154  0.0046  0.1116  0.0544
 7829SOL    HW134946   2.189   1.803   3.199  0.2570  0.6596 -0.2286
 7829SOL    HW234947   2.049   1.771   3.215  1.2030 -2.0790 -0.5190
 7830SOL     OW34948   4.213   0.878   2.978 -0.7984 -0.1362 -0.0358
 7830SOL    HW134949   4.188   0.840   2.894 -0.5329 -0.7238  0.1509
 7830SOL    HW234950   4.276   0.815   3.013 -1.7319 -1.7842 -1.2898
 7831SOL     OW34951   1.903   2.914   5.458  0.0162  0.5440  0.3680
 7831SOL    HW134952   1.818   2.873   5.468  0.7383 -0.8529  0.7474
 7831SOL    HW234953   1.961   2.839   5.447  1.2213  1.5831 -0.4596
 7832SOL     OW34954   3.324   3.623  13.058  0.1310 -0.0409 -0.0225
 7832SOL    HW134955   3.304   3.705  13.013 -2.6204 -2.0852 -2.4928
 7832SOL    HW234956   3.305   3.566  12.984 -0.2094 -2.6548  2.0603
 7833SOL     OW34957   1.869   1.373   4.629 -0.1879  0.2048  0.4633
 7833SOL    HW134958   1.814   1.338   4.559  0.8164  1.9575 -1.1993
 7833SOL    HW234959   1.808   1.395   4.699  0.6584  1.8104  0.7094
 7834SOL     OW34960   4.570   1.239  11.124 -0.4873  0.0828  0.1070
 7834SOL    HW134961   4.587   1.145  11.124 -0.5680  0.0648 -1.6649
 7834SOL    HW234962   4.517   1.229  11.045  1.9891  0.1952 -1.5576
 7835SOL     OW34963   0.313   1.089  11.330  0.2766  0.3634  0.4901
 7835SOL    HW134964   0.250   1.112  11.399 -0.8527 -0.6655 -0.1939
 7835SOL    HW234965   0.337   1.176  11.299  0.1193  0.4975  0.7386
 7836SOL     OW34966   3.685   0.369  11.064  0.3921 -0.3131  0.0718
 7836SOL    HW134967   3.738   0.438  11.103 -0.1888  0.6465 -0.8370
 7836SOL    HW234968   3.738   0.289  11.071  0.1344 -0.5523 -0.7098
 7837SOL     OW34969   3.650   1.918   6.240 -0.2675 -0.5609  0.4931
 7837SOL    HW134970   3.716   1.849   6.249  0.4524  0.1934  0.9007
 7837SOL    HW234971   3.640   1.946   6.331  0.9821 -2.6664  1.2781
 7838SOL     OW34972   3.154   2.196   9.314  0.0014  0.4596  0.4236
 7838SOL    HW134973   3.154   2.284   9.275 -1.6896  0.6212  0.8120
 7838SOL    HW234974   3.239   2.161   9.287  0.1533  1.3131 -0.1978
 7839SOL     OW34975   1.850   0.512   0.062  0.4460 -0.4232  0.7153
 7839SOL    HW134976   1.824   0.598   0.029  0.9648 -0.8620 -0.8672
 7839SOL    HW234977   1.940   0.527   0.091  0.4634  0.7439  0.0872
 7840SOL     OW34978   1.091   4.701   7.195 -0.6892  0.7066  0.0974
 7840SOL    HW134979   1.185   4.719   7.202 -0.4611 -0.6080  0.3894
 7840SOL    HW234980   1.070   4.626   7.251  1.0077 -3.0872 -4.3980
 7841SOL     OW34981   1.969   3.215   7.943  0.5861  0.1584  0.4242
 7841SOL    HW134982   1.996   3.222   8.035 -1.2348 -0.7067  1.0211
 7841SOL    HW234983   1.880   3.187   7.963  0.3835  0.1005 -0.5656
 7842SOL     OW34984   1.160   0.184   6.723  0.0177  0.6382  0.1014
 7842SOL    HW134985   1.168   0.138   6.639 -2.2537  0.9294 -0.2705
 7842SOL    HW234986   1.089   0.142   6.771  0.0248  0.5634  0.0473
 7843SOL     OW34987   3.742   2.454  12.252  0.6332  0.6964  0.0398
 7843SOL    HW134988   3.802   2.492  12.316  1.7796  1.4365 -1.4714
 7843SOL    HW234989   3.788   2.457  12.168  0.5202  0.7336 -0.0206
 7844SOL     OW34990   1.541   3.129   8.701  0.6431  0.7996 -0.6240
 7844SOL    HW134991   1.581   3.177   8.630  0.8215  1.6105  0.0270
 7844SOL    HW234992   1.621   3.114   8.752 -1.3413 -0.5010  2.1593
 7845SOL     OW34993   2.683   3.351   1.862 -0.0904  0.5372  0.0383
 7845SOL    HW134994   2.635   3.398   1.794 -1.4019  0.4053  0.8719
 7845SOL    HW234995   2.730   3.296   1.800  1.5654  0.0565  1.7357
 7846SOL     OW34996   3.063   0.296   7.070 -0.0660  0.2747  0.0614
 7846SOL    HW134997   2.985   0.312   7.122  0.6561 -1.2222  1.5997
 7846SOL    HW234998   3.022   0.262   6.990 -2.1582 -0.8717  1.6276
 7847SOL     OW34999   2.527   2.039   4.801  0.4507  0.2127  0.4279
 7847SOL    HW135000   2.503   2.121   4.843 -0.2685  0.1070  0.2316
 7847SOL    HW235001   2.453   1.983   4.827  0.2705  0.5501  0.6328
 7848SOL     OW35002   3.521   1.937  12.996 -0.4548 -0.0405  0.2465
 7848SOL    HW135003   3.603   1.888  12.990 -0.3778  0.1706 -0.4409
 7848SOL    HW235004   3.476   1.900  12.920  0.1840  1.4597 -0.8527
 7849SOL     OW35005   2.529   4.503   5.462  0.9667 -0.0693 -0.0197
 7849SOL    HW135006   2.603   4.502   5.522  0.9796 -1.5432 -0.0657
 7849SOL    HW235007   2.583   4.526   5.385 -1.1215  1.4648 -1.0192
 7850SOL     OW35008   1.014   0.844   9.126  0.1671 -0.5684 -0.3668
 7850SOL    HW135009   0.986   0.809   9.041  1.3328 -2.5764  0.0584
 7850SOL    HW235010   1.105   0.815   9.117  0.1869 -0.1941 -1.3937
 7851SOL     OW35011   0.545   4.059   4.503 -0.8134  0.3594  0.0159
 7851SOL    HW135012   0.593   4.068   4.420 -1.2330  1.1664 -0.1434
 7851SOL    HW235013   0.474   4.120   4.479  0.0756  0.9168 -1.2271
 7852SOL     OW35014   3.932   1.692   0.242 -0.1595  0.5500  0.4449
 7852SOL    HW135015   3.889   1.753   0.183 -3.3719 -1.2032  0.9491
 7852SOL    HW235016   3.905   1.605   0.212 -2.0219  1.3635 -0.2279
 7853SOL     OW35017   3.782   1.328  17.660  0.9411 -0.0589  0.1913
 7853SOL    HW135018   3.780   1.235  17.639  2.7906  0.0312 -0.4162
 7853SOL    HW235019   3.781   1.328   0.075 -0.6588 -2.0306  0.1794
 7854SOL     OW35020   2.106   2.234  16.319 -0.0821 -0.1697 -0.0464
 7854SOL    HW135021   2.153   2.281  16.387  0.6356  0.5011 -1.0051
 7854SOL    HW235022   2.019   2.246  16.358 -1.0820 -0.4317 -2.1591
 7855SOL     OW35023   3.686   1.523   8.151 -0.0652  0.5029 -0.7297
 7855SOL    HW135024   3.599   1.557   8.129  0.4536  1.0510 -1.9658
 7855SOL    HW235025   3.675   1.428   8.144  0.4255  0.5640 -2.3876
 7856SOL     OW35026   1.615   2.105  13.722 -0.0324 -0.4138  0.2068
 7856SOL    HW135027   1.601   2.091  13.628  0.7123  0.4798 -0.0371
 7856SOL    HW235028   1.710   2.095  13.724 -0.1985 -1.8833  0.3196
 7857SOL     OW35029   1.198   0.478   7.379  0.1626 -0.4581  0.7961
 7857SOL    HW135030   1.281   0.505   7.419  0.2724  0.7078 -0.2521
 7857SOL    HW235031   1.234   0.411   7.320  0.0424 -1.5514  1.9484
 7858SOL     OW35032   3.182   2.733   4.171 -0.0469 -0.0654  0.1048
 7858SOL    HW135033   3.176   2.648   4.214 -2.2181  0.3602  0.6678
 7858SOL    HW235034   3.090   2.742   4.144  0.4196  0.2003 -1.4009
 7859SOL     OW35035   1.382   3.676   3.556 -0.1952 -0.1975  0.5859
 7859SOL    HW135036   1.432   3.706   3.632  0.6918  1.5229 -0.6617
 7859SOL    HW235037   1.344   3.597   3.595  1.0685 -1.3530 -0.5190
 7860SOL     OW35038   2.192   4.211   7.000  0.3565 -0.3113 -0.6641
 7860SOL    HW135039   2.146   4.250   6.926  1.0036 -0.8536 -1.3545
 7860SOL    HW235040   2.275   4.191   6.956  1.1006 -1.7257  1.4044
 7861SOL     OW35041   0.284   4.151   6.160  0.2174 -0.2405 -0.2100
 7861SOL    HW135042   0.223   4.199   6.103 -0.4908  2.3873  2.7284
 7861SOL    HW235043   0.333   4.100   6.096  2.9482  0.4025  1.4111
 7862SOL     OW35044   4.197   2.069  11.803 -0.1652  0.0822 -0.3970
 7862SOL    HW135045   4.232   2.068  11.714 -0.3514 -0.0697 -0.4697
 7862SOL    HW235046   4.120   2.126  11.801 -1.0810 -1.1335  0.3364
 7863SOL     OW35047   3.044   2.642   5.655  0.8616 -0.0401 -0.3559
 7863SOL    HW135048   2.992   2.657   5.734  1.2691 -2.0574  0.3083
 7863SOL    HW235049   3.103   2.716   5.667  0.2759  0.4770 -0.6787
 7864SOL     OW35050   0.270   4.153  16.849 -0.3513  0.2467  0.1586
 7864SOL    HW135051   0.330   4.216  16.807 -1.1608  0.1952 -1.0580
 7864SOL    HW235052   0.221   4.114  16.776 -1.0132 -0.2106  0.8539
 7865SOL     OW35053   0.202   4.528   4.842  0.0451 -0.0702 -0.7677
 7865SOL    HW135054   0.175   4.492   4.927  1.6938 -0.6075 -0.4719
 7865SOL    HW235055   0.284   4.480   4.836 -0.3679 -0.8032 -0.6171
 7866SOL     OW35056   2.312   4.210   2.524  0.0982 -0.2743  0.0307
 7866SOL    HW135057   2.223   4.204   2.487  0.4199  1.7345 -1.0493
 7866SOL    HW235058   2.318   4.127   2.571 -0.8605  0.1688  0.9325
 7867SOL     OW35059   0.473   3.972  15.254 -0.4921 -0.4426 -0.7062
 7867SOL    HW135060   0.480   3.877  15.266 -1.4795 -0.6818 -2.0360
 7867SOL    HW235061   0.378   3.977  15.264 -0.3255 -0.0574  0.6290
 7868SOL     OW35062   2.987   2.769  10.576  0.3871 -0.4196 -0.2488
 7868SOL    HW135063   2.965   2.764  10.483  2.5818 -1.8000 -0.6836
 7868SOL    HW235064   3.028   2.855  10.578 -1.7762  0.6167 -0.3278
 7869SOL     OW35065   3.760   0.778   4.673  0.6100 -0.2369 -0.2321
 7869SOL    HW135066   3.670   0.809   4.658  0.8223 -0.3104 -1.6585
 7869SOL    HW235067   3.781   0.765   4.581  1.1329  0.9931 -0.2895
 7870SOL     OW35068   3.343   1.905   3.563  0.1966  0.4426 -0.0520
 7870SOL    HW135069   3.286   1.923   3.638  0.7406 -1.6610  0.8794
 7870SOL    HW235070   3.282   1.905   3.490 -1.4793 -4.4052  1.3185
 7871SOL     OW35071   2.759   0.244   5.811 -0.4690  0.1720  0.5083
 7871SOL    HW135072   2.800   0.205   5.734 -1.5165  1.7443 -0.8638
 7871SOL    HW235073   2.835   0.283   5.854 -0.9463 -0.2221  1.6948
 7872SOL     OW35074   2.016   1.153   3.163 -0.4532  0.1955 -0.5697
 7872SOL    HW135075   2.081   1.157   3.093  0.2183  1.6555  0.1251
 7872SOL    HW235076   1.998   1.248   3.161 -1.7287 -0.0055  0.7749
 7873SOL     OW35077   3.197   1.973   2.228  0.0501  0.5686 -0.7323
 7873SOL    HW135078   3.186   2.067   2.233  0.1141  0.5459 -0.1936
 7873SOL    HW235079   3.234   1.967   2.140  1.3158  0.6774 -0.1963
 7874SOL     OW35080   4.092   4.202  14.833  0.2305  0.1596  0.3792
 7874SOL    HW135081   4.093   4.111  14.861  2.0362 -0.0714 -0.4481
 7874SOL    HW235082   4.169   4.234  14.881 -0.1645  1.5079  0.1116
 7875SOL     OW35083   2.672   2.608   0.279  0.8322 -0.0968 -0.3646
 7875SOL    HW135084   2.759   2.590   0.314  2.3670 -0.4104 -4.2414
 7875SOL    HW235085   2.690   2.675   0.212  0.3228  0.2418 -0.1576
 7876SOL     OW35086   4.242   3.391  10.769 -0.3111 -0.6682  0.1752
 7876SOL    HW135087   4.258   3.377  10.863  0.4043 -1.3883 -0.0616
 7876SOL    HW235088   4.146   3.395  10.767 -0.3324 -1.3753 -0.1040
 7877SOL     OW35089   1.955   1.107   0.988 -0.5771 -0.6876  0.4274
 7877SOL    HW135090   1.867   1.116   1.023 -0.8666  1.6196 -0.8778
 7877SOL    HW235091   1.946   1.159   0.908  1.4732  0.0971  0.7081
 7878SOL     OW35092   1.624   2.732  15.987 -0.0005  0.0310 -0.5354
 7878SOL    HW135093   1.685   2.705  16.055  1.0023 -1.5181 -2.0527
 7878SOL    HW235094   1.640   2.661  15.925 -0.5276 -0.7878  0.2717
 7879SOL     OW35095   2.813   1.485  14.190  0.1174 -0.9606 -0.3349
 7879SOL    HW135096   2.778   1.504  14.103 -0.1338  0.2588  0.0241
 7879SOL    HW235097   2.755   1.539  14.244 -0.7192 -0.3138 -1.8612
 7880SOL     OW35098   0.309   3.838   7.099 -0.0083 -1.0342 -0.2681
 7880SOL    HW135099   0.302   3.743   7.090  2.5625 -1.3791  1.2853
 7880SOL    HW235100   0.297   3.876   7.012 -0.9641  0.0699  0.3276
 7881SOL     OW35101   2.634   3.839   6.068  0.2299  0.5127 -0.1303
 7881SOL    HW135102   2.658   3.893   6.143  0.3454 -2.2290  1.7970
 7881SOL    HW235103   2.647   3.903   5.997 -1.1639  0.3219 -0.5495
 7882SOL     OW35104   3.769   4.041   7.581 -0.3889 -0.2509  0.1077
 7882SOL    HW135105   3.718   4.045   7.662 -1.8079  0.2817 -0.8184
 7882SOL    HW235106   3.749   4.124   7.538  2.9032 -0.5074 -1.8899
 7883SOL     OW35107   4.338   0.594  10.797 -0.1056 -0.4257 -0.0912
 7883SOL    HW135108   4.410   0.563  10.852  0.9876 -0.8690 -1.7733
 7883SOL    HW235109   4.390   0.658  10.749  1.9899 -0.3397  2.3185
 7884SOL     OW35110   1.261   3.575  13.255  0.5261 -0.1658 -0.0525
 7884SOL    HW135111   1.200   3.502  13.254 -0.0532  0.3253 -0.3708
 7884SOL    HW235112   1.315   3.574  13.335 -0.9871  0.1119  0.9823
 7885SOL     OW35113   1.226   0.608  12.483  0.4884  0.1223  0.1509
 7885SOL    HW135114   1.290   0.671  12.516  1.7214 -0.5386 -0.9715
 7885SOL    HW235115   1.152   0.659  12.514  1.2448 -0.0066  2.2090
 7886SOL     OW35116   1.184   0.582   4.871 -0.4540 -0.0558 -0.0655
 7886SOL    HW135117   1.274   0.572   4.840 -0.5671  0.2391 -0.4917
 7886SOL    HW235118   1.202   0.641   4.944 -0.4898 -2.1611  1.6518
 7887SOL     OW35119   3.531   2.067  10.348 -0.2943  0.1133  0.0733
 7887SOL    HW135120   3.566   1.989  10.391  2.2941  0.6506 -1.0877
 7887SOL    HW235121   3.605   2.127  10.359  1.6420 -1.4574 -4.4317
 7888SOL     OW35122   0.248   1.311  12.893  0.4393 -0.3947 -0.3675
 7888SOL    HW135123   0.254   1.403  12.921 -1.4658  0.2341 -2.0368
 7888SOL    HW235124   0.326   1.312  12.837  1.7111 -1.1912  1.4038
 7889SOL     OW35125   2.936   2.243   5.806  0.3157 -0.1278  0.1595
 7889SOL    HW135126   3.020   2.286   5.820 -0.2674  0.8155  0.7461
 7889SOL    HW235127   2.960   2.161   5.763 -1.3521 -0.1152 -0.7901
 7890SOL     OW35128   0.563   3.125   0.975 -0.5139 -0.3975 -1.0517
 7890SOL    HW135129   0.479   3.139   1.020 -0.2891 -3.8004  0.4385
 7890SOL    HW235130   0.572   3.030   0.972 -0.7152 -0.4968  0.9991
 7891SOL     OW35131   4.193   1.924   3.519 -0.1046 -0.2471 -0.2176
 7891SOL    HW135132   4.100   1.905   3.513  0.3620 -2.5142 -0.5656
 7891SOL    HW235133   4.223   1.840   3.482 -1.6462 -0.4469 -0.9959
 7892SOL     OW35134   4.215   0.841  11.390  0.8706  0.7439 -0.0466
 7892SOL    HW135135   4.274   0.852  11.315  0.9656  0.9091  0.0517
 7892SOL    HW235136   4.138   0.812  11.341 -0.5247  1.0492  1.9994
 7893SOL     OW35137   1.706   3.865  16.579 -0.0885 -0.0064 -0.3937
 7893SOL    HW135138   1.618   3.901  16.566 -0.3205 -0.7298 -0.8406
 7893SOL    HW235139   1.754   3.920  16.518  0.4055  0.5445  0.5085
 7894SOL     OW35140   3.235   4.623   9.179 -0.2656  0.1701  0.4967
 7894SOL    HW135141   3.153   4.590   9.144  0.1601 -0.3879  0.0169
 7894SOL    HW235142   3.265   4.679   9.108 -0.6387 -0.5477 -0.2208
 7895SOL     OW35143   1.581   1.995   9.385  0.2834  0.0583 -0.1064
 7895SOL    HW135144   1.557   1.903   9.370 -0.1992  0.4138 -1.4782
 7895SOL    HW235145   1.538   2.002   9.470  1.3394 -1.0212  0.5227
 7896SOL     OW35146   1.322   3.256   7.627 -0.9170  0.1237 -0.0702
 7896SOL    HW135147   1.378   3.184   7.654 -0.1816  1.2746  1.4448
 7896SOL    HW235148   1.278   3.222   7.549 -0.7401 -3.7507  1.5450
 7897SOL     OW35149   4.201   0.070   4.833 -0.7744  0.0162  0.4217
 7897SOL    HW135150   4.272   0.125   4.799 -0.9834  2.4006  3.8840
 7897SOL    HW235151   4.218   4.705   4.790  4.8210  0.7822  1.0450
 7898SOL     OW35152   1.718   3.272  15.921 -0.0382  0.2585  0.2653
 7898SOL    HW135153   1.750   3.285  16.010 -0.1952 -1.5451  0.5828
 7898SOL    HW235154   1.721   3.177  15.923 -2.1858  0.1870  0.2124
 7899SOL     OW35155   3.955   1.602   2.934 -0.1343  0.3174  0.5249
 7899SOL    HW135156   3.998   1.648   2.861  0.4264  0.4361  0.9289
 7899SOL    HW235157   4.033   1.566   2.977  0.6680  1.1396 -0.2188
 7900SOL     OW35158   4.564   4.607   2.880 -0.0454  0.4630  0.0724
 7900SOL    HW135159   4.558   4.562   2.965 -1.3911  2.3285  0.9591
 7900SOL    HW235160   4.497   4.556   2.835 -1.3038  1.7039  0.5622
 7901SOL     OW35161   4.601   1.527  14.134 -0.3212  0.2876 -0.1621
 7901SOL    HW135162   4.695   1.537  14.115 -0.7289  1.1589 -1.7122
 7901SOL    HW235163   4.575   1.614  14.164  2.2644  1.1075 -0.2507
 7902SOL     OW35164   4.559   4.223  12.052 -0.4137 -0.1366  0.3752
 7902SOL    HW135165   4.647   4.240  12.017 -0.7447  0.4408 -0.1704
 7902SOL    HW235166   4.573   4.246  12.144  0.2177 -0.2984  0.3224
 7903SOL     OW35167   2.277   3.257  11.705  0.1709  0.5118  0.0410
 7903SOL    HW135168   2.334   3.185  11.732 -0.3768  0.8870  2.2199
 7903SOL    HW235169   2.335   3.334  11.709  2.2183 -1.0703  0.7008
 7904SOL     OW35170   3.742   1.956   4.858 -0.1393  0.6339  0.3313
 7904SOL    HW135171   3.684   1.966   4.782  1.9104 -0.7191 -1.4086
 7904SOL    HW235172   3.694   2.007   4.924  0.6663  0.6477  0.9026
 7905SOL     OW35173   2.038   0.732   2.998  0.0739 -0.2865 -0.2363
 7905SOL    HW135174   2.094   0.655   2.987 -1.3476 -1.4213  0.4615
 7905SOL    HW235175   2.010   0.723   3.089 -1.9715 -0.2929 -0.8557
 7906SOL     OW35176   2.947   0.753   9.047  0.1235 -0.0504 -0.7745
 7906SOL    HW135177   2.964   0.661   9.027  0.5964  0.0183 -0.6834
 7906SOL    HW235178   2.966   0.798   8.965  1.0697 -0.1816 -0.6238
 7907SOL     OW35179   2.646   2.338   3.277  0.4498 -0.2827 -0.1334
 7907SOL    HW135180   2.721   2.394   3.258  0.0737  0.3111  0.1346
 7907SOL    HW235181   2.630   2.306   3.188  0.5732 -0.6372 -0.0272
 7908SOL     OW35182   1.627   3.912   8.020  0.4576  0.1574 -0.7051
 7908SOL    HW135183   1.544   3.868   8.031 -0.4093  1.8201 -0.5903
 7908SOL    HW235184   1.627   3.957   8.104  0.6423  0.4970 -0.8846
 7909SOL     OW35185   4.474   1.034   2.212 -0.1778 -0.1416 -0.7234
 7909SOL    HW135186   4.486   1.113   2.159 -0.8670 -0.0703 -0.7777
 7909SOL    HW235187   4.380   1.020   2.206 -0.4989  1.9977 -0.6224
 7910SOL     OW35188   4.242   3.256   4.480  0.8002  0.2482  0.0239
 7910SOL    HW135189   4.196   3.334   4.447 -1.0914 -0.3986  1.1055
 7910SOL    HW235190   4.335   3.277   4.482  0.8021  0.0982  2.2880
 7911SOL     OW35191   1.505   0.099   5.023 -0.1485  0.3647  0.5225
 7911SOL    HW135192   1.553   0.054   5.092  1.2664  2.4000  0.8715
 7911SOL    HW235193   1.459   0.029   4.975  0.6417  0.5629 -0.5179
 7912SOL     OW35194   0.962   1.159   6.554 -0.4037  0.6348  0.2528
 7912SOL    HW135195   0.900   1.225   6.586 -0.8071  1.3849 -2.0433
 7912SOL    HW235196   0.986   1.103   6.627 -0.6621  0.0884 -0.0812
 7913SOL     OW35197   2.286   1.985   1.168 -0.2746  0.2218  0.2709
 7913SOL    HW135198   2.343   2.048   1.123  0.4587  0.0707  0.9791
 7913SOL    HW235199   2.235   1.961   1.091  0.0109 -1.4228  0.5836
 7914SOL     OW35200   0.323   2.167   4.990 -0.3917  0.0074 -0.0755
 7914SOL    HW135201   0.313   2.210   5.075  0.3721  0.6518 -0.3097
 7914SOL    HW235202   0.238   2.127   4.970  0.4233  0.3895 -4.3594
 7915SOL     OW35203   4.341   0.954   6.221 -0.1699 -0.8270  0.1308
 7915SOL    HW135204   4.260   0.945   6.171 -2.2847 -1.5306  3.7225
 7915SOL    HW235205   4.398   0.883   6.193  0.5439  0.2532 -1.1639
 7916SOL     OW35206   1.878   3.334   3.868  0.5524  0.2160 -0.2656
 7916SOL    HW135207   1.965   3.367   3.844  0.9825 -1.2300 -0.6967
 7916SOL    HW235208   1.818   3.386   3.814 -0.2767 -0.7207 -0.2493
 7917SOL     OW35209   0.522   1.425  15.572  0.1528  0.3290  0.0101
 7917SOL    HW135210   0.531   1.505  15.519  0.7234  0.6559  0.6008
 7917SOL    HW235211   0.439   1.385  15.546 -0.8602  1.2481  1.8661
 7918SOL     OW35212   3.749   3.259   9.131  0.4375 -0.4750 -0.5786
 7918SOL    HW135213   3.655   3.272   9.125  0.3676  0.2825  1.9210
 7918SOL    HW235214   3.768   3.347   9.099 -0.5376 -0.7295 -1.8421
 7919SOL     OW35215   0.502   3.077   2.651 -0.4493  0.0190 -0.1966
 7919SOL    HW135216   0.512   3.171   2.668 -1.4234  0.0162  0.3780
 7919SOL    HW235217   0.440   3.076   2.579 -0.4685 -2.1948 -0.1330
 7920SOL     OW35218   1.015   3.285   4.578 -0.1561  0.1505  0.2762
 7920SOL    HW135219   1.062   3.321   4.503  0.6851 -0.0071  0.7370
 7920SOL    HW235220   1.054   3.198   4.577 -1.5537 -0.4662 -0.9140
 7921SOL     OW35221   2.035   0.974   5.948 -0.3454  0.0950 -0.0178
 7921SOL    HW135222   1.975   0.949   6.018 -1.1338  0.1749 -0.6606
 7921SOL    HW235223   2.104   0.911   5.970 -0.3628 -0.1687 -0.7136
 7922SOL     OW35224   4.318   4.621   8.760 -0.0876  0.0744 -0.0984
 7922SOL    HW135225   4.297   4.537   8.800  0.8131 -1.0707 -2.0430
 7922SOL    HW235226   4.385   4.595   8.697  0.2623  0.2196  0.2167
 7923SOL     OW35227   0.844   4.230   3.077 -0.2797 -0.2329 -0.5701
 7923SOL    HW135228   0.852   4.211   2.983  0.7139 -1.4517 -0.2414
 7923SOL    HW235229   0.809   4.147   3.107 -1.2064  0.0385 -0.9001
 7924SOL     OW35230   0.937   2.833  16.138 -0.0764 -0.1820 -0.1667
 7924SOL    HW135231   0.894   2.875  16.063 -0.9168  0.2450  0.5604
 7924SOL    HW235232   0.876   2.850  16.209 -0.5784 -2.6997  0.0014
 7925SOL     OW35233   0.124   4.188  17.314  0.0258 -0.4505 -0.2951
 7925SOL    HW135234   0.156   4.148  17.395 -0.8468 -0.9904 -0.2171
 7925SOL    HW235235   0.205   4.196  17.264  0.4281 -1.5335  0.1854
 7926SOL     OW35236   0.023   2.322  15.166  0.2762  0.6567  0.3152
 7926SOL    HW135237   4.695   2.239  15.176  0.5388  0.5804  0.8778
 7926SOL    HW235238   0.113   2.288  15.168  0.2390  0.6356  1.2662
 7927SOL     OW35239   2.811   2.013   0.015  0.2544  0.1910  0.0372
 7927SOL    HW135240   2.777   1.962   0.088 -1.4719 -1.9014 -2.1829
 7927SOL    HW235241   2.767   2.098   0.012 -0.7530 -0.3014  0.7403
 7928SOL     OW35242   0.543   4.505   7.225 -0.8675 -0.4584 -0.3511
 7928SOL    HW135243   0.469   4.511   7.164 -0.2158  0.8495 -0.9973
 7928SOL    HW235244   0.595   4.582   7.202 -0.8044  0.2724  2.3315
 7929SOL     OW35245   4.061   4.612   9.527 -0.1987  0.0467  0.3832
 7929SOL    HW135246   4.114   4.673   9.578 -0.2219  1.0638 -0.8151
 7929SOL    HW235247   4.084   4.527   9.565 -2.5985  0.1996  2.1659
 7930SOL     OW35248   3.513   1.356   8.936 -0.1478  0.2971  0.0156
 7930SOL    HW135249   3.434   1.335   8.985 -0.0554 -0.7242 -0.2886
 7930SOL    HW235250   3.582   1.291   8.949  0.4706  0.9015 -0.2424
 7931SOL     OW35251   0.782   0.651   7.918  0.3291 -0.0358  1.2158
 7931SOL    HW135252   0.865   0.609   7.943  1.3278  1.1669 -0.0909
 7931SOL    HW235253   0.813   0.735   7.886  0.9540 -1.4147 -1.7943
 7932SOL     OW35254   1.026   4.684   7.697 -0.1746 -0.1983  0.1861
 7932SOL    HW135255   0.998   0.002   7.613  0.3592 -2.5384 -1.0216
 7932SOL    HW235256   0.962   0.014   7.747  1.7231  2.1679  0.3074
 7933SOL     OW35257   1.769   1.627   6.401 -0.3529  0.7279 -0.2219
 7933SOL    HW135258   1.774   1.549   6.456  2.1597  1.2741  0.3386
 7933SOL    HW235259   1.808   1.586   6.324  0.8001  0.0015  0.7476
 7934SOL     OW35260   4.465   0.742   6.108 -0.4290 -0.4927  0.4747
 7934SOL    HW135261   4.507   0.657   6.120  0.9139 -0.1172 -1.5803
 7934SOL    HW235262   4.510   0.778   6.032 -4.5686 -0.0242 -1.7644
 7935SOL     OW35263   1.755   0.941   6.617 -0.0087  0.5105  0.2168
 7935SOL    HW135264   1.710   0.927   6.533 -1.2794 -1.4603  1.2216
 7935SOL    HW235265   1.835   0.991   6.600 -0.4588  0.9318 -0.6944
 7936SOL     OW35266   3.131   3.130   5.424  0.0953 -0.5260  0.4405
 7936SOL    HW135267   3.199   3.171   5.370 -0.9244  0.0705 -0.3931
 7936SOL    HW235268   3.153   3.038   5.412  0.1150 -0.2536 -1.6053
 7937SOL     OW35269   3.734   0.682  13.609 -0.1249 -0.1979  0.0006
 7937SOL    HW135270   3.659   0.635  13.647 -0.2609  0.1333  0.1421
 7937SOL    HW235271   3.726   0.667  13.515  0.1696  0.5460 -0.1349
 7938SOL     OW35272   2.707   2.783   0.096 -0.7365  0.1352  0.7886
 7938SOL    HW135273   2.783   2.762   0.042 -1.3705  1.8745 -0.7652
 7938SOL    HW235274   2.678   2.872   0.074 -1.1037  0.1447  1.3002
 7939SOL     OW35275   4.075   0.235   6.364 -0.0116  0.5439  0.2506
 7939SOL    HW135276   4.128   0.176   6.418 -0.0868 -0.5447 -0.8696
 7939SOL    HW235277   3.994   0.244   6.415 -1.0362  0.0252 -1.2952
 7940SOL     OW35278   3.531   2.665  15.791 -0.3240 -0.1376 -0.1714
 7940SOL    HW135279   3.485   2.594  15.746  0.6523 -1.5981  1.1230
 7940SOL    HW235280   3.499   2.739  15.738 -1.4697 -1.0569 -0.7615
 7941SOL     OW35281   3.668   0.208  15.942  0.1422  0.5124 -0.5543
 7941SOL    HW135282   3.702   0.128  15.903  2.1445  1.2219 -0.2643
 7941SOL    HW235283   3.573   0.199  15.938 -0.1079  1.4981  3.0410
 7942SOL     OW35284   0.314   3.309  16.221 -0.2790  0.4588 -0.7661
 7942SOL    HW135285   0.241   3.262  16.180 -0.3110 -0.5788  0.4779
 7942SOL    HW235286   0.389   3.265  16.182 -0.2717 -0.1042 -0.1180
 7943SOL     OW35287   1.827   3.815   6.430  0.1876  0.1919  0.3943
 7943SOL    HW135288   1.860   3.905   6.439 -0.7673  0.6927 -1.1201
 7943SOL    HW235289   1.907   3.765   6.443  1.2642  2.2063  1.6134
 7944SOL     OW35290   3.939   1.650  12.139 -0.3849 -0.3009  0.2131
 7944SOL    HW135291   3.885   1.709  12.193 -1.7173 -0.6201 -0.7619
 7944SOL    HW235292   3.865   1.609  12.094 -1.7227  1.6752  0.6028
 7945SOL     OW35293   1.787   0.386   5.242 -0.2910  0.4243 -0.4006
 7945SOL    HW135294   1.836   0.433   5.309  0.1447  0.1505 -0.5227
 7945SOL    HW235295   1.793   0.298   5.280  2.3936  0.2568 -1.1948
 7946SOL     OW35296   3.157   4.517   7.377 -0.0082  0.4819  0.1040
 7946SOL    HW135297   3.120   4.572   7.446  3.8104  0.8382  1.8126
 7946SOL    HW235298   3.145   4.428   7.410  1.4894  0.0621 -0.4919
 7947SOL     OW35299   2.888   3.646   7.191  0.3043  0.0769 -0.0810
 7947SOL    HW135300   2.832   3.617   7.119  0.2027 -1.2886  0.5578
 7947SOL    HW235301   2.826   3.669   7.260 -0.5864 -0.7316 -0.6053
 7948SOL     OW35302   0.195   0.137   3.228  0.4338  0.0371  0.0661
 7948SOL    HW135303   0.264   0.198   3.252  0.5702 -0.2595  0.4213
 7948SOL    HW235304   0.236   0.052   3.245  0.0513 -0.5580 -1.9494
 7949SOL     OW35305   0.820   0.376  11.129  0.5387 -0.0442 -0.2041
 7949SOL    HW135306   0.744   0.370  11.070 -0.6884 -2.0975  1.6118
 7949SOL    HW235307   0.802   0.290  11.167  0.4880 -0.1785 -0.5267
 7950SOL     OW35308   3.396   3.259  11.523 -0.2132  0.6061 -0.3070
 7950SOL    HW135309   3.375   3.342  11.482 -0.5660 -0.8107 -2.9928
 7950SOL    HW235310   3.437   3.207  11.454 -0.2357 -1.4722  1.2135
 7951SOL     OW35311   3.059   0.080   2.508 -0.2067  0.6121 -0.5998
 7951SOL    HW135312   2.999   0.154   2.496 -0.4546  0.5801  0.3910
 7951SOL    HW235313   3.022   0.046   2.590 -0.4989  0.7883 -0.6579
 7952SOL     OW35314   0.107   4.696  11.784 -0.4532 -0.3353 -0.0110
 7952SOL    HW135315   0.109   4.605  11.757 -1.1428 -0.3673  0.0343
 7952SOL    HW235316   0.097   4.688  11.879 -0.4864  0.8892  0.0885
 7953SOL     OW35317   0.206   1.358   1.895  0.1823 -0.1556  0.0622
 7953SOL    HW135318   0.267   1.419   1.938 -1.7750  1.2406  0.8570
 7953SOL    HW235319   0.265   1.289   1.866  0.1143  0.4299 -1.4864
 7954SOL     OW35320   2.781   1.822  17.477  0.3039 -0.2848  0.6143
 7954SOL    HW135321   2.852   1.886  17.481  0.6631 -0.4412 -3.0776
 7954SOL    HW235322   2.732   1.860  17.404  1.8056  1.8738  0.6991
 7955SOL     OW35323   2.989   3.468   3.108 -0.0735 -0.6508  0.2414
 7955SOL    HW135324   3.063   3.516   3.143 -1.5095  1.1791  0.7402
 7955SOL    HW235325   3.041   3.396   3.072  0.0742  0.4130 -1.6777
 7956SOL     OW35326   2.630   0.739  15.347  0.4495  0.0930 -0.1179
 7956SOL    HW135327   2.606   0.826  15.377  0.2660 -0.0419  0.1312
 7956SOL    HW235328   2.555   0.717  15.291  1.6682 -0.1561 -1.6510
 7957SOL     OW35329   0.855   2.855   5.265 -0.6372 -0.5562 -0.3257
 7957SOL    HW135330   0.807   2.867   5.183 -1.1284 -0.9542 -0.0938
 7957SOL    HW235331   0.867   2.762   5.248  0.8296 -0.3287 -0.5471
 7958SOL     OW35332   3.152   3.423   8.006 -0.0338  0.0820  0.0752
 7958SOL    HW135333   3.090   3.357   8.039 -1.1070  0.0700 -1.9517
 7958SOL    HW235334   3.142   3.425   7.911  0.0470  3.7800  0.1416
 7959SOL     OW35335   1.541   4.629  17.643  0.0618  0.0401  0.1770
 7959SOL    HW135336   1.634   4.640  17.625 -0.1706  2.8291  0.7032
 7959SOL    HW235337   1.500   4.647  17.558 -1.1933 -1.6581  0.4262
 7960SOL     OW35338   1.915   2.730   9.015  0.0554  0.4092 -0.0621
 7960SOL    HW135339   1.838   2.680   9.042 -1.0135  2.3784  0.5478
 7960SOL    HW235340   1.941   2.690   8.932  0.7220  1.6499 -0.4516
 7961SOL     OW35341   2.096   1.933  17.341 -0.2599  0.3486  0.0115
 7961SOL    HW135342   2.028   1.994  17.371 -1.7359 -0.0506 -2.5281
 7961SOL    HW235343   2.041   1.857  17.323 -0.4222  1.0545 -2.5771
 7962SOL     OW35344   1.446   3.732  14.990  0.6880 -0.1092  0.2149
 7962SOL    HW135345   1.475   3.643  15.013 -0.2619 -0.8739 -1.5447
 7962SOL    HW235346   1.358   3.708  14.961  0.7177  0.9955 -0.7856
 7963SOL     OW35347   3.923   4.021   8.793 -0.3101  0.0676 -0.4966
 7963SOL    HW135348   3.959   3.974   8.717 -0.0825 -1.6867  0.6850
 7963SOL    HW235349   3.986   4.092   8.794 -2.0710  1.6240 -0.1859
 7964SOL     OW35350   1.045   1.959   0.588 -0.0350  0.1109  0.1112
 7964SOL    HW135351   1.024   2.042   0.545  0.9754  0.7035  0.7711
 7964SOL    HW235352   1.030   1.903   0.512  1.2596 -1.4323  1.0027
 7965SOL     OW35353   4.689   3.809  16.053  0.5652  0.4175  0.7527
 7965SOL    HW135354   0.022   3.738  16.090  0.4924 -1.5096 -2.8589
 7965SOL    HW235355   0.028   3.883  16.069  4.2926 -2.4727  0.5201
 7966SOL     OW35356   0.011   3.487   5.064 -0.5294 -0.1628 -0.2222
 7966SOL    HW135357   0.001   3.546   4.989 -0.8126 -1.3817 -1.1380
 7966SOL    HW235358   0.050   3.553   5.121 -0.3476 -0.6534  0.2273
 7967SOL     OW35359   2.855   3.042   0.995  0.1707  0.7351  0.1717
 7967SOL    HW135360   2.770   3.000   1.001  0.2578  0.4898 -0.3504
 7967SOL    HW235361   2.829   3.134   0.986  0.0812  0.5629 -1.2472
 7968SOL     OW35362   2.772   2.616  14.581  0.2785 -0.3738  0.1033
 7968SOL    HW135363   2.862   2.597  14.607 -0.0613  0.1908  1.6928
 7968SOL    HW235364   2.787   2.699  14.535  0.7480 -0.7689 -0.4508
 7969SOL     OW35365   4.479   0.668  14.864 -0.2308 -0.6796 -0.2993
 7969SOL    HW135366   4.500   0.579  14.891  0.4104 -0.4058  0.1062
 7969SOL    HW235367   4.384   0.669  14.854 -0.3939 -1.4841  1.1670
 7970SOL     OW35368   0.482   3.973   1.875  0.5201 -0.1953  0.2136
 7970SOL    HW135369   0.456   3.903   1.935  1.8243  0.0084  1.0211
 7970SOL    HW235370   0.393   3.996   1.848  1.2041  0.6872 -1.2692
 7971SOL     OW35371   3.411   0.177  15.066 -0.2132  0.4339 -0.0165
 7971SOL    HW135372   3.368   0.223  14.994  1.3225  0.7290 -0.7340
 7971SOL    HW235373   3.494   0.166  15.019 -0.7658 -0.3237 -0.8115
 7972SOL     OW35374   0.328   0.370   3.271 -0.3509 -0.0060  0.0607
 7972SOL    HW135375   0.347   0.454   3.229  0.3867 -0.6056 -0.8158
 7972SOL    HW235376   0.241   0.392   3.304 -0.5764 -0.1292 -0.4440
 7973SOL     OW35377   1.997   3.425   8.789  0.0136  0.0812 -0.4845
 7973SOL    HW135378   1.974   3.359   8.723  2.5684 -1.8983  0.5926
 7973SOL    HW235379   2.089   3.402   8.804  0.1922  1.4308  0.4755
 7974SOL     OW35380   1.024   2.284   0.592  0.4893 -0.1643  0.5175
 7974SOL    HW135381   1.042   2.362   0.538  0.3106  0.9548  2.0662
 7974SOL    HW235382   0.990   2.228   0.522 -0.8641  1.1133  0.1398
 7975SOL     OW35383   0.443   4.581   3.002  0.6413 -0.6822  0.0430
 7975SOL    HW135384   0.512   4.532   3.048 -0.3168 -1.3338  0.7837
 7975SOL    HW235385   0.495   4.618   2.931  0.4814 -1.7310 -0.6281
 7976SOL     OW35386   2.277   2.096  15.637 -0.3299  0.1511 -0.1820
 7976SOL    HW135387   2.369   2.103  15.609 -0.8083 -0.0472 -1.7985
 7976SOL    HW235388   2.260   2.189  15.650 -0.1483  0.1706 -0.0772
 7977SOL     OW35389   0.271   1.752   7.918  0.6775  0.1575 -0.3858
 7977SOL    HW135390   0.295   1.840   7.947  1.8950 -0.6826  1.1971
 7977SOL    HW235391   0.340   1.702   7.961 -0.8760 -1.5312  0.1708
 7978SOL     OW35392   2.023   3.242   2.670 -0.1569 -0.3328  0.4808
 7978SOL    HW135393   1.944   3.269   2.717 -0.0792  1.1080 -0.1993
 7978SOL    HW235394   2.013   3.148   2.681 -2.0308 -0.0991  0.8738
 7979SOL     OW35395   4.473   0.801   7.224 -0.3995 -0.4353 -0.0540
 7979SOL    HW135396   4.501   0.740   7.156  1.7426  0.1082  0.3494
 7979SOL    HW235397   4.564   0.810   7.252 -0.5947 -0.9473  0.7324
 7980SOL     OW35398   3.030   1.145   9.992  0.5821 -0.2252  0.1452
 7980SOL    HW135399   3.064   1.056   9.990 -1.7333 -1.0908  0.2936
 7980SOL    HW235400   2.940   1.126   9.967  1.3535 -2.4501 -0.9048
 7981SOL     OW35401   3.206   0.399   9.789  0.3736  0.3399  0.1970
 7981SOL    HW135402   3.264   0.473   9.770 -0.6265  1.5443  1.8854
 7981SOL    HW235403   3.123   0.434   9.757  0.6704  0.2056 -0.7362
 7982SOL     OW35404   0.167   1.582   3.910 -0.0649 -0.4750 -0.2211
 7982SOL    HW135405   0.228   1.589   3.836  0.2547  1.2255  0.2030
 7982SOL    HW235406   0.188   1.493   3.941 -0.5220  0.1532  1.8619
 7983SOL     OW35407   0.065   2.641   5.453  0.2333 -0.1411 -0.0165
 7983SOL    HW135408   0.120   2.623   5.376  0.5339 -2.0337  0.6483
 7983SOL    HW235409   0.012   2.713   5.420  0.1704 -0.9733 -1.7315
 7984SOL     OW35410   4.675   3.794   3.458  0.3533  0.0216  0.7363
 7984SOL    HW135411   4.710   3.705   3.455  1.6558  0.5410  0.6332
 7984SOL    HW235412   0.022   3.836   3.512 -1.1558 -0.2491  2.8150
 7985SOL     OW35413   1.853   1.142   7.137  0.2191 -0.1575  0.4354
 7985SOL    HW135414   1.918   1.202   7.173 -1.5411  0.9809  1.7513
 7985SOL    HW235415   1.766   1.179   7.151  0.0505 -0.6237  0.6549
 7986SOL     OW35416   2.403   3.605   8.893 -0.1011 -1.1544 -0.1799
 7986SOL    HW135417   2.354   3.523   8.894 -0.3293 -1.0371 -1.6487
 7986SOL    HW235418   2.407   3.617   8.799 -0.7207 -0.6997 -0.1485
 7987SOL     OW35419   2.440   1.604   5.709 -0.0402  0.5239 -0.8986
 7987SOL    HW135420   2.458   1.687   5.667 -0.2420 -0.2315 -2.4942
 7987SOL    HW235421   2.370   1.630   5.769 -0.6517 -1.2723 -0.8077
 7988SOL     OW35422   1.861   3.066   0.969 -0.0775  0.4124  0.5171
 7988SOL    HW135423   1.954   3.090   0.967  0.4856 -2.0195 -2.8418
 7988SOL    HW235424   1.828   3.119   0.897 -1.5642 -0.2019  0.7522
 7989SOL     OW35425   3.874   2.110  13.849 -0.1006  0.2820  0.5137
 7989SOL    HW135426   3.890   2.203  13.834 -0.3404  0.0197 -1.2947
 7989SOL    HW235427   3.820   2.090  13.773  0.3841 -1.7216  0.6871
 7990SOL     OW35428   1.806   3.236   7.280 -0.4266  0.2758 -0.5834
 7990SOL    HW135429   1.847   3.292   7.214 -1.0477 -0.0919 -1.2942
 7990SOL    HW235430   1.780   3.162   7.225 -0.5726  0.3207 -0.5747
 7991SOL     OW35431   1.030   2.217   5.554 -0.2773 -0.1586 -0.0568
 7991SOL    HW135432   1.104   2.163   5.526  2.0558  2.2115  1.5355
 7991SOL    HW235433   1.079   2.283   5.604 -1.4085  1.1213 -0.6575
 7992SOL     OW35434   0.481   1.638   4.033  0.1001 -0.0468  0.8360
 7992SOL    HW135435   0.402   1.692   4.026  0.6468  1.0299  3.0286
 7992SOL    HW235436   0.467   1.560   4.086 -1.1218 -0.3138  0.1307
 7993SOL     OW35437   0.084   2.654   8.215 -0.5794 -0.1709 -0.1536
 7993SOL    HW135438   0.108   2.630   8.304  0.7634  0.4977 -0.3310
 7993SOL    HW235439   0.151   2.719   8.195  1.1552 -1.3442  1.9136
 7994SOL     OW35440   2.333   1.882   3.288 -0.0755 -0.4108 -0.7283
 7994SOL    HW135441   2.400   1.897   3.355  0.2328  0.4582 -1.2274
 7994SOL    HW235442   2.337   1.966   3.241  0.4233 -0.3105 -0.5108
 7995SOL     OW35443   4.105   1.510  10.249  0.5611 -0.0132  0.3325
 7995SOL    HW135444   4.133   1.426  10.213 -0.0076 -0.0117 -0.0996
 7995SOL    HW235445   4.186   1.559  10.233  0.4875  0.3608  1.1115
 7996SOL     OW35446   4.005   4.169  13.636  0.3365  0.1446  0.0442
 7996SOL    HW135447   4.075   4.231  13.617 -1.3757  2.2698  0.6804
 7996SOL    HW235448   4.035   4.111  13.565 -0.4043  0.2909 -0.3984
 7997SOL     OW35449   0.179   2.473   4.916 -0.2484 -0.5896 -0.6152
 7997SOL    HW135450   0.128   2.455   4.837  0.5761  2.0377 -1.7156
 7997SOL    HW235451   0.263   2.433   4.890 -0.3507 -1.2195  0.0308
 7998SOL     OW35452   4.116   0.217  15.804 -0.1912  0.3617 -0.7665
 7998SOL    HW135453   4.209   0.197  15.792 -0.0112  1.7852 -1.8821
 7998SOL    HW235454   4.092   0.168  15.882 -0.3059  0.5328 -0.6926
 7999SOL     OW35455   1.566   1.868   4.945 -0.3549 -0.8916 -0.0189
 7999SOL    HW135456   1.642   1.812   4.930 -0.3826 -0.5659 -1.4806
 7999SOL    HW235457   1.573   1.916   4.862  1.3953  0.7561  1.0735
 8000SOL     OW35458   3.529   3.478   8.189 -0.2297  0.2072  0.3070
 8000SOL    HW135459   3.463   3.409   8.192  0.7398 -0.7853 -1.0392
 8000SOL    HW235460   3.605   3.427   8.217 -0.1533  1.6314  2.6935
 8001SOL     OW35461   0.589   2.137   1.798 -0.3382  0.5074  0.6058
 8001SOL    HW135462   0.581   2.136   1.703  0.8750  1.2167  0.4985
 8001SOL    HW235463   0.496   2.130   1.821 -0.5180  1.9828  0.3574
 8002SOL     OW35464   4.328   2.262   5.293  0.1947  0.2124  0.1123
 8002SOL    HW135465   4.386   2.285   5.219 -0.7453  2.2267  0.0087
 8002SOL    HW235466   4.273   2.194   5.255  1.7715 -0.2923 -1.3159
 8003SOL     OW35467   2.348   0.900  17.507  0.2391  0.5014  0.1611
 8003SOL    HW135468   2.410   0.860  17.447 -0.3526  0.1903 -0.2498
 8003SOL    HW235469   2.262   0.896  17.465  1.6639 -0.9869 -2.6014
 8004SOL     OW35470   0.564   2.742   9.760  0.1531  0.0009  0.0722
 8004SOL    HW135471   0.597   2.660   9.798 -0.7018 -0.4264 -0.1230
 8004SOL    HW235472   0.514   2.777   9.834 -0.5332  0.1365 -0.4659
 8005SOL     OW35473   2.361   3.342   2.767  0.2048  0.2746 -0.6907
 8005SOL    HW135474   2.358   3.274   2.699 -1.8786 -0.1819 -0.1432
 8005SOL    HW235475   2.304   3.409   2.729  0.2362  0.5948 -0.1733
 8006SOL     OW35476   3.807   1.038   3.035  0.0372  0.5858 -0.2160
 8006SOL    HW135477   3.734   1.072   3.088  0.0824 -1.4791  1.1736
 8006SOL    HW235478   3.885   1.064   3.084 -0.9489 -0.4366  1.9045
 8007SOL     OW35479   3.049   3.239  11.617 -0.0982 -0.2853  0.5895
 8007SOL    HW135480   3.058   3.254  11.711  1.3252  0.9174  0.2570
 8007SOL    HW235481   3.141   3.218  11.601  0.7177  1.4474  3.0854
 8008SOL     OW35482   0.936   2.127   8.784  0.0027  0.0571 -0.0706
 8008SOL    HW135483   0.923   2.194   8.851  0.8719  0.1012  0.0546
 8008SOL    HW235484   1.031   2.122   8.777  0.0794  0.5112  0.6441
 8009SOL     OW35485   1.645   0.618  15.752  0.3378 -0.0145 -0.1120
 8009SOL    HW135486   1.549   0.611  15.749  0.5117 -2.2114 -0.0532
 8009SOL    HW235487   1.658   0.713  15.750 -2.4015  0.3551 -0.5645
 8010SOL     OW35488   4.185   4.112   4.394  0.5890 -0.0678 -0.2928
 8010SOL    HW135489   4.093   4.136   4.394  0.1987 -1.6036 -1.4488
 8010SOL    HW235490   4.191   4.051   4.468 -0.7092  2.1072  1.5908
 8011SOL     OW35491   4.141   4.374   7.095  0.0267  0.2739  0.4275
 8011SOL    HW135492   4.053   4.409   7.105  1.0062  2.4807  1.2707
 8011SOL    HW235493   4.170   4.372   7.186  0.2033  0.0085  0.3685
 8012SOL     OW35494   3.780   2.760   9.915 -0.4052  0.1309  0.0734
 8012SOL    HW135495   3.765   2.698   9.844 -1.1968  0.4071 -0.0055
 8012SOL    HW235496   3.741   2.716   9.991  0.9956  0.1667  0.8148
 8013SOL     OW35497   1.004   2.647  12.217  0.5482  0.0404 -0.2685
 8013SOL    HW135498   1.092   2.620  12.242 -0.1157 -0.3954  1.6125
 8013SOL    HW235499   0.991   2.730  12.262 -0.3814 -0.8555  1.1243
 8014SOL     OW35500   0.914   2.167   7.926  0.0326  0.3784 -0.0304
 8014SOL    HW135501   0.824   2.194   7.944  0.8821  2.1941  1.5632
 8014SOL    HW235502   0.903   2.073   7.915 -0.5248  0.2486  1.7344
 8015SOL     OW35503   3.779   2.887   7.418 -0.3693  0.0800 -0.4910
 8015SOL    HW135504   3.717   2.916   7.352 -0.8538  0.2383  0.0302
 8015SOL    HW235505   3.787   2.797   7.387  1.5183 -0.3789  1.2995
 8016SOL     OW35506   0.208   0.341  14.647 -0.2434 -0.2528 -0.4180
 8016SOL    HW135507   0.225   0.253  14.682  0.8963  0.3395  0.5251
 8016SOL    HW235508   0.259   0.398  14.704 -0.3312 -0.0595 -0.5311
 8017SOL     OW35509   1.260   4.254  16.536 -0.4485 -0.2173 -0.3711
 8017SOL    HW135510   1.352   4.277  16.521  0.1247 -1.2317  1.5532
 8017SOL    HW235511   1.219   4.322  16.483  2.7636  0.8611 -1.4786
 8018SOL     OW35512   1.022   1.192   2.928 -0.0978  0.4960  0.0603
 8018SOL    HW135513   1.111   1.184   2.894  0.1855  0.7741  0.7525
 8018SOL    HW235514   0.966   1.129   2.881 -0.8966  0.1115  1.5415
 8019SOL     OW35515   1.844   2.581  17.504 -0.0878 -0.1077  0.2133
 8019SOL    HW135516   1.762   2.569  17.552 -0.6433  1.8337 -0.2201
 8019SOL    HW235517   1.807   2.557  17.419 -0.8042  0.0242  0.4816
 8020SOL     OW35518   1.914   1.657  11.354  0.0977 -0.3384  0.4983
 8020SOL    HW135519   1.976   1.598  11.313  0.9141 -0.3142  1.7193
 8020SOL    HW235520   1.918   1.723  11.285  0.7073 -0.9263 -0.0185
 8021SOL     OW35521   2.401   2.291   6.933  0.4644  0.1385 -0.0381
 8021SOL    HW135522   2.496   2.288   6.926  0.1667 -1.1961 -3.6665
 8021SOL    HW235523   2.367   2.376   6.903 -0.4707  0.4877  2.0341
 8022SOL     OW35524   0.688   3.414   3.460  0.3183 -0.2322 -0.7431
 8022SOL    HW135525   0.678   3.320   3.443 -0.7330 -0.5882  1.8100
 8022SOL    HW235526   0.623   3.456   3.403 -1.4121 -1.7613  0.0867
 8023SOL     OW35527   1.027   2.550   8.834  0.2267  0.3357  0.2272
 8023SOL    HW135528   1.022   2.603   8.914  2.0558  0.9314 -0.0319
 8023SOL    HW235529   1.118   2.524   8.847 -0.5727 -2.2477  0.5769
 8024SOL     OW35530   2.596   2.534   0.612  1.1357 -0.0986  0.2692
 8024SOL    HW135531   2.660   2.605   0.609  3.8703 -2.4959  1.7022
 8024SOL    HW235532   2.628   2.494   0.531  0.8463  0.2362 -0.0083
 8025SOL     OW35533   2.339   4.143   6.324 -0.5669 -0.1401  0.0486
 8025SOL    HW135534   2.356   4.187   6.240  1.4424  1.2947  1.2205
 8025SOL    HW235535   2.293   4.062   6.300 -1.3538  0.1128  0.6964
 8026SOL     OW35536   3.344   3.295  11.195  0.0466 -0.5842  0.3036
 8026SOL    HW135537   3.278   3.246  11.146  0.5838 -0.5168 -0.5072
 8026SOL    HW235538   3.340   3.385  11.162 -1.1392 -1.3281 -1.6388
 8027SOL     OW35539   2.271   2.479   4.309  0.4448 -0.3408  0.2652
 8027SOL    HW135540   2.236   2.568   4.304 -2.5348 -1.5386 -0.4402
 8027SOL    HW235541   2.356   2.483   4.265  0.8990  2.6527  1.4157
 8028SOL     OW35542   1.094   3.179   9.997 -0.3279 -0.0749 -0.0722
 8028SOL    HW135543   1.181   3.217  10.004  0.1260 -0.6663 -2.8612
 8028SOL    HW235544   1.117   3.087  10.003  1.1850  0.3627  0.7188
 8029SOL     OW35545   0.836   4.576   2.450  0.7566  0.2678  0.3832
 8029SOL    HW135546   0.741   4.565   2.450  0.9833 -1.7604  0.1987
 8029SOL    HW235547   0.864   4.499   2.500  1.1507  0.0351 -0.2007
 8030SOL     OW35548   0.974   4.274   6.726  0.0817 -0.5627  0.4566
 8030SOL    HW135549   0.925   4.259   6.807 -0.0903  0.9613  0.6367
 8030SOL    HW235550   1.042   4.208   6.736  0.6362 -0.4721 -2.5198
 8031SOL     OW35551   1.996   1.656   8.185  0.1734 -0.1741  0.4547
 8031SOL    HW135552   2.030   1.675   8.098  3.1830 -1.5771  1.3313
 8031SOL    HW235553   2.070   1.606   8.220 -0.1737  1.6764  3.8316
 8032SOL     OW35554   3.820   2.039   2.921  0.4691  0.3568 -0.0353
 8032SOL    HW135555   3.773   2.112   2.962 -0.9572 -1.6194  1.8046
 8032SOL    HW235556   3.813   1.981   2.997 -1.2378  0.6966  0.0689
 8033SOL     OW35557   4.161   3.624  13.200  0.4958  0.0224 -0.5457
 8033SOL    HW135558   4.136   3.646  13.290 -1.3992  0.2994 -1.1526
 8033SOL    HW235559   4.078   3.623  13.153  0.8484  1.8007 -1.2178
 8034SOL     OW35560   3.170   2.689   9.271 -0.0571  0.2055  0.1213
 8034SOL    HW135561   3.093   2.730   9.309 -0.2411  1.3889 -1.5680
 8034SOL    HW235562   3.226   2.765   9.288  0.3237 -0.5951  2.5236
 8035SOL     OW35563   3.466   0.942   1.027 -0.8819 -0.0297  0.1559
 8035SOL    HW135564   3.515   0.967   0.948  0.6733 -1.3996  0.6765
 8035SOL    HW235565   3.447   1.025   1.071 -0.0999 -0.4700  1.3510
 8036SOL     OW35566   3.919   4.209   6.739 -0.6073 -0.0771 -0.3176
 8036SOL    HW135567   3.864   4.283   6.763  1.0387  0.8452  0.6634
 8036SOL    HW235568   3.976   4.235   6.667 -0.4207 -0.5757 -0.3489
 8037SOL     OW35569   2.197   0.447   4.856  0.5691 -0.2384 -0.0192
 8037SOL    HW135570   2.197   0.409   4.768  0.7251  2.4375 -1.1876
 8037SOL    HW235571   2.252   0.385   4.903 -0.3863 -1.8977 -1.1013
 8038SOL     OW35572   0.023   2.434   4.690 -0.3072 -0.2272 -0.3611
 8038SOL    HW135573   0.005   2.342   4.708 -2.0562  0.3411  0.7623
 8038SOL    HW235574   0.053   2.420   4.600  2.2800  1.2412  0.2581
 8039SOL     OW35575   1.351   0.003  16.298  0.1566 -0.4698  0.0752
 8039SOL    HW135576   1.383   0.022  16.210 -1.5347  0.6341 -0.3055
 8039SOL    HW235577   1.426   0.031  16.350  0.8205 -1.5304 -0.3101
 8040SOL     OW35578   2.764   1.410  11.158  0.1774  0.0755  0.3859
 8040SOL    HW135579   2.829   1.481  11.156  0.1460  0.0716 -1.0799
 8040SOL    HW235580   2.763   1.380  11.067  0.3496  0.1783  0.3489
 8041SOL     OW35581   1.446   3.697   4.533  0.1289 -0.0981 -0.1950
 8041SOL    HW135582   1.437   3.659   4.446  0.9501 -2.7578  0.8648
 8041SOL    HW235583   1.474   3.785   4.508 -0.7324  0.0067 -0.7703
 8042SOL     OW35584   2.782   2.650  11.950  0.3614 -0.3002 -0.3088
 8042SOL    HW135585   2.810   2.595  11.877  0.8337 -1.2580  0.5987
 8042SOL    HW235586   2.854   2.711  11.970  1.8174 -2.4123  0.8530
 8043SOL     OW35587   0.866   0.413   2.571 -0.2422 -0.0934 -0.2712
 8043SOL    HW135588   0.821   0.408   2.655  0.5290 -0.0930  0.1411
 8043SOL    HW235589   0.895   0.322   2.566  2.3044  0.6037  1.5232
 8044SOL     OW35590   3.617   0.359  14.531  0.3529 -0.4012 -0.6901
 8044SOL    HW135591   3.629   0.453  14.521  2.0363 -0.7601 -2.0590
 8044SOL    HW235592   3.522   0.353  14.541  0.4776 -2.5921 -0.6367
 8045SOL     OW35593   2.163   3.295  13.197 -0.3235  1.5453  0.3164
 8045SOL    HW135594   2.247   3.253  13.213  0.6286  3.8746  1.3158
 8045SOL    HW235595   2.108   3.224  13.230  0.1726 -0.1694 -2.4834
 8046SOL     OW35596   1.002   0.732   3.245  0.5064 -0.4298 -0.0516
 8046SOL    HW135597   1.073   0.701   3.302  0.0257 -2.6014 -0.6648
 8046SOL    HW235598   1.045   0.807   3.204  0.7017  0.3659  1.6057
 8047SOL     OW35599   2.544   3.800  14.025  0.1060 -0.3029  0.5581
 8047SOL    HW135600   2.520   3.713  14.057 -0.7140 -0.0663  0.5878
 8047SOL    HW235601   2.635   3.779  14.007 -0.1154  1.0091 -2.0400
 8048SOL     OW35602   1.603   2.871   8.107  0.0815  0.3653 -0.0386
 8048SOL    HW135603   1.517   2.901   8.135 -0.3468 -0.8211 -0.0639
 8048SOL    HW235604   1.607   2.779   8.133  1.2515  0.1791 -0.8809
 8049SOL     OW35605   1.346   2.863   7.520  0.3331  0.2856  0.1202
 8049SOL    HW135606   1.412   2.926   7.548  0.3615 -0.6143  2.1153
 8049SOL    HW235607   1.301   2.845   7.603 -0.3685  1.0242 -0.1019
 8050SOL     OW35608   4.689   1.783   2.116  0.2568  0.0349  0.3581
 8050SOL    HW135609   4.684   1.839   2.039  0.7014  1.9275  1.7105
 8050SOL    HW235610   4.597   1.791   2.144 -0.7040  1.2641 -3.1787
 8051SOL     OW35611   2.322   2.400   4.579  0.4633 -0.1882 -0.0689
 8051SOL    HW135612   2.329   2.440   4.493 -2.6603  0.3843 -0.0397
 8051SOL    HW235613   2.402   2.435   4.618 -0.3827  2.0846 -0.3864
 8052SOL     OW35614   3.620   3.938   6.179 -0.1864  0.9133 -0.2192
 8052SOL    HW135615   3.552   3.884   6.137 -2.8332  4.1749 -0.1347
 8052SOL    HW235616   3.593   3.952   6.270 -2.9620 -0.3958 -0.8233
 8053SOL     OW35617   0.992   4.172   6.073  0.5422 -0.4647 -0.1412
 8053SOL    HW135618   0.936   4.238   6.115 -0.7181 -2.1455  0.8236
 8053SOL    HW235619   1.042   4.137   6.147 -0.0527 -1.6370 -0.2943
 8054SOL     OW35620   3.367   3.570  14.418 -0.4533  0.5424 -0.1959
 8054SOL    HW135621   3.455   3.607  14.421  0.0009 -0.7256  2.5018
 8054SOL    HW235622   3.383   3.482  14.450  1.2730  1.8604  2.6012
 8055SOL     OW35623   3.687   3.426   6.309 -0.0448 -0.5411  0.5292
 8055SOL    HW135624   3.620   3.359   6.319  0.7798 -1.2682  1.1902
 8055SOL    HW235625   3.645   3.490   6.251 -1.1291  0.8100  2.8291
 8056SOL     OW35626   1.771   3.107   0.488  0.5844 -0.5755  0.4217
 8056SOL    HW135627   1.743   3.053   0.414 -2.8244  0.3421  1.0672
 8056SOL    HW235628   1.848   3.056   0.513  2.6436  1.8622 -0.8844
 8057SOL     OW35629   1.451   4.536   3.894 -0.0742 -0.5982  0.8749
 8057SOL    HW135630   1.479   4.582   3.814 -2.9867 -3.4847 -1.7836
 8057SOL    HW235631   1.369   4.495   3.867  0.6939 -2.5244  1.5008
 8058SOL     OW35632   1.397   1.510   4.839  0.8303  0.1038  0.0367
 8058SOL    HW135633   1.368   1.599   4.858  2.3220  0.7086 -0.4666
 8058SOL    HW235634   1.336   1.483   4.770  0.2421 -0.0786  0.6300
 8059SOL     OW35635   4.088   4.331   5.984  0.6242 -0.7605 -0.0560
 8059SOL    HW135636   4.059   4.402   5.926  3.0163  0.6800  0.4993
 8059SOL    HW235637   4.116   4.267   5.919 -1.9788 -0.3814 -1.5549
 8060SOL     OW35638   0.897   1.097   8.939  0.0779  0.8291 -0.2630
 8060SOL    HW135639   0.816   1.146   8.932  0.3870  1.4434  0.5097
 8060SOL    HW235640   0.874   1.014   8.982 -0.3730  1.6624  1.1031
 8061SOL     OW35641   0.122   1.472   6.702  0.3760  0.0607  0.7009
 8061SOL    HW135642   0.093   1.504   6.617  0.2883  2.0569  1.4985
 8061SOL    HW235643   0.183   1.538   6.733 -1.1297  2.0442 -0.5926
 8062SOL     OW35644   2.592   0.758   2.674  0.3895  0.5546 -0.0612
 8062SOL    HW135645   2.662   0.693   2.671  0.1124  0.2709 -0.3748
 8062SOL    HW235646   2.528   0.724   2.737  1.7344 -3.8417 -1.1275
 8063SOL     OW35647   0.272   3.790   0.727 -0.5190  0.0786  0.2168
 8063SOL    HW135648   0.277   3.697   0.748  2.4576 -0.4881 -3.0577
 8063SOL    HW235649   0.177   3.802   0.736 -0.1691  1.6534  2.0733
 8064SOL     OW35650   1.252   4.168   6.873 -0.2381 -0.0037  0.0275
 8064SOL    HW135651   1.282   4.256   6.852 -2.6219  0.5428 -1.1193
 8064SOL    HW235652   1.233   4.134   6.785  0.3097 -0.4784  0.0890
 8065SOL     OW35653   2.622   4.432  10.515  0.0993  0.3848 -0.4246
 8065SOL    HW135654   2.631   4.371  10.587 -0.5504 -0.4644 -1.0623
 8065SOL    HW235655   2.595   4.511  10.562  0.2157 -0.6622  1.4056
 8066SOL     OW35656   1.442   3.228   3.746  0.2495  0.4233 -0.7000
 8066SOL    HW135657   1.422   3.221   3.652 -2.1414  0.6509 -0.1966
 8066SOL    HW235658   1.523   3.278   3.756  1.2660 -1.0574 -1.4285
 8067SOL     OW35659   3.172   2.733   0.451  0.2059  0.5220  0.1359
 8067SOL    HW135660   3.221   2.655   0.425 -0.7057 -0.0583  0.1464
 8067SOL    HW235661   3.083   2.697   0.445  0.0089  1.3373 -1.7788
 8068SOL     OW35662   3.177   0.603   5.658  0.2534  0.4328 -0.2076
 8068SOL    HW135663   3.200   0.678   5.603 -1.4971  0.3867 -0.9816
 8068SOL    HW235664   3.202   0.640   5.743  0.2961 -1.3734  0.5577
 8069SOL     OW35665   1.134   2.945   5.957 -0.0662  0.2420 -0.1269
 8069SOL    HW135666   1.217   2.990   5.977  1.5656 -2.0515 -1.7545
 8069SOL    HW235667   1.104   3.008   5.892  0.2989  2.9084  2.2746
 8070SOL     OW35668   2.539   1.319   0.845  0.2054 -0.4754 -0.0389
 8070SOL    HW135669   2.478   1.254   0.810  0.7765 -0.7364 -0.5497
 8070SOL    HW235670   2.481   1.360   0.909 -0.7731 -1.7888 -0.0857
 8071SOL     OW35671   3.481   3.063   7.096  0.8305 -0.1247  0.2220
 8071SOL    HW135672   3.396   3.024   7.116  0.9212  0.1901  1.2558
 8071SOL    HW235673   3.530   3.012   7.160  2.5463 -0.2420 -1.1962
 8072SOL     OW35674   4.528   1.834   2.539  0.0293  0.0316 -0.0198
 8072SOL    HW135675   4.588   1.797   2.475 -0.4348  1.7999 -1.4789
 8072SOL    HW235676   4.441   1.804   2.515  0.0142  0.7907 -0.9021
 8073SOL     OW35677   1.742   1.888  15.496  0.6095  0.1501  0.2727
 8073SOL    HW135678   1.679   1.854  15.433  0.7029  1.0071 -0.2854
 8073SOL    HW235679   1.691   1.957  15.539 -3.0337 -2.4699  0.0893
 8074SOL     OW35680   0.485   0.472  14.557 -0.2894 -0.3767  0.3935
 8074SOL    HW135681   0.441   0.471  14.642 -1.2122  2.7715 -0.0345
 8074SOL    HW235682   0.580   0.469  14.568 -0.1886  2.5131  0.4508
 8075SOL     OW35683   1.889   2.306  11.005 -0.2560 -0.2488  0.5147
 8075SOL    HW135684   1.932   2.389  10.986 -1.2547 -0.1813 -1.4410
 8075SOL    HW235685   1.916   2.257  10.928  0.7224 -0.6246  1.0940
 8076SOL     OW35686   3.319   2.407   3.800  0.3668 -0.3567 -0.3035
 8076SOL    HW135687   3.266   2.379   3.725  1.1517 -0.2714 -0.8880
 8076SOL    HW235688   3.376   2.333   3.822  1.6653  0.5128 -0.7778
 8077SOL     OW35689   0.687   3.276   3.925  0.1495 -0.0035  0.1111
 8077SOL    HW135690   0.692   3.257   4.019 -0.3969  0.0853  0.1585
 8077SOL    HW235691   0.726   3.363   3.928 -2.2997  1.0374  2.5300
 8078SOL     OW35692   0.799   4.454   8.356 -0.1608 -0.1249  0.1197
 8078SOL    HW135693   0.722   4.488   8.310  0.6918 -0.8869 -1.8665
 8078SOL    HW235694   0.769   4.366   8.377 -1.0011 -0.0734 -0.8858
 8079SOL     OW35695   2.001   1.439   3.102 -0.1945  0.7041  0.2200
 8079SOL    HW135696   1.915   1.473   3.080 -0.4032 -1.4812 -2.3002
 8079SOL    HW235697   2.031   1.414   3.015 -0.1417  1.0915  0.1278
 8080SOL     OW35698   0.193   3.881  16.896 -0.6104  0.1209  0.4114
 8080SOL    HW135699   0.107   3.900  16.933 -0.7862 -1.5684  0.8786
 8080SOL    HW235700   0.230   3.970  16.895 -1.6458  0.5473  0.2743
 8081SOL     OW35701   3.884   3.998   6.146  0.0288 -0.1319 -0.6675
 8081SOL    HW135702   3.790   3.982   6.154  0.5141 -3.2329 -1.1342
 8081SOL    HW235703   3.908   3.935   6.078 -0.6305 -1.0762 -0.0252
 8082SOL     OW35704   2.426   2.107  16.686  0.0465  0.1303 -0.0331
 8082SOL    HW135705   2.424   2.022  16.641  1.6516  0.1197 -0.1013
 8082SOL    HW235706   2.409   2.076  16.775 -1.6200 -1.7910 -1.0233
 8083SOL     OW35707   1.180   2.192   7.836  0.1369 -0.0610 -0.1839
 8083SOL    HW135708   1.193   2.245   7.915  0.5737 -0.0595 -0.2575
 8083SOL    HW235709   1.091   2.162   7.854 -0.5819  0.4335 -2.9680
 8084SOL     OW35710   0.216   4.461   2.842 -0.1704  0.8523 -0.4732
 8084SOL    HW135711   0.282   4.520   2.878 -1.4319  0.3949  2.5501
 8084SOL    HW235712   0.186   4.411   2.918  0.4542  0.0019 -0.7930
 8085SOL     OW35713   1.746   3.389   8.903  0.1897  0.0890 -0.6571
 8085SOL    HW135714   1.841   3.396   8.897  0.0445  0.7315 -2.0936
 8085SOL    HW235715   1.709   3.440   8.831  0.1340 -0.3381 -0.9329
 8086SOL     OW35716   2.272   3.819   9.530  0.8513  0.1246 -0.1725
 8086SOL    HW135717   2.304   3.765   9.602 -1.7751  0.2565  1.1062
 8086SOL    HW235718   2.265   3.756   9.458  2.6197  0.2095 -0.4171
 8087SOL     OW35719   1.398   0.941  15.746  0.2177 -0.0155 -0.3080
 8087SOL    HW135720   1.308   0.958  15.719 -0.3465 -0.2134  1.4380
 8087SOL    HW235721   1.395   0.853  15.783  0.1083  0.2678  0.3519
 8088SOL     OW35722   3.509   3.508  12.090 -0.3224 -0.0467  0.1727
 8088SOL    HW135723   3.551   3.590  12.116 -1.6772  0.5882  0.3557
 8088SOL    HW235724   3.421   3.521  12.125 -0.1157 -2.6762  1.6458
 8089SOL     OW35725   0.541   3.132   5.674  0.1395  0.3963  0.1036
 8089SOL    HW135726   0.628   3.120   5.634 -1.5139 -2.0220 -2.7921
 8089SOL    HW235727   0.498   3.178   5.602  1.5160  0.3281 -0.7605
 8090SOL     OW35728   0.386   3.393   1.791  0.3107 -0.1388 -0.0902
 8090SOL    HW135729   0.392   3.315   1.846 -0.8578 -1.7368 -2.2142
 8090SOL    HW235730   0.426   3.357   1.711 -0.9456  2.1739 -1.7609
 8091SOL     OW35731   3.057   4.299   8.993 -0.3686 -0.0553 -1.0393
 8091SOL    HW135732   3.123   4.291   9.062 -0.4933  0.7602 -0.8221
 8091SOL    HW235733   3.019   4.382   9.023  0.3013 -1.0368  2.5778
 8092SOL     OW35734   0.356   2.641   1.347 -0.6635 -0.3822  0.0317
 8092SOL    HW135735   0.364   2.666   1.439  2.2942  0.5332 -0.4794
 8092SOL    HW235736   0.443   2.644   1.308  0.0275  1.3375  1.7282
 8093SOL     OW35737   3.154   3.688   5.615 -0.3992 -0.3086 -0.0742
 8093SOL    HW135738   3.087   3.744   5.653 -1.8514 -1.5107 -0.8476
 8093SOL    HW235739   3.105   3.668   5.535  2.3390 -0.7887 -1.6540
 8094SOL     OW35740   3.839   4.312   1.902  0.4643  0.4078 -0.2011
 8094SOL    HW135741   3.915   4.334   1.848  0.9442  1.1231  0.7722
 8094SOL    HW235742   3.803   4.396   1.928 -1.1745 -0.4693  0.3502
 8095SOL     OW35743   3.850   0.287   6.538 -0.1885  0.1477 -0.1640
 8095SOL    HW135744   3.760   0.277   6.567 -0.3796  2.0533 -0.1432
 8095SOL    HW235745   3.892   0.305   6.621  0.5667  2.7647 -1.1287
 8096SOL     OW35746   0.244   1.092   3.928 -0.1508  0.2321 -0.2563
 8096SOL    HW135747   0.216   1.036   4.000 -1.7568 -0.6203 -1.5453
 8096SOL    HW235748   0.309   1.045   3.876  0.9087  1.6889 -0.2392
 8097SOL     OW35749   0.471   0.924  16.787 -0.2655  0.0084 -0.6860
 8097SOL    HW135750   0.519   0.904  16.868 -2.0095 -1.5793 -0.0214
 8097SOL    HW235751   0.432   0.837  16.773 -0.7735 -0.0307  0.9358
 8098SOL     OW35752   1.279   0.512   5.225 -0.1549 -0.3773  0.7088
 8098SOL    HW135753   1.360   0.462   5.230  1.3012  2.0461  0.9596
 8098SOL    HW235754   1.221   0.460   5.280 -0.0442 -0.3343  0.8647
 8099SOL     OW35755   3.098   0.619  14.040  0.1138 -0.3546 -0.4352
 8099SOL    HW135756   3.011   0.659  14.044  0.0676 -0.6395  1.3414
 8099SOL    HW235757   3.116   0.601  14.132  1.4573  2.1604 -0.2123
 8100SOL     OW35758   3.654   0.711   8.730  0.0227  0.0311 -0.2012
 8100SOL    HW135759   3.691   0.680   8.812  0.4504  1.0467 -0.0101
 8100SOL    HW235760   3.628   0.800   8.755 -1.2777 -0.3466 -0.2084
 8101SOL     OW35761   3.955   0.458  15.951  0.1568 -0.0823  0.0539
 8101SOL    HW135762   3.905   0.377  15.959 -0.4037  0.6307  3.8029
 8101SOL    HW235763   3.920   0.498  15.871 -0.3486 -2.8014 -1.0960
 8102SOL     OW35764   1.550   4.541   4.136 -0.8021  0.3508 -0.5051
 8102SOL    HW135765   1.460   4.533   4.169 -1.3380 -0.6922 -2.2425
 8102SOL    HW235766   1.528   4.542   4.043  0.2744 -0.9696 -0.7728
 8103SOL     OW35767   1.733   3.975   6.642 -1.2097 -0.1743 -0.3252
 8103SOL    HW135768   1.768   3.895   6.603  3.6589  1.5784  0.5008
 8103SOL    HW235769   1.693   3.934   6.719  0.2423  0.3873  0.7342
 8104SOL     OW35770   2.844   2.218   2.925  0.1565  0.0450  0.4229
 8104SOL    HW135771   2.873   2.261   2.844  1.2939  0.5464  1.0948
 8104SOL    HW235772   2.800   2.140   2.892  1.2359  0.4068 -1.8435
 8105SOL     OW35773   1.746   2.529   0.660  0.1080  0.0809  0.1679
 8105SOL    HW135774   1.712   2.616   0.639  0.5855  0.5967  1.5837
 8105SOL    HW235775   1.708   2.512   0.746  0.9714 -0.0125  0.5316
 8106SOL     OW35776   0.169   2.852   0.538 -0.3188  0.0380  0.8375
 8106SOL    HW135777   0.190   2.826   0.448  0.1063  2.4055  0.2723
 8106SOL    HW235778   0.228   2.786   0.573  1.0022  0.2365 -1.0454
 8107SOL     OW35779   1.305   2.164   7.235  0.0326 -0.3452  0.2304
 8107SOL    HW135780   1.395   2.148   7.264 -0.9283 -2.5014  1.9541
 8107SOL    HW235781   1.318   2.142   7.143  0.8326  0.0763  0.2399
 8108SOL     OW35782   0.238   2.446  15.714  0.2043  0.4460  0.0110
 8108SOL    HW135783   0.310   2.384  15.702  1.1224  1.7702 -1.2942
 8108SOL    HW235784   0.299   2.507  15.756  2.5941  0.4402 -3.4528
 8109SOL     OW35785   2.594   1.909   5.925  0.0345 -0.5275 -0.2602
 8109SOL    HW135786   2.540   1.942   5.854 -0.1557  0.8684  0.5485
 8109SOL    HW235787   2.683   1.905   5.889 -0.6911 -0.6918 -2.0141
 8110SOL     OW35788   1.335   2.904   0.365 -0.0391 -0.3957  0.1719
 8110SOL    HW135789   1.272   2.914   0.437 -1.2319  0.8292 -1.0318
 8110SOL    HW235790   1.290   2.952   0.295  0.1654 -0.1714  0.1913
 8111SOL     OW35791   4.484   4.033   2.739  0.1634 -0.4906 -0.3016
 8111SOL    HW135792   4.400   4.048   2.783 -0.7763 -1.8503 -1.6349
 8111SOL    HW235793   4.464   3.969   2.670  1.1965 -0.7146 -0.3890
 8112SOL     OW35794   1.635   2.086   2.236  0.0688  0.7763  0.4571
 8112SOL    HW135795   1.617   2.180   2.229  0.8366  0.8713 -0.2341
 8112SOL    HW235796   1.721   2.088   2.195 -0.0134  0.4477  0.2736
 8113SOL     OW35797   3.819   3.213   3.623  0.5315 -0.1491  0.5237
 8113SOL    HW135798   3.761   3.275   3.580  2.2226  1.6265  0.7996
 8113SOL    HW235799   3.869   3.171   3.553 -1.1530 -1.5271  0.1420
 8114SOL     OW35800   2.281   1.579   8.941 -0.2278 -0.1489  0.5857
 8114SOL    HW135801   2.193   1.597   8.906 -0.6922 -2.5398  0.5579
 8114SOL    HW235802   2.303   1.652   8.999  4.0590  0.3127 -1.6752
 8115SOL     OW35803   3.581   1.126  14.010 -0.2696  0.1968  0.1776
 8115SOL    HW135804   3.535   1.090  14.086  0.8197 -1.3189  0.1212
 8115SOL    HW235805   3.673   1.104  14.023  0.1305  0.4587 -2.3841
 8116SOL     OW35806   1.653   1.362  17.577  0.7961  0.8868  0.1100
 8116SOL    HW135807   1.642   1.281  17.627  1.9424  0.1191 -0.8741
 8116SOL    HW235808   1.565   1.369  17.541  0.1530  3.1010  2.1885
 8117SOL     OW35809   3.518   1.738  12.387  0.2872  0.2365  0.0804
 8117SOL    HW135810   3.447   1.754  12.325  0.6861  1.0425 -0.1721
 8117SOL    HW235811   3.473   1.733  12.471 -0.6911  1.2906 -0.3925
 8118SOL     OW35812   0.564   2.801   7.964  0.0608 -0.1551 -0.1232
 8118SOL    HW135813   0.573   2.894   7.942 -0.3571 -0.0917 -0.0286
 8118SOL    HW235814   0.618   2.802   8.043 -0.0664 -0.8554 -0.0249
 8119SOL     OW35815   2.546   2.210   8.876  0.6056  0.3500 -0.0610
 8119SOL    HW135816   2.519   2.119   8.890 -1.6221  0.6931 -2.2300
 8119SOL    HW235817   2.500   2.252   8.948  0.4022 -1.5343  0.9200
 8120SOL     OW35818   3.528   2.905  10.204 -0.0928  0.3668  0.2524
 8120SOL    HW135819   3.463   2.870  10.265  1.2959  0.2318  1.6616
 8120SOL    HW235820   3.611   2.871  10.236  0.4600  1.5256  0.0565
 8121SOL     OW35821   4.211   1.367   6.812  1.4182 -0.0165  0.3187
 8121SOL    HW135822   4.237   1.304   6.879  1.3998  0.4064  0.7193
 8121SOL    HW235823   4.246   1.337   6.728 -0.6491  0.0988 -0.5820
 8122SOL     OW35824   0.850   0.576   6.435 -0.5716 -0.2238  0.7662
 8122SOL    HW135825   0.937   0.596   6.468 -1.9457  2.4495  2.7755
 8122SOL    HW235826   0.828   0.651   6.379 -0.8747 -1.7393 -1.1833
 8123SOL     OW35827   0.073   3.965  13.043 -1.0739 -0.7149  0.1553
 8123SOL    HW135828   0.076   3.869  13.042  1.4749 -0.6299  0.0082
 8123SOL    HW235829   0.129   3.983  13.118 -0.1388 -1.9376 -0.2352
 8124SOL     OW35830   0.108   3.654   4.371  0.9056  0.0120 -0.3213
 8124SOL    HW135831   0.076   3.681   4.285  1.0336 -0.3306 -0.4765
 8124SOL    HW235832   0.198   3.627   4.349  0.5762 -0.1772 -1.4106
 8125SOL     OW35833   0.263   0.697   9.302 -0.5565 -0.6074  0.0119
 8125SOL    HW135834   0.227   0.648   9.376 -0.0659 -0.3276  0.4366
 8125SOL    HW235835   0.186   0.752   9.286 -1.1299 -0.9440  1.6307
 8126SOL     OW35836   3.254   1.109   5.100 -0.2728  0.1063 -0.2003
 8126SOL    HW135837   3.216   1.121   5.012 -0.7444 -1.7534 -0.2537
 8126SOL    HW235838   3.293   1.194   5.118 -0.2071 -0.4762  2.2947
 8127SOL     OW35839   0.134   0.755   2.962 -0.2239  0.1356 -0.2860
 8127SOL    HW135840   0.216   0.778   2.917 -0.0367  0.9586  0.4931
 8127SOL    HW235841   0.079   0.833   2.961  0.9099  0.9558  1.2510
 8128SOL     OW35842   0.360   2.282   8.521  0.2044  0.3485  0.1077
 8128SOL    HW135843   0.442   2.305   8.564 -0.5465  1.2660  1.0363
 8128SOL    HW235844   0.321   2.369   8.525 -0.4817  0.0575 -0.3152
 8129SOL     OW35845   2.682   3.705   2.913  0.0081  0.5446 -0.0639
 8129SOL    HW135846   2.592   3.697   2.945 -0.2285  1.1810 -0.5687
 8129SOL    HW235847   2.706   3.616   2.889  1.5787  1.1548 -0.8072
 8130SOL     OW35848   0.558   3.657  17.102 -0.0444  0.5347 -0.3775
 8130SOL    HW135849   0.468   3.637  17.124 -0.5741  3.1599 -0.1208
 8130SOL    HW235850   0.551   3.712  17.024 -0.2337 -0.1873 -0.8660
 8131SOL     OW35851   0.474   0.333  14.323 -0.7665 -0.2867  0.1910
 8131SOL    HW135852   0.391   0.365  14.289  0.5355  1.9646 -0.8748
 8131SOL    HW235853   0.476   0.393  14.398  1.4060 -0.0956 -0.0254
 8132SOL     OW35854   4.167   2.073  10.753  0.2291 -0.1497 -0.4031
 8132SOL    HW135855   4.143   2.057  10.845 -0.9659  0.3854 -0.6152
 8132SOL    HW235856   4.116   2.006  10.707 -1.9346 -0.3148  2.2295
 8133SOL     OW35857   3.796   2.811   4.253 -0.0262  0.4965 -0.4654
 8133SOL    HW135858   3.762   2.834   4.166  1.2119 -0.3918 -1.1864
 8133SOL    HW235859   3.871   2.870   4.250  0.2821  0.1972  1.3137
 8134SOL     OW35860   0.487   1.721  14.024 -0.0197  0.0813 -0.1629
 8134SOL    HW135861   0.435   1.801  14.036  0.8284  0.7848 -1.1393
 8134SOL    HW235862   0.478   1.696  14.116 -0.5168  1.3201  0.1275
 8135SOL     OW35863   0.005   2.823  15.251 -0.2513 -0.2509  0.6188
 8135SOL    HW135864   0.058   2.814  15.331  1.7922  3.4992 -0.2835
 8135SOL    HW235865   0.016   2.736  15.212  0.1158 -0.2207  0.6513
 8136SOL     OW35866   1.356   2.435  16.013  1.2003  0.0828 -0.3007
 8136SOL    HW135867   1.262   2.415  16.022  0.9845  0.1086 -2.4314
 8136SOL    HW235868   1.367   2.494  16.087 -3.2734 -0.4788  0.8336
 8137SOL     OW35869   3.058   4.132  14.264 -0.6045 -0.3568  0.1580
 8137SOL    HW135870   3.080   4.212  14.216  0.5393 -0.3485  0.6865
 8137SOL    HW235871   3.059   4.079  14.185 -1.0538  0.7447 -0.5809
 8138SOL     OW35872   0.604   4.334   7.429  0.2588  0.2898  0.2492
 8138SOL    HW135873   0.585   4.421   7.392  1.0740 -1.5487 -4.5739
 8138SOL    HW235874   0.569   4.281   7.357 -0.5540  0.6830  0.3545
 8139SOL     OW35875   4.519   4.510   5.986 -0.3750  0.3144 -0.0958
 8139SOL    HW135876   4.451   4.453   5.951  0.5131  0.7791 -2.5504
 8139SOL    HW235877   4.470   4.590   6.004  0.1522  0.1597  2.0378
 8140SOL     OW35878   1.542   2.089  13.443 -0.2799  0.8894 -0.0442
 8140SOL    HW135879   1.453   2.099  13.409 -0.4741  0.4216  0.3330
 8140SOL    HW235880   1.594   2.135  13.378  1.2499 -0.0639  0.5084
 8141SOL     OW35881   3.840   4.625   0.947  0.3054  0.0472 -0.4128
 8141SOL    HW135882   3.882   4.697   0.993  0.2638 -0.5344  0.5311
 8141SOL    HW235883   3.848   4.565   1.021  1.4361  0.6291 -0.0732
 8142SOL     OW35884   3.255   3.944   9.278 -0.2904  0.3456 -0.6425
 8142SOL    HW135885   3.326   3.882   9.266 -1.6370 -1.1290 -1.0723
 8142SOL    HW235886   3.242   3.938   9.372 -0.2078  1.3990 -0.5631
 8143SOL     OW35887   4.063   0.283   8.542 -0.2867 -0.7021  0.2003
 8143SOL    HW135888   4.067   0.188   8.533 -2.1626 -0.8877  1.2842
 8143SOL    HW235889   4.155   0.298   8.563  0.1053 -0.4832 -1.6734
 8144SOL     OW35890   4.038   4.081   1.776 -0.3357 -0.1451  0.1950
 8144SOL    HW135891   4.010   4.009   1.718 -0.3254 -1.0300  1.2815
 8144SOL    HW235892   4.000   4.053   1.859 -3.8044  0.9183 -1.0170
 8145SOL     OW35893   3.784   3.679  15.462 -0.3700 -0.4013 -0.2017
 8145SOL    HW135894   3.821   3.692  15.375 -3.6542  0.9881 -1.3925
 8145SOL    HW235895   3.846   3.731  15.513 -0.0838 -0.6714 -0.2713
 8146SOL     OW35896   1.830   1.101   8.670 -0.8502  0.3791 -0.2818
 8146SOL    HW135897   1.860   1.019   8.631  0.7700  0.3347  1.0372
 8146SOL    HW235898   1.738   1.084   8.652 -0.9728 -1.3389  1.8449
 8147SOL     OW35899   2.815   2.845  11.715  0.2415 -0.0857  0.3965
 8147SOL    HW135900   2.844   2.905  11.784 -2.1449  0.7329  0.6947
 8147SOL    HW235901   2.823   2.759  11.755  1.2750 -0.1489  0.0460
 8148SOL     OW35902   4.365   0.864   5.375 -0.2146 -0.0550 -0.2181
 8148SOL    HW135903   4.392   0.813   5.299 -2.0232 -1.8500  0.3253
 8148SOL    HW235904   4.306   0.800   5.416 -1.6705  1.7593  0.5225
 8149SOL     OW35905   1.353   1.360   9.082 -0.1175 -0.1074 -0.2828
 8149SOL    HW135906   1.303   1.278   9.082  1.4342 -1.0435 -0.8389
 8149SOL    HW235907   1.300   1.413   9.022 -0.4051 -0.3669 -0.2611
 8150SOL     OW35908   2.097   2.574   2.179  0.3875  0.2605 -0.1879
 8150SOL    HW135909   2.120   2.606   2.092  1.5130  1.1818  0.4538
 8150SOL    HW235910   2.028   2.511   2.157  0.1504 -0.0303  1.3439
 8151SOL     OW35911   2.909   0.972   7.757 -0.5215 -0.2657 -0.8624
 8151SOL    HW135912   2.984   0.936   7.806 -1.2376  0.3576  0.6835
 8151SOL    HW235913   2.960   1.008   7.685  0.4625 -1.9938 -1.0444
 8152SOL     OW35914   4.358   0.797   3.757  0.2491  0.0748 -0.4349
 8152SOL    HW135915   4.441   0.757   3.782 -0.8863 -3.2759 -1.9729
 8152SOL    HW235916   4.384   0.887   3.735 -0.5219  0.6455  1.0026
 8153SOL     OW35917   3.462   0.188   5.985  0.1312 -0.1288  0.2975
 8153SOL    HW135918   3.500   0.205   6.071  1.1486  0.9035 -0.3593
 8153SOL    HW235919   3.525   0.130   5.943  0.4460 -0.6238  1.4682
 8154SOL     OW35920   2.555   0.096   0.073 -0.2589 -0.0253  0.0492
 8154SOL    HW135921   2.490   0.064   0.136  0.0151  1.7811  1.2697
 8154SOL    HW235922   2.600   0.166   0.120 -2.2393 -1.1504  3.6334
 8155SOL     OW35923   1.232   2.791  11.195 -0.9530 -0.6172 -0.1637
 8155SOL    HW135924   1.289   2.863  11.220 -1.1733 -0.7124  0.6317
 8155SOL    HW235925   1.250   2.719  11.256  0.7323 -0.1253 -0.1001
 8156SOL     OW35926   1.737   0.791  15.496  0.2226 -0.0838 -0.1273
 8156SOL    HW135927   1.832   0.786  15.492  0.1832 -0.1573 -1.0411
 8156SOL    HW235928   1.720   0.870  15.547  0.2977 -1.3418  1.8389
 8157SOL     OW35929   2.492   0.511   1.086  0.2623  0.4861 -0.4802
 8157SOL    HW135930   2.484   0.419   1.109 -0.1846  1.1763  2.0501
 8157SOL    HW235931   2.403   0.542   1.103  0.1344  0.4276 -1.0265
 8158SOL     OW35932   2.499   3.998   4.182 -0.3231 -0.5057 -0.2232
 8158SOL    HW135933   2.500   4.037   4.269 -0.4873 -0.1853 -0.3604
 8158SOL    HW235934   2.577   3.943   4.187 -0.2992 -0.6523 -1.9424
 8159SOL     OW35935   2.030   4.273   9.159  0.1552 -0.4314 -0.3164
 8159SOL    HW135936   2.110   4.268   9.106  0.6457  0.2938  0.3597
 8159SOL    HW235937   2.026   4.181   9.183 -0.0195 -0.4181 -0.2967
 8160SOL     OW35938   4.409   1.820   2.137 -0.1631 -0.1139  0.6499
 8160SOL    HW135939   4.408   1.748   2.074  1.4250 -1.0408  1.6888
 8160SOL    HW235940   4.317   1.844   2.148 -0.6900  0.3630 -4.5309
 8161SOL     OW35941   1.014   0.244  14.406 -0.3238 -0.1287 -0.5213
 8161SOL    HW135942   1.089   0.300  14.427 -0.7947  0.3402 -0.0851
 8161SOL    HW235943   0.939   0.303  14.396 -2.0314 -1.9036  1.7016
 8162SOL     OW35944   1.560   0.404  14.258  0.2508  0.5206  0.2100
 8162SOL    HW135945   1.527   0.353  14.332 -2.0026  0.8604 -0.5627
 8162SOL    HW235946   1.477   0.411  14.211  0.5443  0.8248 -0.2538
 8163SOL     OW35947   1.362   2.684   4.507  0.1107 -0.2066  0.2943
 8163SOL    HW135948   1.347   2.611   4.567 -2.6211 -2.6938 -3.4271
 8163SOL    HW235949   1.275   2.720   4.492 -0.6447 -2.3274 -0.5200
 8164SOL     OW35950   0.759   3.370   5.579 -0.8028  0.6565 -0.4495
 8164SOL    HW135951   0.806   3.297   5.539 -0.7186  0.5586 -0.1723
 8164SOL    HW235952   0.822   3.391   5.648  0.8302 -1.2270 -1.3716
 8165SOL     OW35953   0.630   1.676   2.548  0.0369  0.6106  1.1235
 8165SOL    HW135954   0.557   1.681   2.487  1.3084 -1.2302 -0.5277
 8165SOL    HW235955   0.690   1.738   2.506 -0.1574  0.7618  1.0713
 8166SOL     OW35956   0.972   3.910  12.450  0.2953 -0.1851  0.5096
 8166SOL    HW135957   0.957   3.981  12.387  0.7363  0.5082  1.1936
 8166SOL    HW235958   0.993   3.828  12.405  0.1707 -0.9086  1.7981
 8167SOL     OW35959   1.824   2.088   6.598 -0.8850 -0.0853 -0.3470
 8167SOL    HW135960   1.748   2.071   6.542 -2.4229  0.3961  1.5760
 8167SOL    HW235961   1.883   2.013   6.592  0.5345  1.0127 -0.1162
 8168SOL     OW35962   2.808   1.456  15.097 -0.1223 -0.6086  0.1030
 8168SOL    HW135963   2.748   1.520  15.060 -0.1583 -1.3615 -1.1356
 8168SOL    HW235964   2.756   1.403  15.158 -0.9545 -1.1201 -1.0643
 8169SOL     OW35965   2.296   3.268   8.301  0.1022 -0.2025  0.4564
 8169SOL    HW135966   2.356   3.263   8.227  0.8057  0.7677  0.9625
 8169SOL    HW235967   2.328   3.195   8.355  0.8599  0.0933  0.4068
 8170SOL     OW35968   4.187   4.073  10.827 -0.2396 -0.2554  0.1912
 8170SOL    HW135969   4.275   4.053  10.857 -0.1321  1.2254  0.8547
 8170SOL    HW235970   4.146   3.994  10.859  1.8728 -1.1269  0.7276
 8171SOL     OW35971   1.566   2.035   1.281  0.0799  0.4474  0.7909
 8171SOL    HW135972   1.479   1.995   1.281 -0.1558  0.9692  0.7748
 8171SOL    HW235973   1.557   2.089   1.359  0.4410 -0.3160  1.3685
 8172SOL     OW35974   0.637   3.250   4.857  0.1960 -0.0598  0.2870
 8172SOL    HW135975   0.717   3.285   4.895  0.2807 -0.0517  0.1025
 8172SOL    HW235976   0.669   3.180   4.800  0.7576  0.8671 -0.5272
 8173SOL     OW35977   0.404   1.477  12.511 -0.3163  0.4331  0.3568
 8173SOL    HW135978   0.479   1.417  12.520  0.3705  1.4532  1.5312
 8173SOL    HW235979   0.335   1.414  12.493  0.5164  0.1062 -1.6212
 8174SOL     OW35980   4.186   0.220   9.521 -0.1249  0.1933 -0.1284
 8174SOL    HW135981   4.199   0.314   9.535 -2.8149  0.0771  3.3797
 8174SOL    HW235982   4.238   0.191   9.596 -0.0117 -2.1655 -1.1368
 8175SOL     OW35983   1.407   3.591  13.481 -0.1334  0.1080 -0.0695
 8175SOL    HW135984   1.364   3.594  13.567  0.2070 -0.4991  0.1212
 8175SOL    HW235985   1.418   3.683  13.456  0.2603 -0.3944 -1.7603
 8176SOL     OW35986   1.304   1.594   3.720 -0.4764  0.2938 -1.1295
 8176SOL    HW135987   1.223   1.640   3.742 -0.3286  0.2611 -0.5199
 8176SOL    HW235988   1.372   1.650   3.756 -0.0507 -0.3263 -0.9795
 8177SOL     OW35989   1.352   4.312   4.795 -0.2430 -0.6236  0.1703
 8177SOL    HW135990   1.337   4.220   4.817 -1.1495 -0.0616  1.8979
 8177SOL    HW235991   1.305   4.323   4.712 -1.1176 -1.1857  0.5887
 8178SOL     OW35992   3.300   0.279  14.843 -0.0556 -0.5089  0.0307
 8178SOL    HW135993   3.303   0.225  14.764  0.2730 -0.3048 -0.0977
 8178SOL    HW235994   3.352   0.355  14.819  0.6814 -2.1653 -3.5825
 8179SOL     OW35995   0.139   2.886   7.050  0.0797  0.1386 -0.2857
 8179SOL    HW135996   0.117   2.977   7.028 -0.1182  0.1284 -0.1369
 8179SOL    HW235997   0.094   2.840   6.979 -2.7950 -0.8861  2.1902
 8180SOL     OW35998   1.939   0.837   4.947 -0.2564  0.1474 -0.7381
 8180SOL    HW135999   1.969   0.890   4.873  0.7028  0.7427  0.0771
 8180SOL    HW236000   1.885   0.767   4.909  1.7324 -1.4106 -0.6787
 8181SOL     OW36001   0.124   1.890   1.060  0.3595  0.4162  0.1124
 8181SOL    HW136002   0.056   1.955   1.043 -1.4607 -1.2965  0.7827
 8181SOL    HW236003   0.168   1.893   0.975 -2.5910  1.0590 -1.4154
 8182SOL     OW36004   1.837   1.853  16.606 -0.0706  0.6182  0.4144
 8182SOL    HW136005   1.851   1.946  16.626 -0.5757  1.0286 -1.1381
 8182SOL    HW236006   1.810   1.864  16.515  3.0699  0.9567 -0.4666
 8183SOL     OW36007   2.871   0.556   4.968 -0.0488  0.0159 -0.5118
 8183SOL    HW136008   2.855   0.485   5.030  0.0460 -0.6160 -1.2161
 8183SOL    HW236009   2.782   0.590   4.960  0.3627  1.4647  1.1313
 8184SOL     OW36010   1.413   2.289   6.681  0.2948 -0.0894  0.4327
 8184SOL    HW136011   1.491   2.343   6.675 -0.2320  0.7023  0.7568
 8184SOL    HW236012   1.458   2.207   6.661  1.1336 -0.0643  2.2627
 8185SOL     OW36013   2.889   0.258   8.798  0.0698 -0.3503 -0.2627
 8185SOL    HW136014   2.958   0.260   8.865 -0.3905 -1.0670  0.2361
 8185SOL    HW236015   2.945   0.264   8.721  1.1746 -0.4383  0.5307
 8186SOL     OW36016   1.277   2.396   1.508 -0.1057 -0.2378 -0.2809
 8186SOL    HW136017   1.351   2.451   1.482 -0.3751  1.8964  3.4365
 8186SOL    HW236018   1.241   2.444   1.583  1.0717 -3.0346  2.0629
 8187SOL     OW36019   1.455   3.970   9.032  0.5369 -0.8564  0.4779
 8187SOL    HW136020   1.512   4.038   8.996 -0.1557 -0.8589 -0.6431
 8187SOL    HW236021   1.472   3.983   9.125  0.1193 -1.7787  0.6776
 8188SOL     OW36022   0.592   1.576   4.407  0.6682 -0.1485  0.0452
 8188SOL    HW136023   0.672   1.523   4.407 -0.2030 -1.4579 -2.0052
 8188SOL    HW236024   0.589   1.611   4.318 -0.3944  3.7814  1.6363
 8189SOL     OW36025   1.187   2.292   6.514 -0.3627  0.6369 -0.3252
 8189SOL    HW136026   1.099   2.256   6.522  0.2951 -0.5422  1.4771
 8189SOL    HW236027   1.223   2.276   6.601 -0.8149  0.7013 -0.1313
 8190SOL     OW36028   2.079   3.359  12.783 -0.1315 -0.2688 -0.4639
 8190SOL    HW136029   2.108   3.274  12.749 -1.0597 -0.7091 -0.1540
 8190SOL    HW236030   2.124   3.412  12.718  1.2748  0.0407  0.7729
 8191SOL     OW36031   0.130   3.123   2.416 -0.4817  0.1151  0.2041
 8191SOL    HW136032   0.105   3.215   2.424 -1.4167 -0.0450 -0.8342
 8191SOL    HW236033   0.046   3.088   2.385 -0.6986  1.6611 -0.9524
 8192SOL     OW36034   0.348   1.854   5.161  0.1996  0.4134 -0.4812
 8192SOL    HW136035   0.265   1.891   5.191 -2.3376 -3.5394 -2.6386
 8192SOL    HW236036   0.313   1.785   5.105  0.1145 -0.6827  0.9295
 8193SOL     OW36037   0.373   4.029   3.554  0.1337  0.0672 -0.0172
 8193SOL    HW136038   0.327   3.956   3.513 -1.7040  2.2918 -1.8872
 8193SOL    HW236039   0.289   4.064   3.584  0.7213 -0.3342  2.0854
 8194SOL     OW36040   3.443   2.213   9.340  0.2797  0.4392  0.1434
 8194SOL    HW136041   3.496   2.146   9.296 -0.1269  0.0351  0.2673
 8194SOL    HW236042   3.498   2.231   9.416  1.8582 -1.7564 -0.4711
 8195SOL     OW36043   1.895   3.370  12.195 -0.5342  0.0325 -0.4461
 8195SOL    HW136044   1.881   3.276  12.208  0.1288 -0.2968 -2.1429
 8195SOL    HW236045   1.952   3.384  12.120  1.0058 -2.1646  0.3249
 8196SOL     OW36046   0.611   1.684   2.031  0.2949 -0.6603  0.2001
 8196SOL    HW136047   0.692   1.688   2.082  0.4630  1.2502 -0.2201
 8196SOL    HW236048   0.634   1.760   1.977  2.1999 -2.2349 -1.1871
 8197SOL     OW36049   4.058   1.262   0.124  0.2215 -0.1450 -0.3540
 8197SOL    HW136050   3.971   1.261   0.084  0.1625  1.5155 -0.2895
 8197SOL    HW236051   4.050   1.330   0.191 -0.4291 -0.5839  0.0078
 8198SOL     OW36052   1.517   3.386  12.735 -0.5157  0.5853 -0.2081
 8198SOL    HW136053   1.578   3.362  12.805 -0.7851  0.3116 -0.0648
 8198SOL    HW236054   1.462   3.457  12.769  0.4081  0.5631  1.3572
 8199SOL     OW36055   3.615   0.834  11.439 -0.0286 -0.3445 -0.1892
 8199SOL    HW136056   3.651   0.747  11.424  0.9931  0.3031 -1.5075
 8199SOL    HW236057   3.651   0.879  11.362 -0.3651 -0.6126 -0.5006
 8200SOL     OW36058   1.512   2.982   9.247  0.1290 -0.1900  0.0515
 8200SOL    HW136059   1.542   3.056   9.193 -0.7428  1.9443  2.4642
 8200SOL    HW236060   1.515   3.024   9.333  2.4721  0.2005 -0.1976
 8201SOL     OW36061   2.098   3.044   7.769 -0.2259  0.3587 -0.1052
 8201SOL    HW136062   2.055   3.115   7.817 -0.1557  0.3783 -0.0707
 8201SOL    HW236063   2.077   3.063   7.678  0.6479 -0.9386 -0.5816
 8202SOL     OW36064   0.862   1.271   1.997  0.2078 -0.5562 -0.4140
 8202SOL    HW136065   0.934   1.249   2.057 -1.3298 -0.6984  1.3928
 8202SOL    HW236066   0.874   1.366   1.994  1.5140 -0.7598 -1.4448
 8203SOL     OW36067   2.371   4.057  10.048  0.9374 -0.1143  0.1977
 8203SOL    HW136068   2.379   4.081  10.140  2.3341 -0.4377  0.1569
 8203SOL    HW236069   2.370   3.961  10.046  0.5411 -0.1067 -0.0806
 8204SOL     OW36070   2.880   0.142  12.718 -0.4451 -0.3660 -0.2745
 8204SOL    HW136071   2.910   0.225  12.755 -1.6729 -0.6758  1.4044
 8204SOL    HW236072   2.920   0.068  12.763 -0.4954  0.4738  1.1517
 8205SOL     OW36073   0.550   3.335  12.652  0.0369  0.2467  0.0919
 8205SOL    HW136074   0.557   3.358  12.744  0.0853  1.4614 -0.2094
 8205SOL    HW236075   0.588   3.248  12.659  2.8880  1.4574 -0.1139
 8206SOL     OW36076   0.105   1.728  11.101 -0.2945 -0.4781 -0.1136
 8206SOL    HW136077   0.133   1.750  11.012 -2.4793 -4.5466 -1.8209
 8206SOL    HW236078   0.116   1.809  11.150 -0.8232  0.3594 -1.3784
 8207SOL     OW36079   1.062   2.217   7.116  0.4000  0.5658 -0.2904
 8207SOL    HW136080   1.105   2.190   7.035  0.0358 -0.8863 -0.0044
 8207SOL    HW236081   1.138   2.215   7.175 -1.2113 -0.2456  1.7438
 8208SOL     OW36082   2.298   4.318   1.579 -0.1718 -0.0530 -0.5970
 8208SOL    HW136083   2.343   4.345   1.499  0.0520 -0.4730 -0.6121
 8208SOL    HW236084   2.207   4.332   1.554 -0.5235 -0.6998  0.3162
 8209SOL     OW36085   1.282   0.618   5.849  0.1468 -0.4139 -0.1383
 8209SOL    HW136086   1.376   0.632   5.842  0.0630 -0.4077 -1.1382
 8209SOL    HW236087   1.249   0.696   5.894  0.8057 -0.1479 -0.1094
 8210SOL     OW36088   2.971   3.450   4.391 -0.9616 -0.5174 -0.6934
 8210SOL    HW136089   3.064   3.469   4.383 -0.6360 -2.3206 -1.0991
 8210SOL    HW236090   2.967   3.362   4.353 -0.6423 -0.6444 -0.4341
 8211SOL     OW36091   3.693   2.268   9.816  0.1882  0.3802  0.0682
 8211SOL    HW136092   3.726   2.192   9.768 -0.6094  0.2495 -0.2662
 8211SOL    HW236093   3.659   2.230   9.896 -1.0686 -0.5774 -0.9321
 8212SOL     OW36094   4.323   2.652   4.619  0.5463 -0.0950  0.2037
 8212SOL    HW136095   4.373   2.640   4.700 -0.9546 -0.1347  1.1496
 8212SOL    HW236096   4.294   2.744   4.621  0.1907 -0.1954 -0.4601
 8213SOL     OW36097   2.106   0.996   8.958 -0.0053 -0.8757  0.2422
 8213SOL    HW136098   2.131   0.996   8.865 -0.5950 -1.8167  0.0859
 8213SOL    HW236099   2.027   1.050   8.966 -0.1761 -0.7562 -2.0762
 8214SOL     OW36100   1.268   2.519   6.410 -0.4713 -1.0490 -0.0604
 8214SOL    HW136101   1.295   2.485   6.325 -1.1103 -2.5707  0.3436
 8214SOL    HW236102   1.211   2.449   6.440  0.3177 -0.3869  2.9980
 8215SOL     OW36103   3.791   0.745   6.832 -0.3520 -0.4084  0.4350
 8215SOL    HW136104   3.885   0.760   6.843 -0.3591 -1.1867  1.6015
 8215SOL    HW236105   3.781   0.775   6.741 -3.3762 -2.0391  0.2175
 8216SOL     OW36106   2.412   3.899   7.643 -0.6512  0.3539 -0.5142
 8216SOL    HW136107   2.328   3.946   7.642 -0.2963  0.9991 -0.0406
 8216SOL    HW236108   2.393   3.815   7.685  0.5937  0.2203 -0.2322
 8217SOL     OW36109   0.296   3.516  13.901  0.1025 -0.3541  0.3676
 8217SOL    HW136110   0.332   3.567  13.829  2.6563  0.6854  2.4072
 8217SOL    HW236111   0.375   3.489  13.948  1.4788  1.5171 -0.8686
 8218SOL     OW36112   3.087   1.452   4.909 -0.1176  0.1782  0.0859
 8218SOL    HW136113   3.138   1.501   4.844  2.1602 -2.4426 -0.1111
 8218SOL    HW236114   3.119   1.363   4.896 -0.1463  0.3799 -1.3324
 8219SOL     OW36115   3.208   3.949   2.801  0.1279 -0.7986 -0.3856
 8219SOL    HW136116   3.265   4.006   2.750 -0.0628  0.7685  1.1541
 8219SOL    HW236117   3.134   3.936   2.742  0.2213  4.0827 -1.5578
 8220SOL     OW36118   4.536   4.711   2.110 -0.6309 -0.6144  0.4877
 8220SOL    HW136119   4.478   0.025   2.179 -0.6939 -0.1450  0.2047
 8220SOL    HW236120   4.531   4.619   2.135  0.7578 -0.0353  2.8117
 8221SOL     OW36121   0.404   1.457   7.502  0.5809  0.5186 -0.0415
 8221SOL    HW136122   0.445   1.395   7.442 -1.3819 -1.7137  0.9055
 8221SOL    HW236123   0.478   1.483   7.557 -1.0953  1.0933  1.9511
 8222SOL     OW36124   1.769   2.507  17.245  0.1346  0.0366 -0.2948
 8222SOL    HW136125   1.706   2.564  17.200 -0.8675 -0.4038  0.5274
 8222SOL    HW236126   1.733   2.421  17.219 -1.8586  1.4220 -2.1313
 8223SOL     OW36127   0.756   3.984  10.131  0.0101 -0.1201 -0.4033
 8223SOL    HW136128   0.697   3.948  10.197  1.0477 -0.0733  0.5623
 8223SOL    HW236129   0.832   3.927  10.139  0.5877  0.9013  1.5177
 8224SOL     OW36130   1.293   1.821   4.326  0.5258 -0.4347  0.0711
 8224SOL    HW136131   1.251   1.892   4.374 -0.0696  0.7537 -2.2071
 8224SOL    HW236132   1.364   1.868   4.281  0.6623  0.5002  1.2976
 8225SOL     OW36133   3.873   1.172  16.319  0.2058  0.6431 -0.3726
 8225SOL    HW136134   3.794   1.190  16.371 -0.5303 -0.8432 -0.9627
 8225SOL    HW236135   3.880   1.076  16.316 -2.1623  0.5114 -1.7264
 8226SOL     OW36136   3.745   3.225  11.430 -0.1504 -0.6287  0.6079
 8226SOL    HW136137   3.745   3.317  11.402 -1.5774 -0.2758  1.7741
 8226SOL    HW236138   3.675   3.189  11.375 -0.7113  0.0466  0.8715
 8227SOL     OW36139   1.989   3.460   8.410  0.5127  0.4347  0.1961
 8227SOL    HW136140   1.997   3.379   8.360 -0.5651 -0.6299  1.7444
 8227SOL    HW236141   1.916   3.498   8.361  0.2419  0.1884  0.4120
 8228SOL     OW36142   3.541   0.313   3.458 -0.5066 -0.2081 -0.1489
 8228SOL    HW136143   3.557   0.390   3.512  1.0264  1.5632 -3.1669
 8228SOL    HW236144   3.630   0.280   3.462 -0.4377  0.0948  0.7832
 8229SOL     OW36145   3.386   1.949   2.657  0.2246  0.2341  0.3087
 8229SOL    HW136146   3.407   1.890   2.729  1.0029  0.7193  0.4750
 8229SOL    HW236147   3.324   1.909   2.595 -0.9613 -1.4251  2.5405
 8230SOL     OW36148   4.423   0.363   4.988 -0.4075 -0.8554 -0.4211
 8230SOL    HW136149   4.505   0.349   5.036 -0.4882  2.8310  0.7950
 8230SOL    HW236150   4.453   0.429   4.925 -0.7190 -1.4433 -1.1915
 8231SOL     OW36151   2.185   0.463   3.003  0.2792  0.4053 -0.9561
 8231SOL    HW136152   2.141   0.387   2.966 -0.9137  2.4837 -3.8417
 8231SOL    HW236153   2.273   0.444   2.973 -0.3482 -0.7070 -2.0747
 8232SOL     OW36154   0.231   3.035   3.321 -0.3133 -0.5740 -0.4232
 8232SOL    HW136155   0.216   3.035   3.416  2.1749 -1.7768 -0.0478
 8232SOL    HW236156   0.182   3.114   3.298  2.3788  0.4010 -2.7140
 8233SOL     OW36157   1.113   3.778   2.284  0.0714 -0.1864  0.1340
 8233SOL    HW136158   1.153   3.752   2.201 -0.0722  1.4433 -0.4477
 8233SOL    HW236159   1.049   3.848   2.267  2.3815  2.6704  3.1473
 8234SOL     OW36160   0.154   3.815   3.648  0.0036 -0.2069 -0.5213
 8234SOL    HW136161   0.098   3.867   3.705 -0.0232 -1.1836  0.3411
 8234SOL    HW236162   0.211   3.792   3.721  1.5225 -1.3856 -2.0890
 8235SOL     OW36163   0.368   1.613  10.198  0.9466 -0.0309  0.5455
 8235SOL    HW136164   0.420   1.536  10.219 -2.0965 -2.2268 -0.0703
 8235SOL    HW236165   0.365   1.645  10.288  1.0151  0.0233  0.5292
 8236SOL     OW36166   4.134   1.372   7.262  0.0287 -0.0608 -0.5672
 8236SOL    HW136167   4.189   1.416   7.198 -1.1306  1.0213 -0.8227
 8236SOL    HW236168   4.166   1.402   7.347  1.1503 -1.0631 -0.6350
 8237SOL     OW36169   3.173   0.699   7.490  0.0060 -1.2060  0.0834
 8237SOL    HW136170   3.140   0.689   7.400  2.0527 -2.1941 -0.5763
 8237SOL    HW236171   3.087   0.720   7.526  0.0864 -0.7864  0.0290
 8238SOL     OW36172   0.280   2.796   6.633  0.3073  0.3250 -0.0642
 8238SOL    HW136173   0.249   2.731   6.697 -1.9926  1.4125 -0.0512
 8238SOL    HW236174   0.374   2.782   6.624  0.2959  0.8460 -0.9877
 8239SOL     OW36175   4.337   0.648   7.677 -0.2280  0.3631  0.5616
 8239SOL    HW136176   4.281   0.697   7.617 -0.9995  0.9890  1.7863
 8239SOL    HW236177   4.380   0.593   7.612 -0.3805  0.4158  0.4179
 8240SOL     OW36178   4.500   4.430   3.933 -0.2180  0.0485 -0.6762
 8240SOL    HW136179   4.443   4.465   4.002  2.4091  1.0774  1.0026
 8240SOL    HW236180   4.441   4.361   3.903  0.5521 -0.3595 -1.2231
 8241SOL     OW36181   3.927   1.295  12.741  0.1011 -0.3832  0.6782
 8241SOL    HW136182   3.876   1.219  12.768  2.3830 -2.4395 -0.8962
 8241SOL    HW236183   4.016   1.262  12.747  0.5992  0.6258 -1.3360
 8242SOL     OW36184   4.049   0.188   8.210 -0.0188  0.0074  0.0549
 8242SOL    HW136185   3.995   0.109   8.218  2.0029 -1.3454  0.3804
 8242SOL    HW236186   4.133   0.171   8.253  0.1968  2.2375  0.5047
 8243SOL     OW36187   4.109   2.288  15.073  0.4701  0.0513  0.8831
 8243SOL    HW136188   4.117   2.326  14.986 -0.2420  1.3924  1.4195
 8243SOL    HW236189   4.163   2.209  15.069  0.7578  0.3308 -0.5720
 8244SOL     OW36190   0.023   4.468   5.118  0.1554 -0.0365 -0.8020
 8244SOL    HW136191   0.074   4.395   5.152 -1.0901 -0.8210 -0.6151
 8244SOL    HW236192   4.676   4.492   5.183  0.5027 -0.8789 -0.1457
 8245SOL     OW36193   1.876   0.756   3.454 -0.1324 -0.7321 -0.4208
 8245SOL    HW136194   1.785   0.747   3.426 -0.7390 -0.1379  1.3792
 8245SOL    HW236195   1.922   0.788   3.376 -2.2280  0.7713 -1.0482
 8246SOL     OW36196   1.172   0.735  17.193  0.4912 -0.1532 -0.5387
 8246SOL    HW136197   1.192   0.747  17.286  0.0752 -1.5883 -0.2585
 8246SOL    HW236198   1.076   0.739  17.193  0.5836  2.2546 -0.9843
 8247SOL     OW36199   3.259   1.009   9.219  0.8954 -0.0369  0.3654
 8247SOL    HW136200   3.316   0.947   9.173 -2.0014 -2.1965 -0.3252
 8247SOL    HW236201   3.285   0.983   9.308  1.2110  1.8541  0.8170
 8248SOL     OW36202   1.737   0.891   4.422 -0.5245 -0.0663 -0.0968
 8248SOL    HW136203   1.772   0.880   4.333 -0.7661  0.6840 -0.2847
 8248SOL    HW236204   1.663   0.830   4.417 -0.3742 -0.3493  1.1338
 8249SOL     OW36205   1.210   4.646   7.892  0.3082  0.0000 -0.5203
 8249SOL    HW136206   1.263   4.687   7.823  0.3361 -1.1946 -1.2135
 8249SOL    HW236207   1.147   4.612   7.828 -0.9744 -0.0431  0.7827
 8250SOL     OW36208   3.416   4.672   8.654  0.3308 -0.4049  0.2836
 8250SOL    HW136209   3.357   4.598   8.669 -0.2210 -0.6971 -3.4049
 8250SOL    HW236210   3.417   4.679   8.559 -0.9770  2.9087  0.4910
 8251SOL     OW36211   2.930   2.040   3.220  0.2766  0.2214 -0.3652
 8251SOL    HW136212   2.953   2.127   3.187  1.1230 -0.4902 -1.6879
 8251SOL    HW236213   2.922   2.056   3.314  1.2206 -1.7844  0.0566
 8252SOL     OW36214   2.443   1.154  15.641  0.2032 -0.2217  0.1219
 8252SOL    HW136215   2.482   1.157  15.729 -1.3391  1.3204  0.7505
 8252SOL    HW236216   2.483   1.226  15.593 -1.4340  0.6873  0.1385
 8253SOL     OW36217   1.636   2.654   5.071 -0.2820 -0.4859  0.3231
 8253SOL    HW136218   1.676   2.638   5.157  0.2889  2.5727  0.6315
 8253SOL    HW236219   1.553   2.698   5.092 -1.0108 -0.6654 -2.2498
 8254SOL     OW36220   2.036   2.731   8.743 -0.0104 -0.2818  0.0264
 8254SOL    HW136221   2.091   2.798   8.784 -1.3254  0.7776  0.0598
 8254SOL    HW236222   2.098   2.667   8.708  0.7372 -0.2816  1.3461
 8255SOL     OW36223   2.109   4.026   5.642 -0.5028  0.7103 -0.2070
 8255SOL    HW136224   2.143   3.957   5.699 -0.3898  1.2989  0.4418
 8255SOL    HW236225   2.128   4.110   5.685 -0.4484  1.0237 -0.8451
 8256SOL     OW36226   0.607   0.432   4.711 -0.2964 -0.2194  0.0938
 8256SOL    HW136227   0.615   0.525   4.736 -2.4967  0.6079 -2.3343
 8256SOL    HW236228   0.558   0.443   4.630  0.3255  0.9613 -0.1327
 8257SOL     OW36229   4.025   4.276   3.689  0.3476  0.4045 -0.1674
 8257SOL    HW136230   4.087   4.313   3.627  1.0648 -2.4691 -1.1184
 8257SOL    HW236231   4.074   4.299   3.768  1.3447 -0.0537 -0.6598
 8258SOL     OW36232   0.184   1.774  10.840  0.4000 -0.4869 -0.3414
 8258SOL    HW136233   0.230   1.856  10.823 -0.1534  0.0131  0.5771
 8258SOL    HW236234   0.099   1.794  10.801  2.3750  0.7241 -4.0647
 8259SOL     OW36235   3.212   2.277  13.369 -0.4536  0.4951  0.4379
 8259SOL    HW136236   3.295   2.278  13.323  0.4660 -1.2946  2.0552
 8259SOL    HW236237   3.233   2.238  13.454  2.7399  1.2717  0.0056
 8260SOL     OW36238   0.489   2.991   4.692 -0.0935 -0.0516  0.3281
 8260SOL    HW136239   0.574   3.004   4.734 -0.4969 -0.9889  1.4470
 8260SOL    HW236240   0.444   3.006   4.775  2.3453 -1.3702  1.9000
 8261SOL     OW36241   3.802   2.443   1.810 -0.1249  0.0030  0.5836
 8261SOL    HW136242   3.810   2.480   1.722 -1.5221 -1.2542 -0.0618
 8261SOL    HW236243   3.710   2.459   1.832 -0.4008 -0.9209  0.0916
 8262SOL     OW36244   3.922   3.932   1.306 -0.6548  0.3428  0.0815
 8262SOL    HW136245   3.889   3.981   1.381  0.6508 -0.7060  1.3422
 8262SOL    HW236246   3.843   3.882   1.286  0.5221 -0.2455 -3.0939
 8263SOL     OW36247   1.629   1.952   5.396  0.6502  0.2655  0.1187
 8263SOL    HW136248   1.625   1.907   5.480  1.5931  0.3361  0.2050
 8263SOL    HW236249   1.604   1.886   5.331 -1.0254  1.6475 -0.6235
 8264SOL     OW36250   2.522   1.441   2.242 -0.4737 -0.8492 -0.3359
 8264SOL    HW136251   2.476   1.371   2.289  1.2932 -1.6290  0.2515
 8264SOL    HW236252   2.584   1.389   2.192  0.2520 -0.2838 -0.0231
 8265SOL     OW36253   0.025   1.914  11.948  0.0728  0.2338  0.2970
 8265SOL    HW136254   0.098   1.854  11.937  1.3373  1.5382  1.6016
 8265SOL    HW236255   4.710   1.919  12.037  2.4258  2.5146  1.0917
 8266SOL     OW36256   0.043   1.609  10.433 -0.4658 -0.6193  0.2627
 8266SOL    HW136257   4.700   1.680  10.449 -0.4415 -0.6671  0.5750
 8266SOL    HW236258   0.104   1.614  10.507 -0.5222 -0.0616  0.2746
 8267SOL     OW36259   3.723   3.419   6.877 -0.3594  0.0217 -0.4402
 8267SOL    HW136260   3.642   3.396   6.832 -0.5121  1.4799 -0.9111
 8267SOL    HW236261   3.715   3.515   6.870  1.5652  0.3217  1.4240
 8268SOL     OW36262   3.887   3.769  15.241  0.2262  0.9460  0.2688
 8268SOL    HW136263   3.966   3.721  15.215  0.1586  0.8000  0.3350
 8268SOL    HW236264   3.901   3.860  15.213 -0.2569  0.3085 -1.9900
 8269SOL     OW36265   0.618   0.257   3.556  0.1700  0.2577 -0.6170
 8269SOL    HW136266   0.566   0.327   3.595  2.5230  2.0930 -0.7685
 8269SOL    HW236267   0.646   0.301   3.476 -0.5146  0.6540 -0.6328
 8270SOL     OW36268   3.777   1.875  12.350  0.2920 -0.3570  0.6265
 8270SOL    HW136269   3.693   1.833  12.372 -1.2261  0.4612 -3.6088
 8270SOL    HW236270   3.836   1.846  12.419  1.8842 -0.8112 -0.9459
 8271SOL     OW36271   1.804   3.976   3.880  0.5437 -0.1160 -0.2614
 8271SOL    HW136272   1.714   3.947   3.866  0.7914 -0.7303 -0.6147
 8271SOL    HW236273   1.802   4.022   3.964 -0.8515 -1.5997  0.5159
 8272SOL     OW36274   2.681   0.495   0.300  0.1762  0.0447 -0.5555
 8272SOL    HW136275   2.663   0.402   0.286  0.6230 -0.2953  1.0646
 8272SOL    HW236276   2.772   0.499   0.328 -0.1315 -0.8133  0.5758
 8273SOL     OW36277   0.332   3.916   9.281  0.1193 -0.2159  0.0524
 8273SOL    HW136278   0.259   3.937   9.223 -1.5753 -0.7132  1.9834
 8273SOL    HW236279   0.398   3.980   9.256 -0.1396 -0.3813 -1.0706
 8274SOL     OW36280   3.679   2.435   7.189 -0.4609 -0.7167  0.3918
 8274SOL    HW136281   3.641   2.413   7.104  0.1530  0.5155 -0.2081
 8274SOL    HW236282   3.599   2.422   7.240  0.5700 -1.4806  1.8117
 8275SOL     OW36283   1.674   2.584   8.203 -0.1760  0.0261  0.3433
 8275SOL    HW136284   1.756   2.569   8.157  0.4770  0.8746  1.2437
 8275SOL    HW236285   1.686   2.557   8.294 -0.5567  0.8422  0.6360
 8276SOL     OW36286   0.159   4.006   7.251  0.4703  0.6421 -0.0305
 8276SOL    HW136287   0.225   3.954   7.206 -1.0802  0.1690 -1.7232
 8276SOL    HW236288   0.090   3.944   7.271 -1.4432  1.4904 -3.9035
 8277SOL     OW36289   1.788   3.348   7.526 -0.4000 -0.5933  0.1441
 8277SOL    HW136290   1.696   3.373   7.526 -0.1962  0.1347 -1.1573
 8277SOL    HW236291   1.799   3.307   7.440  1.2967 -1.8854  0.9522
 8278SOL     OW36292   0.452   0.155   3.852 -0.9439 -0.0326 -0.4350
 8278SOL    HW136293   0.454   0.222   3.920  0.5599  1.4031 -1.9210
 8278SOL    HW236294   0.468   0.213   3.778 -0.5755  1.1615  0.5830
 8279SOL     OW36295   3.422   0.484   8.201 -0.4717 -0.1478  0.2787
 8279SOL    HW136296   3.496   0.453   8.147 -0.9727  3.4476 -2.4243
 8279SOL    HW236297   3.440   0.428   8.277  0.0058 -0.1766  0.1471
 8280SOL     OW36298   0.804   0.613   3.407 -0.0008  0.7074 -0.2766
 8280SOL    HW136299   0.861   0.648   3.339 -0.4420 -0.4348 -1.2368
 8280SOL    HW236300   0.724   0.648   3.367  1.0904  1.1117 -2.1060
 8281SOL     OW36301   4.672   4.108   5.392  0.0925 -0.6691 -0.7891
 8281SOL    HW136302   4.621   4.028   5.375 -0.0669  0.2343 -4.4200
 8281SOL    HW236303   4.696   4.136   5.304 -0.5251  2.6693  0.1006
 8282SOL     OW36304   1.596   1.753   1.801  0.1781 -0.0943 -0.2993
 8282SOL    HW136305   1.512   1.744   1.756  0.5145  0.7992 -1.0865
 8282SOL    HW236306   1.642   1.786   1.724 -0.3135 -0.3684 -0.7052
 8283SOL     OW36307   3.680   3.322  14.581  0.1831  0.0332 -0.3908
 8283SOL    HW136308   3.732   3.249  14.547  0.8423  0.6435 -0.7075
 8283SOL    HW236309   3.732   3.402  14.565 -0.5037  0.8131  1.2956
 8284SOL     OW36310   0.523   0.102   7.251  0.0741 -0.2240  0.0434
 8284SOL    HW136311   0.484   0.189   7.237 -0.2442 -0.3849 -0.0718
 8284SOL    HW236312   0.508   0.092   7.345  0.7681  2.6685  0.4803
 8285SOL     OW36313   2.176   0.107  13.381  0.5521  0.1228 -0.0470
 8285SOL    HW136314   2.086   0.109  13.350  1.0182  0.3182 -1.4092
 8285SOL    HW236315   2.155   0.155  13.460 -0.7719  1.8193 -1.4388
 8286SOL     OW36316   1.143   4.077  10.237  0.5525  0.1376  0.0797
 8286SOL    HW136317   1.105   4.050  10.154  0.3243  0.2668  0.1428
 8286SOL    HW236318   1.068   4.098  10.292  1.6230 -1.4334  2.1531
 8287SOL     OW36319   3.071   3.483   8.928 -0.2941  0.0360  0.3882
 8287SOL    HW136320   3.098   3.456   8.840 -1.4143 -0.0751  0.0720
 8287SOL    HW236321   3.115   3.567   8.937 -0.5624  0.1140  0.9536
 8288SOL     OW36322   4.084   4.173  15.571 -0.0869 -0.2358  0.0620
 8288SOL    HW136323   4.041   4.241  15.622  1.8540  1.0660  0.0049
 8288SOL    HW236324   4.114   4.111  15.638  2.6376  2.7722  1.6566
 8289SOL     OW36325   4.067   4.548   6.719  0.6511  0.0613 -0.1029
 8289SOL    HW136326   4.095   4.457   6.705 -0.0489 -0.2046  0.2713
 8289SOL    HW236327   4.068   4.580   6.629  3.7913 -1.7483 -0.7383
 8290SOL     OW36328   3.687   0.513  14.927 -0.4219 -0.2752 -0.0737
 8290SOL    HW136329   3.760   0.478  14.877 -0.8244 -0.7237 -0.3361
 8290SOL    HW236330   3.608   0.497  14.875  0.7006  0.6438 -2.0539
 8291SOL     OW36331   1.058   0.290   7.774  0.5570  0.5519 -0.2157
 8291SOL    HW136332   1.046   0.384   7.760 -0.1408  0.4949  0.0152
 8291SOL    HW236333   1.072   0.256   7.686 -0.5635 -2.5650  0.8102
 8292SOL     OW36334   0.751   1.148  13.233 -0.5019  0.0021 -0.4675
 8292SOL    HW136335   0.743   1.243  13.220  0.9208  0.1415 -0.3083
 8292SOL    HW236336   0.675   1.130  13.288  0.6093 -1.4421  0.5971
 8293SOL     OW36337   1.511   0.306   4.371 -0.4443  0.2329  0.1530
 8293SOL    HW136338   1.493   0.365   4.444 -0.6503 -0.6576  0.8249
 8293SOL    HW236339   1.474   0.224   4.404 -3.3349  0.5989 -2.2388
 8294SOL     OW36340   2.339   0.917   5.445  0.6621 -0.0684 -1.0000
 8294SOL    HW136341   2.335   0.860   5.522 -1.7076 -0.7774 -1.6319
 8294SOL    HW236342   2.344   0.860   5.368 -1.0609  0.6986 -1.6879
 8295SOL     OW36343   1.958   1.523   4.913  0.8039 -0.1044  0.2077
 8295SOL    HW136344   1.949   1.430   4.935  1.7326  0.0326  1.1774
 8295SOL    HW236345   1.873   1.545   4.874 -0.8514 -0.9416  3.3270
 8296SOL     OW36346   2.788   2.049  17.255  0.0590 -0.1964  0.0623
 8296SOL    HW136347   2.782   1.960  17.220 -0.9153  0.4299 -1.3752
 8296SOL    HW236348   2.837   2.092  17.185  0.0745 -0.9295 -0.3734
 8297SOL     OW36349   1.745   1.490   5.904 -0.3986  0.4763  0.2093
 8297SOL    HW136350   1.739   1.534   5.819 -1.3276  1.9203  0.9933
 8297SOL    HW236351   1.821   1.436   5.884 -1.5801 -1.4909  0.9896
 8298SOL     OW36352   4.467   2.081   0.644 -1.0244 -0.0862 -0.0612
 8298SOL    HW136353   4.468   2.088   0.548  1.7477 -2.6340 -0.2108
 8298SOL    HW236354   4.384   2.120   0.670 -1.1244  0.4430 -1.1562
 8299SOL     OW36355   1.970   1.471   6.955  0.4077  0.4145  0.4341
 8299SOL    HW136356   1.996   1.393   7.004  0.3647 -0.3432 -0.7624
 8299SOL    HW236357   2.050   1.508   6.916  0.2260 -0.3464 -0.6510
 8300SOL     OW36358   1.954   1.262   9.401 -0.4748 -0.3241  0.6092
 8300SOL    HW136359   2.040   1.230   9.373 -1.0816 -1.4056 -0.0381
 8300SOL    HW236360   1.954   1.227   9.490 -0.4367 -1.0551  0.3235
 8301SOL     OW36361   2.184   2.810   0.650 -0.6762  0.3181 -0.3957
 8301SOL    HW136362   2.116   2.766   0.701 -0.9931 -1.0663 -2.0131
 8301SOL    HW236363   2.235   2.746   0.599 -1.2368 -1.6481  1.5010
 8302SOL     OW36364   4.287   2.296   7.718 -0.0383 -0.2198  0.0635
 8302SOL    HW136365   4.310   2.377   7.762 -1.4230 -1.0218  2.2540
 8302SOL    HW236366   4.191   2.301   7.724 -0.1349 -1.7332 -0.0777
 8303SOL     OW36367   0.958   1.204   4.564 -0.2179 -0.4166 -0.1433
 8303SOL    HW136368   1.010   1.200   4.484 -1.8149 -0.7421 -1.1562
 8303SOL    HW236369   1.022   1.162   4.622  1.9878  0.2821 -2.0867
 8304SOL     OW36370   0.522   0.619   9.366 -0.0348 -0.3513 -0.3808
 8304SOL    HW136371   0.498   0.618   9.458 -2.8362 -3.1543 -1.1481
 8304SOL    HW236372   0.432   0.630   9.336 -0.7584 -0.3965  1.7866
 8305SOL     OW36373   1.575   3.780   3.738  0.5362  0.0406  0.3086
 8305SOL    HW136374   1.548   3.831   3.815 -2.2757  0.4292 -0.9238
 8305SOL    HW236375   1.600   3.853   3.682  2.4824 -1.3790 -0.6855
 8306SOL     OW36376   3.017   1.902   4.322  0.1832  0.0665  0.3729
 8306SOL    HW136377   3.004   1.808   4.310  4.1818 -0.5782  1.2172
 8306SOL    HW236378   2.999   1.936   4.234  2.8421 -0.9711 -0.5805
 8307SOL     OW36379   1.853   3.893   0.478 -0.0920  0.0324  0.0503
 8307SOL    HW136380   1.893   3.806   0.481  1.0221  0.5272 -0.4625
 8307SOL    HW236381   1.915   3.951   0.434 -0.6639  1.8173  1.5764
 8308SOL     OW36382   3.784   4.553   6.499  0.8520  0.2002  0.1450
 8308SOL    HW136383   3.719   4.523   6.436 -0.6227  1.4845  1.0893
 8308SOL    HW236384   3.859   4.495   6.483  1.8754  1.4201  0.5516
 8309SOL     OW36385   4.163   3.754  10.990  0.7741  0.2267  0.1607
 8309SOL    HW136386   4.175   3.782  11.081 -2.2814  0.7842  0.3853
 8309SOL    HW236387   4.067   3.758  10.983  0.8563  1.8710 -0.1372
 8310SOL     OW36388   4.350   1.965   7.265  0.0600 -0.1467  0.0587
 8310SOL    HW136389   4.274   1.909   7.278 -3.6476  4.4977 -1.5308
 8310SOL    HW236390   4.424   1.905   7.273  2.8814  3.0310 -1.6734
 8311SOL     OW36391   4.478   4.542   4.706  0.0434  0.0732  0.2114
 8311SOL    HW136392   4.535   4.494   4.765  0.4372  0.3370  0.0431
 8311SOL    HW236393   4.521   4.626   4.689  1.1124 -0.3649  0.7965
 8312SOL     OW36394   0.643   1.894  15.628  0.3087 -0.4897  0.5656
 8312SOL    HW136395   0.568   1.861  15.577  1.4555 -0.5129 -1.1028
 8312SOL    HW236396   0.630   1.984  15.598 -0.1542 -0.9597 -0.6601
 8313SOL     OW36397   0.232   2.508  11.394 -0.1828 -0.0258 -0.8098
 8313SOL    HW136398   0.247   2.443  11.325  0.4581  0.0707 -0.7585
 8313SOL    HW236399   0.216   2.443  11.463  1.3032  2.4810  1.8752
 8314SOL     OW36400   0.769   3.116   4.356 -0.0685  0.2608  0.0831
 8314SOL    HW136401   0.776   3.185   4.289  0.9637 -0.4313 -0.5196
 8314SOL    HW236402   0.705   3.142   4.422  0.1365  0.2653  0.2799
 8315SOL     OW36403   0.614   3.104   7.883  0.0246 -0.3652 -0.3967
 8315SOL    HW136404   0.557   3.174   7.916  2.0462  0.9816  0.2109
 8315SOL    HW236405   0.597   3.116   7.790 -2.9749 -0.0296  0.1946
 8316SOL     OW36406   3.041   4.023   9.913  0.2632  0.1265 -0.0254
 8316SOL    HW136407   3.047   3.945   9.857 -0.1715  0.2735 -0.2793
 8316SOL    HW236408   3.132   4.038   9.938  0.6780 -1.1202 -0.7663
 8317SOL     OW36409   3.303   3.607   6.995 -0.4139  0.0146  0.3465
 8317SOL    HW136410   3.232   3.650   7.042  0.1523  0.5250  0.7459
 8317SOL    HW236411   3.302   3.517   7.028  0.4398 -0.0136  0.3151
 8318SOL     OW36412   4.226   1.165   9.834  0.2635  0.3983  0.3179
 8318SOL    HW136413   4.209   1.116   9.915 -2.0313  0.4057 -0.1744
 8318SOL    HW236414   4.149   1.221   9.823  0.1430  0.1886  0.0852
 8319SOL     OW36415   4.061   1.659   3.740 -0.2803  0.4664  0.6721
 8319SOL    HW136416   4.029   1.706   3.663 -0.2448  0.6064  0.7438
 8319SOL    HW236417   3.981   1.623   3.779 -0.7099  0.4590 -0.2217
 8320SOL     OW36418   4.502   0.963   7.654 -0.3842 -0.1034 -0.4780
 8320SOL    HW136419   4.537   0.898   7.593 -1.5720  1.4370 -2.7899
 8320SOL    HW236420   4.416   0.926   7.673  0.0949 -2.7857 -3.5399
 8321SOL     OW36421   3.393   3.184   5.277  0.0391 -0.3392  0.3410
 8321SOL    HW136422   3.424   3.147   5.194 -0.6692  1.4369 -0.7109
 8321SOL    HW236423   3.351   3.262   5.241  4.0831  1.3655 -0.6909
 8322SOL     OW36424   3.167   0.507   9.281 -0.6380  1.0596 -0.2546
 8322SOL    HW136425   3.137   0.426   9.322  0.1840  0.1144 -1.5475
 8322SOL    HW236426   3.124   0.510   9.195 -0.2393  1.0231 -0.4509
 8323SOL     OW36427   1.362   2.664   2.692 -0.1893  0.4488  0.2993
 8323SOL    HW136428   1.321   2.750   2.690 -3.4002 -1.0769  0.4005
 8323SOL    HW236429   1.326   2.611   2.621  0.6998  0.5491 -0.2311
 8324SOL     OW36430   1.362   2.815  14.373  0.0927 -0.7629  0.5881
 8324SOL    HW136431   1.359   2.910  14.382  1.7779 -1.0579  4.1987
 8324SOL    HW236432   1.306   2.803  14.296  2.6258  0.2201 -1.4237
 8325SOL     OW36433   1.640   0.658  12.958 -0.7044 -0.0604  0.2019
 8325SOL    HW136434   1.565   0.696  13.003 -0.0013 -1.4195  2.4899
 8325SOL    HW236435   1.690   0.740  12.952 -1.5472  0.4569  0.2539
 8326SOL     OW36436   1.947   1.418   9.032 -0.1110  0.1947  0.1987
 8326SOL    HW136437   1.942   1.506   8.994  1.0400  0.3751  0.4684
 8326SOL    HW236438   1.971   1.440   9.122 -0.5023  0.2308  0.2926
 8327SOL     OW36439   4.010   2.543  13.421 -0.2924 -0.2940 -0.3620
 8327SOL    HW136440   3.967   2.458  13.429 -0.8598 -0.1290 -1.8165
 8327SOL    HW236441   4.075   2.535  13.491 -1.1896  0.1225  0.5216
 8328SOL     OW36442   3.899   1.497   7.016 -0.4868  0.2243 -0.0269
 8328SOL    HW136443   3.810   1.523   6.991 -0.0497  0.3112 -1.5195
 8328SOL    HW236444   3.928   1.556   7.085  1.2722 -1.0439  0.3166
 8329SOL     OW36445   1.725   0.950   5.652  0.1724 -0.1756 -0.7795
 8329SOL    HW136446   1.702   0.995   5.571 -1.0975  1.6333  0.6017
 8329SOL    HW236447   1.636   0.933   5.683  0.4790  2.0677  1.3579
 8330SOL     OW36448   3.991   4.461  14.871  0.1315  0.2909  0.5339
 8330SOL    HW136449   4.012   4.370  14.847 -0.2152  0.5245 -0.6533
 8330SOL    HW236450   3.904   4.440  14.905 -0.3332  2.5750  0.7185
 8331SOL     OW36451   3.159   3.414   8.685  0.0904  0.6221 -0.1197
 8331SOL    HW136452   3.143   3.464   8.605  2.1476 -1.0596 -1.6033
 8331SOL    HW236453   3.139   3.326   8.654 -0.3651  1.0058 -0.9244
 8332SOL     OW36454   2.627   2.079  14.692  0.2384  0.4141 -0.3154
 8332SOL    HW136455   2.715   2.050  14.714  0.5211  0.8802 -0.8301
 8332SOL    HW236456   2.629   2.169  14.722  0.5931 -0.2900  1.7823
 8333SOL     OW36457   4.578   3.021   7.310  0.5029  0.0223  0.0956
 8333SOL    HW136458   4.501   3.033   7.366 -0.6777  0.3284 -1.5965
 8333SOL    HW236459   4.600   3.111   7.287  1.7882 -1.0571 -2.8358
 8334SOL     OW36460   0.379   2.583  11.664 -0.2672 -0.3012  0.1460
 8334SOL    HW136461   0.392   2.677  11.671 -0.0955 -0.3559  0.5785
 8334SOL    HW236462   0.311   2.574  11.596  1.0234 -0.5402 -1.1042
 8335SOL     OW36463   4.628   0.612   6.507 -0.5436 -0.1230  0.8109
 8335SOL    HW136464   4.646   0.609   6.414 -1.2805  0.2212  0.6573
 8335SOL    HW236465   4.712   0.639   6.544  1.1669  1.1937 -4.0574
 8336SOL     OW36466   4.054   1.697   4.404 -0.1272  0.9321  0.3591
 8336SOL    HW136467   4.124   1.745   4.358  0.9828 -0.5464  0.5166
 8336SOL    HW236468   4.063   1.723   4.496 -3.3246  0.0734  0.9009
 8337SOL     OW36469   0.774   1.541   6.830 -0.7715 -0.0942  0.3646
 8337SOL    HW136470   0.804   1.596   6.902  1.1034  0.1981 -0.6382
 8337SOL    HW236471   0.681   1.563   6.823  0.3239  4.5809  0.5488
 8338SOL     OW36472   1.377   0.625  15.746  0.8109 -0.1185 -0.4604
 8338SOL    HW136473   1.354   0.645  15.836  1.4128  1.1936 -0.5941
 8338SOL    HW236474   1.331   0.542  15.740 -1.7817  1.2364  0.4470
 8339SOL     OW36475   3.653   3.716   2.776  0.3878  0.1564 -0.2161
 8339SOL    HW136476   3.621   3.627   2.763 -0.1555  0.0912  1.5136
 8339SOL    HW236477   3.595   3.773   2.726 -0.3034 -1.2319 -0.9899
 8340SOL     OW36478   4.704   2.163   5.460 -0.2476 -0.1624 -0.3161
 8340SOL    HW136479   4.675   2.116   5.538  0.3742 -0.0642 -0.0212
 8340SOL    HW236480   0.035   2.236   5.495 -1.3573  0.1461  0.6278
 8341SOL     OW36481   3.184   0.030   4.931  0.2971  0.2045 -0.6545
 8341SOL    HW136482   3.104   4.701   4.912  0.4104  0.5467 -2.0605
 8341SOL    HW236483   3.222   0.042   4.844 -2.8602  1.1447 -1.9173
 8342SOL     OW36484   2.809   0.892   4.473 -0.2046 -0.3504  0.1593
 8342SOL    HW136485   2.825   0.978   4.434 -1.4699 -0.5560 -0.8141
 8342SOL    HW236486   2.714   0.903   4.480 -0.0535 -0.3670  2.4486
 8343SOL     OW36487   3.876   0.684   2.791 -0.2672 -0.1765  0.1743
 8343SOL    HW136488   3.822   0.617   2.749 -1.2143  1.1969 -0.7965
 8343SOL    HW236489   3.895   0.642   2.875 -0.1299 -1.7302 -0.6211
 8344SOL     OW36490   1.517   4.462   2.407 -0.2419 -0.3051  0.0201
 8344SOL    HW136491   1.462   4.465   2.328  0.4180 -1.6193 -0.4886
 8344SOL    HW236492   1.594   4.511   2.378 -0.4822 -0.1599 -0.3773
 8345SOL     OW36493   3.157   3.043  17.380 -0.3276  0.0709  0.0289
 8345SOL    HW136494   3.131   3.005  17.464 -0.6983 -2.5402 -1.2653
 8345SOL    HW236495   3.186   3.128  17.412  0.2595  0.2837 -1.0575
 8346SOL     OW36496   4.224   1.741   8.835 -0.0132  1.0531  0.0256
 8346SOL    HW136497   4.285   1.753   8.763  0.1024 -1.1941 -0.2533
 8346SOL    HW236498   4.258   1.667   8.885  0.0058  0.1955 -1.2612
 8347SOL     OW36499   4.713   4.263   1.226 -1.0007 -0.0805  0.2279
 8347SOL    HW136500   0.020   4.312   1.304 -2.4666  0.6109  0.2952
 8347SOL    HW236501   0.045   4.184   1.242 -0.5573 -0.1118 -1.4466
 8348SOL     OW36502   3.678   0.756  14.225  0.6131 -0.1424  0.3013
 8348SOL    HW136503   3.610   0.756  14.157  0.1745 -1.3858  0.7305
 8348SOL    HW236504   3.665   0.848  14.248 -1.1010 -0.5346  0.9268
 8349SOL     OW36505   2.193   4.627   3.421 -0.7831  0.6903  0.1860
 8349SOL    HW136506   2.194   4.714   3.382  2.5519  1.2857  1.6467
 8349SOL    HW236507   2.278   4.610   3.460 -1.4793 -0.4766  1.2005
 8350SOL     OW36508   2.162   2.294   5.279 -0.1838  0.4294 -0.4596
 8350SOL    HW136509   2.254   2.299   5.306 -0.0121 -0.0521 -0.9541
 8350SOL    HW236510   2.175   2.307   5.185 -2.4678  1.2240 -0.6680
 8351SOL     OW36511   0.821   3.525  14.218  0.1063 -0.5088 -0.7998
 8351SOL    HW136512   0.909   3.487  14.214  0.0704 -0.3331 -3.0558
 8351SOL    HW236513   0.787   3.467  14.149 -0.4741 -0.7550 -0.3060
 8352SOL     OW36514   3.894   1.402   4.635  1.1130 -0.8694 -0.3592
 8352SOL    HW136515   3.859   1.436   4.552  1.4637 -0.8431 -0.4952
 8352SOL    HW236516   3.931   1.474   4.686 -0.9774 -0.0176 -0.0615
 8353SOL     OW36517   2.414   2.968   4.722  0.4723  0.0469  0.2312
 8353SOL    HW136518   2.319   2.959   4.716  0.4875 -0.2609  0.4570
 8353SOL    HW236519   2.432   3.031   4.652  2.7525 -2.9911 -1.9183
 8354SOL     OW36520   3.626   2.631   5.537  0.2194 -0.0060  0.2899
 8354SOL    HW136521   3.552   2.586   5.496 -1.2891 -0.6374  3.6951
 8354SOL    HW236522   3.643   2.578   5.615 -1.0596 -1.7839 -0.6238
 8355SOL     OW36523   3.121   2.974  17.078  0.5736  0.0513 -0.1575
 8355SOL    HW136524   3.118   3.069  17.068  0.1797 -0.0384 -0.9326
 8355SOL    HW236525   3.102   2.959  17.170 -3.1530  2.8986 -0.4357
 8356SOL     OW36526   1.561   2.180   9.203  0.6440  0.2411  0.1707
 8356SOL    HW136527   1.565   2.120   9.278 -2.4065 -1.3855 -0.9641
 8356SOL    HW236528   1.651   2.199   9.177  0.5947 -0.3853 -0.4790
 8357SOL     OW36529   3.018   3.823   4.772  0.3418  0.4571 -0.2939
 8357SOL    HW136530   2.950   3.782   4.824  0.7823  1.0646  0.7591
 8357SOL    HW236531   3.042   3.748   4.716  0.5847 -1.5279  2.4928
 8358SOL     OW36532   4.327   1.134  11.728  0.4407  0.2524  0.3555
 8358SOL    HW136533   4.257   1.127  11.792 -0.3147 -1.1595 -0.6199
 8358SOL    HW236534   4.281   1.160  11.648  1.0313  1.9389  0.5658
 8359SOL     OW36535   2.542   0.145   5.944  0.0554 -0.3537  0.1002
 8359SOL    HW136536   2.573   0.188   6.024 -1.9357  1.9414 -0.3543
 8359SOL    HW236537   2.611   0.186   5.893 -0.2174  0.4269  0.3594
 8360SOL     OW36538   1.010   3.709   7.575  0.4133 -0.1013 -0.0353
 8360SOL    HW136539   0.936   3.742   7.525 -1.0296  1.7587  3.3336
 8360SOL    HW236540   1.080   3.719   7.511  0.4404  0.3264  0.0625
 8361SOL     OW36541   1.791   2.277  11.954  0.5964  0.3814  0.1584
 8361SOL    HW136542   1.834   2.193  11.972 -1.8906 -0.5835  1.5836
 8361SOL    HW236543   1.853   2.340  11.989 -1.2992  1.7472  1.0520
 8362SOL     OW36544   1.489   3.071   1.702 -0.3967 -0.1479 -0.1615
 8362SOL    HW136545   1.521   3.052   1.790  0.7465 -1.6075 -0.8930
 8362SOL    HW236546   1.426   3.142   1.717  0.4072 -0.6164  5.5530
 8363SOL     OW36547   0.263   3.766  14.048 -0.1177  0.4667  0.0047
 8363SOL    HW136548   0.252   3.732  14.136  1.9063 -0.1712  0.0068
 8363SOL    HW236549   0.259   3.683  14.000  0.4002  0.3080  0.2452
 8364SOL     OW36550   3.399   1.142   3.646  0.4847  0.0667 -0.3004
 8364SOL    HW136551   3.451   1.063   3.634 -0.0834 -0.5835  1.4682
 8364SOL    HW236552   3.404   1.153   3.741 -1.0588  0.5421 -0.2588
 8365SOL     OW36553   3.690   0.554  17.374  0.6681  0.0274 -0.7601
 8365SOL    HW136554   3.625   0.621  17.397 -0.3901 -0.5089 -2.1916
 8365SOL    HW236555   3.636   0.475  17.372  1.1687 -0.3218 -0.2067
 8366SOL     OW36556   3.127   0.054   0.563  0.1991  0.9027  0.0927
 8366SOL    HW136557   3.039   0.042   0.526 -0.3422  0.4947  1.4935
 8366SOL    HW236558   3.167   4.689   0.542 -0.9315 -0.0464  1.7410
 8367SOL     OW36559   3.147   0.815   4.229 -0.1652  0.5780  0.4269
 8367SOL    HW136560   3.208   0.757   4.183 -1.4796 -0.4913  0.0157
 8367SOL    HW236561   3.149   0.889   4.168 -0.9712 -0.3680 -0.7526
 8368SOL     OW36562   4.586   2.268   6.251 -0.1882 -0.3845 -0.0648
 8368SOL    HW136563   4.533   2.335   6.296 -2.2717 -2.6402  0.8126
 8368SOL    HW236564   4.656   2.277   6.316 -1.7013  1.3411  1.3457
 8369SOL     OW36565   0.908   0.288   3.657  0.1382 -0.1828  0.1499
 8369SOL    HW136566   0.896   0.205   3.704 -1.2121  0.1263  0.3697
 8369SOL    HW236567   0.817   0.311   3.637 -0.1646  0.1225  1.8966
 8370SOL     OW36568   1.801   2.217   9.075  0.3543  0.0358  0.0116
 8370SOL    HW136569   1.819   2.306   9.046 -2.0551  1.1753  1.9672
 8370SOL    HW236570   1.868   2.168   9.028  0.2930  0.7217 -0.7871
 8371SOL     OW36571   2.524   4.273   7.552  0.4087 -1.0883  0.5479
 8371SOL    HW136572   2.438   4.311   7.536  0.4822 -1.6294 -1.0576
 8371SOL    HW236573   2.555   4.318   7.631  0.1048  1.4617 -0.8012
 8372SOL     OW36574   0.842   1.573   1.429 -0.1531  0.3254  0.2463
 8372SOL    HW136575   0.801   1.592   1.513  0.2099 -2.6528  1.0916
 8372SOL    HW236576   0.883   1.493   1.462 -0.9837 -0.7982 -1.4038
 8373SOL     OW36577   2.991   0.732   8.186 -0.1632 -0.5015 -0.3492
 8373SOL    HW136578   3.086   0.735   8.201 -0.2380  0.0368 -0.0092
 8373SOL    HW236579   2.955   0.764   8.269 -1.4768 -2.8865  0.0184
 8374SOL     OW36580   3.687   3.872   1.747  0.0211  0.0525  0.3801
 8374SOL    HW136581   3.708   3.900   1.836 -0.0711  0.0447  0.4043
 8374SOL    HW236582   3.706   3.961   1.718 -1.8154 -0.2121 -1.5687
 8375SOL     OW36583   1.901   2.829   3.123  0.2358  0.1002  0.6663
 8375SOL    HW136584   1.886   2.767   3.051  0.1244 -0.0607  0.8290
 8375SOL    HW236585   1.812   2.856   3.145  0.4770  1.0776  0.4540
 8376SOL     OW36586   4.104   0.770   9.300 -0.2741 -0.2655 -0.0283
 8376SOL    HW136587   4.027   0.716   9.284 -0.0678 -0.2876 -0.9355
 8376SOL    HW236588   4.109   0.766   9.396  1.9582  2.2311 -0.0305
 8377SOL     OW36589   4.238   0.939   6.724 -0.4702  0.3998 -0.3875
 8377SOL    HW136590   4.301   0.992   6.772 -0.9843 -0.6955  1.5209
 8377SOL    HW236591   4.293   0.915   6.649 -0.8255 -0.9481 -0.2204
 8378SOL     OW36592   4.647   4.675   3.955  0.1470 -0.3306 -0.2074
 8378SOL    HW136593   0.011   4.705   3.918  0.6027 -2.1840 -0.6697
 8378SOL    HW236594   4.630   4.585   3.927  1.2205 -1.2065  1.9233
 8379SOL     OW36595   2.923   3.595   4.106  0.3420  0.2017  0.3167
 8379SOL    HW136596   3.011   3.564   4.125  0.4395  0.8126  0.8860
 8379SOL    HW236597   2.905   3.652   4.181 -0.9776  2.2154 -1.5076
 8380SOL     OW36598   3.960   1.563   8.104 -0.4801 -0.5693 -0.3146
 8380SOL    HW136599   3.872   1.530   8.121 -0.4521  0.3156  1.4206
 8380SOL    HW236600   3.997   1.560   8.192 -1.2653  2.2167  0.0965
 8381SOL     OW36601   1.817   2.409   3.466 -0.5314  0.5299  0.1625
 8381SOL    HW136602   1.769   2.350   3.407  2.0842 -0.5876 -0.8889
 8381SOL    HW236603   1.818   2.354   3.544  2.0741  0.5729  0.1650
 8382SOL     OW36604   3.860   2.761   1.924  0.3268  0.0382 -0.8073
 8382SOL    HW136605   3.794   2.738   1.989  2.6632 -0.7030  1.3472
 8382SOL    HW236606   3.802   2.808   1.865 -0.6604  0.2060  0.3096
 8383SOL     OW36607   4.446   2.164   3.935 -0.2266  0.1668 -0.8237
 8383SOL    HW136608   4.452   2.091   3.873 -2.1571 -1.8598  1.3619
 8383SOL    HW236609   4.352   2.174   3.944 -0.5575 -2.7512 -0.9303
 8384SOL     OW36610   0.502   4.234   7.655 -0.2469  0.2410  0.2751
 8384SOL    HW136611   0.533   4.278   7.576 -0.0602  1.1968  0.8710
 8384SOL    HW236612   0.578   4.252   7.711 -0.4801  0.3989  0.5453
 8385SOL     OW36613   1.484   3.049   3.279  0.2569 -0.0572  0.0992
 8385SOL    HW136614   1.532   2.985   3.331 -0.2620  0.6438  1.4526
 8385SOL    HW236615   1.534   3.052   3.198  0.0521 -0.0304 -0.0252
 8386SOL     OW36616   0.474   1.460   1.952  0.0338 -0.5177  0.3581
 8386SOL    HW136617   0.502   1.429   1.866 -0.1663  0.0820  0.0731
 8386SOL    HW236618   0.493   1.554   1.947 -4.5795  0.4063 -0.2164
 8387SOL     OW36619   3.010   4.414   8.686  0.1317 -0.0876 -0.3220
 8387SOL    HW136620   3.041   4.346   8.626 -0.1397 -2.3717  2.1362
 8387SOL    HW236621   3.048   4.393   8.771  0.2075 -0.0612 -0.3493
 8388SOL     OW36622   2.369   3.507   7.025  0.6137  0.0312 -0.3619
 8388SOL    HW136623   2.329   3.550   7.101 -0.7529  0.0099 -1.0806
 8388SOL    HW236624   2.293   3.475   6.977 -1.2607  1.4617  1.6398
 8389SOL     OW36625   1.194   1.121   1.238 -0.0978  0.5596 -0.2272
 8389SOL    HW136626   1.156   1.170   1.165 -1.7188 -1.5152 -0.7585
 8389SOL    HW236627   1.284   1.109   1.207 -0.9876  0.7502 -2.9015
 8390SOL     OW36628   1.016   0.031  16.972  0.0242 -0.3326  0.5917
 8390SOL    HW136629   0.928   0.055  17.001  0.3828  1.5779  0.1146
 8390SOL    HW236630   1.054   0.118  16.959  0.4544 -0.7791 -1.0709
 8391SOL     OW36631   4.485   3.811  17.046  0.4117  0.2001  0.1475
 8391SOL    HW136632   4.404   3.797  17.095 -0.5185 -0.4276 -1.5467
 8391SOL    HW236633   4.469   3.773  16.959  2.0768  1.7967 -0.8567
 8392SOL     OW36634   0.965   0.574   7.490  0.3031 -0.4567  0.3959
 8392SOL    HW136635   0.975   0.576   7.585  0.3641  0.6201  0.3673
 8392SOL    HW236636   1.047   0.534   7.462  2.1972  4.5937 -1.1626
 8393SOL     OW36637   3.519   0.572  12.010 -0.0787  0.6311  0.5184
 8393SOL    HW136638   3.497   0.496  12.064  0.3055 -0.3558 -0.6991
 8393SOL    HW236639   3.433   0.599  11.979 -0.2114 -1.6470 -1.1482
 8394SOL     OW36640   1.945   1.867   2.368  0.5068  0.1779  0.1513
 8394SOL    HW136641   1.867   1.814   2.388  0.4287  1.6507  3.8648
 8394SOL    HW236642   1.916   1.912   2.289 -2.6113 -2.2031 -0.0932
 8395SOL     OW36643   2.283   1.227   8.902 -0.2334  0.1684 -0.2501
 8395SOL    HW136644   2.364   1.238   8.951 -0.8162  0.5444  0.6347
 8395SOL    HW236645   2.239   1.167   8.963  0.4466 -1.0140 -0.9350
 8396SOL     OW36646   0.018   2.133   6.775  0.8869 -0.1026 -0.3554
 8396SOL    HW136647   0.005   2.057   6.719  0.4181  0.1833 -0.6380
 8396SOL    HW236648   0.020   2.113   6.869  0.5986 -1.7366 -0.7032
 8397SOL     OW36649   0.577   3.259   8.205 -0.5457 -0.4297 -0.2598
 8397SOL    HW136650   0.495   3.219   8.232 -1.3713 -0.3217 -2.5503
 8397SOL    HW236651   0.635   3.203   8.256 -0.1813 -0.1588 -0.3784
 8398SOL     OW36652   4.367   2.112   6.257  0.0754  0.5672 -0.2853
 8398SOL    HW136653   4.431   2.181   6.241 -0.6222  1.1373 -0.6325
 8398SOL    HW236654   4.374   2.098   6.351  1.5505 -2.5780 -0.8402
 8399SOL     OW36655   0.664   1.628  13.859  0.4219 -0.8120  0.3874
 8399SOL    HW136656   0.593   1.664  13.912  1.6924  0.0563  1.4758
 8399SOL    HW236657   0.722   1.634  13.935 -0.0840  1.6290  0.5753
 8400SOL     OW36658   1.611   3.584   9.040  0.1895 -0.0079 -0.1481
 8400SOL    HW136659   1.694   3.625   9.064 -1.2418  1.9629  1.4456
 8400SOL    HW236660   1.631   3.490   9.042 -2.6320 -0.5770  1.0916
 8401SOL     OW36661   3.812   4.344   2.251 -0.3482 -0.2713 -0.4550
 8401SOL    HW136662   3.875   4.369   2.183 -2.3868 -0.8932 -2.5395
 8401SOL    HW236663   3.732   4.377   2.210 -1.5764 -2.1401  0.4596
 8402SOL     OW36664   2.764   1.611   7.717 -0.8423  0.3519  0.0559
 8402SOL    HW136665   2.680   1.594   7.759 -1.4138 -0.1322 -1.2799
 8402SOL    HW236666   2.752   1.696   7.675 -2.1866 -1.1178 -2.4898
 8403SOL     OW36667   1.333   3.911   7.783  0.1594 -0.2199 -0.3270
 8403SOL    HW136668   1.368   3.825   7.758  2.5606  0.9062 -0.8278
 8403SOL    HW236669   1.244   3.884   7.803  0.2378 -1.2472 -1.3326
 8404SOL     OW36670   2.529   4.634   4.925 -0.6901  0.0515  0.2066
 8404SOL    HW136671   2.598   4.657   4.988  0.1205 -0.9932 -0.2955
 8404SOL    HW236672   2.451   4.661   4.973  0.7603  2.6231  1.1332
 8405SOL     OW36673   2.599   0.199  12.705  0.0001  0.0423 -0.4479
 8405SOL    HW136674   2.693   0.182  12.712 -0.0757  0.5578  1.7982
 8405SOL    HW236675   2.573   0.158  12.622  1.6659  2.6682 -2.2975
 8406SOL     OW36676   3.060   2.547  10.163  0.3151  0.3925 -0.1600
 8406SOL    HW136677   3.106   2.467  10.138  1.8128  1.8724 -2.2059
 8406SOL    HW236678   2.970   2.537  10.132 -0.1081  2.2610  0.4659
 8407SOL     OW36679   2.256   0.255  11.042 -0.4447 -0.0616  0.2182
 8407SOL    HW136680   2.285   0.166  11.020 -1.2753 -0.6035  1.2531
 8407SOL    HW236681   2.311   0.268  11.119  2.2921 -1.0447 -1.5763
 8408SOL     OW36682   1.039   2.203   5.098 -0.1503 -0.5882 -0.2825
 8408SOL    HW136683   1.049   2.254   5.179 -0.5636  1.6339 -1.6193
 8408SOL    HW236684   0.943   2.198   5.094 -0.0639 -1.4919 -1.0011
 8409SOL     OW36685   2.367   0.104   7.464  0.6816  0.3997  0.2046
 8409SOL    HW136686   2.400   0.193   7.457  1.9155  0.1901  3.0668
 8409SOL    HW236687   2.385   0.095   7.558  0.2253  0.4850  0.2968
 8410SOL     OW36688   4.255   0.435   5.605 -0.1691  0.2521  0.1181
 8410SOL    HW136689   4.283   0.385   5.529  0.6397 -0.5053  0.9107
 8410SOL    HW236690   4.190   0.374   5.641 -0.4257  0.4285 -0.0479
 8411SOL     OW36691   1.277   0.747  10.632 -0.0204  0.0336 -0.3722
 8411SOL    HW136692   1.362   0.789  10.619 -1.1416  2.4804  0.0378
 8411SOL    HW236693   1.270   0.770  10.725 -1.1617  1.5909 -0.8455
 8412SOL     OW36694   3.050   4.416  16.895  0.1277 -0.2390  0.3943
 8412SOL    HW136695   3.017   4.369  16.819 -0.9419  0.5243  0.3851
 8412SOL    HW236696   2.994   4.396  16.969 -0.1737  0.8433  0.4616
 8413SOL     OW36697   1.619   1.522  17.226  0.4967 -0.5402  0.7207
 8413SOL    HW136698   1.590   1.601  17.182  0.2012 -0.2517  1.4504
 8413SOL    HW236699   1.610   1.461  17.152  0.1772 -0.7029  0.8963
 8414SOL     OW36700   2.307   1.011   4.095  0.4412 -0.0745 -0.2189
 8414SOL    HW136701   2.321   1.064   4.016 -0.3069 -2.0718 -1.7082
 8414SOL    HW236702   2.394   1.019   4.134 -0.1556 -1.2098  1.3156
 8415SOL     OW36703   3.743   4.264   1.196  0.2895  0.2987  0.3947
 8415SOL    HW136704   3.783   4.252   1.110  0.3807  1.1979  0.3139
 8415SOL    HW236705   3.652   4.248   1.172 -0.2534  1.6685  1.5172
 8416SOL     OW36706   3.697   1.199   1.026  0.2140 -0.2921 -0.2139
 8416SOL    HW136707   3.788   1.187   0.997  0.9511  0.6236  1.7372
 8416SOL    HW236708   3.691   1.136   1.098 -1.6417 -0.2065 -0.3109
 8417SOL     OW36709   4.259   1.951   6.785 -0.2604 -0.3792 -0.9207
 8417SOL    HW136710   4.303   1.992   6.860  1.3234 -0.1929 -1.9461
 8417SOL    HW236711   4.172   1.988   6.798  0.3685  0.8135 -0.0697
 8418SOL     OW36712   4.077   1.299  10.827 -0.2519 -0.2302  0.2702
 8418SOL    HW136713   4.002   1.358  10.836  1.4506  1.9453  0.2667
 8418SOL    HW236714   4.056   1.287  10.734  1.2108 -1.8259  0.1422
 8419SOL     OW36715   3.454   4.083  15.712 -0.2649 -0.3671 -0.4020
 8419SOL    HW136716   3.496   4.004  15.677  0.8165  0.0708 -0.1076
 8419SOL    HW236717   3.504   4.154  15.669 -1.1621  0.1625 -0.5705
 8420SOL     OW36718   4.206   2.584   1.053  0.0289  0.4151  0.6420
 8420SOL    HW136719   4.218   2.524   1.127 -0.1253 -0.4547 -0.0341
 8420SOL    HW236720   4.280   2.643   1.066 -0.8824  1.4839  0.9729
 8421SOL     OW36721   0.899   4.652  13.477  0.3099  0.0953  0.6069
 8421SOL    HW136722   0.855   4.587  13.422 -0.5638 -0.9868  2.5746
 8421SOL    HW236723   0.844   4.641  13.555  1.0758 -2.1471  0.8478
 8422SOL     OW36724   0.188   0.323   1.722 -0.2071  0.0836  0.0828
 8422SOL    HW136725   0.272   0.298   1.761  1.2915  1.3389 -2.3873
 8422SOL    HW236726   0.147   0.338   1.808  1.7770  0.7652  0.9057
 8423SOL     OW36727   0.997   1.534   4.949 -0.7135  0.2450 -0.6134
 8423SOL    HW136728   0.901   1.528   4.945 -0.6599  0.4541 -2.0822
 8423SOL    HW236729   1.031   1.447   4.932 -0.4158  0.0527  0.9127
 8424SOL     OW36730   3.471   0.098   1.526  0.2931  0.2660 -0.1249
 8424SOL    HW136731   3.403   0.092   1.593  0.5834 -1.0718  0.0404
 8424SOL    HW236732   3.543   0.137   1.576  0.7166  1.9945 -2.0892
 8425SOL     OW36733   2.154   4.339  17.473 -0.4937 -0.1012  0.2108
 8425SOL    HW136734   2.128   4.267  17.417  1.6244  0.1023 -1.0219
 8425SOL    HW236735   2.225   4.313  17.531  0.9796  0.7863 -1.1843
 8426SOL     OW36736   2.044   3.560   9.106 -0.6328  0.3024  0.3164
 8426SOL    HW136737   2.070   3.647   9.136 -1.3330 -0.1462  2.2847
 8426SOL    HW236738   1.991   3.600   9.038  0.0445 -1.6632 -1.3540
 8427SOL     OW36739   0.611   2.219  12.307  0.1456 -0.5254  0.2663
 8427SOL    HW136740   0.528   2.251  12.344  0.6827 -1.1062  1.9605
 8427SOL    HW236741   0.578   2.132  12.285  0.7534 -0.8511  0.6529
 8428SOL     OW36742   0.302   3.242   6.978 -0.0718  0.2626  0.4383
 8428SOL    HW136743   0.347   3.162   6.953  2.3168  1.8902 -0.5153
 8428SOL    HW236744   0.309   3.293   6.897  3.1464  0.8611  1.0735
 8429SOL     OW36745   1.136   1.893   3.460  0.4892  0.1218 -0.8417
 8429SOL    HW136746   1.061   1.909   3.404  0.4797  0.3016 -0.7767
 8429SOL    HW236747   1.097   1.821   3.509 -0.5521  1.2662 -0.0054
 8430SOL     OW36748   0.259   2.715  17.368  0.4344  0.5226 -0.0157
 8430SOL    HW136749   0.220   2.641  17.417 -0.1955  0.4669 -0.6022
 8430SOL    HW236750   0.270   2.782  17.435 -0.9852 -0.1206  0.8784
 8431SOL     OW36751   1.495   0.522   9.497 -0.3756  0.4352 -0.4707
 8431SOL    HW136752   1.510   0.528   9.403  3.7010  0.6602  0.1773
 8431SOL    HW236753   1.414   0.571   9.507 -2.7939 -3.0593 -2.8000
 8432SOL     OW36754   4.008   4.337   1.700  0.1503  0.2515 -0.0365
 8432SOL    HW136755   4.099   4.366   1.703  0.2084  0.0171  0.4269
 8432SOL    HW236756   4.014   4.242   1.711 -0.3705  0.1407 -0.6777
 8433SOL     OW36757   4.413   3.168   6.172 -0.3059 -0.5481 -0.6043
 8433SOL    HW136758   4.463   3.127   6.243 -2.5578 -0.0181  1.2955
 8433SOL    HW236759   4.381   3.097   6.117 -1.4123  0.7892 -1.6881
 8434SOL     OW36760   3.968   0.967   9.920  0.2489  0.1488  0.3134
 8434SOL    HW136761   4.043   0.998   9.970  0.6314  0.8842 -0.6990
 8434SOL    HW236762   3.981   0.873   9.933 -2.8375 -0.6802 -2.5994
 8435SOL     OW36763   0.695   3.496   1.905  0.5876  0.2723 -0.0650
 8435SOL    HW136764   0.729   3.407   1.901 -0.3424 -0.0994  0.3755
 8435SOL    HW236765   0.765   3.535   1.957  1.3270  0.3165 -1.0976
 8436SOL     OW36766   0.396   4.050  14.456  0.4386 -0.1111  0.6416
 8436SOL    HW136767   0.484   4.021  14.432  0.7808  0.2601  1.4519
 8436SOL    HW236768   0.389   4.135  14.411  0.7672  0.0627  0.9200
 8437SOL     OW36769   4.339   2.617   9.445 -0.1501 -0.2172 -0.2428
 8437SOL    HW136770   4.376   2.534   9.477  0.4357  0.1186 -0.0504
 8437SOL    HW236771   4.304   2.661   9.522 -0.3535  1.6595 -1.4277
 8438SOL     OW36772   2.406   0.153  14.510  0.1550 -0.5440  0.1411
 8438SOL    HW136773   2.480   0.122  14.563 -1.5359 -0.1258  2.7352
 8438SOL    HW236774   2.436   0.113  14.428 -0.7016  2.4265 -1.6156
 8439SOL     OW36775   4.538   1.255   2.045  0.4225 -0.1911 -0.2000
 8439SOL    HW136776   4.444   1.276   2.037  1.1448  3.0290 -0.1376
 8439SOL    HW236777   4.591   1.329   2.074  2.0772 -1.1113 -0.9142
 8440SOL     OW36778   0.234   0.976   5.535 -0.3565  0.1315 -0.8075
 8440SOL    HW136779   0.330   0.974   5.540 -0.5192  1.2571  3.3245
 8440SOL    HW236780   0.220   0.916   5.462  1.6475 -0.2883 -0.8386
 8441SOL     OW36781   2.178   4.438   3.792  0.5905  0.4039 -0.1569
 8441SOL    HW136782   2.091   4.417   3.827 -0.2102  2.9595 -0.6151
 8441SOL    HW236783   2.169   4.532   3.778 -1.7485  0.2528  0.2221
 8442SOL     OW36784   2.064   4.464   4.815 -0.0874 -0.1295 -0.0294
 8442SOL    HW136785   1.988   4.504   4.858 -1.6770 -1.6099 -1.4903
 8442SOL    HW236786   2.041   4.371   4.823  1.4576 -0.3394  2.0095
 8443SOL     OW36787   2.966   3.887   2.655 -0.2106  0.1446 -0.1934
 8443SOL    HW136788   3.024   3.817   2.625 -1.5501 -1.8280  1.8231
 8443SOL    HW236789   2.967   3.941   2.577 -0.2098 -1.1634 -1.0981
 8444SOL     OW36790   3.821   4.004   8.412 -0.2251  0.3098 -0.2836
 8444SOL    HW136791   3.867   4.080   8.449  0.5044 -0.9449  1.3908
 8444SOL    HW236792   3.900   3.957   8.384 -0.4739 -0.9482  1.1445
 8445SOL     OW36793   4.279   0.127   7.223  0.2078  0.5559 -0.0345
 8445SOL    HW136794   4.196   0.162   7.192  0.7712  1.2345 -0.7542
 8445SOL    HW236795   4.325   0.130   7.140 -0.0486  1.9174 -0.1207
 8446SOL     OW36796   1.511   3.166  12.166 -0.0420  0.6601 -0.3473
 8446SOL    HW136797   1.528   3.256  12.191  2.8265 -0.1701  0.7134
 8446SOL    HW236798   1.434   3.129  12.210 -0.2687  2.3946  0.7174
 8447SOL     OW36799   1.515   0.731   5.113  0.0988  0.1812 -0.4241
 8447SOL    HW136800   1.547   0.782   5.039  0.7924 -0.2728 -0.4242
 8447SOL    HW236801   1.558   0.648   5.097  0.8270  0.1105  1.8615
 8448SOL     OW36802   0.149   3.513   3.420  0.6060 -0.0449  0.0087
 8448SOL    HW136803   0.232   3.494   3.375  0.4656 -0.8124  0.0638
 8448SOL    HW236804   0.175   3.509   3.512 -0.4185  0.2085  0.3072
 8449SOL     OW36805   3.464   1.564   6.014  0.1024 -0.1720  0.1464
 8449SOL    HW136806   3.422   1.491   6.060 -1.2108  0.9793  0.7672
 8449SOL    HW236807   3.435   1.639   6.065 -0.8555  0.2535 -1.0421
 8450SOL     OW36808   0.771   3.983   5.051 -0.1993  0.3734  0.4956
 8450SOL    HW136809   0.728   4.048   4.996  1.3155 -0.5178 -1.7143
 8450SOL    HW236810   0.807   3.912   4.998 -1.8127 -2.0027  2.5462
 8451SOL     OW36811   2.548   2.853  14.006 -0.1867 -0.1458 -0.4336
 8451SOL    HW136812   2.515   2.769  13.973 -1.3727  0.2606 -0.2772
 8451SOL    HW236813   2.607   2.837  14.079 -1.3735  0.9489  0.7486
 8452SOL     OW36814   1.252   0.555   8.826 -0.2013 -0.0850 -0.2318
 8452SOL    HW136815   1.309   0.529   8.898  0.3506  0.5536 -0.4415
 8452SOL    HW236816   1.165   0.532   8.859 -1.4331  0.3418 -3.1798
 8453SOL     OW36817   0.970   2.963   3.534  0.1737 -0.0076  0.0265
 8453SOL    HW136818   1.050   2.912   3.525 -0.1750 -0.6210  0.4639
 8453SOL    HW236819   0.911   2.890   3.514  1.3504 -0.9182 -0.0725
 8454SOL     OW36820   0.294   4.314   3.217  0.3777  0.1024  0.4210
 8454SOL    HW136821   0.363   4.264   3.261 -2.1113 -3.4375  0.2658
 8454SOL    HW236822   0.249   4.240   3.178 -1.1625  2.0565 -1.5273
 8455SOL     OW36823   3.886   1.771   5.786  0.3925  0.1058 -0.1629
 8455SOL    HW136824   3.909   1.747   5.696 -1.4042 -3.0349  0.2314
 8455SOL    HW236825   3.885   1.691   5.838  1.6786  0.2878  0.1463
 8456SOL     OW36826   2.284   1.598  16.484 -0.4524 -0.2035 -0.4497
 8456SOL    HW136827   2.262   1.583  16.576  0.3484 -0.9172 -0.3763
 8456SOL    HW236828   2.241   1.684  16.480 -0.6272 -0.3950 -2.4269
 8457SOL     OW36829   4.041   1.829   7.611  0.7778  0.6224  0.5769
 8457SOL    HW136830   4.123   1.792   7.578  0.3322 -0.5348  0.7649
 8457SOL    HW236831   4.038   1.912   7.562 -1.9697 -0.5900 -1.3098
 8458SOL     OW36832   2.031   3.622   6.412  0.7206 -0.3325 -0.3175
 8458SOL    HW136833   1.962   3.598   6.350 -0.3271  0.1715  0.6375
 8458SOL    HW236834   2.108   3.580   6.374  0.1313 -0.1548 -1.6973
 8459SOL     OW36835   1.505   1.168   5.689  0.5064 -0.0056  0.2818
 8459SOL    HW136836   1.452   1.183   5.767  0.9956  0.6823  0.4839
 8459SOL    HW236837   1.458   1.106   5.633  0.0675 -1.2232  1.9866
 8460SOL     OW36838   1.055   0.370  12.995  0.0259 -0.6901  0.1963
 8460SOL    HW136839   1.133   0.320  13.019  0.7065  1.4125  2.3863
 8460SOL    HW236840   0.996   0.329  13.058  0.6183 -1.3061  0.3509
 8461SOL     OW36841   4.054   0.902  10.618  0.4442  0.3290 -0.2208
 8461SOL    HW136842   4.134   0.942  10.583 -0.0260  0.0784 -1.5946
 8461SOL    HW236843   4.053   0.944  10.704  2.4728  0.8585 -0.4593
 8462SOL     OW36844   1.614   3.404  12.201 -0.4723 -0.4722 -0.2983
 8462SOL    HW136845   1.708   3.395  12.184 -0.6294 -1.6312 -0.4883
 8462SOL    HW236846   1.575   3.409  12.113  0.4553 -2.6915 -0.8201
 8463SOL     OW36847   3.902   3.649  15.869  0.1300  0.4598 -0.1325
 8463SOL    HW136848   3.986   3.605  15.877  0.6337  2.2824  4.0198
 8463SOL    HW236849   3.840   3.587  15.908  1.1460 -0.2633  0.3319
 8464SOL     OW36850   0.418   3.632   4.525 -0.0605  0.2465 -0.4500
 8464SOL    HW136851   0.398   3.557   4.582  2.1362 -1.3549 -1.7793
 8464SOL    HW236852   0.407   3.579   4.446  1.1182 -0.6760 -0.0017
 8465SOL     OW36853   0.829   0.616  13.211 -0.0592  0.1101  0.1703
 8465SOL    HW136854   0.770   0.676  13.164 -0.0295  1.1356  1.4619
 8465SOL    HW236855   0.773   0.593  13.285 -0.0575  1.4719  0.5938
 8466SOL     OW36856   2.739   1.804   4.489 -0.8170  0.1686 -0.1423
 8466SOL    HW136857   2.740   1.896   4.515 -1.6924 -0.3978  1.9272
 8466SOL    HW236858   2.806   1.759   4.541 -1.9008  1.0805  2.0398
 8467SOL     OW36859   1.674   3.098  14.277 -0.1593  0.3815 -0.1978
 8467SOL    HW136860   1.765   3.111  14.305  0.1174 -0.3908 -0.7473
 8467SOL    HW236861   1.656   3.182  14.235  2.9894  0.4725 -1.4013
 8468SOL     OW36862   0.282   2.968   1.686 -0.3757  0.3989 -0.2172
 8468SOL    HW136863   0.340   2.897   1.660 -0.4790 -0.1549  1.0650
 8468SOL    HW236864   0.299   2.972   1.780  1.4318  3.7606 -0.6865
 8469SOL     OW36865   2.260   1.361  11.452  0.1007  0.2084 -0.0881
 8469SOL    HW136866   2.355   1.371  11.443  0.3420 -0.3391  1.8086
 8469SOL    HW236867   2.239   1.319  11.369  0.2879  1.1268 -0.6025
 8470SOL     OW36868   1.654   1.162   6.058  0.3716  0.4264  0.2920
 8470SOL    HW136869   1.706   1.151   5.979 -0.5215  1.6394 -0.4784
 8470SOL    HW236870   1.610   1.077   6.061  0.5982  0.2862 -0.4540
 8471SOL     OW36871   4.319   3.610   4.143  0.4965 -0.6038  0.2679
 8471SOL    HW136872   4.230   3.614   4.110  0.9400  0.0595 -0.8461
 8471SOL    HW236873   4.354   3.695   4.116  0.2066 -0.6664 -0.3011
 8472SOL     OW36874   0.961   1.940   1.685  0.4903  0.6900  0.4830
 8472SOL    HW136875   0.936   2.014   1.741 -1.0737  1.1950 -0.8979
 8472SOL    HW236876   0.874   1.930   1.647  0.8834  1.9303 -0.7367
 8473SOL     OW36877   1.119   1.937  11.070  0.1988  0.0838  0.2354
 8473SOL    HW136878   1.149   2.005  11.131 -1.8212 -0.6310  2.0322
 8473SOL    HW236879   1.128   1.858  11.123 -1.8737 -2.1671 -2.8554
 8474SOL     OW36880   1.037   0.907   8.177 -0.4462 -0.4885  0.0393
 8474SOL    HW136881   1.064   0.973   8.113 -0.3319 -0.5441  0.0288
 8474SOL    HW236882   1.046   0.971   8.248 -0.5332 -0.8856  0.4123
 8475SOL     OW36883   2.376   3.231   3.905 -0.6122 -0.0502  0.3385
 8475SOL    HW136884   2.455   3.284   3.919 -1.2379  1.2895 -1.2686
 8475SOL    HW236885   2.308   3.290   3.939  0.0338  1.4412 -0.9840
 8476SOL     OW36886   0.070   1.585   8.850 -0.2742 -0.4559 -0.1564
 8476SOL    HW136887   0.154   1.561   8.889  0.3083  0.9201 -0.5676
 8476SOL    HW236888   0.081   1.680   8.848 -2.6728 -0.2551 -3.7945
 8477SOL     OW36889   2.602   1.679  15.136 -0.1745  0.0431 -0.5027
 8477SOL    HW136890   2.521   1.690  15.186  0.0449  2.2615 -0.6381
 8477SOL    HW236891   2.635   1.765  15.112 -2.6812  0.7782 -1.3487
 8478SOL     OW36892   2.266   3.478   9.869 -0.1012 -0.3110 -0.5484
 8478SOL    HW136893   2.216   3.557   9.892 -0.2948 -0.0677 -1.8269
 8478SOL    HW236894   2.199   3.434   9.817 -0.6746  1.2585 -1.1408
 8479SOL     OW36895   3.704   0.204   5.774  0.5213  0.2440 -0.6242
 8479SOL    HW136896   3.753   0.153   5.840 -0.1594  2.5375  1.6211
 8479SOL    HW236897   3.693   0.139   5.704 -1.0719  1.5275 -1.5415
 8480SOL     OW36898   3.683   0.237   1.692 -0.2728  0.0228 -0.6272
 8480SOL    HW136899   3.773   0.232   1.724 -0.4580  0.9798  0.0305
 8480SOL    HW236900   3.643   0.239   1.779  0.5882  1.5595 -0.2548
 8481SOL     OW36901   4.296   0.422   2.671 -0.5628 -0.2792  0.5974
 8481SOL    HW136902   4.338   0.368   2.737 -1.1524 -0.5898  0.7175
 8481SOL    HW236903   4.343   0.392   2.593  1.7555  0.4998  1.6770
 8482SOL     OW36904   3.701   1.794  10.099  0.1160 -0.0148 -0.6743
 8482SOL    HW136905   3.750   1.868  10.133  1.7833 -2.2242  1.6823
 8482SOL    HW236906   3.762   1.726  10.127 -0.5652 -0.5177 -0.4233
 8483SOL     OW36907   1.563   2.831   7.838 -0.2535  0.4146  0.5496
 8483SOL    HW136908   1.478   2.788   7.853  1.5256 -1.9808  3.6737
 8483SOL    HW236909   1.584   2.853   7.929 -2.7869 -0.6936  1.4020
 8484SOL     OW36910   2.842   1.341   9.052 -0.3433  0.3177 -0.3860
 8484SOL    HW136911   2.914   1.288   9.087 -0.2196  2.1022  2.0610
 8484SOL    HW236912   2.876   1.342   8.962  0.1840  1.7001 -0.1880
 8485SOL     OW36913   3.366   2.459   6.490  0.4782 -0.1955  0.0083
 8485SOL    HW136914   3.403   2.405   6.560  1.2857  1.2432  0.7005
 8485SOL    HW236915   3.389   2.550   6.510  0.9022 -0.5178  1.0091
 8486SOL     OW36916   2.163   2.229   2.114 -0.3757  0.1918  0.2158
 8486SOL    HW136917   2.239   2.225   2.056 -0.1428 -1.0846  0.6225
 8486SOL    HW236918   2.189   2.302   2.170 -0.5322 -1.1989  2.0816
 8487SOL     OW36919   3.602   0.364   7.582  0.1247 -0.3751 -0.6134
 8487SOL    HW136920   3.534   0.297   7.589 -0.7876  0.4578 -1.6122
 8487SOL    HW236921   3.609   0.374   7.487  2.3445 -1.2773 -0.5584
 8488SOL     OW36922   4.412   3.614   7.504 -0.1721 -0.1157  0.6585
 8488SOL    HW136923   4.493   3.573   7.536 -0.0118  0.8108  1.4120
 8488SOL    HW236924   4.393   3.550   7.435 -0.0692 -1.3494  1.7687
 8489SOL     OW36925   0.609   2.816   6.340  0.4924  0.7036 -0.1081
 8489SOL    HW136926   0.647   2.764   6.269  2.3701  1.6514  0.1969
 8489SOL    HW236927   0.558   2.878   6.288  0.7098  2.5427  1.8880
 8490SOL     OW36928   3.672   2.911   6.687 -0.2387 -0.2032 -0.1466
 8490SOL    HW136929   3.757   2.870   6.669 -0.8731 -1.2122 -0.7873
 8490SOL    HW236930   3.699   3.003   6.681 -1.3347 -0.1586 -3.7656
 8491SOL     OW36931   3.317   0.042   2.500  0.4002  0.2751  0.4920
 8491SOL    HW136932   3.338   0.123   2.546 -3.8516  1.0261  1.1273
 8491SOL    HW236933   3.222   0.055   2.500  0.2660 -0.7385 -1.4664
 8492SOL     OW36934   3.143   4.430   1.420 -0.8491 -0.1502  0.0880
 8492SOL    HW136935   3.168   4.396   1.334  0.2027  0.2576  0.2264
 8492SOL    HW236936   3.082   4.363   1.450  0.9809 -0.7703  2.5040
 8493SOL     OW36937   0.043   3.206   4.855 -0.3638  0.1414  0.0349
 8493SOL    HW136938   4.702   3.207   4.930 -0.2109  1.6235  0.1380
 8493SOL    HW236939   0.120   3.170   4.898 -0.9623 -1.7695 -0.5033
 8494SOL     OW36940   4.237   3.163   0.341 -0.2797 -0.0106 -0.1275
 8494SOL    HW136941   4.285   3.092   0.299 -0.1348 -0.0195  0.0523
 8494SOL    HW236942   4.239   3.230   0.273 -1.3020 -0.8696 -0.9896
 8495SOL     OW36943   2.242   2.965  11.841 -0.2124  0.0077 -0.8595
 8495SOL    HW136944   2.250   2.898  11.908 -0.4461  0.1750 -0.6641
 8495SOL    HW236945   2.206   3.028  11.904 -0.5834 -0.4538 -0.6123
 8496SOL     OW36946   1.552   0.614   6.057 -0.1199  0.3140  0.0449
 8496SOL    HW136947   1.504   0.531   6.052 -0.4324  0.5738 -1.2372
 8496SOL    HW236948   1.493   0.655   6.120  0.1691  1.4607 -0.4378
 8497SOL     OW36949   2.489   1.281   7.851 -0.2658 -0.3039 -0.1593
 8497SOL    HW136950   2.416   1.219   7.865 -0.9172  0.4294 -0.3179
 8497SOL    HW236951   2.555   1.220   7.817  2.0853 -0.0041  3.8418
 8498SOL     OW36952   2.988   4.512   8.318 -0.2901  0.4143 -0.2238
 8498SOL    HW136953   2.988   4.555   8.232 -0.1567 -0.8420 -0.8619
 8498SOL    HW236954   2.981   4.421   8.289  1.2714  0.7642 -1.7277
 8499SOL     OW36955   1.275   3.662  17.469 -0.2507 -0.0146  0.4238
 8499SOL    HW136956   1.335   3.697  17.403  2.1138  0.0466  2.5925
 8499SOL    HW236957   1.320   3.686  17.550 -0.5750  0.5364  0.4454
 8500SOL     OW36958   0.361   1.624   2.753  0.1643  0.2690  0.4211
 8500SOL    HW136959   0.298   1.683   2.794 -0.4711 -0.9827  1.2392
 8500SOL    HW236960   0.412   1.690   2.706  1.0175 -0.4903  0.2818
 8501SOL     OW36961   0.909   3.715  10.091  0.0738  0.0279 -0.4363
 8501SOL    HW136962   0.858   3.689  10.014 -1.6608  1.6021  0.1716
 8501SOL    HW236963   0.991   3.735  10.046  0.6066 -1.4632 -0.1214
 8502SOL     OW36964   3.619   0.942  10.230  0.0080 -0.4924 -0.6030
 8502SOL    HW136965   3.670   0.861  10.230  1.1844  0.2444 -0.9002
 8502SOL    HW236966   3.689   1.008  10.233 -1.5950  1.0845  2.0690
 8503SOL     OW36967   0.119   1.170   2.651 -0.4085 -0.6444  0.4446
 8503SOL    HW136968   0.091   1.183   2.560 -1.6495 -3.2169  0.4598
 8503SOL    HW236969   0.124   1.075   2.657  1.6165 -0.5111  0.7200
 8504SOL     OW36970   3.031   3.307   4.779 -0.0432 -0.3779 -0.1754
 8504SOL    HW136971   2.957   3.252   4.752 -0.2003 -0.0903 -0.3251
 8504SOL    HW236972   3.113   3.265   4.752 -1.0851 -1.5009 -1.6072
 8505SOL     OW36973   0.616   0.730   5.784  0.8222  0.8867  0.4721
 8505SOL    HW136974   0.599   0.729   5.879 -1.4996  0.9339  0.0630
 8505SOL    HW236975   0.680   0.659   5.779  0.9452  1.2026 -2.0175
 8506SOL     OW36976   4.652   2.390   9.282 -0.6546  0.4801 -0.6236
 8506SOL    HW136977   4.606   2.411   9.363 -1.5377  0.0471 -1.0079
 8506SOL    HW236978   4.625   2.299   9.266 -2.2213  0.7028  0.8116
 8507SOL     OW36979   2.292   3.450   6.577  0.0160 -0.0683  0.1315
 8507SOL    HW136980   2.323   3.359   6.577 -2.0044 -0.7531 -0.8593
 8507SOL    HW236981   2.222   3.452   6.642 -1.0477 -0.0860 -1.0133
 8508SOL     OW36982   2.498   2.812   4.338 -0.4725 -0.3274  0.3141
 8508SOL    HW136983   2.470   2.721   4.346  0.2327 -0.5408  0.3748
 8508SOL    HW236984   2.527   2.815   4.429 -1.4248  0.2414  0.5947
 8509SOL     OW36985   0.925   2.838   0.300  0.2998  0.5558 -0.4617
 8509SOL    HW136986   0.928   2.793   0.384  0.5034 -0.5404 -1.0516
 8509SOL    HW236987   0.917   2.755   0.253  1.8022  0.4771 -0.6010
 8510SOL     OW36988   3.749   1.689   4.852 -0.2771  0.1775 -0.3782
 8510SOL    HW136989   3.743   1.784   4.840 -0.8249  0.0542 -1.0592
 8510SOL    HW236990   3.839   1.684   4.882 -1.0532 -0.3315  1.8314
 8511SOL     OW36991   0.316   0.389  11.581 -0.0357 -0.1874  0.0895
 8511SOL    HW136992   0.290   0.330  11.652  0.3056 -2.0286 -1.3211
 8511SOL    HW236993   0.228   0.415  11.556 -0.1376  0.0445  0.6820
 8512SOL     OW36994   4.513   2.807   2.705 -0.1095  0.1242  0.4204
 8512SOL    HW136995   4.497   2.894   2.742  0.6939  0.7100 -0.6138
 8512SOL    HW236996   4.571   2.779   2.776 -0.8919  0.3253  1.1432
 8513SOL     OW36997   3.557   1.705   8.925  0.9417  0.4309  0.1626
 8513SOL    HW136998   3.536   1.613   8.938  1.7259  0.3787  1.1030
 8513SOL    HW236999   3.512   1.757   8.992  0.3173 -0.6461  0.5808
 8514SOL     OW37000   3.961   1.556   9.104  0.6147  0.5338 -0.0283
 8514SOL    HW137001   3.970   1.631   9.162  1.4598  1.1678 -0.9938
 8514SOL    HW237002   3.874   1.524   9.128  1.2835  0.0482  1.7581
 8515SOL     OW37003   0.539   0.836   5.537 -0.3439 -0.2584  0.0634
 8515SOL    HW137004   0.570   0.781   5.609  0.6050 -0.7764 -0.7373
 8515SOL    HW237005   0.585   0.798   5.462 -0.2598  1.1579 -0.6038
 8516SOL     OW37006   3.615   4.685   3.348  0.2820 -0.2992  0.1325
 8516SOL    HW137007   3.670   0.042   3.328  0.8386 -1.4595 -2.7111
 8516SOL    HW237008   3.527   4.706   3.317  0.3326  0.6272  0.6047
 8517SOL     OW37009   2.985   0.701   3.224 -0.3957  0.2062  0.4956
 8517SOL    HW137010   3.073   0.700   3.187 -1.8326 -0.8408 -2.9304
 8517SOL    HW237011   2.986   0.619   3.274 -1.5759  0.5592  1.1052
 8518SOL     OW37012   0.602   4.250   5.547  0.1982 -0.7604 -0.7631
 8518SOL    HW137013   0.556   4.266   5.464  0.6296  0.4870 -0.7668
 8518SOL    HW237014   0.639   4.162   5.544  0.6509 -0.5861 -0.2986
 8519SOL     OW37015   1.170   4.420  12.203 -0.5567  0.3957  0.8059
 8519SOL    HW137016   1.246   4.455  12.250 -2.0594 -0.0500  3.5618
 8519SOL    HW237017   1.174   4.477  12.126 -0.6346 -0.7827 -0.0730
 8520SOL     OW37018   3.198   2.916  15.760  0.0932  0.2692  0.0023
 8520SOL    HW137019   3.167   3.005  15.776 -1.9288 -0.3878 -0.3189
 8520SOL    HW237020   3.217   2.886  15.849  0.6894 -0.3310 -0.3194
 8521SOL     OW37021   1.812   3.125   3.275  0.0651 -0.2730 -0.5899
 8521SOL    HW137022   1.883   3.190   3.268  0.4398 -0.4447  1.4290
 8521SOL    HW237023   1.854   3.065   3.336 -1.5550 -1.2122 -0.4139
 8522SOL     OW37024   1.370   2.761  11.584 -0.3287 -0.6177  0.2823
 8522SOL    HW137025   1.465   2.747  11.581 -0.5033 -2.0367  1.4009
 8522SOL    HW237026   1.347   2.762  11.491  0.2705  1.3196  0.1436
 8523SOL     OW37027   1.586   0.013   7.144 -0.2830 -0.0502 -0.0376
 8523SOL    HW137028   1.658   4.674   7.168 -0.7029 -0.4829  0.1604
 8523SOL    HW237029   1.628   0.084   7.094 -0.3907  0.6978  0.9472
 8524SOL     OW37030   0.168   3.444   3.694  0.3163  1.0561  0.4084
 8524SOL    HW137031   0.153   3.397   3.777  0.1583 -0.8560 -0.7016
 8524SOL    HW237032   0.262   3.432   3.686  0.1864  0.1985  0.1983
 8525SOL     OW37033   3.013   0.038   4.121  0.2968  0.3399  0.7739
 8525SOL    HW137034   2.976   0.023   4.208  1.8959 -1.5925  1.1159
 8525SOL    HW237035   2.989   4.676   4.077 -0.6581  0.2423  1.4932
 8526SOL     OW37036   4.299   2.563   9.166 -0.0889  0.0864 -0.0029
 8526SOL    HW137037   4.332   2.474   9.149  1.5013  0.4793  0.9764
 8526SOL    HW237038   4.299   2.564   9.262  1.0933 -1.8727  0.0345
 8527SOL     OW37039   1.202   2.094  15.494  0.5469  0.2954  0.1462
 8527SOL    HW137040   1.254   2.019  15.521 -1.9137 -0.6301  2.2843
 8527SOL    HW237041   1.186   2.125  15.583  3.0888  0.6832  0.4553
 8528SOL     OW37042   0.268   1.261   7.655 -0.5233 -0.3186 -0.7118
 8528SOL    HW137043   0.338   1.291   7.596 -1.0767 -2.6413 -2.5370
 8528SOL    HW237044   0.228   1.344   7.680 -0.5309 -0.6901  0.5282
 8529SOL     OW37045   3.273   0.648   3.535  0.0061 -0.6103  0.1573
 8529SOL    HW137046   3.234   0.735   3.533 -0.6469 -0.9043 -0.1039
 8529SOL    HW237047   3.320   0.650   3.453 -0.5822 -1.6742 -0.2086
 8530SOL     OW37048   3.659   1.780  15.315 -0.2970 -0.2413 -0.1666
 8530SOL    HW137049   3.608   1.834  15.254 -1.7879 -0.6965  0.6839
 8530SOL    HW237050   3.721   1.734  15.257 -0.7298 -1.2234  0.1511
 8531SOL     OW37051   1.432   4.116   7.638  0.1109  0.0836  0.5179
 8531SOL    HW137052   1.414   4.057   7.711 -0.2127  0.4997  0.7809
 8531SOL    HW237053   1.508   4.159   7.678 -1.0626  1.0350  1.7160
 8532SOL     OW37054   0.373   2.577   0.928 -0.0847 -1.0035  0.0561
 8532SOL    HW137055   0.316   2.512   0.886  1.1554 -1.8559 -0.3010
 8532SOL    HW237056   0.456   2.552   0.888  0.4685  0.9592 -0.0245
 8533SOL     OW37057   0.771   3.567   9.592 -0.0306 -0.0108  0.3715
 8533SOL    HW137058   0.680   3.542   9.608  0.4655 -2.0118  0.0623
 8533SOL    HW237059   0.761   3.614   9.509 -1.9640  0.0784  0.6385
 8534SOL     OW37060   2.643   4.709   8.455  0.9234  0.0383  1.1286
 8534SOL    HW137061   2.724   4.679   8.498 -1.6279 -4.8280  2.5209
 8534SOL    HW237062   2.595   0.045   8.516 -2.7339 -0.3433 -1.3982
 8535SOL     OW37063   4.224   2.450   1.719 -1.1056 -0.4103  0.1819
 8535SOL    HW137064   4.270   2.379   1.764 -0.9341  1.2385  2.6259
 8535SOL    HW237065   4.205   2.512   1.789  1.1772 -2.0993  2.3090
 8536SOL     OW37066   2.989   4.575   7.173 -1.0467  0.2028 -0.3734
 8536SOL    HW137067   3.057   4.564   7.107 -0.9582 -1.1790 -0.0530
 8536SOL    HW237068   3.055   4.578   7.242  1.0960  1.8642 -2.5258
 8537SOL     OW37069   1.385   1.303   5.879 -0.3767 -0.9235  0.3231
 8537SOL    HW137070   1.417   1.275   5.965  0.2444 -0.3802  0.2660
 8537SOL    HW237071   1.296   1.325   5.908  0.1113 -2.7259  3.2039
 8538SOL     OW37072   1.530   4.539  14.322 -0.0585 -0.6698 -0.2156
 8538SOL    HW137073   1.571   4.580  14.246 -2.2216  0.1906 -0.9343
 8538SOL    HW237074   1.609   4.524  14.374  0.4088  0.6927 -0.5212
 8539SOL     OW37075   2.827   2.036   2.107  0.1903 -0.0012 -0.1689
 8539SOL    HW137076   2.731   2.040   2.106  0.3607  3.8268  1.4784
 8539SOL    HW237077   2.845   1.953   2.151 -2.2180  1.1372  2.9972
 8540SOL     OW37078   0.688   1.145   4.560 -0.2509  0.3255 -0.3491
 8540SOL    HW137079   0.701   1.162   4.654  1.4723  2.4278 -0.9644
 8540SOL    HW237080   0.775   1.164   4.525  1.7915 -6.5550  0.8547
 8541SOL     OW37081   3.567   1.375   6.765  0.5530  0.5816  0.0450
 8541SOL    HW137082   3.572   1.364   6.670 -1.8407 -0.3122  0.0136
 8541SOL    HW237083   3.649   1.334   6.791  0.5332  1.1079  0.9159
 8542SOL     OW37084   4.523   0.846   6.860  0.1719  0.4685 -0.3354
 8542SOL    HW137085   4.450   0.871   6.916  0.0776  1.2879 -0.8213
 8542SOL    HW237086   4.605   0.854   6.909 -0.9023 -0.3822  1.5983
 8543SOL     OW37087   4.374   3.547   5.091 -0.4811  0.6833  0.4499
 8543SOL    HW137088   4.408   3.565   5.179 -0.0558  2.7498 -0.1320
 8543SOL    HW237089   4.384   3.453   5.078  0.2695  0.6550  1.2055
 8544SOL     OW37090   0.749   2.770   0.928  0.2467  0.0262  0.2593
 8544SOL    HW137091   0.795   2.714   0.990  1.3461 -0.1763 -0.7442
 8544SOL    HW237092   0.739   2.854   0.973  1.2010  0.0029  0.4973
 8545SOL     OW37093   0.048   3.395   5.678  0.3621  0.3126  0.6950
 8545SOL    HW137094   0.046   3.403   5.583  0.5150  0.2408  0.6851
 8545SOL    HW237095   0.125   3.448   5.697  1.0359 -1.4229  2.8471
 8546SOL     OW37096   2.738   0.450   4.069 -0.5685  0.3668  0.0382
 8546SOL    HW137097   2.817   0.485   4.029 -1.1348  1.0053 -0.5180
 8546SOL    HW237098   2.674   0.503   4.022 -2.3371 -1.7788  0.0286
 8547SOL     OW37099   2.338   0.840   9.386  0.1701  0.2413 -0.0341
 8547SOL    HW137100   2.310   0.749   9.376 -2.2223  0.8439  1.1174
 8547SOL    HW237101   2.321   0.877   9.300  1.2356  1.1501  0.1510
 8548SOL     OW37102   3.132   0.304   6.602  0.2083  0.2093 -0.5262
 8548SOL    HW137103   3.087   0.220   6.609 -1.7062  1.3510  0.9259
 8548SOL    HW237104   3.224   0.281   6.614 -0.7019 -3.3160 -0.4111
 8549SOL     OW37105   3.692   3.089   6.008 -0.3268  0.2747 -0.2593
 8549SOL    HW137106   3.721   3.005   5.972  1.2435  2.2552 -3.5924
 8549SOL    HW237107   3.656   3.061   6.093 -2.1643  2.7712 -0.2219
 8550SOL     OW37108   2.669   2.478   2.497 -0.0648  0.2213 -0.0618
 8550SOL    HW137109   2.607   2.550   2.487  1.5303  1.4458 -1.1935
 8550SOL    HW237110   2.711   2.512   2.576 -0.3131  0.2370  0.0627
 8551SOL     OW37111   0.942   4.411   8.001  0.3051  0.1520  0.8743
 8551SOL    HW137112   0.982   4.493   8.033  1.2239 -0.0477  0.2288
 8551SOL    HW237113   1.016   4.377   7.951 -0.9843  0.3986 -1.1803
 8552SOL     OW37114   2.717   2.882   6.436 -0.2703 -0.1867 -0.4966
 8552SOL    HW137115   2.740   2.973   6.418 -3.4869  0.9852  1.4089
 8552SOL    HW237116   2.708   2.874   6.531  0.9416  1.6832 -0.2184
 8553SOL     OW37117   0.165   1.647   5.088 -0.0784 -0.2992  1.0197
 8553SOL    HW137118   0.101   1.718   5.077  0.4387  0.2202  1.3807
 8553SOL    HW237119   0.098   1.587   5.120  0.1747 -1.4234 -0.5921
 8554SOL     OW37120   2.576   2.181  10.249 -0.0712 -0.8344 -0.2499
 8554SOL    HW137121   2.630   2.260  10.245  1.3123 -1.8052 -0.8310
 8554SOL    HW237122   2.530   2.183  10.165  0.7839  0.0057 -0.7015
 8555SOL     OW37123   4.645   2.495  17.129  0.1357 -0.2219  0.1902
 8555SOL    HW137124   4.550   2.497  17.128  0.2284  4.5646  2.1841
 8555SOL    HW237125   4.658   2.431  17.199 -0.0329 -0.6317 -0.1571
 8556SOL     OW37126   2.173   3.095  11.505  0.5818  0.0945  0.0091
 8556SOL    HW137127   2.211   3.156  11.568 -1.8110  1.8579 -0.2394
 8556SOL    HW237128   2.116   3.154  11.455  0.4347  0.3917  0.5345
 8557SOL     OW37129   4.102   0.652   7.174 -0.2420  0.4652 -0.3160
 8557SOL    HW137130   4.029   0.595   7.149  1.8028 -1.6811 -1.3578
 8557SOL    HW237131   4.148   0.597   7.238  1.5327  1.4496 -0.7682
 8558SOL     OW37132   0.765   2.025  15.321  0.3346  0.3124 -0.3454
 8558SOL    HW137133   0.720   1.954  15.275  1.8388 -1.4540  0.9221
 8558SOL    HW237134   0.856   2.011  15.295  0.5830  1.7500 -0.2594
 8559SOL     OW37135   2.205   0.019   7.279 -0.4217  0.1953 -0.2638
 8559SOL    HW137136   2.253   4.686   7.214 -2.4139 -1.1791 -0.6406
 8559SOL    HW237137   2.278   0.042   7.337 -0.8223  0.8447 -0.0234
 8560SOL     OW37138   4.355   1.203   8.682 -0.1816 -0.3686 -0.4169
 8560SOL    HW137139   4.398   1.245   8.756  0.9911 -1.5600 -0.4132
 8560SOL    HW237140   4.325   1.120   8.718 -1.3167 -0.2192 -1.0389
 8561SOL     OW37141   2.595   4.619   7.201 -0.2829  0.4797  0.3858
 8561SOL    HW137142   2.672   4.664   7.168 -0.3697  0.9737  0.8583
 8561SOL    HW237143   2.621   4.527   7.200  1.1621  0.9239 -1.6902
 8562SOL     OW37144   1.120   0.529   9.805  0.2193 -0.0886 -0.0904
 8562SOL    HW137145   1.212   0.504   9.800  0.1703 -0.0843 -1.0759
 8562SOL    HW237146   1.082   0.506   9.719  0.0115  2.0378 -0.5508
 8563SOL     OW37147   3.796   3.940   6.733  0.0445 -0.2519 -0.1605
 8563SOL    HW137148   3.804   4.036   6.735  0.8614 -0.3436  0.9000
 8563SOL    HW237149   3.833   3.928   6.646  2.2382  2.3853  0.3962
 8564SOL     OW37150   3.942   2.370  14.125 -0.4537 -0.2656 -0.1847
 8564SOL    HW137151   4.003   2.323  14.181 -0.6580 -0.4193 -0.0906
 8564SOL    HW237152   3.880   2.297  14.115  0.8527 -1.4320  0.2283
 8565SOL     OW37153   3.065   0.371   3.308  0.3217  0.1564  0.0280
 8565SOL    HW137154   3.082   0.373   3.403 -0.9887  1.7146  0.2451
 8565SOL    HW237155   3.157   0.363   3.286 -0.6487  0.6919 -4.1537
 8566SOL     OW37156   0.752   0.408   6.052  0.2065  0.8298  0.1392
 8566SOL    HW137157   0.694   0.482   6.034  0.4079  1.5279  2.3785
 8566SOL    HW237158   0.817   0.417   5.983  1.8254  0.8645  1.6858
 8567SOL     OW37159   4.479   3.340   5.642  0.2884  0.0750  0.2464
 8567SOL    HW137160   4.482   3.280   5.717  1.9103 -0.5990 -0.3690
 8567SOL    HW237161   4.573   3.346   5.626  0.0994  0.4849 -0.7149
 8568SOL     OW37162   2.990   2.690  17.647 -0.3259 -0.3647 -0.1713
 8568SOL    HW137163   3.041   2.609  17.645  0.6797  0.3073 -1.1620
 8568SOL    HW237164   3.056   2.747   0.006 -0.7939  0.4267 -0.5278
 8569SOL     OW37165   2.554   1.795   0.701 -0.2899  0.2518  0.2784
 8569SOL    HW137166   2.544   1.700   0.698 -0.1426  0.2376  0.2625
 8569SOL    HW237167   2.464   1.826   0.713  0.5302  2.9292 -0.4138
 8570SOL     OW37168   2.192   2.409   7.736  0.3163  0.2056 -0.5916
 8570SOL    HW137169   2.257   2.429   7.804  2.1461 -0.2570 -2.2311
 8570SOL    HW237170   2.113   2.394   7.788  1.7130  2.0340  2.0580
 8571SOL     OW37171   4.130   4.369   9.273 -0.3179 -0.1429  0.4799
 8571SOL    HW137172   4.106   4.306   9.340  0.8715 -0.4540  0.6119
 8571SOL    HW237173   4.225   4.378   9.284  0.1096 -0.5832 -2.8357
 8572SOL     OW37174   0.878   3.222  14.781 -0.1351  0.4059  0.5692
 8572SOL    HW137175   0.845   3.132  14.774 -1.3843  0.8671  0.5388
 8572SOL    HW237176   0.813   3.273  14.734 -0.9979 -0.6388  0.6223
 8573SOL     OW37177   0.999   0.148   6.148  0.4608 -0.1912 -0.0683
 8573SOL    HW137178   0.974   0.223   6.202 -0.2246  1.6609 -2.9723
 8573SOL    HW237179   0.920   0.125   6.099 -2.0642  0.1168  3.8028
 8574SOL     OW37180   4.143   1.523   6.041 -0.7489  0.2621  0.6139
 8574SOL    HW137181   4.228   1.511   6.083 -1.6908 -0.2958  2.3694
 8574SOL    HW237182   4.115   1.614   6.056 -0.3972  0.4078  0.3826
 8575SOL     OW37183   3.594   0.611   3.369 -0.4568  0.4966  0.2234
 8575SOL    HW137184   3.568   0.561   3.446  2.6737 -1.7993 -0.2077
 8575SOL    HW237185   3.663   0.549   3.342 -1.1198  0.3876 -1.2191
 8576SOL     OW37186   3.934   4.206   8.566  0.2008  0.1766 -0.2186
 8576SOL    HW137187   3.880   4.267   8.617  1.0516 -1.4265  2.5414
 8576SOL    HW237188   4.009   4.189   8.622 -0.9011 -2.6229  0.4248
 8577SOL     OW37189   0.428   3.036   6.865  0.1397 -0.3678  0.0662
 8577SOL    HW137190   0.459   2.949   6.888  0.2867 -0.9518 -2.3354
 8577SOL    HW237191   0.383   3.020   6.782  0.5323  0.2898 -0.2717
 8578SOL     OW37192   3.418   3.957   4.839 -0.1909 -0.1074  0.0892
 8578SOL    HW137193   3.366   4.036   4.822  0.8446  0.2346 -1.4888
 8578SOL    HW237194   3.348   3.907   4.882  0.9177  0.9813  3.1034
 8579SOL     OW37195   2.040   2.289   4.385 -0.0399  0.1624 -0.2789
 8579SOL    HW137196   2.125   2.304   4.427 -0.0723  0.0161 -0.1588
 8579SOL    HW237197   2.030   2.367   4.331  1.5748  0.6621  0.1283
 8580SOL     OW37198   3.184   3.479  15.228  0.1683 -0.2670  0.2999
 8580SOL    HW137199   3.254   3.543  15.214 -0.0804 -0.1215 -0.2915
 8580SOL    HW237200   3.227   3.397  15.205  0.8006 -0.5413  2.4905
 8581SOL     OW37201   4.554   0.220   3.320 -0.3107 -0.3925  0.2604
 8581SOL    HW137202   4.600   0.241   3.239  1.2372 -0.3216  1.1417
 8581SOL    HW237203   4.613   0.152   3.354 -0.9764 -0.0339  2.1683
 8582SOL     OW37204   1.111   1.955  12.260 -0.5197  0.6328  0.1083
 8582SOL    HW137205   1.040   1.894  12.240 -0.1138  0.4996 -0.9369
 8582SOL    HW237206   1.096   2.027  12.199 -0.7989  1.1511  0.7885
 8583SOL     OW37207   3.543   0.604   0.705 -0.1901  0.4476  0.1709
 8583SOL    HW137208   3.482   0.674   0.727 -1.6273 -0.9793  0.7717
 8583SOL    HW237209   3.538   0.550   0.784 -0.4873 -1.2684 -1.0262
 8584SOL     OW37210   3.944   3.558  11.208  0.2024 -0.5026  0.4731
 8584SOL    HW137211   3.884   3.527  11.277 -1.0948  1.7710  0.3598
 8584SOL    HW237212   3.961   3.650  11.227 -0.7453 -0.2066 -0.1006
 8585SOL     OW37213   1.566   2.306   5.796  0.1360 -0.4301  0.3710
 8585SOL    HW137214   1.620   2.249   5.851 -1.3370 -2.7477 -0.6139
 8585SOL    HW237215   1.601   2.293   5.708  0.5311 -0.5723  0.5478
 8586SOL     OW37216   2.145   2.254  12.589 -0.1186 -0.6691 -0.6555
 8586SOL    HW137217   2.209   2.259  12.518  2.2997 -2.0641  1.4255
 8586SOL    HW237218   2.165   2.163  12.612  0.7973 -0.0383  1.0381
 8587SOL     OW37219   4.416   1.435   5.014 -0.0542  0.3052  0.3796
 8587SOL    HW137220   4.394   1.468   5.101 -1.1380  1.9601 -0.5152
 8587SOL    HW237221   4.393   1.509   4.956  2.2025  1.3263  0.8078
 8588SOL     OW37222   2.266   1.449   7.935 -0.1713  0.2996 -0.0255
 8588SOL    HW137223   2.174   1.424   7.930 -0.2509  0.3212  1.3012
 8588SOL    HW237224   2.303   1.374   7.980  0.3499  0.7374  0.2763
 8589SOL     OW37225   2.076   4.183   2.373  0.0893  0.2267 -0.4096
 8589SOL    HW137226   1.988   4.208   2.343 -0.0368  0.0258 -0.2087
 8589SOL    HW237227   2.128   4.251   2.331  1.2890 -2.9957 -4.1386
 8590SOL     OW37228   2.784   3.406   5.716  0.1479 -0.0641 -0.2939
 8590SOL    HW137229   2.815   3.379   5.630 -0.9685 -0.3315 -0.6049
 8590SOL    HW237230   2.864   3.406   5.770  1.4599  0.5473 -2.2490
 8591SOL     OW37231   2.125   0.984   5.701 -0.1492  0.2870  0.7804
 8591SOL    HW137232   2.098   1.005   5.790 -2.1421 -3.8112  1.1616
 8591SOL    HW237233   2.202   1.041   5.700  0.4136 -0.5237 -1.9189
 8592SOL     OW37234   2.214   1.897   8.074 -0.5037  0.6375 -0.0283
 8592SOL    HW137235   2.297   1.887   8.119 -0.3952  0.9428 -0.1628
 8592SOL    HW237236   2.178   1.812   8.048  0.5733  0.5792 -1.3187
 8593SOL     OW37237   4.645   2.710   3.730  0.4881  0.9958 -0.0230
 8593SOL    HW137238   4.660   2.728   3.823 -0.8674 -2.8861  0.9498
 8593SOL    HW237239   4.618   2.797   3.701 -0.8524  0.5039 -0.2585
 8594SOL     OW37240   2.033   0.910   4.497  0.8851  0.4185 -0.4324
 8594SOL    HW137241   1.938   0.903   4.483  0.5840  1.8499  0.7977
 8594SOL    HW237242   2.064   0.942   4.413  0.2522  0.1296 -0.7779
 8595SOL     OW37243   3.179   0.287   5.591  0.7651  0.0041  0.2083
 8595SOL    HW137244   3.195   0.346   5.664 -1.7734  1.0753 -0.1222
 8595SOL    HW237245   3.254   0.312   5.537 -0.8359  1.5166 -1.3273
 8596SOL     OW37246   2.828   4.345   7.351 -0.0107  0.4393 -0.0277
 8596SOL    HW137247   2.902   4.331   7.410  0.1300  2.6783  0.3536
 8596SOL    HW237248   2.811   4.259   7.313 -1.8641  1.2262 -0.9868
 8597SOL     OW37249   2.145   3.655   4.502 -0.0442  0.6698 -0.4258
 8597SOL    HW137250   2.170   3.722   4.439 -0.2360  1.1885  0.0471
 8597SOL    HW237251   2.085   3.710   4.552 -0.7522  1.0202 -1.6509
 8598SOL     OW37252   3.140   3.984  14.024  0.7701 -0.1372 -0.0905
 8598SOL    HW137253   3.205   3.951  14.086  0.0396  0.1022  0.8066
 8598SOL    HW237254   3.204   4.006  13.957 -2.1920  2.9081 -1.9253
 8599SOL     OW37255   0.823   2.342   4.223 -0.4238  0.4086  0.2061
 8599SOL    HW137256   0.900   2.352   4.280 -0.4194  1.5811 -0.0057
 8599SOL    HW237257   0.841   2.406   4.154  2.8287  0.8207  1.4242
 8600SOL     OW37258   0.973   2.447  15.703  0.4743  0.4720  0.5888
 8600SOL    HW137259   0.884   2.483  15.696  0.6582  0.4339 -2.0341
 8600SOL    HW237260   0.957   2.353  15.696 -2.0935  0.8998  0.7350
 8601SOL     OW37261   4.273   0.759   5.862  0.0506  0.7649 -0.0953
 8601SOL    HW137262   4.188   0.714   5.862  0.4559 -0.0020 -0.6637
 8601SOL    HW237263   4.308   0.744   5.950  2.9107 -0.7859 -1.4947
 8602SOL     OW37264   2.024   4.152   7.242 -0.3818 -0.2653 -0.6420
 8602SOL    HW137265   1.952   4.098   7.208 -0.4513 -0.0194 -0.8932
 8602SOL    HW237266   2.074   4.164   7.161  2.6462  1.7226  1.5436
 8603SOL     OW37267   4.264   0.618  12.360 -0.0333  0.2167  0.0947
 8603SOL    HW137268   4.306   0.574  12.286  1.1361 -0.0869  0.9354
 8603SOL    HW237269   4.322   0.695  12.359  0.6779 -0.3138  1.1747
 8604SOL     OW37270   2.336   3.705  17.584  0.3837  0.7518  0.5725
 8604SOL    HW137271   2.339   3.796  17.611  0.5514  0.9999 -0.2746
 8604SOL    HW237272   2.424   3.684  17.616  0.1348  0.2707  0.9369
 8605SOL     OW37273   3.299   0.543   5.173  0.4838  0.2140  0.6760
 8605SOL    HW137274   3.254   0.626   5.188  0.6909  0.8042 -1.9855
 8605SOL    HW237275   3.234   0.487   5.131 -1.0777  0.4628  2.7849
 8606SOL     OW37276   3.897   0.313   5.470  0.3389 -0.2392 -0.2170
 8606SOL    HW137277   3.906   0.332   5.377  3.5639 -1.1964 -0.0934
 8606SOL    HW237278   3.858   0.227   5.456  0.5937  0.0444 -2.7749
 8607SOL     OW37279   3.294   1.196  12.628 -0.7746 -0.3447  0.1396
 8607SOL    HW137280   3.388   1.180  12.634 -0.6219 -0.3464 -2.2631
 8607SOL    HW237281   3.267   1.124  12.570  0.6862 -0.4191 -0.4335
 8608SOL     OW37282   2.015   0.295   8.783  0.8117  0.5502 -0.1042
 8608SOL    HW137283   1.993   0.255   8.699 -1.5719 -1.9356  1.7180
 8608SOL    HW237284   1.964   0.249   8.849  1.8442 -0.8840 -0.2977
 8609SOL     OW37285   0.691   2.078   3.017 -0.4570 -0.5488 -0.0406
 8609SOL    HW137286   0.757   2.057   2.950  0.7511  0.2109  0.9037
 8609SOL    HW237287   0.620   2.099   2.957 -0.7803 -0.8724  0.2336
 8610SOL     OW37288   2.135   2.172   3.966  0.0535  0.5981  0.5928
 8610SOL    HW137289   2.170   2.148   4.052  2.4109 -2.2358 -1.1517
 8610SOL    HW237290   2.145   2.085   3.926 -2.7498  0.3650  0.4092
 8611SOL     OW37291   2.391   0.401   7.822 -0.5239  0.2217  0.1941
 8611SOL    HW137292   2.459   0.391   7.755 -2.1997 -0.7642 -1.3758
 8611SOL    HW237293   2.358   0.312   7.815 -1.2016  0.3927  1.2540
 8612SOL     OW37294   2.650   4.253   4.190 -0.4000 -0.2048  0.0098
 8612SOL    HW137295   2.578   4.256   4.127 -2.0894 -0.1224  1.9349
 8612SOL    HW237296   2.685   4.165   4.175  0.3296  0.1690 -0.4477
 8613SOL     OW37297   0.994   2.954   1.946  0.0938  0.1479 -0.3685
 8613SOL    HW137298   1.062   3.022   1.942  0.5628 -0.3172 -0.1737
 8613SOL    HW237299   0.925   3.009   1.984 -0.2832  1.1702 -2.5433
 8614SOL     OW37300   0.009   0.648   3.528  0.0932 -0.9363  0.2365
 8614SOL    HW137301   4.690   0.674   3.611  0.6496 -2.0028  0.8260
 8614SOL    HW237302   4.701   0.557   3.540 -0.1233 -0.7659  1.0351
 8615SOL     OW37303   4.227   3.878   8.140 -0.0994  0.2167  0.6908
 8615SOL    HW137304   4.171   3.831   8.078  1.0414 -0.7583  0.3962
 8615SOL    HW237305   4.259   3.811   8.201 -2.1438 -1.1716  0.2168
 8616SOL     OW37306   1.022   3.576   5.384 -0.2322 -0.1324 -0.1847
 8616SOL    HW137307   1.042   3.669   5.397  0.7570 -0.2964 -0.5287
 8616SOL    HW237308   1.084   3.550   5.452  0.5308  0.0056 -0.8359
 8617SOL     OW37309   2.972   0.979   4.709 -0.2874 -0.4681 -0.3620
 8617SOL    HW137310   2.921   0.935   4.640 -0.3649  2.7441 -2.3833
 8617SOL    HW237311   2.968   0.920   4.784  0.1732  0.4463  0.3771
 8618SOL     OW37312   3.525   4.017  12.135  0.1618 -0.0721  0.8040
 8618SOL    HW137313   3.438   4.053  12.152 -0.7046 -1.3039 -1.0480
 8618SOL    HW237314   3.572   4.071  12.198  1.1784  0.4504 -0.3979
 8619SOL     OW37315   1.769   1.740  16.972  0.4206  0.0979 -0.1529
 8619SOL    HW137316   1.778   1.825  16.929 -0.5981  0.2066 -0.1612
 8619SOL    HW237317   1.676   1.731  16.993  0.2177  3.0277  0.2341
 8620SOL     OW37318   0.713   2.876   6.829  0.2090 -0.2304  0.0367
 8620SOL    HW137319   0.678   2.900   6.915  0.7589 -0.6018  0.3574
 8620SOL    HW237320   0.722   2.966   6.798  1.2499 -0.3352  0.0366
 8621SOL     OW37321   3.317   2.260   2.263  0.0109 -0.2628 -0.1221
 8621SOL    HW137322   3.383   2.201   2.299  0.8539  0.5835 -0.2776
 8621SOL    HW237323   3.363   2.309   2.194 -1.0511  3.7290  1.9579
 8622SOL     OW37324   4.169   0.154   6.803  0.2946  0.1251  0.1455
 8622SOL    HW137325   4.209   0.146   6.890 -1.1066  1.6444  0.9300
 8622SOL    HW237326   4.216   0.231   6.772 -1.6888  0.0503 -3.0878
 8623SOL     OW37327   2.445   1.034   8.500 -0.3615 -0.5360 -0.1536
 8623SOL    HW137328   2.419   1.122   8.528 -1.8713 -0.6380 -1.2411
 8623SOL    HW237329   2.360   1.001   8.472 -0.6353 -0.2284  0.3338
 8624SOL     OW37330   2.296   1.893   4.140 -0.0381 -0.3580  0.0181
 8624SOL    HW137331   2.204   1.888   4.166 -0.1354  2.3193  0.2112
 8624SOL    HW237332   2.333   1.817   4.185  0.5883 -1.1729 -1.9026
 8625SOL     OW37333   2.884   2.814   7.537 -0.3503 -0.1198 -0.3069
 8625SOL    HW137334   2.931   2.818   7.455  2.8976 -0.7379  1.5420
 8625SOL    HW237335   2.926   2.741   7.584 -0.6673  0.9638  1.6750
 8626SOL     OW37336   3.161   2.746   6.199 -0.2240  0.1847 -0.4234
 8626SOL    HW137337   3.104   2.669   6.194 -2.2617  1.7627 -1.5625
 8626SOL    HW237338   3.093   2.813   6.206  0.0856  0.5524 -0.9438
 8627SOL     OW37339   3.886   3.647  10.917  0.1543 -0.4379  0.0549
 8627SOL    HW137340   3.882   3.560  10.879  1.0978 -0.8564  0.9052
 8627SOL    HW237341   3.883   3.625  11.010  1.3899  0.0935  0.2241
 8628SOL     OW37342   2.950   1.826  11.686  0.3994 -0.3180  0.0294
 8628SOL    HW137343   2.974   1.869  11.604  1.5558  0.4299  0.7532
 8628SOL    HW237344   2.993   1.894  11.739 -3.2566  1.4969  0.6857
 8629SOL     OW37345   3.041   0.504   2.907  0.2121  0.1239  0.0339
 8629SOL    HW137346   3.050   0.473   2.817  1.3544 -2.6460  1.1105
 8629SOL    HW237347   3.127   0.546   2.900 -0.5321  1.5208 -0.8278
 8630SOL     OW37348   1.050   1.202   5.332  0.2057  0.2192  0.5929
 8630SOL    HW137349   0.958   1.223   5.322  0.4741  1.7526  1.3554
 8630SOL    HW237350   1.089   1.265   5.272 -1.1094 -0.4282 -0.9384
 8631SOL     OW37351   2.412   1.713   2.416  0.3841 -0.2529 -0.1099
 8631SOL    HW137352   2.340   1.663   2.379 -0.2731  0.8944 -0.3782
 8631SOL    HW237353   2.403   1.677   2.504 -1.6775  0.9263  0.1686
 8632SOL     OW37354   2.573   1.890  10.147 -0.3350  0.6912 -0.5025
 8632SOL    HW137355   2.564   1.853  10.059 -1.1533 -1.8333  0.6389
 8632SOL    HW237356   2.549   1.813  10.199 -2.3900  1.9625  0.4138
 8633SOL     OW37357   3.731   3.284   8.277  0.5125 -0.7584 -0.4901
 8633SOL    HW137358   3.739   3.221   8.349 -2.5050  0.4991  0.9389
 8633SOL    HW237359   3.821   3.290   8.244  0.4091 -1.9240 -0.9890
 8634SOL     OW37360   1.389   0.535   4.509 -0.4457  0.8366  0.4069
 8634SOL    HW137361   1.304   0.578   4.521 -1.2188 -0.7214  0.4323
 8634SOL    HW237362   1.414   0.540   4.602  1.2843 -0.0159 -0.0189
 8635SOL     OW37363   1.475   0.849  13.248 -0.0476  0.0575  0.0696
 8635SOL    HW137364   1.455   0.798  13.170 -3.5479  0.4302  0.7310
 8635SOL    HW237365   1.426   0.928  13.224  2.4188  1.7169  0.4964
 8636SOL     OW37366   1.990   0.165   0.922  0.0092  0.2010  0.9166
 8636SOL    HW137367   1.982   0.117   0.840  2.3793  0.2922  0.6415
 8636SOL    HW237368   2.041   0.099   0.969  0.3485 -0.9536 -1.1155
 8637SOL     OW37369   0.681   2.436   8.070  0.3051  0.2341 -0.2929
 8637SOL    HW137370   0.752   2.497   8.049 -0.0689  0.2587 -1.5258
 8637SOL    HW237371   0.715   2.387   8.145  0.1244 -0.2167 -0.5080
 8638SOL     OW37372   1.390   2.000   9.578 -0.2446  0.0926  0.1976
 8638SOL    HW137373   1.373   2.090   9.606 -2.1248  0.6340 -2.6454
 8638SOL    HW237374   1.304   1.971   9.546  0.0582  1.3491 -1.7249
 8639SOL     OW37375   4.532   3.327   7.517 -0.0981  0.1447 -0.0991
 8639SOL    HW137376   4.574   3.295   7.437  0.3803 -1.4783  0.8052
 8639SOL    HW237377   4.603   3.320   7.580  0.3238  2.1436 -0.3582
 8640SOL     OW37378   4.043   3.488   6.834 -0.0197  0.6958 -0.3704
 8640SOL    HW137379   3.956   3.463   6.802  0.6835  0.2642 -1.9440
 8640SOL    HW237380   4.097   3.451   6.765 -1.2260 -1.4812 -0.1358
 8641SOL     OW37381   1.950   2.407   7.864  0.1708  0.2937  0.5728
 8641SOL    HW137382   1.895   2.467   7.814 -0.8546 -0.6475  0.5803
 8641SOL    HW237383   1.947   2.457   7.946  0.4212  0.9191  0.2001
 8642SOL     OW37384   3.342   3.138  14.775 -0.1856  0.6543  0.5395
 8642SOL    HW137385   3.276   3.196  14.815 -2.2891 -0.3929 -1.4219
 8642SOL    HW237386   3.408   3.121  14.842  0.1300 -0.9519 -0.1955
 8643SOL     OW37387   3.860   0.028   5.937  0.4307  0.2239  0.0754
 8643SOL    HW137388   3.942   4.707   5.910  0.7107 -0.7716  2.4478
 8643SOL    HW237389   3.868   0.022   6.032 -0.6415 -1.2505  0.0823
 8644SOL     OW37390   0.117   1.018  11.126  0.4567 -0.1210 -0.2799
 8644SOL    HW137391   0.201   1.006  11.171  0.5390  0.2596 -0.3334
 8644SOL    HW237392   0.134   1.094  11.071 -0.1220  2.4960  3.1396
 8645SOL     OW37393   4.655   4.682   7.150 -0.6749  0.2643  0.6170
 8645SOL    HW137394   4.686   4.660   7.063 -0.0316 -1.9131  1.4038
 8645SOL    HW237395   4.604   0.043   7.139 -0.0728  0.4752 -0.6223
 8646SOL     OW37396   3.055   4.524   9.415  0.5610  0.1346 -0.1848
 8646SOL    HW137397   3.045   4.590   9.485  0.9961  0.4205 -0.3856
 8646SOL    HW237398   3.141   4.546   9.377  0.7086  0.1725  0.1656
 8647SOL     OW37399   3.823   3.566   8.099 -0.1515  0.3371 -0.0251
 8647SOL    HW137400   3.734   3.540   8.076 -0.0828 -1.0643  1.2965
 8647SOL    HW237401   3.863   3.521   8.024  0.5739  0.2374  0.4240
 8648SOL     OW37402   2.482   2.286  14.798 -0.4044  0.1723 -0.1324
 8648SOL    HW137403   2.456   2.340  14.873  1.7462 -1.2567  1.6349
 8648SOL    HW237404   2.417   2.216  14.790  0.3889 -0.5985  0.1019
 8649SOL     OW37405   0.918   0.719  11.511 -0.1028 -0.1944 -0.2284
 8649SOL    HW137406   0.830   0.756  11.508 -0.1943 -0.5121 -1.7995
 8649SOL    HW237407   0.964   0.784  11.564 -1.7304  2.2423 -1.7930
 8650SOL     OW37408   0.962   1.256  13.868 -0.6796  0.4008 -0.2254
 8650SOL    HW137409   0.870   1.280  13.855 -0.6533 -0.1044 -1.3371
 8650SOL    HW237410   0.957   1.190  13.937 -1.0956 -0.5150 -1.1306
 8651SOL     OW37411   1.430   1.960   0.983 -0.1922  0.0176  0.2106
 8651SOL    HW137412   1.363   1.996   1.042 -0.8590 -1.0207  0.0914
 8651SOL    HW237413   1.387   1.981   0.900  0.5877 -2.4422 -0.8217
 8652SOL     OW37414   1.736   3.121   2.528 -0.6187  0.8669  0.2764
 8652SOL    HW137415   1.715   3.027   2.530 -0.2739  0.8469  2.7424
 8652SOL    HW237416   1.790   3.122   2.449  1.2150 -2.9206  1.4690
 8653SOL     OW37417   3.376   3.161   3.986  0.4173 -0.2243 -1.1340
 8653SOL    HW137418   3.461   3.116   3.982  0.1375 -0.7427 -1.2791
 8653SOL    HW237419   3.321   3.111   3.926  0.9056 -3.1697  0.8503
 8654SOL     OW37420   1.959   2.352  14.091 -0.0853  0.4550 -0.2150
 8654SOL    HW137421   1.906   2.412  14.039  0.6239  0.9625 -0.3544
 8654SOL    HW237422   1.906   2.274  14.107  0.0603  0.7534  1.7869
 8655SOL     OW37423   0.540   2.536   1.191 -0.0797 -0.2591  0.2450
 8655SOL    HW137424   0.468   2.504   1.136  0.6242 -1.3987  0.0010
 8655SOL    HW237425   0.550   2.463   1.252  0.5790 -0.7911 -0.4932
 8656SOL     OW37426   3.921   2.222   2.225  0.1405  0.1506 -1.0433
 8656SOL    HW137427   3.886   2.299   2.269  0.8422 -0.0528 -0.1222
 8656SOL    HW237428   3.957   2.263   2.146 -0.2175 -0.0184 -1.2921
 8657SOL     OW37429   1.507   4.537   6.979  0.0766  0.8212  0.2611
 8657SOL    HW137430   1.567   4.556   6.907 -0.6078 -2.4179 -1.1619
 8657SOL    HW237431   1.517   4.615   7.033  0.8241  0.6313  0.4085
 8658SOL     OW37432   2.978   4.600   8.057  0.4681 -0.1396 -0.4397
 8658SOL    HW137433   2.934   4.607   7.973  1.0481  0.1693 -0.7189
 8658SOL    HW237434   3.032   4.679   8.065  0.7185 -0.4089  0.5452
 8659SOL     OW37435   1.337   1.313   6.185 -0.5385  0.0115 -0.2241
 8659SOL    HW137436   1.425   1.351   6.193 -0.3048 -0.9012  1.4150
 8659SOL    HW237437   1.312   1.311   6.277  2.4447 -1.6211  0.5512
 8660SOL     OW37438   3.041   0.931  17.584  0.1570  0.0952  0.4034
 8660SOL    HW137439   3.005   0.998  17.643  0.7166  1.1361 -0.4350
 8660SOL    HW237440   3.011   0.844  17.610 -0.1875  0.1603  0.2275
 8661SOL     OW37441   0.828   2.578   2.217 -0.1902  0.3559  0.4834
 8661SOL    HW137442   0.843   2.517   2.145  3.1154  0.8862  0.7013
 8661SOL    HW237443   0.893   2.645   2.194 -0.1309  0.3405  0.6030
 8662SOL     OW37444   1.571   1.054   8.763  0.2025  0.9726 -0.2341
 8662SOL    HW137445   1.553   1.067   8.856  0.2779 -0.8282  0.0205
 8662SOL    HW237446   1.590   0.960   8.768  1.4242  1.2361  0.1960
 8663SOL     OW37447   0.333   2.846   8.612  0.6407 -0.9458 -0.3840
 8663SOL    HW137448   0.238   2.850   8.600  0.7467 -0.9558 -1.2355
 8663SOL    HW237449   0.349   2.799   8.694  0.8876 -1.2982 -0.6378
 8664SOL     OW37450   1.679   2.443   0.375  0.1755  0.7993  0.2009
 8664SOL    HW137451   1.584   2.443   0.367  0.2151  1.4507 -0.3400
 8664SOL    HW237452   1.694   2.513   0.438  0.6330  0.0347  0.9295
 8665SOL     OW37453   4.120   0.638  14.803  0.3378 -0.4039 -0.8434
 8665SOL    HW137454   4.050   0.689  14.762  1.9644  2.3831 -0.1728
 8665SOL    HW237455   4.090   0.550  14.779 -0.5058 -0.4157  0.2930
 8666SOL     OW37456   3.305   0.286   4.730  0.4353 -0.1163 -0.1170
 8666SOL    HW137457   3.234   0.349   4.742 -0.6362 -1.4182  0.3705
 8666SOL    HW237458   3.264   0.204   4.701  1.9779 -1.3197  1.1027
 8667SOL     OW37459   0.017   1.028   1.959 -0.0809 -0.2878  0.0458
 8667SOL    HW137460   4.670   1.097   1.964  0.0963 -0.0995 -0.2587
 8667SOL    HW237461   0.095   1.056   2.006 -0.5067  0.9293  0.0423
 8668SOL     OW37462   3.671   1.334   3.793 -0.6993  0.4580  0.4781
 8668SOL    HW137463   3.611   1.260   3.802 -0.9750  0.2848 -2.9116
 8668SOL    HW237464   3.697   1.322   3.702 -0.2740  1.8555  0.4020
 8669SOL     OW37465   1.733   4.099  11.466 -0.1949  0.5116 -0.2373
 8669SOL    HW137466   1.775   4.013  11.474  0.4522  0.7785 -0.7817
 8669SOL    HW237467   1.665   4.103  11.533 -2.5700  0.8181 -2.6471
 8670SOL     OW37468   1.524   1.229   6.609  0.1615  0.0595  0.0692
 8670SOL    HW137469   1.441   1.248   6.653  0.6006 -0.0380  0.9364
 8670SOL    HW237470   1.502   1.158   6.548  0.7682 -0.8473  0.9068
 8671SOL     OW37471   0.291   0.355  15.471  0.0527  0.3114 -0.3962
 8671SOL    HW137472   0.272   0.338  15.379  1.5415  1.7273 -0.9638
 8671SOL    HW237473   0.266   0.447  15.469  1.9280  0.8178  0.2703
 8672SOL     OW37474   3.370   3.231  15.598  0.5135 -0.0134 -0.6758
 8672SOL    HW137475   3.306   3.210  15.666  1.4134 -0.9856 -0.1459
 8672SOL    HW237476   3.323   3.298  15.547 -0.7700  0.4476  1.1083
 8673SOL     OW37477   2.281   2.156   2.484  0.3985  0.3993  0.2557
 8673SOL    HW137478   2.311   2.087   2.426 -1.1566  2.3389 -2.8690
 8673SOL    HW237479   2.362   2.171   2.533  0.6800 -1.8170  0.4761
 8674SOL     OW37480   1.947   0.077   7.229 -0.6862  0.0757 -0.1111
 8674SOL    HW137481   1.920   4.705   7.217  0.9175 -0.4064 -0.0699
 8674SOL    HW237482   2.041   0.066   7.213  0.0188  3.7722  1.5845
 8675SOL     OW37483   3.374   3.825  12.483 -0.4963 -0.1523 -0.7105
 8675SOL    HW137484   3.417   3.775  12.413  2.2467  0.9724  0.1494
 8675SOL    HW237485   3.437   3.894  12.503  0.7555 -2.1822  2.4029
 8676SOL     OW37486   1.124   3.965  13.780 -0.0243  0.2016 -0.1039
 8676SOL    HW137487   1.139   4.059  13.773 -0.7464  0.2454 -1.0226
 8676SOL    HW237488   1.071   3.965  13.860  0.5586  0.1393  0.2834
 8677SOL     OW37489   3.761   4.545   4.616  0.7850 -0.1668  0.3157
 8677SOL    HW137490   3.690   4.481   4.621  0.4159  0.2785  0.8387
 8677SOL    HW237491   3.843   4.497   4.601  0.5018 -0.4708 -0.2661
 8678SOL     OW37492   4.210   2.886  14.616  0.2890 -0.0133  0.7275
 8678SOL    HW137493   4.219   2.981  14.614  2.1392 -0.2728 -2.8713
 8678SOL    HW237494   4.188   2.859  14.705 -3.5885 -1.2865 -0.5869
 8679SOL     OW37495   3.700   0.109   9.281  0.1934  0.5337  0.1071
 8679SOL    HW137496   3.688   0.198   9.247  0.6527  0.9041  0.8890
 8679SOL    HW237497   3.619   0.089   9.327 -0.3050  2.4081  0.0508
 8680SOL     OW37498   3.116   3.184   6.679 -0.7917 -0.0519  0.3061
 8680SOL    HW137499   3.087   3.103   6.637  1.7149  1.4079 -4.1979
 8680SOL    HW237500   3.208   3.163   6.695 -0.7811 -1.2238 -1.3678
 8681SOL     OW37501   3.616   0.086  16.220  0.1640  0.4546  0.0389
 8681SOL    HW137502   3.559   0.127  16.285 -0.2493 -0.6862  0.4021
 8681SOL    HW237503   3.612   0.156  16.154 -0.8105 -0.4829 -0.9123
 8682SOL     OW37504   4.430   0.541   4.765 -0.3052 -0.2112  0.3791
 8682SOL    HW137505   4.391   0.527   4.679 -2.6472  2.6319  0.9521
 8682SOL    HW237506   4.457   0.631   4.749 -0.7105 -0.2398 -0.4704
 8683SOL     OW37507   4.015   4.389   4.544  0.1156  0.1870 -0.5550
 8683SOL    HW137508   4.006   4.336   4.624  1.5015 -0.8895 -1.1072
 8683SOL    HW237509   4.079   4.450   4.579 -0.2015  0.8876 -1.2143
 8684SOL     OW37510   3.552   0.099  11.923  0.2786  0.2007  0.4922
 8684SOL    HW137511   3.466   0.121  11.958  0.4903  0.7422  0.6738
 8684SOL    HW237512   3.606   0.169  11.959 -1.4138  0.1283  3.1223
 8685SOL     OW37513   3.400   0.159   6.529  0.6832 -0.1030 -0.4017
 8685SOL    HW137514   3.465   0.229   6.534 -1.6192  1.8963  1.3001
 8685SOL    HW237515   3.416   0.127   6.440 -0.7808 -0.8012 -0.4091
 8686SOL     OW37516   0.263   3.197   2.028 -0.4571  1.0478  0.5179
 8686SOL    HW137517   0.288   3.107   2.009 -3.2812 -0.1768  2.7115
 8686SOL    HW237518   0.189   3.207   1.969 -0.8268 -1.7684  0.5282
 8687SOL     OW37519   3.913   2.383   3.266 -0.3008 -0.2204 -0.0348
 8687SOL    HW137520   3.968   2.347   3.196 -1.7201 -3.7153  0.6397
 8687SOL    HW237521   3.854   2.307   3.274  1.4185 -1.5222  0.2068
 8688SOL     OW37522   1.387   0.721   8.265 -0.3014 -0.2430  0.8457
 8688SOL    HW137523   1.372   0.690   8.354  0.7787 -0.0254  1.0967
 8688SOL    HW237524   1.479   0.745   8.272  0.4269 -2.3959 -1.2342
 8689SOL     OW37525   3.411   4.274   2.413  0.2353 -0.1616  0.0176
 8689SOL    HW137526   3.410   4.368   2.395 -0.6153 -0.4880 -1.6953
 8689SOL    HW237527   3.506   4.259   2.414  0.3443  0.4230 -1.0234
 8690SOL     OW37528   1.430   2.069   8.300 -0.0728  0.3809  0.4650
 8690SOL    HW137529   1.490   2.042   8.230  1.6414  0.5089  1.8762
 8690SOL    HW237530   1.470   2.015   8.368 -0.6380 -0.6988 -0.0606
 8691SOL     OW37531   1.733   1.334   7.902  0.1725  0.2628  0.5894
 8691SOL    HW137532   1.760   1.406   7.958 -0.5575  2.2087 -1.5484
 8691SOL    HW237533   1.640   1.337   7.924  0.2408  0.8166  0.8090
 8692SOL     OW37534   1.418   0.413  13.344 -0.3400 -0.1192  0.3683
 8692SOL    HW137535   1.421   0.324  13.308 -0.8654 -0.3082  0.7899
 8692SOL    HW237536   1.327   0.423  13.373 -0.0560  0.4046  1.0724
 8693SOL     OW37537   1.894   2.907   6.159  0.3314  0.4652 -0.6386
 8693SOL    HW137538   1.884   2.821   6.200  0.5281  1.2302  1.0183
 8693SOL    HW237539   1.847   2.914   6.075  1.0822  0.6185 -1.0415
 8694SOL     OW37540   4.234   2.118   1.006  0.0701 -0.6113  0.0065
 8694SOL    HW137541   4.318   2.163   0.995 -0.1853 -0.1764 -0.1511
 8694SOL    HW237542   4.228   2.067   0.926 -1.4405 -0.4938  0.0407
 8695SOL     OW37543   1.027   3.844   5.156 -0.2105  0.2476 -0.6756
 8695SOL    HW137544   1.066   3.779   5.097 -1.9593 -1.2098 -0.2374
 8695SOL    HW237545   0.940   3.846   5.117 -0.0124  3.7535 -0.9474
 8696SOL     OW37546   2.656   3.731   3.469  0.0792 -0.4141 -0.3054
 8696SOL    HW137547   2.673   3.815   3.427  1.3322 -0.2695  0.4810
 8696SOL    HW237548   2.696   3.750   3.554 -0.4298 -1.2696  0.1248
 8697SOL     OW37549   3.611   1.006   8.810 -0.1356 -0.1044  0.1287
 8697SOL    HW137550   3.653   1.048   8.735 -0.0535  1.5044  1.0734
 8697SOL    HW237551   3.524   1.045   8.818  0.3826  1.0221  0.2551
 8698SOL     OW37552   1.511   3.085   2.303 -0.3428  0.6279  0.5969
 8698SOL    HW137553   1.603   3.092   2.325 -0.2765 -2.6745  1.3755
 8698SOL    HW237554   1.513   3.087   2.207  0.9681 -0.4920  0.5988
 8699SOL     OW37555   1.184   0.463   9.219  0.0882 -0.4464 -0.6017
 8699SOL    HW137556   1.273   0.498   9.224 -0.9411  1.7991  2.0221
 8699SOL    HW237557   1.174   0.437   9.310  2.4831  0.2638 -0.1433
 8700SOL     OW37558   0.821   0.168  14.157  0.6722 -0.1244 -0.2718
 8700SOL    HW137559   0.845   0.118  14.080  0.7044  1.0427 -1.0276
 8700SOL    HW237560   0.875   0.246  14.143 -1.4378  1.2947 -0.5257
 8701SOL     OW37561   0.200   0.347   2.757  0.4119  0.4119  0.1522
 8701SOL    HW137562   0.250   0.280   2.804 -2.1669 -0.8100  1.1238
 8701SOL    HW237563   0.202   0.302   2.672 -1.2439  0.2784  0.1858
 8702SOL     OW37564   2.393   0.619   8.229 -0.1730  0.0194 -0.3604
 8702SOL    HW137565   2.347   0.681   8.285  2.4775  1.0408  0.6365
 8702SOL    HW237566   2.336   0.626   8.152  1.5511  3.2509 -1.3089
 8703SOL     OW37567   3.707   1.873   4.439  0.1493  0.2616 -0.0142
 8703SOL    HW137568   3.695   1.938   4.508  2.1619  0.0640  0.5395
 8703SOL    HW237569   3.731   1.937   4.372 -0.0535 -0.0196 -0.3538
 8704SOL     OW37570   0.297   1.123   3.492  0.0262 -0.2370  0.2036
 8704SOL    HW137571   0.257   1.036   3.497 -1.5806  0.5205  0.5966
 8704SOL    HW237572   0.391   1.115   3.512  0.1419 -0.5064 -0.4704
 8705SOL     OW37573   0.101   0.876  13.026 -0.3159  0.0344  0.3116
 8705SOL    HW137574   0.137   0.943  13.085 -0.9464 -0.3707  1.1637
 8705SOL    HW237575   0.176   0.836  12.983 -0.9339 -1.4913  0.6683
 8706SOL     OW37576   1.168   1.462   4.026 -0.2754 -0.0086  0.1733
 8706SOL    HW137577   1.172   1.556   4.010 -0.9755  0.2516  1.5627
 8706SOL    HW237578   1.137   1.457   4.116 -0.1075 -0.9353  0.1798
 8707SOL     OW37579   3.177   2.352   1.956 -0.1094 -0.1488 -0.0048
 8707SOL    HW137580   3.264   2.317   1.975 -1.0228 -0.5624  3.3587
 8707SOL    HW237581   3.124   2.319   2.028 -0.1085  0.9678  0.5089
 8708SOL     OW37582   3.831   1.874   5.506 -0.0600 -0.4647 -0.4922
 8708SOL    HW137583   3.786   1.870   5.421 -0.0023  1.7646 -0.6317
 8708SOL    HW237584   3.758   1.880   5.568  2.0821 -1.9996  2.1463
 8709SOL     OW37585   2.779   4.598   5.321  0.2310 -0.3454  0.1193
 8709SOL    HW137586   2.754   4.685   5.352 -0.4586 -0.4023 -0.2668
 8709SOL    HW237587   2.799   4.547   5.400 -0.9122  0.2477  0.8028
 8710SOL     OW37588   2.646   0.190  17.042  1.1441 -0.0022 -0.1093
 8710SOL    HW137589   2.700   0.124  17.000 -0.4752 -1.2085 -0.2891
 8710SOL    HW237590   2.562   0.193  16.997  1.1574 -1.7801 -0.2347
 8711SOL     OW37591   2.923   3.712   9.052 -0.2392  0.7017 -0.6736
 8711SOL    HW137592   3.010   3.688   9.019  0.4982  0.1812  1.6533
 8711SOL    HW237593   2.865   3.641   9.026 -1.7159  1.8482 -0.4816
 8712SOL     OW37594   1.514   3.447   7.558  0.0932  0.0332 -0.1197
 8712SOL    HW137595   1.503   3.477   7.468 -1.8760 -0.5649 -0.0687
 8712SOL    HW237596   1.438   3.389   7.556  1.3228 -1.4650 -3.1159
 8713SOL     OW37597   2.869   1.603   7.407  0.2347  0.1320  0.0603
 8713SOL    HW137598   2.845   1.523   7.453  0.3572 -0.4525 -0.8826
 8713SOL    HW237599   2.789   1.620   7.357 -0.4999  0.1381  1.2361
 8714SOL     OW37600   2.176   2.896   7.408 -0.3791 -0.0172 -0.2790
 8714SOL    HW137601   2.156   2.805   7.391 -0.4875  0.0886 -0.7246
 8714SOL    HW237602   2.270   2.879   7.415 -0.8063 -1.6147  1.3250
 8715SOL     OW37603   2.675   2.829   8.760 -0.3811  0.1001  0.5227
 8715SOL    HW137604   2.634   2.786   8.686 -0.2460 -1.8962  1.6112
 8715SOL    HW237605   2.766   2.838   8.732  0.1814 -4.3028  0.9763
 8716SOL     OW37606   4.331   3.585  11.602 -0.2771  0.0844  0.4906
 8716SOL    HW137607   4.327   3.525  11.676 -1.4774 -0.2024  0.1971
 8716SOL    HW237608   4.425   3.601  11.605 -0.2311 -0.0828 -0.1513
 8717SOL     OW37609   1.189   2.701   6.941  0.2646  0.0624 -0.1825
 8717SOL    HW137610   1.112   2.747   6.974  0.0772  2.0698 -3.3350
 8717SOL    HW237611   1.151   2.649   6.870 -0.7543 -1.3464  1.4148
 8718SOL     OW37612   0.037   4.094   2.619 -0.2550  0.1060 -0.2060
 8718SOL    HW137613   4.663   4.105   2.638 -0.1239  1.2277 -0.2156
 8718SOL    HW237614   0.058   4.162   2.555  2.9189  0.5434  1.3029
 8719SOL     OW37615   2.192   3.931   5.404 -0.2639  0.2863 -0.5346
 8719SOL    HW137616   2.229   3.845   5.424  3.9196  1.6614 -2.5086
 8719SOL    HW237617   2.159   3.948   5.492 -1.8582 -2.9739 -0.4885
 8720SOL     OW37618   3.280   1.242   7.971 -0.8019  0.3896  0.1329
 8720SOL    HW137619   3.198   1.194   7.980 -1.5058  1.3442 -1.3314
 8720SOL    HW237620   3.337   1.189   8.028 -0.8408  2.1744  1.8143
 8721SOL     OW37621   0.144   0.050   8.989 -0.1413 -0.4502 -0.2843
 8721SOL    HW137622   0.070   4.711   9.005 -0.4108 -0.3954 -1.3447
 8721SOL    HW237623   0.165   0.035   8.897  0.3621  0.8881 -0.3852
 8722SOL     OW37624   4.460   2.808   3.155 -0.3432 -0.3025  0.2845
 8722SOL    HW137625   4.518   2.835   3.226  0.2300 -0.5522 -0.0982
 8722SOL    HW237626   4.393   2.876   3.168  0.1753 -0.0268  1.5077
 8723SOL     OW37627   2.439   0.263   7.150 -0.3023 -0.1263 -0.1647
 8723SOL    HW137628   2.494   0.258   7.228 -1.0523 -0.5027  0.3370
 8723SOL    HW237629   2.470   0.344   7.109 -3.5073  0.4233 -1.5048
 8724SOL     OW37630   1.631   0.895   4.924  1.3477 -0.6420  0.1706
 8724SOL    HW137631   1.666   0.983   4.910  0.0484 -0.1865 -0.2036
 8724SOL    HW237632   1.623   0.859   4.835  1.0019  0.9519 -0.4518
 8725SOL     OW37633   2.739   4.128   4.499 -0.5292  0.5935  0.4007
 8725SOL    HW137634   2.823   4.152   4.539  0.0237 -1.6936  0.6052
 8725SOL    HW237635   2.679   4.183   4.549  0.3107  1.4620  0.4507
 8726SOL     OW37636   0.211   3.530   0.976 -0.1461  0.3051  0.1267
 8726SOL    HW137637   0.280   3.482   1.021  0.1521 -0.3087 -0.9845
 8726SOL    HW237638   0.163   3.452   0.949  2.1926 -1.2517  0.5069
 8727SOL     OW37639   4.326   3.050   4.033  0.1607  0.0448 -0.2579
 8727SOL    HW137640   4.334   3.120   3.969  0.0270 -1.1863 -1.6331
 8727SOL    HW237641   4.266   3.084   4.099 -1.1925 -0.5841 -1.1618
 8728SOL     OW37642   1.223   4.502   7.539  0.2987  0.1915  0.2047
 8728SOL    HW137643   1.180   4.418   7.556 -1.3615  0.6968 -1.5360
 8728SOL    HW237644   1.147   4.549   7.504 -0.3512 -1.8912 -1.2479
 8729SOL     OW37645   4.000   0.442   3.619 -0.3622 -0.0731 -0.0897
 8729SOL    HW137646   3.926   0.439   3.679  0.0454 -0.4838  0.3918
 8729SOL    HW237647   4.046   0.515   3.658  1.0922 -1.9113  1.6458
 8730SOL     OW37648   1.541   3.854   7.146 -0.6308 -0.6490  0.5375
 8730SOL    HW137649   1.508   3.819   7.063 -0.1765 -0.2695  0.1975
 8730SOL    HW237650   1.492   3.934   7.167 -0.7875 -0.0176 -2.2548
 8731SOL     OW37651   0.363   3.867   2.820  0.0130  0.1612  0.3317
 8731SOL    HW137652   0.318   3.951   2.829 -0.5978 -0.0058 -1.1537
 8731SOL    HW237653   0.452   3.901   2.825  0.0397  0.4030 -1.6106
 8732SOL     OW37654   4.245   3.436  11.844  0.2851 -0.4388  0.0246
 8732SOL    HW137655   4.285   3.417  11.929  0.2097  2.9442  0.8142
 8732SOL    HW237656   4.207   3.352  11.817  0.0069 -0.6671  1.1284
 8733SOL     OW37657   4.493   1.720   6.631 -0.2471  0.1284  0.0437
 8733SOL    HW137658   4.506   1.626   6.616  0.9303  0.5346 -1.4989
 8733SOL    HW237659   4.452   1.710   6.717  1.1883 -1.8001  0.5096
 8734SOL     OW37660   3.248   2.380   4.686  0.0769 -0.0848  0.0679
 8734SOL    HW137661   3.259   2.351   4.595  2.3315 -2.4959  1.1129
 8734SOL    HW237662   3.152   2.385   4.687  0.2088  2.2253 -0.4980
 8735SOL     OW37663   0.697   0.792   7.512 -0.0895  0.2210  0.1599
 8735SOL    HW137664   0.714   0.704   7.546 -1.1991 -0.4903 -1.1644
 8735SOL    HW237665   0.602   0.794   7.523 -0.2361  1.6180 -1.4967
 8736SOL     OW37666   3.934   1.287   2.752  1.1093  0.1090  0.6350
 8736SOL    HW137667   3.974   1.324   2.673  1.1140  0.4655  0.8087
 8736SOL    HW237668   3.983   1.353   2.801  1.1341  0.0517  0.6873
 8737SOL     OW37669   0.070   4.477   3.405  0.2416 -0.5205  0.2251
 8737SOL    HW137670   0.028   4.410   3.459 -1.7330  0.8637  0.3889
 8737SOL    HW237671   0.114   4.432   3.332  0.7971 -1.0643  0.8934
 8738SOL     OW37672   1.023   2.516   6.681  0.3484 -0.1256 -0.0980
 8738SOL    HW137673   1.066   2.441   6.723  0.0921 -0.3013 -0.1488
 8738SOL    HW237674   0.948   2.531   6.737 -1.3365  0.8382 -2.5959
 8739SOL     OW37675   3.339   0.038   6.778 -0.3941 -0.7269 -0.0410
 8739SOL    HW137676   3.342   0.068   6.688 -2.2467  1.3241  0.5952
 8739SOL    HW237677   3.325   0.123   6.821 -0.1211 -1.6783  1.9589
 8740SOL     OW37678   0.087   2.699   8.980  0.8514  0.2303 -0.0803
 8740SOL    HW137679   0.038   2.776   8.951  1.6805  2.1072  3.4760
 8740SOL    HW237680   0.013   2.645   9.007  0.8245  0.0299 -0.5695
 8741SOL     OW37681   2.034   0.889   2.347 -0.0613 -0.3755 -0.5466
 8741SOL    HW137682   1.973   0.953   2.386  1.2647  1.3185 -1.2478
 8741SOL    HW237683   1.979   0.811   2.357  0.1541 -0.4246  0.2071
 8742SOL     OW37684   2.828   3.883   4.522 -0.5880  0.0336  0.5021
 8742SOL    HW137685   2.784   3.961   4.488  0.6345 -0.0767 -1.3132
 8742SOL    HW237686   2.802   3.891   4.614  0.0261 -0.1880  0.6971
 8743SOL     OW37687   4.047   0.921   3.892 -0.1023 -0.0987  0.0492
 8743SOL    HW137688   3.989   0.948   3.964  1.5763 -0.0510  1.3689
 8743SOL    HW237689   4.111   0.992   3.901  0.8473 -0.9619  0.0368
 8744SOL     OW37690   4.298   3.882   2.578  0.0176 -0.1671  0.6011
 8744SOL    HW137691   4.255   3.858   2.660  0.0913 -0.0364  0.6779
 8744SOL    HW237692   4.232   3.937   2.537  0.5502  0.4013  0.5060
 8745SOL     OW37693   2.623   3.878   8.757 -0.4157 -0.7924  1.0448
 8745SOL    HW137694   2.718   3.887   8.759 -0.1971 -2.7276 -0.7603
 8745SOL    HW237695   2.611   3.784   8.749 -1.0281 -0.7688  1.6567
 8746SOL     OW37696   3.205   3.833   3.059  0.4135 -0.1481  0.0528
 8746SOL    HW137697   3.109   3.836   3.051  0.6393  1.5934 -1.9995
 8746SOL    HW237698   3.230   3.881   2.980 -1.1817 -1.5610 -1.3041
 8747SOL     OW37699   1.212   2.758   6.641 -0.5274  0.4401 -0.0345
 8747SOL    HW137700   1.201   2.787   6.550 -2.3853 -1.0571 -0.2833
 8747SOL    HW237701   1.161   2.677   6.642 -1.8342  1.2588  0.4957
 8748SOL     OW37702   3.319   4.013  16.033 -0.0580  0.0137 -0.0286
 8748SOL    HW137703   3.391   4.004  15.971  0.4176 -0.5800  0.6090
 8748SOL    HW237704   3.297   3.922  16.051 -1.4319 -0.1159 -2.5156
 8749SOL     OW37705   0.484   0.279   5.142  0.1069 -0.0093  0.3234
 8749SOL    HW137706   0.418   0.346   5.124  0.6679  0.4092 -0.1478
 8749SOL    HW237707   0.514   0.301   5.230 -0.6587  1.7502  0.1372
 8750SOL     OW37708   3.409   4.629   5.659  0.2374 -0.3033 -0.0709
 8750SOL    HW137709   3.368   4.554   5.702 -1.2707  0.1650 -0.6829
 8750SOL    HW237710   3.479   4.643   5.722 -2.4051 -0.1609  2.7971
 8751SOL     OW37711   4.316   3.718  17.282 -0.7688 -0.0517 -0.2596
 8751SOL    HW137712   4.255   3.645  17.289 -1.0960  0.2038 -0.4446
 8751SOL    HW237713   4.389   3.679  17.330 -0.5071  1.7736  0.8220
 8752SOL     OW37714   4.349   3.030   5.127 -0.6615 -0.3019  0.3310
 8752SOL    HW137715   4.420   3.001   5.070 -0.4171  0.7974  0.0649
 8752SOL    HW237716   4.321   3.110   5.083  0.0540 -0.3456 -0.2129
 8753SOL     OW37717   2.784   0.645  11.893 -0.5134 -0.4596  0.2351
 8753SOL    HW137718   2.803   0.737  11.912  1.8395 -0.9537  0.2835
 8753SOL    HW237719   2.794   0.651  11.798  0.6906  0.4452  0.4186
 8754SOL     OW37720   3.026   0.768   5.198 -0.0729  0.3823 -0.0394
 8754SOL    HW137721   2.931   0.779   5.195 -0.0846 -0.1239 -1.5751
 8754SOL    HW237722   3.033   0.694   5.259 -3.1726  0.7999  0.7993
 8755SOL     OW37723   0.045   1.194  13.259  0.2516 -0.3335 -0.4661
 8755SOL    HW137724   4.710   1.262  13.219 -0.2325 -1.0009 -0.9476
 8755SOL    HW237725   0.122   1.198  13.203  0.2468 -1.3121 -0.5316
 8756SOL     OW37726   3.773   4.346   3.754  0.1127  0.0422  0.6499
 8756SOL    HW137727   3.740   4.426   3.713  0.1995 -0.7329 -0.9635
 8756SOL    HW237728   3.854   4.337   3.703  0.7913  2.3403  1.3011
 8757SOL     OW37729   3.324   1.041  11.387 -0.2363 -0.4105  0.0034
 8757SOL    HW137730   3.335   1.127  11.346 -2.4036  0.8848  2.1470
 8757SOL    HW237731   3.369   1.057  11.469 -1.5775 -3.1599  1.2733
 8758SOL     OW37732   4.073   1.929   9.188 -0.2051 -0.0008 -0.2391
 8758SOL    HW137733   4.081   1.841   9.225 -0.4024  0.3111  0.5468
 8758SOL    HW237734   4.165   1.944   9.170 -0.3048  0.9750  0.0522
 8759SOL     OW37735   1.390   4.073   7.215 -0.1037 -0.0865 -0.2780
 8759SOL    HW137736   1.417   4.162   7.193 -0.2860 -0.4301 -1.9314
 8759SOL    HW237737   1.442   4.063   7.295  0.1796 -1.8412 -0.6787
 8760SOL     OW37738   1.439   0.268  14.945 -0.5538 -0.6213  0.3545
 8760SOL    HW137739   1.378   0.339  14.963  1.5985  1.4403 -0.5222
 8760SOL    HW237740   1.450   0.218  15.026  1.3683  2.6608  2.1232
 8761SOL     OW37741   2.872   2.523   9.745  0.7722 -0.0383  0.1814
 8761SOL    HW137742   2.853   2.445   9.797  2.4143 -0.8499 -0.4366
 8761SOL    HW237743   2.833   2.594   9.795 -0.0066  0.8621 -1.6758
 8762SOL     OW37744   4.418   2.731   2.323  0.3422 -0.8865  0.3885
 8762SOL    HW137745   4.474   2.799   2.285 -0.2293  0.0022  1.1447
 8762SOL    HW237746   4.475   2.710   2.397  1.2311  1.1593  0.2963
 8763SOL     OW37747   1.978   4.321   7.723  0.3700 -0.1401  0.0612
 8763SOL    HW137748   2.032   4.399   7.710 -1.3129  1.5361  2.8996
 8763SOL    HW237749   1.902   4.351   7.674 -0.3464  1.8274  2.3456
 8764SOL     OW37750   0.255   0.685   4.092 -0.8043 -0.5003  0.0828
 8764SOL    HW137751   0.210   0.769   4.088 -0.9409 -0.5597  0.4041
 8764SOL    HW237752   0.319   0.698   4.162  0.9952 -0.3946 -1.5854
 8765SOL     OW37753   1.415   1.855   2.114 -0.2218 -0.4822  0.1136
 8765SOL    HW137754   1.409   1.760   2.106 -0.2913 -0.5393  0.8543
 8765SOL    HW237755   1.394   1.861   2.207 -1.6219 -0.4662 -0.1998
 8766SOL     OW37756   4.456   2.759   0.109 -0.8164  0.1488  0.2020
 8766SOL    HW137757   4.551   2.757   0.102 -1.0640  0.0519 -3.2093
 8766SOL    HW237758   4.442   2.718   0.023 -0.7359  0.0714  0.2254
 8767SOL     OW37759   1.542   3.350   8.232  0.1386 -0.3515 -0.3814
 8767SOL    HW137760   1.554   3.444   8.247 -0.9942  0.0910 -2.3278
 8767SOL    HW237761   1.571   3.304   8.311 -0.4588 -0.5819 -0.2941
 8768SOL     OW37762   1.141   2.814   4.406 -0.0894 -0.1663 -0.4462
 8768SOL    HW137763   1.072   2.775   4.352  1.0115 -0.8910 -1.3422
 8768SOL    HW237764   1.190   2.842   4.328  0.8181 -1.1122 -0.2129
 8769SOL     OW37765   1.375   3.466  14.159  0.2632 -0.5583 -0.1285
 8769SOL    HW137766   1.450   3.453  14.217  0.2448 -0.2205 -0.0333
 8769SOL    HW237767   1.322   3.392  14.190  0.1364 -0.2573  0.3678
 8770SOL     OW37768   2.996   1.194   3.060 -0.0077  0.5021 -0.2297
 8770SOL    HW137769   2.939   1.243   3.000 -3.1005 -1.5852  0.9896
 8770SOL    HW237770   3.074   1.192   3.004  0.1797 -1.0657  0.0693
 8771SOL     OW37771   1.512   0.036   5.345 -0.2646 -0.1383 -0.5192
 8771SOL    HW137772   1.452   4.684   5.326 -0.3777 -0.6904  1.8429
 8771SOL    HW237773   1.458   0.075   5.413  0.5343 -0.0330  0.0618
 8772SOL     OW37774   4.073   4.279   2.799 -0.8537  0.2562  0.4206
 8772SOL    HW137775   4.088   4.320   2.713 -0.5253 -0.1122  0.3051
 8772SOL    HW237776   4.002   4.329   2.839 -1.5748 -0.0668 -0.4713
 8773SOL     OW37777   0.286   2.378   3.040 -0.0757  0.1435 -0.1419
 8773SOL    HW137778   0.376   2.409   3.028  0.0794 -0.1423  0.2968
 8773SOL    HW237779   0.247   2.431   2.971  3.9928  1.2117 -1.5727
 8774SOL     OW37780   3.030   2.757  11.980 -0.0629  0.2558  0.2052
 8774SOL    HW137781   3.097   2.758  12.048  2.1156  1.0437 -1.9794
 8774SOL    HW237782   3.063   2.814  11.911 -1.7112 -1.6082 -2.0954
 8775SOL     OW37783   2.253   1.714   1.365 -0.3274  0.7446  0.1064
 8775SOL    HW137784   2.170   1.676   1.392 -1.4167  2.7624 -0.4063
 8775SOL    HW237785   2.311   1.639   1.377  1.4113  2.0521 -0.0652
 8776SOL     OW37786   1.372   3.220   6.729 -0.3906 -0.3555  0.0352
 8776SOL    HW137787   1.374   3.128   6.753 -0.5467 -0.2351  0.5143
 8776SOL    HW237788   1.449   3.248   6.778  1.1176  0.7557 -2.9422
 8777SOL     OW37789   4.556   1.706   8.931  0.1570  0.4913 -0.6609
 8777SOL    HW137790   4.648   1.688   8.916 -0.6038 -3.0810 -0.9846
 8777SOL    HW237791   4.523   1.684   8.844  1.3859 -0.4614 -0.8751
 8778SOL     OW37792   3.933   2.404   1.193  0.1132 -0.1442  0.2695
 8778SOL    HW137793   3.851   2.355   1.185 -0.4449  0.4477  2.2134
 8778SOL    HW237794   3.903   2.478   1.246 -0.1756  0.7452 -1.1337
 8779SOL     OW37795   4.359   1.894   5.128  0.1949  0.0545 -0.0942
 8779SOL    HW137796   4.380   1.848   5.209 -0.5878  0.6966  0.4596
 8779SOL    HW237797   4.279   1.946   5.137 -0.3937 -0.4890 -2.1672
 8780SOL     OW37798   2.206   4.055   8.649  0.4447  0.0133  0.2361
 8780SOL    HW137799   2.299   4.032   8.649  0.2545 -0.7244  0.8586
 8780SOL    HW237800   2.204   4.149   8.670 -1.4841  0.1572 -0.5736
 8781SOL     OW37801   2.994   2.365  12.603 -0.0131  1.0450 -0.0007
 8781SOL    HW137802   2.929   2.300  12.580  2.0539 -0.8781 -0.3799
 8781SOL    HW237803   2.999   2.360  12.699 -1.9908  0.8270  0.0934
 8782SOL     OW37804   0.830   3.584  16.961  0.0156 -0.1307  0.0032
 8782SOL    HW137805   0.767   3.517  16.934  0.3274 -0.4897  0.1660
 8782SOL    HW237806   0.813   3.587  17.055 -0.3307  0.9609 -0.0986
 8783SOL     OW37807   3.606   3.104   2.916  0.4171  0.1419 -0.2623
 8783SOL    HW137808   3.587   3.074   2.827  0.5049 -1.0598  0.1331
 8783SOL    HW237809   3.516   3.089   2.946  0.4048  1.3623  0.3217
 8784SOL     OW37810   4.265   0.588  13.389  0.7212 -0.5074 -0.3795
 8784SOL    HW137811   4.343   0.620  13.346 -0.7001  0.3074 -2.3490
 8784SOL    HW237812   4.301   0.597  13.477  1.6750  1.7302 -1.0053
 8785SOL     OW37813   3.725   2.322   4.329  0.3760  0.0346 -0.1417
 8785SOL    HW137814   3.672   2.397   4.301 -0.8721 -0.4005  1.0790
 8785SOL    HW237815   3.699   2.302   4.418 -2.3234  0.1769 -0.9154
 8786SOL     OW37816   3.387   2.740   4.606  0.0370  0.4934  0.0258
 8786SOL    HW137817   3.453   2.776   4.547 -3.8073  1.5963 -3.5838
 8786SOL    HW237818   3.381   2.650   4.575 -2.9860  0.8716 -0.4679
 8787SOL     OW37819   3.479   3.160   0.558 -0.7201 -0.0150  0.5337
 8787SOL    HW137820   3.393   3.168   0.599  0.7420  0.8100  3.4363
 8787SOL    HW237821   3.470   3.071   0.524  1.4987  0.5857 -1.5758
 8788SOL     OW37822   2.458   3.164   4.509  0.1142 -0.3891 -0.0284
 8788SOL    HW137823   2.550   3.179   4.488 -0.0112  0.6906  0.2036
 8788SOL    HW237824   2.427   3.141   4.421  1.0379 -1.1662 -0.1487
 8789SOL     OW37825   1.613   3.022  12.780 -0.0953 -0.0735 -0.0036
 8789SOL    HW137826   1.667   3.097  12.753 -0.4581  0.0962 -0.2673
 8789SOL    HW237827   1.682   2.957  12.782 -1.8071 -1.8538  1.3406
 8790SOL     OW37828   2.389   3.255   3.623  0.3781  0.2378 -0.0916
 8790SOL    HW137829   2.328   3.197   3.578  0.6012  1.4725 -2.0109
 8790SOL    HW237830   2.361   3.234   3.712  1.4836 -1.3771 -0.1299
 8791SOL     OW37831   1.205   1.926   8.218 -0.1184  0.5546  0.5703
 8791SOL    HW137832   1.273   1.987   8.248 -1.0890  2.1332 -0.4370
 8791SOL    HW237833   1.153   1.914   8.297  0.2485 -0.0558  0.7218
 8792SOL     OW37834   4.389   1.718   6.884  0.0647 -0.4830  0.3923
 8792SOL    HW137835   4.339   1.796   6.858 -0.3888 -1.2965 -1.1832
 8792SOL    HW237836   4.322   1.657   6.916 -1.3680  1.4616  1.1540
 8793SOL     OW37837   2.132   3.675   8.555 -0.4818  0.3346 -0.1910
 8793SOL    HW137838   2.088   3.603   8.511 -0.5591 -0.1741  0.7299
 8793SOL    HW237839   2.101   3.752   8.507  0.4554  0.3920 -0.7005
 8794SOL     OW37840   2.419   0.061   8.613  0.5033 -0.1067  0.0615
 8794SOL    HW137841   2.397   0.030   8.525 -1.1077  0.3989  0.2850
 8794SOL    HW237842   2.351   0.023   8.669  0.2918  1.6452  0.9946
 8795SOL     OW37843   2.414   1.093   0.787 -0.1602 -0.2508 -0.2583
 8795SOL    HW137844   2.366   1.022   0.828  0.7260 -1.1800 -0.8232
 8795SOL    HW237845   2.412   1.076   0.692 -1.1503 -0.1460 -0.2496
 8796SOL     OW37846   0.511   1.493   3.800 -0.2739  0.1513 -0.1424
 8796SOL    HW137847   0.535   1.548   3.874  2.2533  0.5147 -1.2251
 8796SOL    HW237848   0.551   1.413   3.833 -0.8021  0.2697  0.7608
 8797SOL     OW37849   1.495   0.902   7.914  0.2078 -0.3272  0.0839
 8797SOL    HW137850   1.468   0.942   7.831 -2.2077 -2.1233 -0.0157
 8797SOL    HW237851   1.450   0.954   7.980  2.7359  1.3377  0.4767
 8798SOL     OW37852   2.716   2.211  13.212 -0.3522 -0.2027  0.6143
 8798SOL    HW137853   2.745   2.224  13.122 -2.0061 -1.6663 -0.1348
 8798SOL    HW237854   2.800   2.237  13.250 -0.0513 -3.0517  1.8529
 8799SOL     OW37855   2.193   0.134   3.067 -0.5227 -0.7197 -0.4500
 8799SOL    HW137856   2.287   0.150   3.060 -0.1494 -2.2666  0.9354
 8799SOL    HW237857   2.197   0.048   3.024 -3.2861 -1.6205  1.1005
 8800SOL     OW37858   4.015   3.299   8.168  1.2411  0.0712 -0.4247
 8800SOL    HW137859   4.101   3.264   8.194  1.2563  0.6482  0.3143
 8800SOL    HW237860   4.008   3.247   8.088 -0.0632 -1.2972  0.6150
 8801SOL     OW37861   2.850   0.560  15.442 -0.2270 -0.4489 -0.1818
 8801SOL    HW137862   2.801   0.502  15.500 -0.4547 -1.6180 -1.5657
 8801SOL    HW237863   2.779   0.625  15.448 -0.5377 -0.8478  0.4990
 8802SOL     OW37864   3.650   2.927   1.456  0.9265 -0.3473 -0.2876
 8802SOL    HW137865   3.620   3.014   1.485  0.2530 -0.6790  0.0056
 8802SOL    HW237866   3.728   2.953   1.407  0.1844 -0.8983 -1.7586
 8803SOL     OW37867   3.607   0.327   6.996 -0.2013  0.1816  0.0798
 8803SOL    HW137868   3.589   0.383   7.072 -1.7713  1.2802 -1.0910
 8803SOL    HW237869   3.663   0.387   6.947  0.7466 -0.5300  0.2979
 8804SOL     OW37870   4.438   1.862   9.507  0.3110 -0.5937 -0.1539
 8804SOL    HW137871   4.370   1.886   9.443  1.2243  0.8758 -0.5737
 8804SOL    HW237872   4.387   1.878   9.586  0.8467  0.3642  0.0025
 8805SOL     OW37873   3.836   0.474   3.878 -0.0804 -0.1809 -0.3585
 8805SOL    HW137874   3.808   0.554   3.921 -1.8586 -0.6696 -0.6404
 8805SOL    HW237875   3.784   0.407   3.922  0.7564  0.1473  1.1360
 8806SOL     OW37876   0.092   0.642   1.368 -0.2548  0.1531 -0.0895
 8806SOL    HW137877   0.129   0.730   1.364  1.3211 -0.6003 -2.4485
 8806SOL    HW237878   0.028   0.649   1.439 -0.0221 -1.2555  0.2589
 8807SOL     OW37879   1.237   3.731  12.577 -0.5059  0.1261 -0.3121
 8807SOL    HW137880   1.166   3.782  12.618  1.1360  0.3604  2.2778
 8807SOL    HW237881   1.226   3.765  12.489  0.8499  3.6825  0.8992
 8808SOL     OW37882   4.128   0.892  13.757  0.1181  0.6959 -0.8441
 8808SOL    HW137883   4.040   0.928  13.748 -0.8041 -1.4568 -0.3621
 8808SOL    HW237884   4.090   0.810  13.788 -1.6095  0.3805 -3.7721
 8809SOL     OW37885   1.558   1.796   6.431  0.3065  0.1556 -0.1459
 8809SOL    HW137886   1.508   1.736   6.376 -0.5326  0.7729 -0.0624
 8809SOL    HW237887   1.643   1.764   6.401 -0.2700 -0.7920 -0.7485
 8810SOL     OW37888   1.499   2.749   6.722 -0.7802  0.4942 -0.0995
 8810SOL    HW137889   1.544   2.729   6.640  0.4082 -1.4916  1.0218
 8810SOL    HW237890   1.415   2.728   6.681 -1.4379  0.2105  1.4175
 8811SOL     OW37891   3.138   1.752   6.271  0.2743 -0.2276 -0.2107
 8811SOL    HW137892   3.212   1.707   6.230  0.1472 -3.0825  2.6290
 8811SOL    HW237893   3.177   1.768   6.357 -0.8576 -0.4269  0.3409
 8812SOL     OW37894   1.262   4.222   9.390 -0.4108  1.0622 -0.1139
 8812SOL    HW137895   1.316   4.270   9.327  1.1864 -1.5124 -0.6777
 8812SOL    HW237896   1.232   4.144   9.342  4.8397 -0.2485 -1.2035
 8813SOL     OW37897   2.578   3.733   5.096 -0.5006  0.1949  0.2180
 8813SOL    HW137898   2.617   3.763   5.014  1.6844 -3.2496 -0.0095
 8813SOL    HW237899   2.485   3.754   5.094 -0.5492 -0.2439 -2.2019
 8814SOL     OW37900   0.977   4.010   7.769  0.1347  0.2262  0.4728
 8814SOL    HW137901   1.037   3.940   7.795  1.7943  1.0460 -1.1589
 8814SOL    HW237902   0.962   3.982   7.679  1.2843  2.1158 -0.2958
 8815SOL     OW37903   1.067   3.453   4.845  0.0892 -0.0716 -0.4810
 8815SOL    HW137904   0.981   3.451   4.887 -0.0992  2.8889 -0.7479
 8815SOL    HW237905   1.045   3.487   4.758  1.3630  0.0848 -0.7432
 8816SOL     OW37906   2.587   0.635   5.840  0.7116 -0.4180 -0.5533
 8816SOL    HW137907   2.678   0.650   5.814 -0.2964  1.6773 -2.8233
 8816SOL    HW237908   2.547   0.567   5.786  0.3444  0.6741 -1.6533
 8817SOL     OW37909   2.869   1.815  10.120  0.0804  0.2451  0.4853
 8817SOL    HW137910   2.898   1.810  10.029 -0.8957  1.0453  0.1345
 8817SOL    HW237911   2.869   1.719  10.129  1.0997  0.0469 -1.7204
 8818SOL     OW37912   2.214   3.501   7.963 -0.0947  0.2093 -0.6053
 8818SOL    HW137913   2.182   3.570   8.022  0.5504 -0.2318  0.2644
 8818SOL    HW237914   2.132   3.470   7.925 -0.6859 -0.3350  1.0786
 8819SOL     OW37915   3.440   3.226   7.517 -1.0435 -0.1358  0.0944
 8819SOL    HW137916   3.365   3.285   7.525 -0.2887  0.7921  0.3410
 8819SOL    HW237917   3.404   3.139   7.496 -1.2441  0.4169 -1.8326
 8820SOL     OW37918   1.131   3.216   6.450  0.2364 -0.0316 -0.9856
 8820SOL    HW137919   1.200   3.282   6.445 -0.9326  1.0202 -3.6309
 8820SOL    HW237920   1.104   3.201   6.540 -0.1798  1.1403 -0.9145
 8821SOL     OW37921   4.181   4.533   5.376  0.2478  0.5309 -0.4781
 8821SOL    HW137922   4.195   4.605   5.438 -1.7838 -0.4231  1.0985
 8821SOL    HW237923   4.090   4.559   5.360  0.1388  0.9293  0.7602
 8822SOL     OW37924   3.639   3.330   5.967  0.2962 -0.0445  0.1410
 8822SOL    HW137925   3.661   3.238   5.979  3.4603  0.8184  0.8351
 8822SOL    HW237926   3.722   3.349   5.924 -1.2479  2.7729 -1.6707
 8823SOL     OW37927   0.839   2.428   5.002 -0.3804  0.2399  0.3800
 8823SOL    HW137928   0.788   2.392   4.931 -0.0987 -1.8123  1.2281
 8823SOL    HW237929   0.899   2.489   4.958  0.2195  1.9366  3.4994
 8824SOL     OW37930   1.935   3.905  11.478 -0.5174  0.6747 -0.4781
 8824SOL    HW137931   1.950   3.911  11.384 -1.1428  1.5477 -0.5247
 8824SOL    HW237932   1.902   3.816  11.490 -0.2097  1.0397  3.0448
 8825SOL     OW37933   2.274   1.695   0.007 -0.9756  0.0240  0.3866
 8825SOL    HW137934   2.210   1.675   0.075  0.2298  0.6753  1.7264
 8825SOL    HW237935   2.256   1.787  17.669 -0.4134  0.4807  2.0556
 8826SOL     OW37936   0.909   0.995   2.814  0.1545 -0.5296  0.2859
 8826SOL    HW137937   0.837   1.012   2.753  0.2389  0.2186  0.3931
 8826SOL    HW237938   0.874   0.920   2.863 -1.3876  0.9911  1.5188
 8827SOL     OW37939   0.244   2.764   6.105 -0.1044  0.7541  0.2788
 8827SOL    HW137940   0.189   2.686   6.104  0.8598  0.0671  0.7975
 8827SOL    HW237941   0.222   2.798   6.192  1.8945 -0.1600  1.1533
 8828SOL     OW37942   1.168   3.896   4.467  0.0806 -0.0345 -0.0443
 8828SOL    HW137943   1.254   3.920   4.432  1.2684 -3.5641  0.3975
 8828SOL    HW237944   1.128   3.981   4.484  1.6595  0.7285 -0.1888
 8829SOL     OW37945   2.167   4.388   0.957 -0.1869 -0.4259  0.3722
 8829SOL    HW137946   2.089   4.380   0.902 -0.6202  2.4947  0.5764
 8829SOL    HW237947   2.137   4.321   1.018  0.5275  1.0559  2.3163
 8830SOL     OW37948   3.306   2.490   3.162  0.1152 -0.0325  0.4453
 8830SOL    HW137949   3.358   2.570   3.153 -0.6124  0.6450  2.2972
 8830SOL    HW237950   3.381   2.431   3.150  0.3500  0.3592 -0.0109
 8831SOL     OW37951   4.504   2.814  12.913  0.0868 -0.4949  0.4666
 8831SOL    HW137952   4.539   2.781  12.996 -1.5875  1.9941  2.1787
 8831SOL    HW237953   4.573   2.779  12.857  1.1443  2.6470 -0.2225
 8832SOL     OW37954   4.022   1.575  12.670  0.1046  0.3652 -0.1382
 8832SOL    HW137955   4.000   1.509  12.736  3.6514  2.0951  2.8395
 8832SOL    HW237956   3.995   1.526  12.593  1.4549 -0.8744  0.1735
 8833SOL     OW37957   2.667   1.422   8.355  0.1593  0.1934  1.0333
 8833SOL    HW137958   2.614   1.426   8.275  0.0779  0.7384  1.1155
 8833SOL    HW237959   2.701   1.333   8.345  0.4315  0.1729  2.2075
 8834SOL     OW37960   3.104   0.711   9.746 -0.1906 -0.6163 -0.4725
 8834SOL    HW137961   3.094   0.711   9.651  2.3209 -0.7731 -0.7542
 8834SOL    HW237962   3.194   0.678   9.743 -0.0690 -0.4543  1.3983
 8835SOL     OW37963   2.183   2.368   3.099 -0.9306 -0.2747  0.0274
 8835SOL    HW137964   2.226   2.411   3.026 -0.4425 -0.8817 -0.0438
 8835SOL    HW237965   2.148   2.449   3.135 -0.3472  0.1262 -0.3160
 8836SOL     OW37966   4.090   0.359   9.151  0.1628  0.1102 -1.0781
 8836SOL    HW137967   4.001   0.362   9.116 -0.4995 -0.1649  0.6000
 8836SOL    HW237968   4.110   0.273   9.189  2.5053  0.7058 -0.9300
 8837SOL     OW37969   1.786   1.815   7.313  0.0075 -0.3610 -0.0936
 8837SOL    HW137970   1.775   1.882   7.245 -1.9035  1.0512  1.6108
 8837SOL    HW237971   1.793   1.734   7.263 -1.1787 -2.0189  2.4452
 8838SOL     OW37972   2.965   0.551   7.956 -0.0865  0.4474  0.1227
 8838SOL    HW137973   2.966   0.587   8.045 -0.4794  0.4275  0.1358
 8838SOL    HW237974   3.028   0.479   7.966  0.0068  0.6516  0.9981
 8839SOL     OW37975   1.172   0.570  13.122 -0.0171 -0.0938  0.4533
 8839SOL    HW137976   1.140   0.505  13.059  1.1051 -0.0729 -0.1549
 8839SOL    HW237977   1.198   0.519  13.199  2.5353  0.3808 -0.0897
 8840SOL     OW37978   2.245   1.917   4.893  0.5645 -0.5669 -0.2996
 8840SOL    HW137979   2.206   1.913   4.805  0.3575 -1.3762 -0.1730
 8840SOL    HW237980   2.173   1.885   4.948  0.2626 -3.5227 -2.4135
 8841SOL     OW37981   1.104   3.712   6.715 -0.1933  0.4006  0.2723
 8841SOL    HW137982   1.114   3.680   6.625 -0.6229  0.4083  0.2186
 8841SOL    HW237983   1.138   3.640   6.767 -1.6683  0.0523  0.7610
 8842SOL     OW37984   0.344   0.033  17.074  0.0195  0.3932 -0.0797
 8842SOL    HW137985   0.363   4.714  16.988 -0.8884  1.8929 -0.9469
 8842SOL    HW237986   0.322   4.671  17.120 -2.5597  0.4523 -1.2302
 8843SOL     OW37987   3.280   1.234   9.990 -0.0286 -0.0191  0.0463
 8843SOL    HW137988   3.186   1.218   9.986 -0.1301  0.5470  0.1960
 8843SOL    HW237989   3.298   1.160  10.049 -0.1752  0.0515  0.1777
 8844SOL     OW37990   2.398   1.163  10.354  0.0540 -0.1266 -0.2371
 8844SOL    HW137991   2.371   1.084  10.307  1.4177 -0.5088 -0.3751
 8844SOL    HW237992   2.399   1.126  10.442 -0.5199 -2.3884 -1.1791
 8845SOL     OW37993   4.033   3.579   1.294 -0.3169 -0.1673  0.5799
 8845SOL    HW137994   4.106   3.633   1.263  0.0863 -1.6644 -1.0142
 8845SOL    HW237995   4.034   3.593   1.389 -1.1894 -0.3201  0.6168
 8846SOL     OW37996   0.382   4.430   9.855  0.6088 -0.3614  0.4251
 8846SOL    HW137997   0.465   4.457   9.894  0.9602  0.2898 -0.7695
 8846SOL    HW237998   0.349   4.359   9.911 -3.5355 -0.4513 -2.1135
 8847SOL     OW37999   2.192   2.644   7.377  0.3570 -0.2553  0.5092
 8847SOL    HW138000   2.268   2.592   7.400 -0.5341 -1.1508  1.4748
 8847SOL    HW238001   2.117   2.587   7.394  0.9361 -1.9671 -2.9035
 8848SOL     OW38002   4.408   4.403  10.878 -0.2221  0.6616  0.3087
 8848SOL    HW138003   4.316   4.410  10.851 -0.7521 -1.9011  1.4593
 8848SOL    HW238004   4.454   4.397  10.794  1.2160  0.9749  1.0675
 8849SOL     OW38005   3.128   4.066   7.679 -0.0180  0.9317 -0.7975
 8849SOL    HW138006   3.117   4.028   7.766 -0.1097  2.8588  0.0458
 8849SOL    HW238007   3.085   3.994   7.633  0.5565 -0.3161  0.6284
 8850SOL     OW38008   2.232   2.816   2.013  0.5501  0.5154 -0.2955
 8850SOL    HW138009   2.324   2.843   2.010  0.3273  1.3296  0.0250
 8850SOL    HW238010   2.239   2.737   1.959  0.6393  1.3243 -1.4838
 8851SOL     OW38011   0.868   2.191   4.578 -0.4014 -0.0008  0.3913
 8851SOL    HW138012   0.803   2.206   4.509  3.0117 -1.7301 -3.2338
 8851SOL    HW238013   0.817   2.122   4.621  0.0925  0.6495  2.0048
 8852SOL     OW38014   0.967   2.153   6.582  0.2980  0.6531 -0.2228
 8852SOL    HW138015   0.937   2.079   6.635 -3.6022  3.1082  0.9574
 8852SOL    HW238016   0.881   2.191   6.564  0.4641  0.9944 -0.2994
 8853SOL     OW38017   0.818   4.686  16.229  0.4262  0.9960 -0.0417
 8853SOL    HW138018   0.828   4.593  16.250  0.2573  0.5807 -1.7817
 8853SOL    HW238019   0.909   4.714  16.234  0.8168  0.0645 -1.8005
 8854SOL     OW38020   3.827   3.103   6.270 -0.1600  0.2733 -0.3547
 8854SOL    HW138021   3.917   3.070   6.263  0.1506  1.2955 -1.3197
 8854SOL    HW238022   3.814   3.149   6.187  1.0958 -0.5369 -1.0006
 8855SOL     OW38023   4.561   2.370   2.449 -0.0078  0.0532  0.3416
 8855SOL    HW138024   4.471   2.356   2.420  0.3647  0.4281 -0.9930
 8855SOL    HW238025   4.544   2.349   2.541 -2.0842  1.3466  0.2490
 8856SOL     OW38026   0.874   1.840  11.008 -0.4169 -0.3870  0.1930
 8856SOL    HW138027   0.928   1.770  10.972  3.2043  0.9408  3.0188
 8856SOL    HW238028   0.870   1.829  11.103  1.4144 -0.0979  0.3051
 8857SOL     OW38029   0.467   1.464   3.005 -0.6516 -0.0279 -0.2207
 8857SOL    HW138030   0.419   1.520   3.066 -0.0888  0.8398 -0.5699
 8857SOL    HW238031   0.416   1.476   2.925 -1.1119  1.0889  0.2336
 8858SOL     OW38032   0.436   0.067   6.532  0.8944  0.7316  0.4246
 8858SOL    HW138033   0.507   0.080   6.596  0.2254 -0.4576  1.4167
 8858SOL    HW238034   0.375   0.013   6.583 -1.1004  2.0814 -0.5495
 8859SOL     OW38035   1.120   0.579   2.505  0.0651 -0.3835  0.0936
 8859SOL    HW138036   1.118   0.581   2.600 -0.3561 -0.3155  0.0831
 8859SOL    HW238037   1.160   0.496   2.480  0.5822  0.2062 -1.0526
 8860SOL     OW38038   2.182   0.524   6.393 -0.5023 -0.0444  0.8055
 8860SOL    HW138039   2.137   0.455   6.344  0.8304 -1.4773  1.6007
 8860SOL    HW238040   2.192   0.497   6.484  0.0959  0.8808  1.0177
 8861SOL     OW38041   3.295   2.878   8.540 -0.0448 -0.3223 -0.0575
 8861SOL    HW138042   3.304   2.791   8.500 -1.2550  0.0046 -1.0630
 8861SOL    HW238043   3.276   2.862   8.633 -1.2519 -2.6316 -0.6990
 8862SOL     OW38044   2.618   3.556   0.982  0.4286  0.2043 -0.1317
 8862SOL    HW138045   2.616   3.646   1.016 -1.5976  0.7077 -1.5313
 8862SOL    HW238046   2.563   3.549   0.903 -0.0305 -0.3355  0.2332
 8863SOL     OW38047   2.781   3.725   6.337  0.2363  0.0830 -0.6672
 8863SOL    HW138048   2.755   3.792   6.400  0.2507  0.9328 -1.5604
 8863SOL    HW238049   2.794   3.649   6.394 -0.1502  1.6894  1.5624
 8864SOL     OW38050   0.833   2.011   5.107  0.4829 -0.3531 -0.6892
 8864SOL    HW138051   0.765   2.018   5.174 -0.4236  0.2685 -1.6584
 8864SOL    HW238052   0.907   1.989   5.163  0.6732 -0.4698 -0.9880
 8865SOL     OW38053   2.256   4.656   8.434 -0.1293 -0.7880  0.2845
 8865SOL    HW138054   2.176   4.619   8.399 -0.4556 -1.2353  1.5124
 8865SOL    HW238055   2.320   4.613   8.377  0.1033 -0.7056  0.4796
 8866SOL     OW38056   1.471   0.490  16.196  0.1986 -0.3094 -0.3029
 8866SOL    HW138057   1.498   0.459  16.283  0.7586  1.1510  0.0522
 8866SOL    HW238058   1.557   0.511  16.159  0.1120  1.8187  0.7290
 8867SOL     OW38059   1.084   0.143  11.187  0.1015 -0.2598 -0.4243
 8867SOL    HW138060   1.128   0.074  11.237 -0.0663  0.9864  1.4718
 8867SOL    HW238061   0.997   0.106  11.201  1.3080 -2.8694  0.1326
 8868SOL     OW38062   2.351   2.627   0.553  0.0990 -0.1661  0.4293
 8868SOL    HW138063   2.429   2.589   0.593  1.0981 -0.3509 -1.7319
 8868SOL    HW238064   2.342   2.569   0.478  2.4995 -1.3505  1.0393
 8869SOL     OW38065   0.629   2.965  10.757 -0.7302  0.0482 -0.3739
 8869SOL    HW138066   0.663   2.889  10.710  3.6032  0.3045  2.3395
 8869SOL    HW238067   0.620   3.032  10.690  0.0010  0.6979  0.1753
 8870SOL     OW38068   1.701   4.296   6.870  0.5933  0.6039 -0.3107
 8870SOL    HW138069   1.663   4.369   6.820  1.1141 -0.0267 -1.6384
 8870SOL    HW238070   1.656   4.216   6.843 -0.1396  1.5205 -1.7886
 8871SOL     OW38071   3.444   2.468   4.458  0.5079  0.0266  0.6368
 8871SOL    HW138072   3.451   2.525   4.382  3.4620 -0.4185  0.5802
 8871SOL    HW238073   3.381   2.406   4.420  1.9941 -2.1650  1.7203
 8872SOL     OW38074   0.098   3.983   8.547 -0.5219  0.2091  0.1073
 8872SOL    HW138075   0.033   3.922   8.582 -0.4636  0.5211  0.7747
 8872SOL    HW238076   0.167   3.962   8.610  0.4466  2.3386 -0.2276
 8873SOL     OW38077   2.805   2.961   4.374  0.1803  0.3943 -0.5980
 8873SOL    HW138078   2.894   2.961   4.339  0.2998  0.2723 -0.2921
 8873SOL    HW238079   2.797   2.873   4.410 -0.5041  0.6502 -0.1219
 8874SOL     OW38080   1.563   2.170   1.555  0.0749  0.1137 -0.3478
 8874SOL    HW138081   1.527   2.162   1.643  0.6942  1.7020  0.0495
 8874SOL    HW238082   1.556   2.264   1.538 -1.2067 -0.2328 -1.7272
 8875SOL     OW38083   0.696   4.145  12.114  0.1212 -0.2817 -0.0314
 8875SOL    HW138084   0.655   4.156  12.199 -1.7471  0.7890 -1.0645
 8875SOL    HW238085   0.621   4.112  12.063  0.7164  0.2345 -1.2485
 8876SOL     OW38086   3.133   4.601   0.196  0.1013  0.5810 -0.5316
 8876SOL    HW138087   3.137   4.697   0.203  2.2675  0.5849 -1.5546
 8876SOL    HW238088   3.194   4.566   0.261  2.2433  1.8352 -1.8517
 8877SOL     OW38089   2.829   2.190   4.297 -0.4640 -0.0262 -0.4963
 8877SOL    HW138090   2.774   2.113   4.285 -0.5220 -0.1015  0.3088
 8877SOL    HW238091   2.897   2.160   4.357  0.5682  2.4732 -0.4129
 8878SOL     OW38092   0.922   3.583   1.070 -0.5736 -0.2532 -0.4620
 8878SOL    HW138093   0.969   3.526   1.131  0.7430  2.4583  1.0539
 8878SOL    HW238094   0.881   3.643   1.133  1.7086 -0.4615  1.2174
 8879SOL     OW38095   4.308   2.754   7.853  0.5422  0.0664  0.7607
 8879SOL    HW138096   4.279   2.731   7.765 -1.1748  0.5989  1.1827
 8879SOL    HW238097   4.354   2.676   7.884  0.3721 -1.7147 -3.5063
 8880SOL     OW38098   1.654   3.292   5.113  0.3648  0.1986 -0.0165
 8880SOL    HW138099   1.623   3.225   5.173  0.3807  0.0153 -0.2161
 8880SOL    HW238100   1.575   3.334   5.078  1.5523  2.5990  0.1590
 8881SOL     OW38101   0.800   1.377   2.897 -0.2071 -0.6197 -0.1634
 8881SOL    HW138102   0.751   1.409   2.973  2.4987  2.7469  0.1666
 8881SOL    HW238103   0.871   1.327   2.937  0.2430 -0.1927 -0.4220
 8882SOL     OW38104   3.245   1.972  13.381  0.4126  0.2026 -0.1683
 8882SOL    HW138105   3.186   2.011  13.317  0.3565 -0.1766 -0.3496
 8882SOL    HW238106   3.315   1.945  13.321 -0.2352 -1.1596 -0.3203
 8883SOL     OW38107   1.965   4.681   4.287  0.3744  0.1237  0.1364
 8883SOL    HW138108   2.027   4.685   4.359  0.2081  1.5650  0.2079
 8883SOL    HW238109   2.034   4.669   4.222  0.9890  1.4975  0.5301
 8884SOL     OW38110   1.471   2.543   5.654  0.1245 -0.1451  0.5396
 8884SOL    HW138111   1.554   2.568   5.611 -0.0887  0.6121  0.5575
 8884SOL    HW238112   1.483   2.457   5.693  0.2572  0.3126  1.4973
 8885SOL     OW38113   1.920   2.513   8.122 -0.1271  0.7709 -0.2481
 8885SOL    HW138114   1.959   2.430   8.151  0.7859  1.0969 -0.5397
 8885SOL    HW238115   1.999   2.566   8.114  0.4788 -0.0144  0.4232
 8886SOL     OW38116   3.673   0.340   9.117 -0.1043 -0.2567  0.3245
 8886SOL    HW138117   3.701   0.415   9.170  3.4539 -0.6390 -0.9878
 8886SOL    HW238118   3.713   0.373   9.036 -0.7148  1.3166  0.6688
 8887SOL     OW38119   2.362   3.354   9.524  0.3588  0.0779 -0.0081
 8887SOL    HW138120   2.295   3.374   9.590  2.9078  2.4518  1.8686
 8887SOL    HW238121   2.376   3.439   9.483 -1.8588  0.3998 -0.0875
 8888SOL     OW38122   1.782   2.073   8.461  0.9799  0.3601 -1.0044
 8888SOL    HW138123   1.709   2.012   8.449  0.4273  1.1106 -1.4366
 8888SOL    HW238124   1.854   2.030   8.414 -0.9690 -0.2364 -3.4480
 8889SOL     OW38125   2.140   2.662   3.182  0.5922 -0.2028  0.1159
 8889SOL    HW138126   2.213   2.722   3.190  1.5914 -1.5072  0.8558
 8889SOL    HW238127   2.061   2.716   3.190 -0.6140 -1.8564 -0.6073
 8890SOL     OW38128   4.609   0.913   1.239  0.0402  0.4298 -0.6632
 8890SOL    HW138129   4.548   0.839   1.229  1.5462 -0.9813  0.4525
 8890SOL    HW238130   4.568   0.983   1.289  0.4672 -0.7930  1.4308
 8891SOL     OW38131   2.532   2.638   8.611 -0.3121 -0.0812 -0.0950
 8891SOL    HW138132   2.509   2.562   8.558  2.5825  0.7732 -2.5605
 8891SOL    HW238133   2.546   2.592   8.694 -1.0034 -2.4916 -1.3166
 8892SOL     OW38134   2.763   1.989  10.415  0.0483  0.2508 -0.1300
 8892SOL    HW138135   2.674   1.983  10.451  0.0929 -1.5529 -0.3092
 8892SOL    HW238136   2.798   2.037  10.490 -1.4392  2.1849 -0.6726
 8893SOL     OW38137   1.428   1.713  10.955 -0.6891  0.2425  0.9536
 8893SOL    HW138138   1.422   1.618  10.948  1.7032  0.1513  0.2036
 8893SOL    HW238139   1.510   1.736  10.998 -0.1652 -0.6894  0.4332
 8894SOL     OW38140   4.026   1.779   3.265  0.1929 -0.2928  0.1321
 8894SOL    HW138141   4.056   1.862   3.226  1.5962 -0.3417  1.0726
 8894SOL    HW238142   4.088   1.721   3.222 -0.0374  0.2417 -0.9000
 8895SOL     OW38143   4.085   2.611   1.918  0.1484  0.0403  0.0502
 8895SOL    HW138144   4.151   2.663   1.964  0.0865  0.1257  0.0437
 8895SOL    HW238145   4.006   2.660   1.940  1.2427  2.1915 -0.7821
 8896SOL     OW38146   1.375   4.432  17.056  0.1119  0.0896 -0.3150
 8896SOL    HW138147   1.311   4.392  16.996  0.4915  0.9447 -1.2994
 8896SOL    HW238148   1.335   4.518  17.073 -1.6352 -0.6039 -0.8674
 8897SOL     OW38149   1.138   1.177   9.124  0.3077 -0.2488 -0.3450
 8897SOL    HW138150   1.085   1.128   9.062 -1.9306  0.1712  1.1954
 8897SOL    HW238151   1.084   1.145   9.197  0.5258  0.1313 -0.0155
 8898SOL     OW38152   3.494   2.368   2.562  0.2489  0.0287  0.3716
 8898SOL    HW138153   3.418   2.335   2.515  0.6676  0.4947 -0.6369
 8898SOL    HW238154   3.488   2.458   2.529  0.8139  0.2391  0.8250
 8899SOL     OW38155   2.516   1.863   2.037  0.1104 -0.1236 -0.5705
 8899SOL    HW138156   2.565   1.799   2.089 -2.8472 -1.7602  0.2505
 8899SOL    HW238157   2.513   1.937   2.097 -0.4719 -1.3645  0.9307
 8900SOL     OW38158   1.798   2.957   5.919  0.1229  0.7119 -0.3845
 8900SOL    HW138159   1.745   2.886   5.881  0.4820 -0.5667  1.4851
 8900SOL    HW238160   1.863   2.975   5.851 -0.0510 -1.2865 -1.0826
 8901SOL     OW38161   0.118   2.077   1.349 -0.4364  0.5873 -0.1824
 8901SOL    HW138162   0.141   2.068   1.257  0.0812  0.7901 -0.0683
 8901SOL    HW238163   0.202   2.069   1.394 -0.7127 -2.2799 -0.1566
 8902SOL     OW38164   3.760   0.841   8.997  0.0607 -0.0259  0.4992
 8902SOL    HW138165   3.797   0.889   9.071 -2.1409  0.3961  1.3174
 8902SOL    HW238166   3.734   0.911   8.937  3.0520  0.2012 -0.5750
 8903SOL     OW38167   4.158   0.390  12.539  0.7707  0.3205  0.4347
 8903SOL    HW138168   4.225   0.334  12.500  0.2897  0.8971 -1.2099
 8903SOL    HW238169   4.214   0.466  12.556  0.7342 -0.3404  3.5208
 8904SOL     OW38170   0.715   2.273   3.456  0.0782  0.1734  0.0154
 8904SOL    HW138171   0.754   2.241   3.375  0.9957  1.2011  0.0506
 8904SOL    HW238172   0.760   2.213   3.515  0.0635  0.7419  0.6076
 8905SOL     OW38173   2.238   2.848   8.334 -0.0377 -0.4135 -0.0920
 8905SOL    HW138174   2.189   2.925   8.364  1.7677  0.6429  0.1473
 8905SOL    HW238175   2.316   2.894   8.301  0.1503 -0.4763  0.2569
 8906SOL     OW38176   3.549   1.394  13.993  0.1370 -0.2142 -0.0927
 8906SOL    HW138177   3.495   1.440  14.056  1.3064  1.6016 -0.4153
 8906SOL    HW238178   3.546   1.305  14.027  2.0101 -0.8420 -1.5414
 8907SOL     OW38179   1.131   2.181   1.407 -0.4238  0.2749  0.1390
 8907SOL    HW138180   1.060   2.244   1.416 -0.7459 -0.3655  2.1596
 8907SOL    HW238181   1.197   2.246   1.429  0.5434 -0.9254  0.7800
 8908SOL     OW38182   2.467   1.894   1.581 -0.4298 -0.1724 -0.0384
 8908SOL    HW138183   2.461   1.834   1.655  0.9655  0.2957  0.4436
 8908SOL    HW238184   2.520   1.963   1.622  1.5481 -0.6972 -1.7208
 8909SOL     OW38185   3.096   0.290  12.519 -0.1902 -0.0932 -0.1337
 8909SOL    HW138186   3.177   0.245  12.543  0.7393  2.2774  1.0682
 8909SOL    HW238187   3.033   0.248  12.578 -1.3823 -0.9467 -1.9765
 8910SOL     OW38188   1.869   0.090   9.292 -0.1590  0.3941 -0.0536
 8910SOL    HW138189   1.843   0.004   9.326 -0.9617 -0.6493 -3.3430
 8910SOL    HW238190   1.788   0.134   9.318 -1.9932 -3.5387  0.8647
 8911SOL     OW38191   0.708   3.948   0.648 -0.5782  0.4721 -0.2823
 8911SOL    HW138192   0.623   3.974   0.684 -1.1572 -1.8935  0.0391
 8911SOL    HW238193   0.716   3.861   0.687  0.8244  0.7256 -0.0333
 8912SOL     OW38194   1.990   0.670   3.670  0.2348  0.0646 -0.4612
 8912SOL    HW138195   1.946   0.703   3.591  2.2227  1.0422 -1.1827
 8912SOL    HW238196   2.043   0.594   3.644 -0.6598 -0.9884  0.8341
 8913SOL     OW38197   4.331   3.435   3.089  0.4932  0.0750  0.3750
 8913SOL    HW138198   4.331   3.475   3.002  3.1934 -1.4132 -0.3208
 8913SOL    HW238199   4.236   3.437   3.105  0.0450  0.1986 -2.2936
 8914SOL     OW38200   2.556   3.214   2.061 -0.2057 -0.6866  0.4792
 8914SOL    HW138201   2.607   3.262   1.996 -1.9065 -1.4004 -1.3631
 8914SOL    HW238202   2.487   3.277   2.081  0.5855  0.3099  0.0485
 8915SOL     OW38203   3.958   1.110   7.949  0.7668  0.6867 -0.3170
 8915SOL    HW138204   3.946   1.020   7.978 -1.3243  1.4307  1.0725
 8915SOL    HW238205   4.009   1.098   7.868  0.4721  2.0119 -0.7067
 8916SOL     OW38206   1.262   2.125   0.006 -0.4265  0.6208  0.2012
 8916SOL    HW138207   1.171   2.139  17.661 -0.1763 -0.3756 -1.2172
 8916SOL    HW238208   1.294   2.058  17.626  0.9167  2.4901 -1.1650
 8917SOL     OW38209   0.276   2.432   6.667  0.6429 -0.7678  0.1614
 8917SOL    HW138210   0.318   2.361   6.716  1.5336 -1.5198 -1.6926
 8917SOL    HW238211   0.252   2.488   6.741 -0.4589 -0.6736 -0.2605
 8918SOL     OW38212   0.371   0.117  15.573  0.1570  0.0332 -0.3752
 8918SOL    HW138213   0.291   0.065  15.578  0.1663  0.0402 -0.1309
 8918SOL    HW238214   0.353   0.206  15.543  1.0842  0.9215  1.7100
 8919SOL     OW38215   1.999   3.847   5.162  0.7695 -0.4263  0.1147
 8919SOL    HW138216   1.999   3.924   5.219 -0.9163  0.9808 -1.7533
 8919SOL    HW238217   1.925   3.798   5.200 -0.2377  0.5036 -0.6350
 8920SOL     OW38218   4.594   4.569   5.639  0.3376 -0.0358 -0.2551
 8920SOL    HW138219   4.518   4.571   5.697  0.4832 -1.1164 -0.0340
 8920SOL    HW238220   4.666   4.569   5.702  2.2156 -2.9362 -2.3552
 8921SOL     OW38221   0.354   0.955  14.711  0.4598  0.3085  0.1677
 8921SOL    HW138222   0.335   0.911  14.628 -0.0786  0.0320  0.4391
 8921SOL    HW238223   0.266   0.966  14.747  0.1583  0.2027 -0.5287
 8922SOL     OW38224   1.495   2.619  16.230  0.0576  0.1989  0.0917
 8922SOL    HW138225   1.578   2.616  16.182  0.0117 -3.6435  0.2108
 8922SOL    HW238226   1.497   2.699  16.282  0.8565 -0.5519  1.2157
 8923SOL     OW38227   2.031   3.905   2.382 -0.8322  0.1907  0.3898
 8923SOL    HW138228   2.005   3.872   2.296  1.0838  0.2180 -0.2013
 8923SOL    HW238229   1.983   3.839   2.432  0.6338 -0.2867  1.1775
 8924SOL     OW38230   2.819   2.744  11.021 -0.3936  0.7540 -0.3436
 8924SOL    HW138231   2.849   2.663  11.062 -2.4669  0.6467  0.9669
 8924SOL    HW238232   2.748   2.761  11.082 -0.7256  2.3349 -1.1582
 8925SOL     OW38233   1.888   3.631  11.828  0.5326  0.2038 -0.3472
 8925SOL    HW138234   1.979   3.601  11.831  0.1829 -0.9372 -0.9396
 8925SOL    HW238235   1.897   3.725  11.817  2.0390 -0.0713 -1.4360
 8926SOL     OW38236   3.894   1.669  15.131 -0.3230 -0.1092 -0.8080
 8926SOL    HW138237   3.958   1.716  15.077  0.8818 -0.0727  0.6537
 8926SOL    HW238238   3.847   1.638  15.053  1.2781 -0.9570 -1.4456
 8927SOL     OW38239   2.592   4.037   7.463  0.4195 -0.3208 -0.2234
 8927SOL    HW138240   2.521   4.000   7.515  0.1308 -1.2779 -1.2962
 8927SOL    HW238241   2.579   4.131   7.481 -0.8286 -0.7513  1.1065
 8928SOL     OW38242   1.789   4.484   7.584 -0.1615  0.1395 -0.2464
 8928SOL    HW138243   1.719   4.537   7.620  1.1210  0.9475  1.0676
 8928SOL    HW238244   1.733   4.443   7.518  0.3948  1.1697 -1.3609
 8929SOL     OW38245   4.393   1.123   5.325  0.1863  0.1907 -0.5303
 8929SOL    HW138246   4.308   1.137   5.283 -0.8241  1.1432  1.8345
 8929SOL    HW238247   4.392   1.032   5.353 -0.6089  0.4953  0.4427
 8930SOL     OW38248   0.835   1.732   7.003  0.1646 -0.4199  0.0074
 8930SOL    HW138249   0.868   1.821   7.001  1.5195 -0.8771  1.9315
 8930SOL    HW238250   0.765   1.740   7.068  0.6291  1.5715  0.2369
 8931SOL     OW38251   1.896   1.967   5.390  0.9003 -0.8359 -0.1919
 8931SOL    HW138252   1.930   2.024   5.321 -0.2020  1.3441  1.0605
 8931SOL    HW238253   1.804   1.991   5.381  0.4705 -2.1833  0.6549
 8932SOL     OW38254   2.144   1.904   8.534  0.2307 -0.6933  0.4228
 8932SOL    HW138255   2.127   1.986   8.581  2.1140 -0.8631  1.4042
 8932SOL    HW238256   2.137   1.837   8.602  1.8837 -1.6448 -0.3541
 8933SOL     OW38257   0.846   0.029   3.790  0.1636  0.3606  0.5545
 8933SOL    HW138258   0.780   4.679   3.788  2.3042 -1.6085 -1.4388
 8933SOL    HW238259   0.844   0.045   3.884  0.1521  0.6158  0.5093
 8934SOL     OW38260   2.161   0.282   4.271 -0.1468 -0.0960  0.5369
 8934SOL    HW138261   2.237   0.274   4.328  0.1136 -0.7989  0.0965
 8934SOL    HW238262   2.144   0.376   4.280  0.5929  0.1378 -0.5689
 8935SOL     OW38263   3.636   2.006  16.957 -0.6937 -0.6415  0.1805
 8935SOL    HW138264   3.597   2.090  16.983 -2.9124 -1.4496 -0.5584
 8935SOL    HW238265   3.715   2.043  16.918 -0.8634 -0.8537 -0.3697
 8936SOL     OW38266   0.687   0.979   0.289 -0.2906  0.3933  0.2643
 8936SOL    HW138267   0.665   0.916   0.358 -0.9726 -1.7235 -1.8791
 8936SOL    HW238268   0.768   1.011   0.329  1.3217 -2.8499 -0.4101
 8937SOL     OW38269   2.675   1.787  11.682  0.3358 -0.3217  0.6828
 8937SOL    HW138270   2.770   1.796  11.691  0.4329 -0.6825  0.0302
 8937SOL    HW238271   2.653   1.850  11.613 -1.4026 -0.2542  1.2943
 8938SOL     OW38272   0.547   2.383   7.841  0.7464 -0.6387  0.2862
 8938SOL    HW138273   0.634   2.383   7.879  0.2671  0.8562  1.3533
 8938SOL    HW238274   0.549   2.460   7.784  0.9515 -0.9249 -0.0936
 8939SOL     OW38275   1.184   2.724  10.276  0.1223  0.4695 -0.6476
 8939SOL    HW138276   1.132   2.649  10.246 -2.2026  2.0588 -0.5747
 8939SOL    HW238277   1.190   2.698  10.367  0.1897  0.2524 -0.7135
 8940SOL     OW38278   3.862   2.308  13.471  0.1349 -0.4888 -0.0869
 8940SOL    HW138279   3.876   2.267  13.386 -0.4633  1.6778 -1.2345
 8940SOL    HW238280   3.775   2.274  13.489 -0.0852  1.2743  2.1466
 8941SOL     OW38281   3.475   2.421  14.872 -0.0309 -0.1668  0.1642
 8941SOL    HW138282   3.542   2.407  14.806 -0.3427 -2.7050  0.3714
 8941SOL    HW238283   3.533   2.458  14.939 -1.9730  1.2312  1.0860
 8942SOL     OW38284   0.381   0.497   7.006 -0.1364  0.1758 -0.2611
 8942SOL    HW138285   0.294   0.521   6.973 -0.2418 -1.9177 -1.4882
 8942SOL    HW238286   0.439   0.571   6.989  0.4400 -0.8576 -2.7744
 8943SOL     OW38287   1.862   4.425  13.466 -0.4362  0.1221 -0.3887
 8943SOL    HW138288   1.768   4.405  13.458 -0.2848  0.2181 -2.5344
 8943SOL    HW238289   1.883   4.460  13.379 -1.7427 -1.2350 -1.2683
 8944SOL     OW38290   2.279   0.789   5.186  0.4695  0.5950 -0.5329
 8944SOL    HW138291   2.338   0.789   5.111  0.7229 -0.1043 -0.3294
 8944SOL    HW238292   2.342   0.745   5.242 -0.7514 -2.1473 -1.3302
 8945SOL     OW38293   0.812   1.268   5.838  0.3530  0.6831  0.7355
 8945SOL    HW138294   0.745   1.328   5.872 -0.0639  1.2143 -1.0279
 8945SOL    HW238295   0.887   1.290   5.893  1.0557 -0.7780  0.3663
 8946SOL     OW38296   1.208   3.779   4.712  0.2282 -0.0830  0.0511
 8946SOL    HW138297   1.159   3.823   4.643  1.7584 -1.9413 -2.2452
 8946SOL    HW238298   1.265   3.730   4.652  0.4379 -1.8458  1.6577
 8947SOL     OW38299   2.915   2.964   5.879  0.3198  0.3872  0.2182
 8947SOL    HW138300   2.886   2.995   5.793  0.2924  0.7894  0.3745
 8947SOL    HW238301   3.004   2.997   5.886  0.7862 -0.5116 -1.4135
 8948SOL     OW38302   3.101   4.360   4.917  0.6378 -0.7645 -0.4412
 8948SOL    HW138303   3.125   4.332   5.005 -0.8891 -0.4358  0.0885
 8948SOL    HW238304   3.087   4.455   4.915  1.8769 -0.5417  2.0499
 8949SOL     OW38305   3.643   2.460   2.776  0.1845  0.2400  0.7041
 8949SOL    HW138306   3.615   2.401   2.706  1.6705 -1.0573  1.1956
 8949SOL    HW238307   3.572   2.453   2.841  0.5099 -0.3990  0.9956
 8950SOL     OW38308   2.736   3.274   0.945 -0.4521 -0.6512 -0.2924
 8950SOL    HW138309   2.759   3.367   0.947 -2.1316 -0.2011 -2.6577
 8950SOL    HW238310   2.681   3.270   1.024 -1.3362  2.0616 -0.7646
 8951SOL     OW38311   4.397   2.291   2.990  0.5345  0.6171  0.3316
 8951SOL    HW138312   4.386   2.275   3.083 -1.3289 -0.7153 -0.1245
 8951SOL    HW238313   4.353   2.373   2.970 -0.7281 -0.4971 -1.5468
 8952SOL     OW38314   1.502   4.050  10.101 -0.3709 -0.1369  1.2372
 8952SOL    HW138315   1.524   4.139  10.073 -1.4892 -0.5162 -0.8514
 8952SOL    HW238316   1.590   4.013  10.102 -0.8579 -1.2953  0.7504
 8953SOL     OW38317   2.098   0.480   3.298  0.2660 -0.1187 -0.3710
 8953SOL    HW138318   2.087   0.573   3.315 -1.1379  0.1088 -2.3928
 8953SOL    HW238319   2.141   0.469   3.213  1.4542  1.9031 -0.0203
 8954SOL     OW38320   0.727   3.407   1.491 -0.4295 -0.1259 -0.4256
 8954SOL    HW138321   0.727   3.469   1.418  1.8762 -0.5779 -0.7992
 8954SOL    HW238322   0.789   3.453   1.548 -0.6225 -1.2345  0.6770
 8955SOL     OW38323   2.355   4.718   6.195  0.3678  0.2197  0.3885
 8955SOL    HW138324   2.272   4.696   6.154  0.3384 -1.7131  1.4693
 8955SOL    HW238325   2.421   4.691   6.131 -0.7525  1.9826 -1.5290
 8956SOL     OW38326   3.362   1.999  12.136 -0.0599  0.3055  0.2097
 8956SOL    HW138327   3.408   1.918  12.114 -1.9972 -1.6014  3.2803
 8956SOL    HW238328   3.292   1.973  12.196  0.7479 -0.9251  0.6133
 8957SOL     OW38329   2.384   2.462  14.988  0.2674  0.7543  0.5956
 8957SOL    HW138330   2.372   2.459  15.083 -1.9263 -0.0242  0.2899
 8957SOL    HW238331   2.407   2.554  14.971 -1.4597  0.8722 -1.1196
 8958SOL     OW38332   1.229   3.555   7.197  0.0946 -0.7222 -0.4721
 8958SOL    HW138333   1.270   3.596   7.273  0.8026 -0.4192 -1.0139
 8958SOL    HW238334   1.257   3.465   7.215  0.0439 -0.5757  0.3223
 8959SOL     OW38335   3.358   4.270   6.645  0.3841 -0.3885 -0.2062
 8959SOL    HW138336   3.438   4.305   6.604  0.2714  3.3857  2.7010
 8959SOL    HW238337   3.398   4.238   6.726 -1.0663 -1.8724 -0.0945
 8960SOL     OW38338   1.555   4.357   8.758  0.0390  0.2430  0.1809
 8960SOL    HW138339   1.498   4.347   8.682 -2.5105 -0.0993  2.1419
 8960SOL    HW238340   1.504   4.421   8.807 -0.6562  0.0503 -0.3023
 8961SOL     OW38341   0.470   0.622  12.389  0.2524 -0.2167  0.2540
 8961SOL    HW138342   0.540   0.566  12.355 -0.2676 -1.4117  1.1530
 8961SOL    HW238343   0.484   0.610  12.483 -2.1204  1.8478  0.8512
 8962SOL     OW38344   1.220   3.426  12.604 -0.3949 -0.4617  0.2819
 8962SOL    HW138345   1.134   3.438  12.644 -0.6995 -0.1093 -0.4748
 8962SOL    HW238346   1.236   3.516  12.576 -0.7260 -0.2113  0.9016
 8963SOL     OW38347   1.367   4.057  11.267  1.1278 -0.0893  0.0846
 8963SOL    HW138348   1.448   4.026  11.225 -0.7729 -1.3287 -2.6725
 8963SOL    HW238349   1.348   3.986  11.328  0.3562  0.2001  0.1804
 8964SOL     OW38350   3.921   0.981   3.635  0.4271 -0.2118 -0.0164
 8964SOL    HW138351   3.994   0.949   3.687  0.0052 -2.0189 -0.5314
 8964SOL    HW238352   3.912   0.915   3.565  3.2324 -1.8993  1.2373
 8965SOL     OW38353   0.409   2.160   3.371  0.4226 -0.2464  0.0601
 8965SOL    HW138354   0.353   2.235   3.352  2.1864  1.0697  0.0548
 8965SOL    HW238355   0.474   2.207   3.424  0.4097  0.3741 -0.4815
 8966SOL     OW38356   1.967   4.658   8.612  0.0751 -0.5534 -0.0200
 8966SOL    HW138357   1.934   4.645   8.701 -0.2495  0.1406 -0.0392
 8966SOL    HW238358   2.031   4.587   8.609  1.8306  1.0011  0.4035
 8967SOL     OW38359   2.850   0.748   3.876  0.4592 -0.1020 -0.3358
 8967SOL    HW138360   2.917   0.788   3.932  0.1253  1.2818 -0.9126
 8967SOL    HW238361   2.774   0.749   3.934 -0.1753  0.0938 -1.1740
 8968SOL     OW38362   0.281   2.268   2.339  0.3144  0.1317 -0.0195
 8968SOL    HW138363   0.256   2.347   2.388 -0.6495  1.8038 -3.2307
 8968SOL    HW238364   0.195   2.227   2.347  0.4211  0.0738  0.8631
 8969SOL     OW38365   0.054   0.604   0.552 -0.3775  0.2888 -0.4566
 8969SOL    HW138366   0.118   0.672   0.572  0.2992 -0.3100 -0.5719
 8969SOL    HW238367   0.109   0.528   0.533 -0.4925  0.6269 -2.1975
 8970SOL     OW38368   0.389   0.476   4.552  0.3775  0.4422  0.3058
 8970SOL    HW138369   0.388   0.441   4.463  0.7558 -0.7653  0.7858
 8970SOL    HW238370   0.310   0.434   4.585 -0.4652 -0.1721 -2.4551
 8971SOL     OW38371   2.842   2.455  10.863 -0.4279  0.5115 -0.2749
 8971SOL    HW138372   2.822   2.437  10.771  2.1619  0.2402 -0.8057
 8971SOL    HW238373   2.850   2.368  10.902 -0.2154  0.6269 -0.0573
 8972SOL     OW38374   1.737   1.275   5.588 -0.3862  0.1229 -0.3043
 8972SOL    HW138375   1.797   1.224   5.642 -2.0962  0.8831  2.3239
 8972SOL    HW238376   1.651   1.243   5.615  0.3162 -1.5841 -0.1036
 8973SOL     OW38377   2.307   0.964   9.137 -0.2589 -0.6531 -0.0467
 8973SOL    HW138378   2.394   0.946   9.101 -0.3119 -0.8128 -0.0943
 8973SOL    HW238379   2.259   0.975   9.055 -0.4337 -0.3771  0.0917
 8974SOL     OW38380   1.756   1.387   3.604 -0.4845  0.3730  0.0052
 8974SOL    HW138381   1.773   1.357   3.514 -1.0605  0.7579 -0.2331
 8974SOL    HW238382   1.661   1.371   3.601 -0.6211  1.2036 -0.0554
 8975SOL     OW38383   1.275   3.260   1.707 -0.3099  0.4084  0.1012
 8975SOL    HW138384   1.197   3.266   1.652  1.5582 -1.6600 -2.7840
 8975SOL    HW238385   1.323   3.342   1.691  0.3710 -0.2144 -1.0174
 8976SOL     OW38386   1.379   0.070   6.006  0.3878  0.2621  0.5671
 8976SOL    HW138387   1.440   0.143   6.019  0.5112  0.2626 -0.0381
 8976SOL    HW238388   1.427   0.001   5.960  0.7548 -1.3790  3.4426
 8977SOL     OW38389   3.671   2.908   3.512  0.6303 -0.2649  0.4212
 8977SOL    HW138390   3.620   2.968   3.568  1.7310  0.4720  0.6436
 8977SOL    HW238391   3.609   2.841   3.483 -2.7347  2.7877  0.5418
 8978SOL     OW38392   4.712   0.463  14.755 -0.1452 -0.4073  0.1602
 8978SOL    HW138393   0.035   0.541  14.719 -0.2387 -1.2742 -1.8723
 8978SOL    HW238394   0.050   0.397  14.716  0.9579  1.5973 -1.6303
 8979SOL     OW38395   4.648   1.139   7.312 -0.1022 -0.2237 -0.7460
 8979SOL    HW138396   4.662   1.113   7.403 -0.2158 -0.2194 -0.7278
 8979SOL    HW238397   4.690   1.225   7.304 -1.1399  0.3954  0.4240
 8980SOL     OW38398   4.182   0.019  11.397  0.1981  0.1296  0.1773
 8980SOL    HW138399   4.223   4.671  11.451 -1.1096 -1.4096 -0.7601
 8980SOL    HW238400   4.210   0.095  11.449  0.1622  0.4307 -0.2394
 8981SOL     OW38401   2.267   4.149   9.103  0.0650 -0.3188 -0.2440
 8981SOL    HW138402   2.331   4.121   9.037  1.6330 -0.6721  1.4216
 8981SOL    HW238403   2.300   4.096   9.176 -2.3809 -0.3059  0.8393
 8982SOL     OW38404   3.482   0.993   7.717 -0.4500 -0.2154  0.1962
 8982SOL    HW138405   3.406   1.047   7.699 -0.7677 -0.9970 -0.8103
 8982SOL    HW238406   3.484   0.953   7.630 -1.3325 -1.3794  0.7144
 8983SOL     OW38407   1.120   3.156   1.428 -0.0209  0.2500 -0.5603
 8983SOL    HW138408   1.166   3.216   1.369  1.7560 -0.7109 -0.1409
 8983SOL    HW238409   1.054   3.216   1.463 -0.6191 -1.8156  1.8885
 8984SOL     OW38410   3.158   0.149   0.274 -0.0152 -0.1689 -0.1378
 8984SOL    HW138411   3.222   0.210   0.311 -0.1481  1.8797 -3.2490
 8984SOL    HW238412   3.155   0.182   0.184 -2.7048  1.9033  0.7022
 8985SOL     OW38413   2.802   3.294   7.721  0.2186 -0.3464  0.5490
 8985SOL    HW138414   2.776   3.206   7.748 -0.1773 -0.2522  0.4682
 8985SOL    HW238415   2.767   3.301   7.632  0.8229  3.5124  0.5897
 8986SOL     OW38416   0.480   2.491   5.078  0.2154  0.3284 -0.4851
 8986SOL    HW138417   0.550   2.437   5.117 -0.9590 -1.5333 -0.9590
 8986SOL    HW238418   0.479   2.451   4.991 -0.2654 -0.4735 -0.1140
 8987SOL     OW38419   4.342   4.123   8.945 -0.3841  0.6020  0.5614
 8987SOL    HW138420   4.372   4.134   9.035 -1.5841 -0.5273  1.1059
 8987SOL    HW238421   4.350   4.028   8.932  1.1074  0.5685  1.6897
 8988SOL     OW38422   4.616   1.982   7.016  0.1456  0.0963 -0.0118
 8988SOL    HW138423   4.580   1.902   6.977 -0.5457  1.6151 -2.5259
 8988SOL    HW238424   4.660   1.950   7.095  1.4463  1.2272 -0.2837
 8989SOL     OW38425   0.078   1.807   1.652 -0.7513  0.6384 -0.0367
 8989SOL    HW138426   0.138   1.761   1.594  0.1254 -0.5988  1.8682
 8989SOL    HW238427   0.076   1.752   1.731  0.5583  0.9797  0.2386
 8990SOL     OW38428   2.460   3.429  10.053 -0.4785 -0.4971  0.2217
 8990SOL    HW138429   2.459   3.337  10.080  0.9739 -1.2760 -2.3110
 8990SOL    HW238430   2.388   3.432   9.990  1.4934 -2.0359 -2.1407
 8991SOL     OW38431   2.500   3.707  17.278  0.2599  0.6580  0.1934
 8991SOL    HW138432   2.560   3.772  17.242  2.4595 -0.9931  0.9431
 8991SOL    HW238433   2.541   3.677  17.359 -2.2544 -1.2408  0.7655
 8992SOL     OW38434   1.772   1.539   8.064 -0.3952 -0.2775  0.0382
 8992SOL    HW138435   1.849   1.541   8.121  0.9303  0.7872 -1.7945
 8992SOL    HW238436   1.732   1.624   8.081  0.4479  0.0570  0.3641
 8993SOL     OW38437   0.525   1.355   4.664  0.2903  0.5567 -0.0560
 8993SOL    HW138438   0.475   1.417   4.610  2.1921  1.3589 -0.8913
 8993SOL    HW238439   0.471   1.364   4.743 -0.5628  0.5181 -0.6409
 8994SOL     OW38440   3.357   0.570   3.227  0.3623 -0.3981  0.0638
 8994SOL    HW138441   3.453   0.575   3.229  0.2428  1.3543  1.9126
 8994SOL    HW238442   3.342   0.479   3.251  0.0354  0.3432  2.5947
 8995SOL     OW38443   1.141   1.589   6.963  0.0642 -0.3586 -0.1718
 8995SOL    HW138444   1.081   1.536   6.911 -0.0288 -0.7536  0.3418
 8995SOL    HW238445   1.227   1.556   6.935  0.7218 -0.1985  1.6682
 8996SOL     OW38446   2.283   1.348  16.228 -0.1098 -0.3173  0.1006
 8996SOL    HW138447   2.360   1.321  16.277 -1.4035 -0.5530  2.0321
 8996SOL    HW238448   2.325   1.390  16.153 -1.7887 -0.9446 -1.1897
 8997SOL     OW38449   3.482   0.345  12.155  0.4852 -0.6818 -0.7065
 8997SOL    HW138450   3.557   0.349  12.214  0.8562  1.6115 -1.3406
 8997SOL    HW238451   3.421   0.305  12.217  0.3383 -0.9711 -1.0347
 8998SOL     OW38452   1.398   0.987   7.691 -0.4845  0.6169 -0.2623
 8998SOL    HW138453   1.464   0.939   7.641  0.5792  1.8852 -0.0628
 8998SOL    HW238454   1.349   1.032   7.621 -0.0213 -0.2162 -1.1265
 8999SOL     OW38455   1.288   1.213   3.938 -0.6441  0.0348  0.2483
 8999SOL    HW138456   1.234   1.292   3.944  0.9377  1.1294  0.1615
 8999SOL    HW238457   1.369   1.257   3.911 -0.5808  0.0192  0.4128
 9000SOL     OW38458   4.279   2.252   0.037  0.1635 -0.1109  0.6031
 9000SOL    HW138459   4.232   2.229  17.638  0.5055  0.1732  0.3138
 9000SOL    HW238460   4.211   2.243   0.102 -0.6261  0.4355 -0.1405
 9001SOL     OW38461   3.951   1.781   3.525  0.2059 -0.3151 -0.0628
 9001SOL    HW138462   3.855   1.774   3.526  0.1660  0.2510  0.1433
 9001SOL    HW238463   3.972   1.787   3.432 -0.0956 -1.7185 -0.2133
 9002SOL     OW38464   1.460   3.044   4.522 -0.2616 -0.5048  0.6752
 9002SOL    HW138465   1.495   3.125   4.483 -0.9255 -0.6235 -0.1597
 9002SOL    HW238466   1.513   2.973   4.487  2.8888  1.8552  0.6233
 9003SOL     OW38467   4.034   4.153   7.654  0.3596 -0.2913  0.2204
 9003SOL    HW138468   3.955   4.187   7.612  0.0795  0.7082  1.5682
 9003SOL    HW238469   4.003   4.149   7.745 -1.3369  0.5457 -0.3245
 9004SOL     OW38470   3.322   1.659  13.194  0.3134  0.3761 -0.1270
 9004SOL    HW138471   3.279   1.654  13.280 -0.6820 -2.1487 -0.7712
 9004SOL    HW238472   3.341   1.566  13.180 -0.6339  0.1184  0.2538
 9005SOL     OW38473   0.556   3.335   2.671  0.3235 -0.4890  0.0109
 9005SOL    HW138474   0.550   3.397   2.599 -0.6823 -1.4886 -0.7785
 9005SOL    HW238475   0.651   3.324   2.668  0.7711  3.4278 -0.2645
 9006SOL     OW38476   4.008   0.203   2.198  0.4592 -0.0953  0.8296
 9006SOL    HW138477   3.942   0.273   2.201  2.7792  2.0727  1.6781
 9006SOL    HW238478   4.063   0.238   2.128  1.8849 -1.8337  1.0922
 9007SOL     OW38479   3.221   3.900   6.740 -0.0057  0.0286 -0.1963
 9007SOL    HW138480   3.179   3.814   6.737  1.3015 -0.5821 -1.0220
 9007SOL    HW238481   3.312   3.873   6.723 -0.3392 -1.4063  0.2656
 9008SOL     OW38482   0.918   3.373   9.907 -0.4033 -0.9718 -0.6082
 9008SOL    HW138483   0.870   3.325   9.841  1.3612 -2.7962 -0.5642
 9008SOL    HW238484   0.983   3.307   9.933 -0.5483 -1.0211 -0.3666
 9009SOL     OW38485   0.388   2.204   5.785 -0.1537  0.0454  0.3394
 9009SOL    HW138486   0.293   2.213   5.776 -0.0860  0.4623  0.0235
 9009SOL    HW238487   0.410   2.291   5.820 -3.1333  0.4773  1.0942
 9010SOL     OW38488   3.018   3.137  12.465 -0.5527  0.2230  0.3636
 9010SOL    HW138489   3.101   3.117  12.422 -0.5324  1.6171 -0.2542
 9010SOL    HW238490   3.053   3.152  12.553  0.4468 -0.0186  0.0061
 9011SOL     OW38491   1.112   0.947   3.145  0.1255 -0.3452  0.6644
 9011SOL    HW138492   1.118   0.974   3.053  1.6816 -0.4856  0.7213
 9011SOL    HW238493   1.160   1.018   3.187  0.6198 -0.9096  1.0698
 9012SOL     OW38494   0.519   0.951   9.251  0.2548  0.0822 -0.1153
 9012SOL    HW138495   0.449   0.947   9.317 -0.5743 -0.5120 -1.0179
 9012SOL    HW238496   0.470   1.006   9.189 -0.1939 -0.7162 -0.4734
 9013SOL     OW38497   3.770   2.569   6.814 -0.2858  0.5197  0.2431
 9013SOL    HW138498   3.842   2.510   6.837 -0.2095  0.5352  0.0450
 9013SOL    HW238499   3.818   2.637   6.767  0.2360 -0.1104 -0.1383
 9014SOL     OW38500   1.141   1.085   0.511  0.0643  0.4846 -0.6734
 9014SOL    HW138501   1.199   1.012   0.492  2.5053  2.5549 -1.1108
 9014SOL    HW238502   1.053   1.047   0.514  0.7225 -1.1435 -2.0951
 9015SOL     OW38503   1.079   0.426   6.942  0.6435  0.1065  0.2989
 9015SOL    HW138504   1.067   0.352   7.001 -1.1831  0.4541  0.3624
 9015SOL    HW238505   1.162   0.409   6.897  0.6252 -0.6910  0.5779
 9016SOL     OW38506   1.933   2.040   4.820  0.2552 -0.0294  0.5396
 9016SOL    HW138507   1.853   2.071   4.778  0.1220  2.6911  2.8073
 9016SOL    HW238508   1.999   2.108   4.803  1.5438 -0.7895  2.6133
 9017SOL     OW38509   4.496   1.090   3.736  0.6300  0.2258  0.8320
 9017SOL    HW138510   4.539   1.082   3.650 -0.0789 -0.8945  0.5931
 9017SOL    HW238511   4.564   1.142   3.780  0.3481  0.6789  0.7326
 9018SOL     OW38512   4.013   2.384   3.814  0.5374 -0.3243  0.1509
 9018SOL    HW138513   3.992   2.476   3.796 -0.1648 -0.8698 -1.7798
 9018SOL    HW238514   4.099   2.396   3.854  0.3152 -1.9633  1.1258
 9019SOL     OW38515   1.456   2.786  15.258  0.0181 -0.3045  0.0333
 9019SOL    HW138516   1.375   2.822  15.295 -1.0536 -0.1221 -2.4440
 9019SOL    HW238517   1.508   2.793  15.338  1.2718  2.6528 -1.0612
 9020SOL     OW38518   0.718   0.958  12.038 -0.0350  0.3714  0.0289
 9020SOL    HW138519   0.753   0.909  11.964 -2.1287 -2.3265  0.8618
 9020SOL    HW238520   0.691   0.890  12.100 -1.0380  0.7402 -0.0069
 9021SOL     OW38521   3.428   3.732   8.215  0.1010  0.1263  0.3077
 9021SOL    HW138522   3.491   3.761   8.281 -0.1021 -3.0868  1.8861
 9021SOL    HW238523   3.448   3.638   8.217 -0.2614  0.0416 -0.0964
 9022SOL     OW38524   2.571   1.565   5.376  0.1714 -0.1493 -0.3611
 9022SOL    HW138525   2.593   1.626   5.447  1.6222 -0.3778 -0.6034
 9022SOL    HW238526   2.616   1.602   5.300  0.6468  3.1102  1.4714
 9023SOL     OW38527   1.610   4.138   5.780  0.5553 -0.0311 -0.2275
 9023SOL    HW138528   1.647   4.199   5.715 -0.6370  1.8527  0.8765
 9023SOL    HW238529   1.581   4.072   5.717 -0.3220 -1.6638  1.9053
 9024SOL     OW38530   0.710   0.775   9.223 -0.0712 -0.5445  0.2567
 9024SOL    HW138531   0.651   0.850   9.237  0.8356 -0.2787  2.6568
 9024SOL    HW238532   0.653   0.703   9.248  1.7908 -2.1607 -0.2185
 9025SOL     OW38533   1.665   0.428   7.549 -0.0192  0.2147  0.3474
 9025SOL    HW138534   1.738   0.475   7.589  2.0367 -1.0759 -1.8663
 9025SOL    HW238535   1.675   0.341   7.587 -0.5704 -0.5293 -1.2019
 9026SOL     OW38536   4.681   3.062   6.123 -0.3675 -0.2842 -0.2548
 9026SOL    HW138537   4.718   3.060   6.035  1.4723  0.7210  0.5005
 9026SOL    HW238538   4.647   3.151   6.128  0.4521 -0.0554  1.2343
 9027SOL     OW38539   4.489   0.406   2.454  0.1258 -0.2440  0.1242
 9027SOL    HW138540   4.526   0.338   2.397 -0.6363 -1.3276  0.9246
 9027SOL    HW238541   4.563   0.438   2.505  0.2894 -0.7768  0.2170
 9028SOL     OW38542   2.473   1.696   2.950 -0.3761 -0.2796 -0.3580
 9028SOL    HW138543   2.381   1.675   2.934 -0.8514  0.9703  0.7582
 9028SOL    HW238544   2.525   1.625   2.913 -0.3687 -0.3030 -0.3025
 9029SOL     OW38545   4.409   0.596  17.469  0.2775 -0.2398 -0.1640
 9029SOL    HW138546   4.428   0.546  17.549  0.5962  1.7248  1.0118
 9029SOL    HW238547   4.378   0.529  17.409  1.0581 -0.8133  0.0677
 9030SOL     OW38548   0.791   2.818   9.288 -0.0208  0.0152  0.3770
 9030SOL    HW138549   0.746   2.738   9.316 -0.7293  1.1782  2.5854
 9030SOL    HW238550   0.881   2.801   9.316  0.0814 -0.1303 -0.0396
 9031SOL     OW38551   1.639   0.369   1.962  0.0240  0.0339  0.2764
 9031SOL    HW138552   1.546   0.379   1.983 -0.2605 -2.1297  0.0492
 9031SOL    HW238553   1.651   0.274   1.964 -1.8530 -0.2643 -1.5860
 9032SOL     OW38554   4.583   1.594   4.817  0.2164 -0.5011  0.1225
 9032SOL    HW138555   4.532   1.657   4.765  0.8416 -0.8942 -0.9715
 9032SOL    HW238556   4.675   1.614   4.796  0.1385 -0.0010  0.2541
 9033SOL     OW38557   0.161   0.987   6.562 -0.4559 -0.3209  0.1982
 9033SOL    HW138558   0.109   1.036   6.626 -0.6308 -1.0577  0.6142
 9033SOL    HW238559   0.094   0.997   6.493 -0.8011 -1.0185  0.4300
 9034SOL     OW38560   2.087   1.565   1.687 -0.4200 -0.0082  0.3356
 9034SOL    HW138561   2.158   1.540   1.746 -0.0646  1.2110  0.4229
 9034SOL    HW238562   2.040   1.633   1.735 -0.9984 -0.2406  0.0991
 9035SOL     OW38563   0.271   4.701   9.265  0.2423  0.3436  0.2803
 9035SOL    HW138564   0.301   0.068   9.293  0.8005  0.1299  0.3547
 9035SOL    HW238565   0.249   4.717   9.174 -2.2561 -0.1190  0.8040
 9036SOL     OW38566   0.199   1.877   9.307  0.4653  0.4834  0.3132
 9036SOL    HW138567   0.135   1.933   9.351 -0.3452  1.0579 -1.6070
 9036SOL    HW238568   0.140   1.853   9.236 -0.1071 -0.9786  1.2746
 9037SOL     OW38569   3.774   4.023   2.623  0.3462  0.0137  0.1492
 9037SOL    HW138570   3.697   3.969   2.606  1.4658 -0.7798 -2.4908
 9037SOL    HW238571   3.751   4.098   2.568  0.9623 -0.2650 -0.4891
 9038SOL     OW38572   3.645   0.834  12.960  0.3468  0.3499 -0.3181
 9038SOL    HW138573   3.700   0.810  13.034  1.9169  2.2047 -0.8780
 9038SOL    HW238574   3.559   0.802  12.988  0.9919 -0.2387  0.9603
 9039SOL     OW38575   2.882   3.412  11.139 -0.0670 -0.4198 -0.3401
 9039SOL    HW138576   2.894   3.419  11.233 -1.7125  0.0470 -0.1670
 9039SOL    HW238577   2.961   3.372  11.103 -0.2464 -0.3858 -0.7741
 9040SOL     OW38578   1.707   3.504   6.791 -0.0761  0.7513 -0.1450
 9040SOL    HW138579   1.728   3.431   6.733  1.7000  0.6721  0.5754
 9040SOL    HW238580   1.641   3.474   6.853  1.1478 -1.7596 -0.0883
 9041SOL     OW38581   2.792   3.592   7.551  0.2332  0.0965  0.5737
 9041SOL    HW138582   2.699   3.574   7.563  0.5496 -0.1509  2.6467
 9041SOL    HW238583   2.794   3.652   7.476  3.9915 -0.5992  0.0981
 9042SOL     OW38584   2.057   1.816   4.257  0.5074  0.1956  0.3077
 9042SOL    HW138585   2.055   1.729   4.296 -1.4672 -0.3992 -1.1188
 9042SOL    HW238586   2.026   1.871   4.329 -1.7087  1.7393 -1.8333
 9043SOL     OW38587   2.708   3.252  11.945  0.3655 -0.1498 -0.1543
 9043SOL    HW138588   2.725   3.229  11.853 -0.6653  1.3716 -0.7245
 9043SOL    HW238589   2.631   3.196  11.954 -0.6889  1.5706  1.3382
 9044SOL     OW38590   4.463   1.416  11.298 -0.5113  0.1833 -0.6982
 9044SOL    HW138591   4.529   1.483  11.281 -0.4757  0.2202 -0.4157
 9044SOL    HW238592   4.498   1.344  11.246 -0.7636  0.1350 -0.8018
 9045SOL     OW38593   4.621   3.161  11.398  0.2132 -0.3164  0.5576
 9045SOL    HW138594   4.704   3.125  11.367 -0.1741 -0.4836 -0.2658
 9045SOL    HW238595   4.571   3.174  11.318  0.9947 -0.2251  0.0913
 9046SOL     OW38596   0.621   2.022   3.845  0.0861 -0.1120  0.3567
 9046SOL    HW138597   0.688   2.088   3.827  0.3790 -0.0317  1.7629
 9046SOL    HW238598   0.545   2.062   3.802 -0.1048 -1.2747 -0.3789
 9047SOL     OW38599   0.646   0.059   5.294 -1.1783  0.4326  0.1964
 9047SOL    HW138600   0.582   0.109   5.243  0.3453  1.1737 -0.9841
 9047SOL    HW238601   0.595   4.702   5.323  1.1996 -1.3404 -0.2823
 9048SOL     OW38602   3.085   4.226   2.486  0.4615  0.1241 -0.0714
 9048SOL    HW138603   3.019   4.160   2.466  0.3281 -0.0037  0.8218
 9048SOL    HW238604   3.122   4.242   2.399  3.6202  1.1543  1.4766
 9049SOL     OW38605   4.312   3.937   2.073  0.7168  0.5911  0.3318
 9049SOL    HW138606   4.242   3.873   2.067 -0.5837  1.8243  2.3920
 9049SOL    HW238607   4.354   3.917   2.157 -1.0016 -3.1595  0.3100
 9050SOL     OW38608   4.130   1.698   6.632  0.1865 -0.1632  0.1339
 9050SOL    HW138609   4.171   1.785   6.627  0.9679 -0.4467  1.6333
 9050SOL    HW238610   4.039   1.716   6.653  0.0139  0.4544 -1.1794
 9051SOL     OW38611   1.716   2.978  15.918  0.3898  0.0359 -0.0152
 9051SOL    HW138612   1.674   2.896  15.944 -0.9754  0.8984  0.5165
 9051SOL    HW238613   1.668   3.004  15.840 -2.0239 -2.4021  0.6072
 9052SOL     OW38614   1.846   2.631   0.182  0.0646  0.3752 -0.0334
 9052SOL    HW138615   1.889   2.571   0.121 -0.9387 -0.9145  0.5441
 9052SOL    HW238616   1.800   2.568   0.236 -0.0311 -0.1086 -0.6779
 9053SOL     OW38617   4.297   4.664   5.704  0.4521  0.0024  0.0962
 9053SOL    HW138618   4.213   4.701   5.677  0.5024 -0.3776 -0.5798
 9053SOL    HW238619   4.274   4.579   5.741 -1.5282 -0.3517 -1.9612
 9054SOL     OW38620   1.247   1.823  13.927  0.0098  0.1794 -0.3051
 9054SOL    HW138621   1.175   1.763  13.948  0.1213  0.4019  0.6752
 9054SOL    HW238622   1.238   1.895  13.989  1.9695  0.4053 -0.2937
 9055SOL     OW38623   4.077   2.515   9.417 -0.1970 -0.3181  0.3024
 9055SOL    HW138624   4.161   2.560   9.419  0.9594 -2.4377 -0.1213
 9055SOL    HW238625   4.024   2.594   9.410  3.1337  1.9620  0.8391
 9056SOL     OW38626   4.026   2.279   7.749  0.3894  0.1312  0.2370
 9056SOL    HW138627   4.034   2.200   7.803 -0.1669 -0.5880 -0.7334
 9056SOL    HW238628   3.950   2.251   7.697 -0.0195  2.2499 -0.3276
 9057SOL     OW38629   0.809   4.618   1.150 -0.1874 -0.0735  0.5351
 9057SOL    HW138630   0.855   4.561   1.213 -0.7972  0.1845  1.2144
 9057SOL    HW238631   0.851   4.605   1.065  0.6278  0.4501  0.8513
 9058SOL     OW38632   1.975   1.651   1.452 -0.8943  0.0631 -0.4178
 9058SOL    HW138633   1.882   1.657   1.474 -1.1354 -0.2240 -1.3468
 9058SOL    HW238634   2.003   1.641   1.543  0.9688  1.1585 -0.8646
 9059SOL     OW38635   4.611   1.439   0.128 -0.1393 -0.5568 -0.2993
 9059SOL    HW138636   4.597   1.436   0.033  2.3097 -2.1939 -0.5946
 9059SOL    HW238637   4.704   1.455   0.140  0.1307 -1.4520 -1.2044
 9060SOL     OW38638   4.081   3.691  14.502 -0.1516 -0.4509 -0.1740
 9060SOL    HW138639   4.142   3.639  14.449 -0.7817  0.1706 -1.5047
 9060SOL    HW238640   4.036   3.742  14.433 -1.0586  0.1319  0.8486
 9061SOL     OW38641   2.961   1.146   5.780  0.1846 -0.0147 -0.0807
 9061SOL    HW138642   2.993   1.084   5.715  0.2739 -0.8312  0.7256
 9061SOL    HW238643   2.873   1.164   5.747 -0.1764 -0.3957  0.6700
 9062SOL     OW38644   0.928   3.467   9.020  0.3064  0.0155 -0.3301
 9062SOL    HW138645   0.941   3.375   9.045 -1.7738  0.2893  1.7507
 9062SOL    HW238646   1.020   3.491   9.014 -0.3326  2.3205 -0.9709
 9063SOL     OW38647   0.035   1.739   3.740 -0.0036  0.7264  0.4096
 9063SOL    HW138648   0.092   1.688   3.797  0.2754 -0.4060 -0.8860
 9063SOL    HW238649   4.697   1.665   3.718  0.6544  0.7439 -1.3314
 9064SOL     OW38650   4.401   3.465   7.259 -0.4349 -0.3511  0.2001
 9064SOL    HW138651   4.366   3.448   7.172  3.4220 -1.1384 -1.1968
 9064SOL    HW238652   4.354   3.398   7.309 -0.2374  0.2735  1.2230
 9065SOL     OW38653   4.448   4.209   0.716  0.6959 -0.6498  0.3885
 9065SOL    HW138654   4.447   4.301   0.743 -2.3082 -0.6298  0.2163
 9065SOL    HW238655   4.487   4.203   0.629 -3.0778 -1.3745 -1.2817
 9066SOL     OW38656   0.141   0.137   2.071  0.0311 -0.1020 -0.1282
 9066SOL    HW138657   0.194   0.093   2.005 -1.1536  0.7639 -1.6502
 9066SOL    HW238658   0.177   0.224   2.055 -0.7597  0.3524  0.5339
 9067SOL     OW38659   0.063   0.652   9.036  0.1170  0.1307 -0.3087
 9067SOL    HW138660   4.694   0.621   9.056 -1.2894  4.2087 -0.2383
 9067SOL    HW238661   0.039   0.744   9.031 -0.7758 -0.0326  1.0721
 9068SOL     OW38662   0.972   2.953   2.406 -0.0245 -0.0384 -0.5600
 9068SOL    HW138663   0.884   2.918   2.391 -0.3631  1.0833 -1.1872
 9068SOL    HW238664   0.951   3.017   2.474  2.0731 -0.1492  0.1904
 9069SOL     OW38665   3.401   0.049   3.878 -0.0366 -0.0702 -0.2615
 9069SOL    HW138666   3.383   0.063   3.785 -2.8865  1.1509  0.4601
 9069SOL    HW238667   3.345   0.110   3.925  0.9294 -0.1917  1.0391
 9070SOL     OW38668   0.449   2.045   6.469 -0.2418 -0.4219 -0.1243
 9070SOL    HW138669   0.444   2.108   6.541  1.0110 -0.9360  0.4216
 9070SOL    HW238670   0.378   1.983   6.485 -0.6498  0.2151  0.5289
 9071SOL     OW38671   0.942   4.506   6.582 -0.0491 -0.1695 -0.0148
 9071SOL    HW138672   0.951   4.420   6.622  1.3991 -0.6240 -1.3356
 9071SOL    HW238673   0.983   4.556   6.653  0.1922 -2.8072  1.7340
 9072SOL     OW38674   0.349   2.740   7.172 -0.0039  0.1259  0.0837
 9072SOL    HW138675   0.381   2.814   7.222  1.8292 -1.4712  1.2644
 9072SOL    HW238676   0.272   2.775   7.127  1.9608  3.5643 -0.6002
 9073SOL     OW38677   1.742   1.307  17.335 -0.4495  0.3077  0.2939
 9073SOL    HW138678   1.727   1.398  17.311 -2.1986  0.4908  2.0882
 9073SOL    HW238679   1.708   1.315  17.424 -1.8662 -1.0831 -0.1200
 9074SOL     OW38680   0.781   4.119   6.364 -0.6873 -0.3060 -0.9018
 9074SOL    HW138681   0.690   4.092   6.365  0.0943 -2.9353 -0.6771
 9074SOL    HW238682   0.778   4.182   6.436 -1.1616 -0.3856 -0.8533
 9075SOL     OW38683   4.690   3.944  15.004 -0.3881 -0.4116 -0.2294
 9075SOL    HW138684   4.700   4.026  14.956  1.9856  0.0894  1.0797
 9075SOL    HW238685   4.708   3.881  14.934  2.5388 -0.5670  0.6583
 9076SOL     OW38686   4.507   1.496   5.477  0.0395  0.1726 -0.1520
 9076SOL    HW138687   4.593   1.461   5.500 -0.2174 -0.4418 -0.1155
 9076SOL    HW238688   4.504   1.544   5.559 -1.5689  1.8297 -1.1902
 9077SOL     OW38689   3.112   0.846   7.883  0.1979 -0.0460 -0.3639
 9077SOL    HW138690   3.071   0.760   7.895  2.4352 -1.3881 -2.3127
 9077SOL    HW238691   3.202   0.818   7.869  0.0679 -0.7472  0.2201
 9078SOL     OW38692   4.103   0.620   1.866  0.1204  0.6608  0.2692
 9078SOL    HW138693   4.105   0.568   1.786  0.5014 -1.5416  1.6806
 9078SOL    HW238694   4.050   0.694   1.838  0.2253 -0.1209 -1.9713
 9079SOL     OW38695   0.933   1.924  15.617  0.3751 -0.2320  0.4464
 9079SOL    HW138696   0.978   1.900  15.536 -2.2539  0.9960 -1.3662
 9079SOL    HW238697   0.855   1.870  15.607 -0.1014  0.5387 -0.0057
 9080SOL     OW38698   2.980   0.832   6.959 -0.6853  0.3594 -0.2792
 9080SOL    HW138699   2.953   0.740   6.971 -2.1136  0.7532 -0.4232
 9080SOL    HW238700   3.075   0.823   6.967 -0.7640 -1.3723 -1.2226
 9081SOL     OW38701   3.261   2.151   8.195 -0.2239  0.9030 -0.0266
 9081SOL    HW138702   3.321   2.137   8.268  2.5023  0.0673 -2.4240
 9081SOL    HW238703   3.220   2.236   8.210  0.1003  0.9435  0.6374
 9082SOL     OW38704   0.938   0.250   0.305  0.8676  0.2935 -0.4880
 9082SOL    HW138705   0.884   0.183   0.264  1.5626 -0.1241 -0.7220
 9082SOL    HW238706   1.018   0.207   0.335  0.6262  1.4238  1.8437
 9083SOL     OW38707   1.708   0.987  17.507 -0.3778  0.3236  0.4258
 9083SOL    HW138708   1.744   1.076  17.500  0.2400  0.1034  0.7975
 9083SOL    HW238709   1.619   0.991  17.472  0.3540 -1.9015 -1.7084
 9084SOL     OW38710   2.365   3.661   2.641 -0.1925  0.1641  0.6025
 9084SOL    HW138711   2.456   3.663   2.613 -0.4119 -2.2725 -0.2935
 9084SOL    HW238712   2.333   3.690   2.556 -0.2646 -1.6033  0.0323
 9085SOL     OW38713   1.146   2.587   3.202 -0.1330 -0.5807 -0.0728
 9085SOL    HW138714   1.211   2.587   3.132 -2.2426 -2.6113 -2.0255
 9085SOL    HW238715   1.063   2.557   3.165  0.0049 -1.6665  0.4792
 9086SOL     OW38716   4.629   0.595  10.523 -0.3244 -1.0635  0.2446
 9086SOL    HW138717   4.646   0.666  10.461  0.1610 -2.7976 -1.6210
 9086SOL    HW238718   4.568   0.543  10.471 -1.3527  1.0846 -0.7213
 9087SOL     OW38719   1.069   2.258   4.029 -0.0467  0.2949  0.0690
 9087SOL    HW138720   1.127   2.273   3.954  0.0625  0.9089  0.2766
 9087SOL    HW238721   1.132   2.235   4.098 -0.3110 -1.1364 -0.1578
 9088SOL     OW38722   2.334   4.036   5.193  0.3307  0.1598  0.0505
 9088SOL    HW138723   2.289   3.988   5.263  0.6703 -1.2655 -0.7044
 9088SOL    HW238724   2.423   4.034   5.228  1.2793 -1.6099 -2.4496
 9089SOL     OW38725   1.073   1.696   5.445 -0.1836  0.2576  1.0211
 9089SOL    HW138726   1.028   1.619   5.410 -1.0781  3.2845 -4.4665
 9089SOL    HW238727   1.006   1.763   5.451 -0.0255  0.6469 -1.3321
 9090SOL     OW38728   3.059   0.852   1.801 -0.1843 -0.5392  0.5265
 9090SOL    HW138729   3.107   0.834   1.720 -2.7448  0.4724 -1.2215
 9090SOL    HW238730   3.012   0.931   1.776  0.1187 -0.5092  0.0517
 9091SOL     OW38731   3.945   2.736   6.665  0.3038  0.0070 -0.0309
 9091SOL    HW138732   4.039   2.755   6.675  0.2548 -0.1010  0.6160
 9091SOL    HW238733   3.952   2.662   6.605  0.8987 -1.4775  1.8755
 9092SOL     OW38734   1.350   0.245   8.792 -0.3461  0.6241  0.5188
 9092SOL    HW138735   1.426   0.267   8.739 -0.2191  1.3933  1.0183
 9092SOL    HW238736   1.388   0.190   8.860 -0.8927 -0.6493 -0.2026
 9093SOL     OW38737   1.000   1.432   6.265  0.4610 -0.5079 -0.1403
 9093SOL    HW138738   0.938   1.500   6.240  0.3430  0.0126  1.5860
 9093SOL    HW238739   1.074   1.467   6.216 -0.0828 -1.6506 -1.7789
 9094SOL     OW38740   3.786   0.313  11.980 -0.1673  0.2433  0.2962
 9094SOL    HW138741   3.878   0.334  11.962  0.2179 -0.8116  1.0601
 9094SOL    HW238742   3.747   0.363  11.909 -2.6381 -2.5289 -0.2964
 9095SOL     OW38743   0.011   4.242  13.483  0.1552 -0.3311 -0.1488
 9095SOL    HW138744   4.706   4.274  13.396 -3.0479  3.4593  2.1442
 9095SOL    HW238745   4.682   4.304  13.538  1.5209  0.5531  0.0411
 9096SOL     OW38746   4.015   0.685   5.861  0.2377 -0.0165  0.0036
 9096SOL    HW138747   3.986   0.648   5.945  0.0854 -0.3368 -0.1916
 9096SOL    HW238748   3.960   0.647   5.793  0.6554  3.9894 -2.5238
 9097SOL     OW38749   2.705   2.514   1.030  0.3846 -0.3242  0.3461
 9097SOL    HW138750   2.799   2.522   1.019  0.1242  2.0903 -0.1887
 9097SOL    HW238751   2.693   2.425   1.062  0.7421 -0.4116  0.2308
 9098SOL     OW38752   1.329   2.424   3.611  0.1143  0.3669 -0.0736
 9098SOL    HW138753   1.326   2.329   3.601  1.0463  0.3474 -0.1565
 9098SOL    HW238754   1.326   2.440   3.517  0.1271 -0.1962 -0.1705
 9099SOL     OW38755   0.409   3.626   2.697 -0.7279  0.4047  0.2566
 9099SOL    HW138756   0.361   3.552   2.736 -2.5659  1.0795 -0.7362
 9099SOL    HW238757   0.379   3.710   2.731 -1.5325 -0.2341  1.1400
 9100SOL     OW38758   0.552   3.762   0.065 -0.7732 -0.2227 -0.0031
 9100SOL    HW138759   0.487   3.823   0.031  0.0169 -0.0173 -1.1261
 9100SOL    HW238760   0.613   3.829   0.096 -0.1291 -0.7379 -0.1745
 9101SOL     OW38761   0.961   2.801   5.595  0.0133  0.5892 -0.4841
 9101SOL    HW138762   1.015   2.766   5.666 -1.5296 -1.4397 -0.3023
 9101SOL    HW238763   0.902   2.727   5.581 -0.6253  1.1177 -0.5634
 9102SOL     OW38764   4.600   1.470   1.234 -0.0315  0.1764  0.1877
 9102SOL    HW138765   4.616   1.559   1.202  2.7395 -0.6179 -0.6270
 9102SOL    HW238766   4.504   1.470   1.238 -0.1270 -0.6283 -2.1931
 9103SOL     OW38767   3.594   1.173  16.997  0.4325  0.1693 -0.0546
 9103SOL    HW138768   3.522   1.211  17.048 -0.0590  1.9348 -2.0270
 9103SOL    HW238769   3.671   1.219  17.030 -2.3493  3.9307  1.3117
 9104SOL     OW38770   3.669   0.115   7.912 -0.5850 -0.2039  0.7781
 9104SOL    HW138771   3.762   0.095   7.915 -0.3409  0.7635 -0.2436
 9104SOL    HW238772   3.660   0.109   7.817 -1.0144  0.7870  0.7488
 9105SOL     OW38773   4.608   2.621  13.616  0.5984  0.1262  0.0787
 9105SOL    HW138774   4.597   2.704  13.662 -0.9668 -0.9065  1.5267
 9105SOL    HW238775   4.540   2.569  13.659  1.3828 -1.0840 -0.1361
 9106SOL     OW38776   1.679   3.007  15.174 -0.0936 -0.4165 -0.1169
 9106SOL    HW138777   1.598   3.053  15.195  0.5443  1.0191 -0.8680
 9106SOL    HW238778   1.724   3.081  15.134 -0.6492 -0.3585 -0.6309
 9107SOL     OW38779   3.050   3.314   3.389  0.9917  0.1354  0.3469
 9107SOL    HW138780   3.033   3.407   3.370 -2.3407 -0.8871 -1.6904
 9107SOL    HW238781   2.996   3.267   3.326  0.1356 -0.0504  1.2147
 9108SOL     OW38782   2.590   3.197  16.934  0.3168 -0.3543 -0.0652
 9108SOL    HW138783   2.559   3.273  16.985  0.8496 -2.5072  3.4783
 9108SOL    HW238784   2.538   3.211  16.855  1.8176  0.6105 -0.8909
 9109SOL     OW38785   0.035   3.090   9.963  0.1249 -0.3332 -0.2737
 9109SOL    HW138786   4.714   3.176   9.950  2.8656  0.8846 -0.7093
 9109SOL    HW238787   0.120   3.105  10.004 -0.1400  1.2295 -0.3099
 9110SOL     OW38788   2.441   4.471  15.994 -0.1492 -0.1355 -0.5014
 9110SOL    HW138789   2.372   4.466  15.928 -2.1974 -0.6388  1.6610
 9110SOL    HW238790   2.425   4.562  16.021 -1.0976 -0.7507  1.0444
 9111SOL     OW38791   1.295   2.384  15.761 -0.6004 -0.1711  0.0464
 9111SOL    HW138792   1.343   2.371  15.843 -0.3305  1.5758  0.1536
 9111SOL    HW238793   1.265   2.293  15.758 -0.7585 -0.0277 -2.3894
 9112SOL     OW38794   0.484   4.158  12.329 -0.5468 -0.2681 -1.0756
 9112SOL    HW138795   0.539   4.187  12.402 -1.4001  0.0077 -0.5396
 9112SOL    HW238796   0.425   4.232  12.317  0.2711  0.5584  0.0140
 9113SOL     OW38797   1.776   0.294   7.127  0.0372 -0.0239  1.1038
 9113SOL    HW138798   1.851   0.260   7.175 -0.0251 -0.7563  0.6776
 9113SOL    HW238799   1.706   0.294   7.192 -1.1256  0.3773 -0.1341
 9114SOL     OW38800   0.471   0.017   9.735  0.0528  0.1407  0.2334
 9114SOL    HW138801   0.484   4.642   9.734  1.6499  0.3602  0.2086
 9114SOL    HW238802   0.376   0.028   9.726 -0.0491 -0.3472  0.7132
 9115SOL     OW38803   3.782   2.143   3.222  0.1286  0.5717 -0.6273
 9115SOL    HW138804   3.734   2.062   3.208  2.1564 -0.5828 -0.8832
 9115SOL    HW238805   3.763   2.195   3.144 -0.5618  0.0152 -0.8257
 9116SOL     OW38806   1.580   2.329  15.148  0.4336 -0.6197 -0.0890
 9116SOL    HW138807   1.603   2.264  15.214  1.1692 -1.3916 -1.0895
 9116SOL    HW238808   1.536   2.282  15.076  1.2423 -1.0912 -0.2784
 9117SOL     OW38809   4.684   0.793  12.041  0.0851 -0.5541 -0.0320
 9117SOL    HW138810   4.702   0.846  12.119  0.3164 -1.7113  0.6944
 9117SOL    HW238811   0.057   0.779  12.018  1.0316  0.7554  2.9059
 9118SOL     OW38812   1.829   4.719   8.269  0.3064 -0.6045  0.2730
 9118SOL    HW138813   1.864   0.014   8.181 -1.2757  0.4186 -0.1911
 9118SOL    HW238814   1.770   4.648   8.247  1.6903 -1.0035 -2.1827
 9119SOL     OW38815   0.798   0.885   9.527 -0.3409 -0.1411 -0.0310
 9119SOL    HW138816   0.817   0.810   9.584  0.3786 -0.8438 -1.1910
 9119SOL    HW238817   0.743   0.935   9.588  1.2285  0.9152  0.4976
 9120SOL     OW38818   4.696   1.808   8.688 -0.1574 -0.2777  0.1726
 9120SOL    HW138819   4.630   1.824   8.621  0.7685 -0.2622 -0.7420
 9120SOL    HW238820   0.024   1.892   8.683 -0.6878  0.0773  1.2049
 9121SOL     OW38821   1.829   1.114   5.843 -0.0171  0.1975 -0.9096
 9121SOL    HW138822   1.785   1.068   5.771  2.9058 -0.6281 -2.1603
 9121SOL    HW238823   1.875   1.045   5.891 -2.6457  1.2185  3.0323
 9122SOL     OW38824   2.155   4.671   6.786 -0.5657 -0.2974  0.4128
 9122SOL    HW138825   2.233   4.705   6.830 -2.1573  1.2884  2.0043
 9122SOL    HW238826   2.112   4.628   6.860  1.5260  0.7353  2.2006
 9123SOL     OW38827   1.591   2.833   2.013  0.4909  0.0302 -0.4485
 9123SOL    HW138828   1.656   2.777   1.970  0.7161 -0.3070  0.3280
 9123SOL    HW238829   1.607   2.808   2.104 -0.2029 -2.2606 -0.9577
 9124SOL     OW38830   3.559   0.314   1.931 -0.2137  0.3117 -0.3532
 9124SOL    HW138831   3.548   0.294   2.024  2.7541 -1.2389 -0.3224
 9124SOL    HW238832   3.623   0.385   1.924 -2.4145  2.0876 -2.2270
 9125SOL     OW38833   3.057   0.686   7.254 -0.0642 -0.0631 -0.0654
 9125SOL    HW138834   3.045   0.596   7.285 -4.8230 -0.5192 -3.2114
 9125SOL    HW238835   3.006   0.686   7.173 -2.5879 -0.0195  1.5014
 9126SOL     OW38836   3.573   2.515  16.918 -0.2709 -0.1966  0.1706
 9126SOL    HW138837   3.535   2.554  16.840 -1.0206  0.9821  1.1200
 9126SOL    HW238838   3.645   2.576  16.938  0.2403 -1.4985  2.3691
 9127SOL     OW38839   3.479   1.261   2.790 -0.1424 -0.1321 -0.3972
 9127SOL    HW138840   3.540   1.242   2.861 -1.7584 -2.2750  0.4419
 9127SOL    HW238841   3.533   1.313   2.731 -1.9357  1.6880 -0.4345
 9128SOL     OW38842   4.166   0.482   8.797  0.3666 -0.2299 -0.4134
 9128SOL    HW138843   4.195   0.406   8.848  2.0804  0.5254 -0.2393
 9128SOL    HW238844   4.073   0.463   8.795  0.5216 -0.9406 -0.6723
 9129SOL     OW38845   3.061   0.863   8.541 -0.7364 -0.3659  0.0124
 9129SOL    HW138846   3.071   0.949   8.499 -1.1854 -1.7537 -2.8755
 9129SOL    HW238847   3.142   0.827   8.504 -0.8236 -1.2112  0.6515
 9130SOL     OW38848   3.991   2.974   2.042 -0.1007 -0.6526 -0.3380
 9130SOL    HW138849   3.898   2.993   2.056 -0.5165 -0.0196 -4.0195
 9130SOL    HW238850   3.986   2.901   1.980  0.8198  0.2930 -1.5252
 9131SOL     OW38851   2.813   3.098   1.287 -0.2821 -0.0174 -0.8355
 9131SOL    HW138852   2.766   3.025   1.326 -3.2867  0.9110 -2.6994
 9131SOL    HW238853   2.865   3.052   1.221 -1.9114  0.0682 -2.1837
 9132SOL     OW38854   1.503   0.675   6.860  0.5530 -0.8789 -0.5082
 9132SOL    HW138855   1.578   0.615   6.854  0.1905 -1.3252 -0.5385
 9132SOL    HW238856   1.560   0.752   6.870 -1.1006  0.2768  0.1653
 9133SOL     OW38857   0.385   1.365   9.239 -0.1619 -0.1755  0.2657
 9133SOL    HW138858   0.351   1.425   9.306 -1.3067 -0.9149  0.3405
 9133SOL    HW238859   0.478   1.384   9.228 -0.1723  0.7100  1.6228
 9134SOL     OW38860   2.462   3.265   8.089  0.1121 -0.5628 -0.0248
 9134SOL    HW138861   2.413   3.301   8.015  0.1568  2.0566  1.2368
 9134SOL    HW238862   2.551   3.289   8.065 -0.3647  0.9692 -0.2263
 9135SOL     OW38863   1.334   2.501   5.300 -0.7256  0.1081 -0.3647
 9135SOL    HW138864   1.267   2.559   5.336 -1.7737 -1.7481  0.6428
 9135SOL    HW238865   1.330   2.432   5.367  1.7072  2.4773  2.2360
 9136SOL     OW38866   1.747   0.802   9.142 -0.4827 -0.0202  0.3553
 9136SOL    HW138867   1.814   0.795   9.210  2.0204  1.2764 -1.9758
 9136SOL    HW238868   1.794   0.772   9.064  0.7259  1.8425  0.3680
 9137SOL     OW38869   2.585   1.235  15.893  0.7659 -0.1492 -0.3480
 9137SOL    HW138870   2.517   1.297  15.920  0.5226 -0.0557 -1.1799
 9137SOL    HW238871   2.644   1.292  15.845  1.7147 -0.5347  0.3566
 9138SOL     OW38872   1.759   0.457   6.590  0.3920 -0.4012  0.2629
 9138SOL    HW138873   1.785   0.459   6.498 -0.0352 -0.8617  0.1275
 9138SOL    HW238874   1.684   0.398   6.574 -0.1615  0.5115 -0.5044
 9139SOL     OW38875   3.841   3.081   1.772 -0.2106  0.3772  0.1999
 9139SOL    HW138876   3.838   3.164   1.725  0.3943  0.0101 -0.4934
 9139SOL    HW238877   3.931   3.054   1.756 -0.5679 -0.3031 -0.6310
 9140SOL     OW38878   3.276   0.846   3.148 -0.1194 -0.4658  0.3959
 9140SOL    HW138879   3.284   0.758   3.186  0.1009 -1.4984 -2.0172
 9140SOL    HW238880   3.338   0.831   3.076 -0.8183  1.3283 -0.5628
 9141SOL     OW38881   2.550   1.955  16.154  0.1299  0.3603  0.0849
 9141SOL    HW138882   2.549   1.913  16.240  0.8456 -0.1591 -0.1604
 9141SOL    HW238883   2.458   1.945  16.129  0.4216  1.5946 -1.4969
 9142SOL     OW38884   1.773   1.021  14.756 -0.0804  0.0751 -0.3019
 9142SOL    HW138885   1.821   1.104  14.748 -0.1688  0.2567  1.0783
 9142SOL    HW238886   1.773   1.007  14.850 -1.0652 -1.4896 -0.5440
 9143SOL     OW38887   0.206   0.610  15.527 -0.5941  0.0746  0.3164
 9143SOL    HW138888   0.135   0.619  15.464 -0.1506 -1.0099 -0.3380
 9143SOL    HW238889   0.154   0.634  15.603  0.3625  0.7917  0.7425
 9144SOL     OW38890   4.584   3.141  13.139  0.3235 -0.1426 -0.4875
 9144SOL    HW138891   4.580   3.236  13.150  1.5178  0.0507 -1.7613
 9144SOL    HW238892   4.652   3.122  13.203  1.2039  0.3677 -1.2645
 9145SOL     OW38893   1.223   3.930   7.014  0.7760  0.3018  0.5651
 9145SOL    HW138894   1.208   4.004   6.955 -0.1785 -0.3374 -0.0042
 9145SOL    HW238895   1.286   3.964   7.077 -0.4298 -1.8462  2.8862
 9146SOL     OW38896   0.192   0.912   2.699 -0.4308  0.3016  0.4955
 9146SOL    HW138897   0.158   0.829   2.664 -1.3697  0.4420  1.0875
 9146SOL    HW238898   0.261   0.869   2.749 -0.9555 -0.4802  0.5545
 9147SOL     OW38899   4.365   2.268  15.698  0.0960  0.5668  0.0211
 9147SOL    HW138900   4.452   2.306  15.699  0.5553 -0.4624 -1.0383
 9147SOL    HW238901   4.361   2.238  15.607  2.2261 -0.7618  0.3647
 9148SOL     OW38902   2.099   2.332   6.725  0.2003 -0.2691  0.2101
 9148SOL    HW138903   2.087   2.286   6.809 -1.8707  1.9587  1.1517
 9148SOL    HW238904   2.144   2.273   6.665 -0.1461 -0.5045  0.1804
 9149SOL     OW38905   3.382   4.353   5.437  0.6111  0.1997 -0.2027
 9149SOL    HW138906   3.399   4.318   5.524  1.6240  0.9358 -0.1084
 9149SOL    HW238907   3.302   4.403   5.451  0.4979 -0.4796  1.6026
 9150SOL     OW38908   2.141   1.910  13.910 -0.1918 -0.0966  0.0621
 9150SOL    HW138909   2.224   1.863  13.918 -0.5481 -0.5935  0.9107
 9150SOL    HW238910   2.081   1.847  13.869  1.0051 -1.8100  0.9249
 9151SOL     OW38911   1.077   4.296   6.422  0.2076 -0.5907  0.3632
 9151SOL    HW138912   1.046   4.364   6.363 -0.3464 -1.4996 -0.3768
 9151SOL    HW238913   1.084   4.220   6.365 -1.5562 -1.1271  0.8728
 9152SOL     OW38914   1.864   0.448   6.336  0.0077  0.8026 -0.8356
 9152SOL    HW138915   1.866   0.472   6.243 -0.0931  2.5521 -0.3791
 9152SOL    HW238916   1.935   0.384   6.340 -1.0473 -0.2697  0.8955
 9153SOL     OW38917   3.840   4.538   3.302  0.0765 -0.1597  0.4754
 9153SOL    HW138918   3.836   4.466   3.239 -2.0769 -0.2182  0.6908
 9153SOL    HW238919   3.746   4.545   3.314 -0.1261  0.6237 -1.5731
 9154SOL     OW38920   1.546   3.487  15.054 -0.5068 -0.3413  0.5685
 9154SOL    HW138921   1.540   3.432  14.976  4.8590 -0.7595  0.4459
 9154SOL    HW238922   1.603   3.440  15.115  1.1525 -0.4935 -1.1008
 9155SOL     OW38923   2.646   1.195   8.716  0.6301 -0.1990  0.6066
 9155SOL    HW138924   2.630   1.199   8.810  1.7522  0.1223  0.7762
 9155SOL    HW238925   2.558   1.211   8.683 -0.1013 -2.8614  1.2155
 9156SOL     OW38926   0.718   1.364   2.403 -0.8511  0.1246  0.1663
 9156SOL    HW138927   0.655   1.430   2.429 -0.6941  0.4189 -0.2021
 9156SOL    HW238928   0.676   1.325   2.325 -1.0466  1.0175 -0.1713
 9157SOL     OW38929   2.164   2.034  14.311  0.1346  0.2488 -0.0446
 9157SOL    HW138930   2.168   2.060  14.219 -0.5856  0.4408 -0.0214
 9157SOL    HW238931   2.072   2.013  14.327  0.7234 -3.8860 -1.9154
 9158SOL     OW38932   0.650   4.228   8.775  0.0155  0.7700 -0.6251
 9158SOL    HW138933   0.604   4.170   8.836  0.3503  1.5127  0.3409
 9158SOL    HW238934   0.646   4.175   8.696  1.9768 -0.8044  0.3117
 9159SOL     OW38935   1.780   3.593   4.179  0.4305 -0.0400  0.1356
 9159SOL    HW138936   1.724   3.658   4.137  0.2137  1.3265  2.5359
 9159SOL    HW238937   1.774   3.613   4.272  1.4465 -1.5247  0.5132
 9160SOL     OW38938   2.150   2.654   8.121 -0.6272 -0.3170  0.2811
 9160SOL    HW138939   2.235   2.617   8.096 -1.6424 -1.7542 -1.0250
 9160SOL    HW238940   2.171   2.720   8.186  1.3788 -0.4216 -0.2718
 9161SOL     OW38941   3.649   3.814   7.997 -0.3251 -0.1952  0.5037
 9161SOL    HW138942   3.577   3.758   7.969 -0.7598  1.5567 -1.9029
 9161SOL    HW238943   3.711   3.745   8.020 -0.1150  0.5535  2.1460
 9162SOL     OW38944   2.214   1.594  10.474  0.1851 -0.1999 -0.0469
 9162SOL    HW138945   2.136   1.618  10.524 -1.7185 -2.9237 -1.7000
 9162SOL    HW238946   2.180   1.518  10.425 -0.7995 -0.0876  0.4587
 9163SOL     OW38947   2.845   0.095   3.122  0.5010  0.3181 -0.0703
 9163SOL    HW138948   2.869   0.108   3.030  0.1997 -3.5659 -0.6898
 9163SOL    HW238949   2.850   0.185   3.155 -1.5700 -0.1165  1.4639
 9164SOL     OW38950   3.171   0.631  12.973  0.0813 -0.3148  0.0481
 9164SOL    HW138951   3.161   0.605  12.882  0.5597 -0.1573 -0.0478
 9164SOL    HW238952   3.235   0.568  13.007  1.8908  1.9384  0.8551
 9165SOL     OW38953   1.833   1.163   4.181 -0.1726 -0.5689  0.3168
 9165SOL    HW138954   1.913   1.211   4.157 -1.3777  0.7216 -1.0917
 9165SOL    HW238955   1.856   1.072   4.164 -0.8703 -0.8490  0.8656
 9166SOL     OW38956   2.197   4.100   4.979 -0.2582 -0.0292 -0.1481
 9166SOL    HW138957   2.249   4.080   5.057 -0.5933  0.5228  0.2127
 9166SOL    HW238958   2.135   4.155   5.027  0.1817  0.0170  0.3699
 9167SOL     OW38959   3.748   2.772   0.240  0.6324  0.3685  0.3004
 9167SOL    HW138960   3.653   2.763   0.248  0.5192  1.1035 -0.2535
 9167SOL    HW238961   3.784   2.744   0.324  0.4136  0.0687  0.2956
 9168SOL     OW38962   0.181   4.719   3.808 -0.1728 -0.2471 -0.2451
 9168SOL    HW138963   0.246   0.069   3.824  0.3662 -0.8265  0.0571
 9168SOL    HW238964   0.201   4.694   3.718 -2.1694  3.1229 -1.6536
 9169SOL     OW38965   1.641   2.769   5.799 -0.3349 -0.1151  0.6009
 9169SOL    HW138966   1.588   2.785   5.722  0.9607  0.8613 -0.0973
 9169SOL    HW238967   1.702   2.707   5.758 -2.5629 -3.1025  1.7883
 9170SOL     OW38968   2.026   4.586   7.595 -0.0799  0.0588 -0.1100
 9170SOL    HW138969   1.935   4.563   7.613  0.3740 -0.7506  1.1707
 9170SOL    HW238970   2.038   4.536   7.514 -0.5854 -0.5003  0.1608
 9171SOL     OW38971   1.610   0.200   9.247 -0.1376 -0.0797  0.2017
 9171SOL    HW138972   1.583   0.171   9.159 -0.9637 -1.5844  0.9452
 9171SOL    HW238973   1.553   0.136   9.289 -1.1905  1.6558  1.3910
 9172SOL     OW38974   4.235   1.921  15.638  0.0183  0.3062  0.0490
 9172SOL    HW138975   4.238   1.826  15.631  1.6469  0.3736 -0.0128
 9172SOL    HW238976   4.290   1.939  15.714 -0.4105  2.1456 -0.0625
 9173SOL     OW38977   4.311   3.268   0.595  0.1946 -0.4270 -0.3777
 9173SOL    HW138978   4.383   3.208   0.614  2.0787  1.0924 -2.7090
 9173SOL    HW238979   4.266   3.232   0.518 -1.5524 -0.2363  0.5406
 9174SOL     OW38980   1.768   2.160  14.123 -0.2936  0.3895  0.1615
 9174SOL    HW138981   1.775   2.065  14.137 -0.6491  0.8390  3.2589
 9174SOL    HW238982   1.688   2.175  14.071 -0.8821  0.9568  1.2400
 9175SOL     OW38983   3.093   2.139  10.540 -0.5746  0.3931  0.2328
 9175SOL    HW138984   3.091   2.133  10.636  0.3208  1.6890  0.3415
 9175SOL    HW238985   3.177   2.179  10.521  1.1210 -2.2283  2.2082
 9176SOL     OW38986   1.703   3.202   5.929  0.2613  0.5720 -0.0039
 9176SOL    HW138987   1.684   3.222   6.021 -1.9213 -0.6572 -0.1982
 9176SOL    HW238988   1.748   3.118   5.930 -0.1721  0.3179 -2.8807
 9177SOL     OW38989   2.921   2.128   3.493 -0.4146  0.1499 -0.2863
 9177SOL    HW138990   2.891   2.190   3.559  0.0027  2.0127 -1.8334
 9177SOL    HW238991   2.886   2.047   3.530 -0.0994  0.2549  0.2401
 9178SOL     OW38992   4.290   1.784  15.307  0.2214  0.2961 -0.0054
 9178SOL    HW138993   4.349   1.715  15.340  0.7278  0.6883 -0.0898
 9178SOL    HW238994   4.210   1.733  15.299 -0.4415  1.8243 -2.7767
 9179SOL     OW38995   2.779   3.416   5.065 -0.3471 -0.0297  0.0021
 9179SOL    HW138996   2.692   3.434   5.102  0.9996  3.8588  1.3028
 9179SOL    HW238997   2.767   3.325   5.038  0.4220  0.6228 -2.4898
 9180SOL     OW38998   4.652   0.189   5.495  0.2482  0.5266 -0.0391
 9180SOL    HW138999   4.633   0.146   5.579 -2.3879  0.5565 -0.6238
 9180SOL    HW239000   4.607   0.273   5.506  0.3242  0.3912  1.3310
 9181SOL     OW39001   4.135   3.896   6.261 -0.1938  0.3366  0.0608
 9181SOL    HW139002   4.092   3.932   6.339 -1.1918 -2.1465  0.6558
 9181SOL    HW239003   4.061   3.875   6.204 -0.0816  0.2848 -0.0645
 9182SOL     OW39004   1.457   2.178   3.717 -0.0518  0.5151  0.2367
 9182SOL    HW139005   1.494   2.130   3.643 -1.1226 -0.0394  0.0642
 9182SOL    HW239006   1.533   2.216   3.762 -0.4869  1.0362  0.5386
 9183SOL     OW39007   0.258   1.818  16.223 -0.2395  0.1121 -0.0771
 9183SOL    HW139008   0.293   1.740  16.179  0.7346  1.7038 -2.1242
 9183SOL    HW239009   0.189   1.783  16.279 -1.1787  2.0749 -0.0467
 9184SOL     OW39010   4.343   2.809  16.948 -0.2228 -0.2547  0.8397
 9184SOL    HW139011   4.429   2.786  16.984  1.8179  3.5448 -1.6388
 9184SOL    HW239012   4.366   2.864  16.873 -2.6396 -0.1150  0.1956
 9185SOL     OW39013   1.903   2.056   2.102 -0.6214  0.0625 -0.1616
 9185SOL    HW139014   1.859   2.078   2.020 -0.0650  1.2722 -0.1315
 9185SOL    HW239015   1.979   2.114   2.101  1.1189 -2.1942  1.1117
 9186SOL     OW39016   0.144   2.717   2.370 -0.0249  0.6088  0.2461
 9186SOL    HW139017   0.111   2.712   2.280  0.6921 -2.5755  0.1742
 9186SOL    HW239018   0.060   2.702   2.413 -0.0038  0.5883  0.2798
 9187SOL     OW39019   2.513   0.168   6.675  0.2228 -0.6705 -0.4977
 9187SOL    HW139020   2.516   0.136   6.766  3.5891 -2.1550 -1.1441
 9187SOL    HW239021   2.542   0.094   6.622 -1.6376 -2.0525  0.4031
 9188SOL     OW39022   0.405   2.865   0.891  0.1338 -0.4854 -0.1066
 9188SOL    HW139023   0.389   2.771   0.884  1.1868 -0.5473 -1.8098
 9188SOL    HW239024   0.451   2.867   0.975 -1.9056  1.9621  0.9476
 9189SOL     OW39025   3.106   2.909   5.074 -0.2914  0.4544  0.2007
 9189SOL    HW139026   3.138   2.999   5.075  0.6733  0.0954  1.7890
 9189SOL    HW239027   3.047   2.904   5.148 -1.5371 -2.2240 -0.9828
 9190SOL     OW39028   3.794   3.982   5.792  0.4600 -0.1109  0.0903
 9190SOL    HW139029   3.705   3.966   5.823  1.5440 -0.3704  3.0819
 9190SOL    HW239030   3.830   4.017   5.874  0.5779  0.0166 -0.0168
 9191SOL     OW39031   3.642   1.823   6.715  0.1014  0.4239  0.5462
 9191SOL    HW139032   3.675   1.760   6.650  2.6326 -0.1585  2.3897
 9191SOL    HW239033   3.561   1.780   6.743  0.4389 -0.2640  0.4722
 9192SOL     OW39034   1.696   1.937   4.411  0.3205  0.4028 -0.0709
 9192SOL    HW139035   1.702   1.852   4.455 -0.0402 -0.7649 -2.2676
 9192SOL    HW239036   1.720   1.915   4.321  1.0656  2.1587 -0.3021
 9193SOL     OW39037   2.986   2.211   7.020  0.6242  0.0796  0.4082
 9193SOL    HW139038   3.004   2.199   6.926  2.2473 -0.5636  0.8064
 9193SOL    HW239039   2.953   2.124   7.043  1.2070 -0.5672 -1.1508
 9194SOL     OW39040   0.933   1.681   8.243  0.1410 -0.1439 -0.0674
 9194SOL    HW139041   1.003   1.689   8.308  0.3092 -0.4301 -0.2132
 9194SOL    HW239042   0.893   1.768   8.245  0.6351  0.1558 -2.4784
 9195SOL     OW39043   1.705   0.716   5.388 -0.1045 -0.0414 -0.4662
 9195SOL    HW139044   1.725   0.766   5.309 -2.4404  1.6953  0.0517
 9195SOL    HW239045   1.767   0.757   5.449  1.4026 -0.2975 -1.8232
 9196SOL     OW39046   2.985   4.274   4.610  0.4778 -0.5788 -0.5179
 9196SOL    HW139047   3.000   4.255   4.518 -1.8566 -3.1400 -0.3627
 9196SOL    HW239048   3.034   4.203   4.651  1.1231  1.5120  2.3424
 9197SOL     OW39049   4.580   3.778   5.590 -0.3129 -0.2212  0.3046
 9197SOL    HW139050   4.506   3.804   5.534  1.5031  2.5539 -0.8209
 9197SOL    HW239051   4.649   3.841   5.570  0.1012 -1.0621 -0.9751
 9198SOL     OW39052   2.638   2.919   7.632 -0.3329  0.3763 -0.5461
 9198SOL    HW139053   2.716   2.883   7.591  0.7321  1.4027  0.5879
 9198SOL    HW239054   2.667   2.973   7.706  1.2193  0.9516 -1.5997
 9199SOL     OW39055   3.725   3.127   2.514 -0.1275  0.1998 -0.0749
 9199SOL    HW139056   3.787   3.196   2.488 -1.0489  1.1148  0.1432
 9199SOL    HW239057   3.780   3.059   2.476  1.0756  0.0641  1.9604
 9200SOL     OW39058   4.070   4.035   5.110 -0.3545  0.7937  0.0556
 9200SOL    HW139059   4.018   3.955   5.105 -0.5113  0.8712  0.4304
 9200SOL    HW239060   4.157   4.010   5.079 -0.1865 -0.0608  1.2309
 9201SOL     OW39061   4.662   2.165   9.131  0.5315 -0.4102 -0.4290
 9201SOL    HW139062   0.023   2.119   9.108  2.2070  1.2537  2.1238
 9201SOL    HW239063   4.624   2.193   9.048  0.2601  1.8412  0.4499
 9202SOL     OW39064   3.241   1.363   8.467  0.3204  0.4106  0.6173
 9202SOL    HW139065   3.300   1.344   8.540  0.2118  0.8114  0.8121
 9202SOL    HW239066   3.204   1.440   8.510  0.0394  0.1231  0.8849
 9203SOL     OW39067   1.231   3.056   5.527 -0.1206  0.3134 -0.2776
 9203SOL    HW139068   1.187   3.021   5.449 -2.6964  1.1474  0.8234
 9203SOL    HW239069   1.160   3.075   5.588 -0.7427 -0.0071 -0.8993
 9204SOL     OW39070   4.328   4.597   4.353 -0.3686  0.1821  0.2493
 9204SOL    HW139071   4.315   4.532   4.284 -0.8804  1.0139 -0.4336
 9204SOL    HW239072   4.302   4.672   4.300 -1.2347 -1.1322 -1.1882
 9205SOL     OW39073   3.463   0.210   2.672  0.5665  0.0790 -0.7662
 9205SOL    HW139074   3.544   0.218   2.621 -0.9950 -0.6921 -3.3629
 9205SOL    HW239075   3.477   0.285   2.730 -2.9990  0.7823 -0.8444
 9206SOL     OW39076   3.559   1.214  10.444 -0.1881 -0.2454  0.2141
 9206SOL    HW139077   3.629   1.269  10.480 -0.9429  3.2857 -3.7077
 9206SOL    HW239078   3.480   1.254  10.479 -0.2440 -1.8568  1.8993
 9207SOL     OW39079   4.683   2.432   0.624  0.0937  0.2416  0.4787
 9207SOL    HW139080   4.594   2.445   0.591 -0.4335  1.7085  2.4873
 9207SOL    HW239081   0.021   2.446   0.550 -0.2676  0.8571  0.3161
 9208SOL     OW39082   3.545   0.656   8.487 -0.3686  0.0278 -0.0686
 9208SOL    HW139083   3.560   0.656   8.581  2.9032  0.4385 -0.5920
 9208SOL    HW239084   3.571   0.744   8.462 -0.6287 -0.0939 -0.7935
 9209SOL     OW39085   1.945   0.666   4.716  0.3789  0.2277  0.3102
 9209SOL    HW139086   1.981   0.633   4.798  1.3518 -0.9960 -0.6016
 9209SOL    HW239087   2.019   0.650   4.657 -0.3780  0.8356 -0.8186
 9210SOL     OW39088   0.168   3.734   2.152 -0.4731 -0.3130 -0.1194
 9210SOL    HW139089   0.261   3.737   2.129 -0.8055  2.4373 -1.1212
 9210SOL    HW239090   0.126   3.788   2.085 -0.0132  1.6754  1.2128
 9211SOL     OW39091   4.447   1.323   2.376 -0.5861 -0.6094 -0.1764
 9211SOL    HW139092   4.390   1.264   2.426  1.8217 -1.5361  1.4959
 9211SOL    HW239093   4.530   1.279   2.359  0.4820  2.0994 -1.9974
 9212SOL     OW39094   3.633   4.364   5.801  0.4185  0.4085  0.0794
 9212SOL    HW139095   3.714   4.348   5.752 -1.5217 -2.5110 -2.1874
 9212SOL    HW239096   3.571   4.322   5.741  0.1487  1.7036 -0.5509
 9213SOL     OW39097   3.499   3.340   9.072 -0.1329 -1.0096  0.4200
 9213SOL    HW139098   3.478   3.397   8.998 -2.6244 -2.4170  0.0440
 9213SOL    HW239099   3.487   3.422   9.120 -2.5342  0.6643 -3.0559
 9214SOL     OW39100   3.740   3.346   2.973  0.2164 -0.1754  0.0140
 9214SOL    HW139101   3.683   3.274   2.947  1.4223 -0.4433 -1.8884
 9214SOL    HW239102   3.698   3.394   3.044  2.9530  1.0953  0.8002
 9215SOL     OW39103   0.614   2.599   6.127 -0.1433 -0.2070  0.1564
 9215SOL    HW139104   0.552   2.547   6.178  0.8112 -0.9971  0.5047
 9215SOL    HW239105   0.685   2.538   6.109 -0.2894  0.2076 -1.7955
 9216SOL     OW39106   4.252   1.708  14.885  0.5507  0.0266  0.3751
 9216SOL    HW139107   4.199   1.781  14.917  0.4877 -0.0965  0.5493
 9216SOL    HW239108   4.182   1.649  14.858 -1.2485  2.4728 -0.3939
 9217SOL     OW39109   2.782   3.228  11.677  0.9415  0.2260  0.2417
 9217SOL    HW139110   2.748   3.176  11.605 -0.6189  0.6973  0.6443
 9217SOL    HW239111   2.875   3.208  11.663  0.3296 -1.5879 -1.1469
 9218SOL     OW39112   2.806   2.277   3.683 -0.0781 -0.4116  0.1697
 9218SOL    HW139113   2.729   2.222   3.698  0.2516 -1.2175 -1.0906
 9218SOL    HW239114   2.758   2.342   3.631 -1.5819 -0.8505  1.0155
 9219SOL     OW39115   0.335   2.555   8.407 -0.3723  0.2320 -0.0551
 9219SOL    HW139116   0.395   2.497   8.361 -0.9460 -0.0428 -0.4452
 9219SOL    HW239117   0.379   2.640   8.403  0.5000 -0.0527  2.7755
 9220SOL     OW39118   1.904   0.322  16.497  0.4779  0.2600 -0.0801
 9220SOL    HW139119   1.913   0.234  16.534  0.9178  0.4789  0.3295
 9220SOL    HW239120   1.984   0.374  16.504  0.2826  0.0420  3.9650
 9221SOL     OW39121   1.445   0.836  14.996  0.4401  0.4322 -0.6447
 9221SOL    HW139122   1.496   0.850  15.076 -1.6634 -0.2309  0.8158
 9221SOL    HW239123   1.428   0.745  15.020  0.6746 -0.1227 -2.6054
 9222SOL     OW39124   3.309   1.392   6.187 -0.2149 -0.2521 -0.4037
 9222SOL    HW139125   3.221   1.387   6.226 -0.2336 -3.0262 -0.7956
 9222SOL    HW239126   3.347   1.322   6.240 -0.6028 -1.1198 -1.2762
 9223SOL     OW39127   1.681   3.431   6.138  0.0607  0.2596 -0.0795
 9223SOL    HW139128   1.727   3.358   6.179  1.8775  1.6088  0.2882
 9223SOL    HW239129   1.716   3.428   6.049  1.0050 -1.0185  0.3461
 9224SOL     OW39130   1.951   3.720   3.855 -0.0658 -0.5329 -0.2230
 9224SOL    HW139131   2.014   3.731   3.784 -0.4609 -3.7704 -1.0744
 9224SOL    HW239132   1.913   3.806   3.873  2.0989  0.4470 -0.3840
 9225SOL     OW39133   1.637   0.775   8.805 -0.0537 -0.2292  0.4728
 9225SOL    HW139134   1.605   0.690   8.774 -0.6054 -1.0106  3.1834
 9225SOL    HW239135   1.726   0.745   8.826 -0.3157 -0.2371  1.5508
 9226SOL     OW39136   4.558   1.016   9.137 -0.3338 -0.6755 -0.3282
 9226SOL    HW139137   4.481   0.982   9.183  1.2094 -0.4062  2.3737
 9226SOL    HW239138   4.543   1.111   9.140 -0.0693 -0.6352 -0.2812
 9227SOL     OW39139   2.160   4.358   3.358  0.6829 -0.4390 -0.7312
 9227SOL    HW139140   2.167   4.453   3.366 -0.0437 -0.4984  0.6741
 9227SOL    HW239141   2.137   4.355   3.265  2.5759  2.4009 -1.2971
 9228SOL     OW39142   1.360   1.434   1.767 -0.1832 -0.5730  0.5030
 9228SOL    HW139143   1.446   1.412   1.731 -1.0445 -1.2156 -1.1805
 9228SOL    HW239144   1.318   1.349   1.754 -1.5917  0.0550  1.0056
 9229SOL     OW39145   2.290   3.736   5.134 -0.5013 -0.1468  0.8106
 9229SOL    HW139146   2.245   3.687   5.202 -2.5628 -0.6026 -0.8959
 9229SOL    HW239147   2.219   3.796   5.113  0.4093  0.4136 -0.7367
 9230SOL     OW39148   2.010   3.878   4.624  0.0461 -0.6500 -0.1939
 9230SOL    HW139149   2.011   3.887   4.720 -0.1446 -2.0358 -0.0633
 9230SOL    HW239150   2.056   3.955   4.591  0.6272 -0.3305  1.3537
 9231SOL     OW39151   3.812   0.902  13.720  0.7336  0.2207  0.2491
 9231SOL    HW139152   3.825   0.935  13.631  1.6109  2.4742  1.2257
 9231SOL    HW239153   3.822   0.811  13.693  2.7360  1.1504 -2.1633
 9232SOL     OW39154   3.290   2.650   1.913  0.4933 -0.5619  0.5514
 9232SOL    HW139155   3.335   2.734   1.902  3.0953 -2.4070 -3.1075
 9232SOL    HW239156   3.216   2.688   1.959  1.2230  0.0949  1.1927
 9233SOL     OW39157   0.878   1.668  16.575 -0.4213 -0.5307  0.4207
 9233SOL    HW139158   0.890   1.670  16.480  2.0630 -0.3771  0.7241
 9233SOL    HW239159   0.784   1.649  16.571 -0.4133 -0.6675  0.8935
 9234SOL     OW39160   0.524   2.588   3.297 -0.4016  0.0049  0.7614
 9234SOL    HW139161   0.442   2.542   3.277 -0.3177 -0.2230  0.9461
 9234SOL    HW239162   0.581   2.550   3.230  0.4419 -0.0359  1.4992
 9235SOL     OW39163   0.430   1.513  13.679  0.7890 -0.4746  0.2668
 9235SOL    HW139164   0.398   1.539  13.765  1.5366  0.4224  0.2750
 9235SOL    HW239165   0.352   1.468  13.647  1.1103  0.6102 -2.0667
 9236SOL     OW39166   0.720   2.120   4.362 -0.3754  0.3656 -0.8286
 9236SOL    HW139167   0.721   2.186   4.291 -1.2439  1.4877  0.1999
 9236SOL    HW239168   0.632   2.083   4.358 -0.6896  1.2507 -2.5065
 9237SOL     OW39169   4.676   4.298   0.963 -0.3947 -0.2096  0.0220
 9237SOL    HW139170   4.587   4.331   0.952 -0.2431  0.4703  0.9209
 9237SOL    HW239171   4.683   4.301   1.058  1.2011  2.3523 -0.1848
 9238SOL     OW39172   4.382   3.075   7.521  0.5719  0.2832  0.1016
 9238SOL    HW139173   4.371   3.168   7.536  0.5080  0.1326  0.9622
 9238SOL    HW239174   4.427   3.048   7.601  1.2068  2.2641  0.4143
 9239SOL     OW39175   3.754   1.028   7.797  0.0739  0.1404  0.5807
 9239SOL    HW139176   3.722   0.938   7.806 -0.5622  0.4953  1.9389
 9239SOL    HW239177   3.698   1.070   7.732  0.2171 -1.3211 -0.4817
 9240SOL     OW39178   2.812   1.890  13.136 -0.0931 -0.2929  0.2952
 9240SOL    HW139179   2.752   1.866  13.066  0.8347 -2.4988  0.2403
 9240SOL    HW239180   2.747   1.894  13.206 -0.4458  1.0952 -0.1283
 9241SOL     OW39181   4.634   3.071  15.183  0.6375 -0.4764  0.1397
 9241SOL    HW139182   4.595   3.026  15.108  0.0960  0.3063 -0.0519
 9241SOL    HW239183   4.663   2.993  15.231  0.6034 -0.3104  0.4303
 9242SOL     OW39184   4.540   2.129  11.813  0.8406  0.4124 -0.1082
 9242SOL    HW139185   4.597   2.179  11.756  0.8893 -1.9025 -2.0848
 9242SOL    HW239186   4.595   2.068  11.864  0.4284  0.3820  0.2993
 9243SOL     OW39187   1.645   1.839  11.914 -0.2196  0.5426 -0.2884
 9243SOL    HW139188   1.582   1.804  11.850 -1.1971  1.6210  0.0876
 9243SOL    HW239189   1.712   1.771  11.913  0.1759  0.9477 -0.9918
 9244SOL     OW39190   4.253   3.209   8.227  0.0234  0.7952 -0.3320
 9244SOL    HW139191   4.250   3.176   8.317  0.7573  1.2368 -0.1449
 9244SOL    HW239192   4.333   3.166   8.198 -1.8732 -2.7995 -0.1195
 9245SOL     OW39193   0.143   4.543   9.925  0.2518 -0.8050 -0.0838
 9245SOL    HW139194   0.096   4.459   9.927  1.8583 -1.6364  2.6046
 9245SOL    HW239195   0.235   4.519   9.916  0.4760  0.8987 -2.1238
 9246SOL     OW39196   3.611   0.096   4.268  0.0470 -0.2233  0.1116
 9246SOL    HW139197   3.669   0.152   4.320 -0.4841  1.2649 -0.9060
 9246SOL    HW239198   3.545   0.160   4.243  0.0622  0.6417  2.2594
 9247SOL     OW39199   4.071   2.770   1.342 -0.2645 -0.3466  1.3646
 9247SOL    HW139200   4.021   2.846   1.313  1.3212 -0.2367 -1.0520
 9247SOL    HW239201   3.999   2.708   1.348 -0.6674  0.0983  1.1316
 9248SOL     OW39202   3.228   1.290   0.649  0.2592 -0.5205  0.3004
 9248SOL    HW139203   3.201   1.369   0.603  0.8510 -0.7644 -0.4709
 9248SOL    HW239204   3.141   1.267   0.682  0.5348 -2.5997 -0.4111
 9249SOL     OW39205   2.285   1.106   7.793 -0.1811 -0.4206  0.4364
 9249SOL    HW139206   2.248   1.022   7.819  2.4659 -1.4134  0.8700
 9249SOL    HW239207   2.218   1.131   7.728  1.6790  0.3178 -1.1817
 9250SOL     OW39208   0.944   1.822   6.709  0.1521 -0.0970 -0.0972
 9250SOL    HW139209   0.899   1.768   6.775 -0.5256 -0.2691 -0.6984
 9250SOL    HW239210   0.872   1.851   6.653  0.8129  0.7882 -0.4863
 9251SOL     OW39211   2.942   3.518   6.186 -0.1701 -0.0225 -0.5553
 9251SOL    HW139212   2.887   3.497   6.112 -0.4621 -0.8793 -0.0883
 9251SOL    HW239213   2.895   3.580   6.242  0.5003 -0.4342  0.4655
 9252SOL     OW39214   1.316   1.419   8.231 -0.3374 -0.6738  1.0418
 9252SOL    HW139215   1.391   1.417   8.291  0.4738 -0.7253  0.0299
 9252SOL    HW239216   1.259   1.351   8.267  0.7414 -1.3031  1.5590
 9253SOL     OW39217   2.038   1.759  10.586  0.3533 -0.3831  0.4743
 9253SOL    HW139218   2.062   1.740  10.677  1.3748  0.0762  0.3098
 9253SOL    HW239219   1.985   1.838  10.598  0.3443 -0.5553  1.5500
 9254SOL     OW39220   2.604   2.109   8.396  0.2834 -0.6561 -0.1873
 9254SOL    HW139221   2.594   2.027   8.445 -3.1926 -1.2919 -1.9656
 9254SOL    HW239222   2.564   2.174   8.454  0.3998 -1.3604  0.6887
 9255SOL     OW39223   2.131   3.230   1.657 -0.8192  0.6700 -0.7120
 9255SOL    HW139224   2.113   3.153   1.711  1.8922  1.3160  1.1360
 9255SOL    HW239225   2.075   3.222   1.580  0.4787  0.8359 -1.6841
 9256SOL     OW39226   4.421   3.025   0.143  0.2555  0.2795 -0.1130
 9256SOL    HW139227   4.429   2.929   0.141  1.7852  0.3955  0.6576
 9256SOL    HW239228   4.343   3.049   0.092  1.2552  0.1085 -1.7309
 9257SOL     OW39229   0.461   3.312   7.948 -0.6756 -0.0547  0.1020
 9257SOL    HW139230   0.500   3.296   8.034 -0.8216 -2.1438 -0.2048
 9257SOL    HW239231   0.369   3.320   7.973 -0.8855  0.2190 -0.7636
 9258SOL     OW39232   2.992   0.692   2.034 -0.0520  0.6002  0.4497
 9258SOL    HW139233   2.988   0.751   1.958 -0.1301  0.0714  0.0392
 9258SOL    HW239234   2.929   0.627   2.003  1.7310 -0.2841 -1.3278
 9259SOL     OW39235   2.999   3.142  13.499 -0.2811 -0.1421  0.2516
 9259SOL    HW139236   3.036   3.066  13.453  0.4735 -0.2433  1.0246
 9259SOL    HW239237   3.077   3.190  13.527  0.1109 -0.3666 -0.4360
 9260SOL     OW39238   1.074   1.485   5.664 -0.6908 -0.4077  0.6039
 9260SOL    HW139239   1.024   1.500   5.584 -0.3815 -1.7015  0.1669
 9260SOL    HW239240   1.160   1.482   5.624 -0.1062  0.0740  1.8291
 9261SOL     OW39241   2.916   2.974   5.300  0.0342  0.6489  0.4433
 9261SOL    HW139242   2.830   3.015   5.303 -1.0089 -1.2617 -2.9906
 9261SOL    HW239243   2.979   3.045   5.290  0.1595  0.3589 -0.8746
 9262SOL     OW39244   1.437   4.298   8.067  0.4561  0.1321 -0.9449
 9262SOL    HW139245   1.360   4.309   8.012 -0.6778  1.5462  0.9117
 9262SOL    HW239246   1.417   4.345   8.148 -0.8243 -2.9853  0.5600
 9263SOL     OW39247   3.251   4.565  12.366 -1.0016 -0.4355  0.6842
 9263SOL    HW139248   3.252   4.533  12.276  1.3915 -0.4035  0.7057
 9263SOL    HW239249   3.173   4.620  12.359 -2.1430 -2.3294 -1.5877
 9264SOL     OW39250   3.216   3.555   4.423  0.4399  0.0026  0.9742
 9264SOL    HW139251   3.302   3.580   4.458  0.4157  3.3168 -1.2929
 9264SOL    HW239252   3.171   3.587   4.501 -1.2124  0.4705 -0.1763
 9265SOL     OW39253   4.610   1.268   0.415 -0.0738  0.6634 -0.3204
 9265SOL    HW139254   4.701   1.252   0.391 -0.3654 -0.3542 -0.7417
 9265SOL    HW239255   4.571   1.289   0.329 -1.5185 -2.0624 -0.3473
 9266SOL     OW39256   3.378   0.664   9.366 -0.1890  0.4918  0.3915
 9266SOL    HW139257   3.319   0.598   9.331 -0.8257 -0.8132  3.8860
 9266SOL    HW239258   3.331   0.693   9.445  1.6072 -0.1038  1.6984
 9267SOL     OW39259   0.026   1.371   5.465 -0.7839  0.6003 -0.0213
 9267SOL    HW139260   0.042   1.322   5.546 -2.0417 -1.1023 -0.8069
 9267SOL    HW239261   0.112   1.375   5.423 -0.1422 -0.1365  1.1871
 9268SOL     OW39262   1.187   2.681   5.742 -0.0069 -0.0891  0.0820
 9268SOL    HW139263   1.240   2.660   5.819  2.4691  0.8147 -1.3492
 9268SOL    HW239264   1.243   2.639   5.675 -2.3569  0.8145 -2.4415
 9269SOL     OW39265   4.542   3.370  13.292  0.2304 -0.3504  0.3034
 9269SOL    HW139266   4.494   3.441  13.336  0.9251  0.1979  0.1735
 9269SOL    HW239267   4.529   3.299  13.355  1.3374 -2.4462 -1.8671
 9270SOL     OW39268   0.925   2.929   1.365 -0.0102  0.6936 -0.2606
 9270SOL    HW139269   1.020   2.919   1.367  0.0515  0.4953 -3.3766
 9270SOL    HW239270   0.920   2.967   1.452 -0.8867 -0.5786  0.2424
 9271SOL     OW39271   1.416   3.761   6.511  0.3573 -0.3375 -0.1134
 9271SOL    HW139272   1.425   3.790   6.602  1.8239  0.5227 -0.5318
 9271SOL    HW239273   1.387   3.846   6.477  2.7668  0.6763  0.4163
 9272SOL     OW39274   3.045   2.471   4.186 -0.1728 -0.6061  0.1213
 9272SOL    HW139275   3.065   2.464   4.093  2.0218 -1.3614  0.6541
 9272SOL    HW239276   2.963   2.519   4.191  0.3317  0.3604 -0.9342
 9273SOL     OW39277   3.581   0.564   7.166 -0.7740 -0.2315  0.1726
 9273SOL    HW139278   3.558   0.657   7.175  3.7986  0.9273 -0.3757
 9273SOL    HW239279   3.644   0.567   7.238  0.5160  0.4369 -0.9918
 9274SOL     OW39280   3.696   2.994   1.026 -0.0515  0.2731 -0.2777
 9274SOL    HW139281   3.738   2.916   1.063 -2.3876 -0.6887  0.3121
 9274SOL    HW239282   3.774   3.046   1.005 -0.5371  1.3119  0.5060
 9275SOL     OW39283   2.606   4.551  10.910  0.7622 -0.1142  0.2846
 9275SOL    HW139284   2.567   4.481  10.962  0.7699  0.8121  1.5260
 9275SOL    HW239285   2.686   4.566  10.960  0.4976  0.8275  0.4151
 9276SOL     OW39286   0.140   2.251   9.515 -0.0202 -0.0376  0.0152
 9276SOL    HW139287   0.109   2.168   9.478 -0.3964  0.4952 -0.8797
 9276SOL    HW239288   0.222   2.264   9.468 -0.4679  1.1030 -0.4574
 9277SOL     OW39289   3.835   4.613  17.655  0.4866 -0.6385 -0.7117
 9277SOL    HW139290   3.913   4.662   0.001 -0.5416  0.4365  0.3078
 9277SOL    HW239291   3.865   4.571  17.574  0.8617 -1.0710 -0.3523
 9278SOL     OW39292   3.000   3.695   6.774 -0.0391 -0.1585 -0.1669
 9278SOL    HW139293   3.037   3.633   6.711 -1.3187 -0.4797 -0.5961
 9278SOL    HW239294   2.999   3.638   6.850  1.5611 -0.6508 -0.5047
 9279SOL     OW39295   4.610   4.684   8.992  0.0800 -0.2334 -0.0455
 9279SOL    HW139296   4.605   4.718   8.903 -2.0174  1.3046  0.6570
 9279SOL    HW239297   4.531   4.716   9.035 -1.1622  0.6063 -2.9381
 9280SOL     OW39298   4.662   3.329   0.992 -0.1492 -0.3737 -0.1259
 9280SOL    HW139299   4.616   3.401   1.034  0.4981 -0.6381  1.0404
 9280SOL    HW239300   4.587   3.275   0.969 -0.8941  0.4016  0.4899
 9281SOL     OW39301   1.967   4.343   6.002  0.3705 -0.3464  0.2653
 9281SOL    HW139302   2.029   4.391   6.056  1.4222 -1.0369 -0.3396
 9281SOL    HW239303   1.946   4.409   5.937  1.9917  0.9094  1.0291
 9282SOL     OW39304   3.446   3.081   6.389 -0.0144  0.3819  0.2796
 9282SOL    HW139305   3.534   3.064   6.421 -0.0287 -1.1019 -0.4628
 9282SOL    HW239306   3.443   3.034   6.306  1.2167  1.8473 -0.5930
 9283SOL     OW39307   3.018   2.497   5.196  0.0636  0.5099 -0.5105
 9283SOL    HW139308   3.055   2.582   5.220 -0.8107  0.9820 -0.8191
 9283SOL    HW239309   2.929   2.504   5.233  0.7206 -1.8306  1.5223
 9284SOL     OW39310   1.199   3.571  16.719  0.6199 -0.4361  0.0301
 9284SOL    HW139311   1.219   3.482  16.749 -0.0349 -0.6193 -0.0737
 9284SOL    HW239312   1.126   3.549  16.662  0.5241 -0.7673  0.2764
 9285SOL     OW39313   0.727   0.556   3.906  0.1740 -0.3463 -0.2571
 9285SOL    HW139314   0.809   0.550   3.955  0.7010  1.6701 -0.8973
 9285SOL    HW239315   0.764   0.578   3.821 -1.7401  1.3738 -0.6377
 9286SOL     OW39316   4.374   4.579  11.259 -0.1402 -0.0138 -0.6618
 9286SOL    HW139317   4.297   4.634  11.274  0.6265  1.0404 -0.6782
 9286SOL    HW239318   4.412   4.584  11.347 -0.9648  0.8161 -0.3484
 9287SOL     OW39319   1.509   2.699   6.457  0.0168 -0.2366 -0.1996
 9287SOL    HW139320   1.495   2.765   6.389 -2.6885 -1.4221 -0.8184
 9287SOL    HW239321   1.427   2.656   6.431  0.3537 -0.0418 -1.5753
 9288SOL     OW39322   0.405   0.589   2.086  0.4741  0.2542  0.7496
 9288SOL    HW139323   0.458   0.647   2.140  0.1579 -0.2017  1.5425
 9288SOL    HW239324   0.402   0.515   2.147 -2.5167 -1.5911 -1.6014
 9289SOL     OW39325   3.403   1.802   4.870  0.0227 -1.0740 -0.2130
 9289SOL    HW139326   3.417   1.745   4.946  0.1516 -1.6022 -0.6348
 9289SOL    HW239327   3.433   1.890   4.893  0.5534 -1.2955 -0.0662
 9290SOL     OW39328   3.622   2.759   2.736 -0.2265  0.1055  0.3760
 9290SOL    HW139329   3.613   2.847   2.700 -1.4178  0.2976  1.1568
 9290SOL    HW239330   3.547   2.739   2.792 -0.2748 -0.2548  0.1892
 9291SOL     OW39331   3.524   0.427   4.559 -0.0688 -0.0512 -0.0873
 9291SOL    HW139332   3.463   0.396   4.493 -2.5781  2.2312  1.1666
 9291SOL    HW239333   3.495   0.368   4.629 -1.5833  0.5461 -0.2166
 9292SOL     OW39334   4.351   0.051   6.257 -0.5655  0.2902 -0.1307
 9292SOL    HW139335   4.344   0.026   6.349  0.4945  1.7603  0.3452
 9292SOL    HW239336   4.258   0.036   6.239 -0.4510 -0.4725 -0.0949
 9293SOL     OW39337   2.786   3.982   5.226  0.1639 -0.1528  0.3598
 9293SOL    HW139338   2.691   3.974   5.233  0.3192 -2.3621  0.1068
 9293SOL    HW239339   2.795   4.060   5.172 -1.4676  1.0103  1.7924
 9294SOL     OW39340   0.844   2.052   2.782 -0.2993 -0.5798  0.1205
 9294SOL    HW139341   0.804   2.041   2.695  0.9400  1.1789 -0.6861
 9294SOL    HW239342   0.897   2.129   2.761 -2.9447  1.4888  1.0097
 9295SOL     OW39343   1.353   2.095   4.436 -0.0727 -0.5958 -0.3792
 9295SOL    HW139344   1.441   2.122   4.465 -1.5330  2.3828  1.2571
 9295SOL    HW239345   1.312   2.080   4.521 -1.4502 -0.8166 -1.0914
 9296SOL     OW39346   0.698   4.380   3.450  0.5099  0.1060  0.2478
 9296SOL    HW139347   0.718   4.465   3.410 -1.0252 -0.0886 -0.9453
 9296SOL    HW239348   0.787   4.346   3.442  0.5640  0.0459  1.0999
 9297SOL     OW39349   2.700   2.369   5.839  0.6827  0.1953  0.0648
 9297SOL    HW139350   2.780   2.318   5.824  1.9808  1.3173  3.2244
 9297SOL    HW239351   2.704   2.383   5.933 -0.1740 -0.0981  0.1507
 9298SOL     OW39352   4.403   1.964   1.673  0.1528 -0.2398 -0.2325
 9298SOL    HW139353   4.496   1.977   1.654  0.7332 -1.2973  1.7950
 9298SOL    HW239354   4.357   2.002   1.599 -1.1706  2.1979  1.8047
 9299SOL     OW39355   0.915   4.548  14.972 -1.2527  0.1688  0.7957
 9299SOL    HW139356   0.891   4.455  14.976 -2.1451  0.4047  0.9532
 9299SOL    HW239357   0.966   4.548  14.892 -1.3978 -0.5283  0.7028
 9300SOL     OW39358   0.289   4.238   6.616 -0.6388  0.3365 -0.0743
 9300SOL    HW139359   0.251   4.152   6.597 -0.1871  0.0762  0.2011
 9300SOL    HW239360   0.260   4.254   6.706  1.6582 -2.0032  1.0572
 9301SOL     OW39361   3.417   1.080   8.477  0.0134 -0.2699 -0.0592
 9301SOL    HW139362   3.386   1.169   8.495  1.0873  0.3467 -1.2569
 9301SOL    HW239363   3.334   1.042   8.449  0.3546 -1.5603  0.7076
 9302SOL     OW39364   4.296   0.785   9.676  0.1802  0.3043  0.5562
 9302SOL    HW139365   4.208   0.758   9.649 -0.1163  1.8194  0.0329
 9302SOL    HW239366   4.333   0.736   9.602 -1.2097 -0.5357  0.4305
 9303SOL     OW39367   2.422   0.675  11.253 -0.7278 -0.5772  0.0955
 9303SOL    HW139368   2.465   0.601  11.211  0.7950 -0.2071  1.0291
 9303SOL    HW239369   2.480   0.695  11.326 -2.2832 -1.6658  1.6484
 9304SOL     OW39370   4.510   3.284   1.692  0.0503  0.1502 -0.1217
 9304SOL    HW139371   4.589   3.286   1.637 -0.0264  1.2183 -0.1868
 9304SOL    HW239372   4.520   3.369   1.734 -0.3162 -1.0810  2.4711
 9305SOL     OW39373   1.451   4.598  13.218 -0.1648  0.5933 -0.0605
 9305SOL    HW139374   1.525   4.587  13.157 -0.4133  2.1518 -0.6450
 9305SOL    HW239375   1.406   4.519  13.188  1.6277 -0.1944 -0.6818
 9306SOL     OW39376   0.564   0.866   4.567 -0.0826  0.1260  0.5324
 9306SOL    HW139377   0.593   0.944   4.520 -1.7620 -0.1217 -0.9113
 9306SOL    HW239378   0.468   0.868   4.563 -0.1705 -2.2973  1.2036
 9307SOL     OW39379   2.763   3.843   7.412 -0.3307 -0.4451  0.2137
 9307SOL    HW139380   2.693   3.843   7.346 -1.4596  1.9513  1.3722
 9307SOL    HW239381   2.720   3.907   7.470 -2.2354 -1.8178  0.3119
 9308SOL     OW39382   1.042   3.108   0.446 -0.1364  0.7039  0.1936
 9308SOL    HW139383   1.072   3.054   0.519 -1.8527  0.6176  0.8496
 9308SOL    HW239384   1.037   3.194   0.487  0.7811  0.1333  1.4819
 9309SOL     OW39385   4.156   3.219   2.799  0.4832 -0.2944  0.0834
 9309SOL    HW139386   4.086   3.211   2.864  1.0122 -1.6037  0.4722
 9309SOL    HW239387   4.176   3.126   2.803 -0.7716 -0.4544  2.4505
 9310SOL     OW39388   2.237   4.430   2.354 -0.2899  0.2086  0.0386
 9310SOL    HW139389   2.263   4.503   2.410 -0.8153  1.1665 -0.9561
 9310SOL    HW239390   2.301   4.446   2.285  0.8401 -0.6011  0.9173
 9311SOL     OW39391   4.266   2.644   3.118  0.8449  0.3653  0.1372
 9311SOL    HW139392   4.335   2.710   3.111  1.1086 -0.1375 -2.0693
 9311SOL    HW239393   4.286   2.597   3.037 -0.4864  0.9095 -0.5135
 9312SOL     OW39394   2.731   4.116   7.219  0.8339  0.2239  0.6410
 9312SOL    HW139395   2.746   4.022   7.219 -1.5015 -0.1406  0.3311
 9312SOL    HW239396   2.655   4.116   7.277  2.2721 -1.9214  2.5570
 9313SOL     OW39397   0.683   1.552   8.100 -0.1199  0.0894 -0.2206
 9313SOL    HW139398   0.719   1.464   8.093  0.2779  0.2860 -0.6675
 9313SOL    HW239399   0.597   1.529   8.136  0.9232 -0.8305  1.6634
 9314SOL     OW39400   1.342   1.402   5.620 -0.3405  0.1439 -0.3452
 9314SOL    HW139401   1.381   1.378   5.704  1.6192  0.3319 -1.2014
 9314SOL    HW239402   1.323   1.321   5.573  1.8420 -0.9980  0.7719
 9315SOL     OW39403   1.174   0.709  11.071  0.5888  0.9510 -0.2965
 9315SOL    HW139404   1.150   0.695  11.163 -0.9845  0.4857 -0.7906
 9315SOL    HW239405   1.206   0.624  11.041  0.4485  1.7215 -2.6069
 9316SOL     OW39406   4.294   4.672  16.745  0.1413 -0.3221 -0.2329
 9316SOL    HW139407   4.232   4.652  16.675  1.3978 -0.4819 -1.3059
 9316SOL    HW239408   4.311   0.046  16.731 -0.9334 -0.5705 -3.1719
 9317SOL     OW39409   2.535   0.937   9.011  0.2419 -0.3841 -0.1527
 9317SOL    HW139410   2.582   0.907   8.933  2.1237  2.4306 -0.1075
 9317SOL    HW239411   2.559   1.030   9.011  1.1539 -0.6273 -1.4853
 9318SOL     OW39412   0.669   0.886  16.970 -0.3481 -0.7026 -0.1133
 9318SOL    HW139413   0.636   0.964  17.015  1.7542  0.6392 -0.9121
 9318SOL    HW239414   0.763   0.896  16.985 -0.4883 -1.3416  1.1406
 9319SOL     OW39415   4.176   2.798   4.017 -0.5476 -0.0776  0.0788
 9319SOL    HW139416   4.247   2.862   4.018 -0.2767 -0.3448 -2.1699
 9319SOL    HW239417   4.177   2.754   4.103 -0.8103  0.0467  0.1448
 9320SOL     OW39418   1.196   0.231   5.875  0.7399  0.0850  0.2047
 9320SOL    HW139419   1.124   0.168   5.872 -0.0174  0.9567  0.1885
 9320SOL    HW239420   1.274   0.177   5.888 -0.2995 -1.2955  0.7526
 9321SOL     OW39421   2.931   1.644   4.643 -0.2747  0.1198  0.3497
 9321SOL    HW139422   3.004   1.621   4.586  0.3122  0.9233  0.7714
 9321SOL    HW239423   2.981   1.689   4.712  1.4884 -1.0930 -0.1440
 9322SOL     OW39424   3.859   3.669   6.252  0.0581  0.0152  0.1738
 9322SOL    HW139425   3.850   3.589   6.304 -1.2441  0.5526  0.7609
 9322SOL    HW239426   3.789   3.721   6.289 -1.5070 -2.5031  0.7746
 9323SOL     OW39427   2.663   0.308  13.731  0.2334 -0.0637  0.2115
 9323SOL    HW139428   2.748   0.351  13.744  0.5352 -0.6167  0.1119
 9323SOL    HW239429   2.638   0.355  13.651  1.3665  0.6823  0.2917
 9324SOL     OW39430   3.017   0.581  15.203  0.2865 -0.1205 -0.5722
 9324SOL    HW139431   2.946   0.522  15.178 -1.2670  1.4209  0.1604
 9324SOL    HW239432   3.017   0.572  15.299 -2.1756  2.0171 -0.3644
 9325SOL     OW39433   0.744   4.423   5.699 -0.0733 -0.0667 -0.4462
 9325SOL    HW139434   0.705   4.501   5.660  1.8182 -0.0375 -2.3077
 9325SOL    HW239435   0.696   4.358   5.648  0.8543  0.0990 -1.5329
 9326SOL     OW39436   3.034   3.585  17.079 -0.5380  0.0055  0.4127
 9326SOL    HW139437   3.074   3.666  17.046  0.3539  0.1645  1.8931
 9326SOL    HW239438   3.110   3.554  17.129 -1.0299 -1.2561  0.3711
 9327SOL     OW39439   3.662   3.655   5.858 -0.5071 -0.1356 -0.1151
 9327SOL    HW139440   3.686   3.735   5.811 -1.5780 -0.4208 -1.1729
 9327SOL    HW239441   3.572   3.645   5.826 -1.4062 -3.7018  3.5569
 9328SOL     OW39442   0.473   4.527   6.778  0.1032 -0.3320 -0.6851
 9328SOL    HW139443   0.537   4.587   6.741  0.4289 -2.2152 -3.1841
 9328SOL    HW239444   0.465   4.551   6.871  0.7484 -1.0535 -0.4450
 9329SOL     OW39445   1.214   3.264   0.680  0.3567  0.6865 -0.2161
 9329SOL    HW139446   1.280   3.198   0.702 -1.2261 -0.2870  1.5110
 9329SOL    HW239447   1.267   3.306   0.611  0.2383  1.8330  0.3890
 9330SOL     OW39448   3.880   0.009   3.678 -0.1735  0.6995 -0.0275
 9330SOL    HW139449   3.968   0.030   3.709 -0.2427  1.1837 -0.1648
 9330SOL    HW239450   3.829   0.028   3.757  0.0657 -0.5090  0.4138
 9331SOL     OW39451   3.176   0.961   5.981 -0.3168  0.0231  0.4656
 9331SOL    HW139452   3.221   1.006   5.909  1.6901 -2.6015  0.0860
 9331SOL    HW239453   3.183   0.870   5.952  1.2883 -0.5913  2.7471
 9332SOL     OW39454   2.333   1.740   4.624 -0.4754 -0.2903  0.4144
 9332SOL    HW139455   2.293   1.823   4.600 -1.1392 -0.7064  0.0798
 9332SOL    HW239456   2.293   1.685   4.556  2.7382  0.1229 -1.7658
 9333SOL     OW39457   1.539   0.560   1.008  0.0021  0.5888  0.7012
 9333SOL    HW139458   1.463   0.526   1.055 -0.5443 -1.4353 -1.6490
 9333SOL    HW239459   1.500   0.543   0.922  2.7629 -1.7262 -0.1077
 9334SOL     OW39460   4.125   2.599   3.564  0.0152 -0.3915 -0.3116
 9334SOL    HW139461   4.058   2.657   3.527  0.2663 -0.0228 -0.1955
 9334SOL    HW239462   4.165   2.652   3.634  0.0143  1.6837 -1.8800
 9335SOL     OW39463   2.474   0.447   5.467 -0.0111  0.0669 -0.9445
 9335SOL    HW139464   2.454   0.366   5.419  0.6060  0.9850 -2.7519
 9335SOL    HW239465   2.500   0.413   5.552 -0.1100  2.2951 -0.0419
 9336SOL     OW39466   1.097   3.343   6.197  0.2489 -0.0380  0.0301
 9336SOL    HW139467   1.186   3.308   6.194 -0.1307 -0.9517 -0.4774
 9336SOL    HW239468   1.062   3.319   6.283 -1.1944 -0.1532 -0.5848
 9337SOL     OW39469   4.107   4.191   8.791  0.0946 -0.4918 -0.0597
 9337SOL    HW139470   4.065   4.248   8.855  0.8821 -1.8047  1.6005
 9337SOL    HW239471   4.184   4.172   8.843  2.9664  4.1832 -2.6004
 9338SOL     OW39472   1.844   3.767  12.595  0.0752 -0.0016 -0.4860
 9338SOL    HW139473   1.832   3.673  12.591 -1.1729  0.1207  0.5904
 9338SOL    HW239474   1.780   3.784  12.664 -0.6112 -0.9520 -0.8889
 9339SOL     OW39475   0.218   2.827   5.652  0.3017 -0.3235 -0.2021
 9339SOL    HW139476   0.201   2.810   5.559 -0.0140  0.4580 -0.2909
 9339SOL    HW239477   0.313   2.819   5.657  0.3919  2.1423  1.8039
 9340SOL     OW39478   4.133   4.294  12.362 -0.1087 -0.3536  0.6147
 9340SOL    HW139479   4.126   4.198  12.369  2.5409 -0.6557 -0.5918
 9340SOL    HW239480   4.093   4.308  12.277  0.7919 -0.2034  0.2189
 9341SOL     OW39481   2.391   3.646   8.587  0.6040 -0.2707  0.5879
 9341SOL    HW139482   2.300   3.666   8.564  0.5820 -0.2769  0.6705
 9341SOL    HW239483   2.392   3.553   8.563 -0.1269 -0.0721 -0.2063
 9342SOL     OW39484   1.508   1.117  17.349  0.1049  0.3626  0.1478
 9342SOL    HW139485   1.438   1.160  17.399 -0.1431  0.6127 -0.4116
 9342SOL    HW239486   1.571   1.186  17.328  1.7747 -1.4188 -0.7264
 9343SOL     OW39487   1.734   1.209   1.111 -0.1057 -0.4419  0.0479
 9343SOL    HW139488   1.712   1.302   1.114  2.1359  0.1704 -2.6473
 9343SOL    HW239489   1.775   1.199   1.197  0.4134 -0.5505 -0.2118
 9344SOL     OW39490   3.446   1.147   5.419  0.2076 -0.4444 -0.4001
 9344SOL    HW139491   3.388   1.222   5.429  0.2272 -0.6495  1.1939
 9344SOL    HW239492   3.391   1.087   5.369  0.2160 -0.6615 -0.1506
 9345SOL     OW39493   1.906   0.223   4.212 -0.3320 -0.0289 -0.4192
 9345SOL    HW139494   1.998   0.245   4.224 -0.8925  1.1171  1.6281
 9345SOL    HW239495   1.908   0.135   4.249  2.0465 -0.2425 -1.0367
 9346SOL     OW39496   1.641   1.889   1.596  0.1264  0.2008 -0.7642
 9346SOL    HW139497   1.698   1.964   1.576 -2.4521  2.4463  0.3530
 9346SOL    HW239498   1.558   1.911   1.553 -0.9808 -2.2670  0.1368
 9347SOL     OW39499   3.445   1.839   4.556  0.0238  0.0175  0.2764
 9347SOL    HW139500   3.469   1.759   4.602 -1.8977 -1.5297 -1.3931
 9347SOL    HW239501   3.526   1.851   4.506  0.6381 -1.5973  0.9046
 9348SOL     OW39502   4.100   3.906   7.366 -0.5272  0.3628  0.1701
 9348SOL    HW139503   4.125   3.930   7.277 -0.7933 -4.0284 -1.0845
 9348SOL    HW239504   4.013   3.868   7.358  0.4874 -1.6462 -1.2508
 9349SOL     OW39505   0.400   2.802   2.380  0.7824 -0.2405  0.1391
 9349SOL    HW139506   0.460   2.733   2.353  1.7833  1.2977 -1.5069
 9349SOL    HW239507   0.317   2.764   2.351  0.3120  1.3619 -0.6396
 9350SOL     OW39508   2.161   3.662  11.750 -0.1640 -0.0497 -0.2083
 9350SOL    HW139509   2.197   3.625  11.669 -1.6543 -1.4845 -0.2146
 9350SOL    HW239510   2.153   3.755  11.728 -3.3805  0.1499  1.8080
 9351SOL     OW39511   3.699   4.378   8.469 -0.2866  0.2314 -0.0678
 9351SOL    HW139512   3.752   4.411   8.541 -1.5229 -0.1426  1.0274
 9351SOL    HW239513   3.696   4.445   8.400  0.2690  0.8932  0.5494
 9352SOL     OW39514   0.113   0.303   7.840 -0.3709 -0.3862 -0.1646
 9352SOL    HW139515   0.098   0.209   7.847  0.3374 -0.2524  3.0242
 9352SOL    HW239516   0.068   0.335   7.918 -0.2209 -0.2109 -0.1494
 9353SOL     OW39517   1.510   1.770   3.827 -0.8127  0.1154  0.5372
 9353SOL    HW139518   1.507   1.703   3.895 -0.5196 -1.0328 -0.5760
 9353SOL    HW239519   1.512   1.857   3.867 -0.1289  0.7425 -0.8561
 9354SOL     OW39520   0.731   1.109  13.999 -0.6538  0.7277 -0.0166
 9354SOL    HW139521   0.812   1.103  14.049 -0.2566 -0.0290 -0.7512
 9354SOL    HW239522   0.756   1.126  13.908  0.6234 -0.7192  0.0663
 9355SOL     OW39523   4.347   3.245   3.853  0.3444 -0.9572 -0.1115
 9355SOL    HW139524   4.352   3.270   3.761 -0.8696  0.3882  0.1862
 9355SOL    HW239525   4.391   3.323   3.886  2.9124 -2.8794  0.9444
 9356SOL     OW39526   2.480   3.897   4.457 -0.4355 -0.3956  0.4792
 9356SOL    HW139527   2.462   3.841   4.533  0.5322  0.1013  1.0728
 9356SOL    HW239528   2.417   3.855   4.398 -1.6468  0.1286  1.4025
 9357SOL     OW39529   0.554   3.068  13.370  0.3930 -0.0126  0.0716
 9357SOL    HW139530   0.600   3.047  13.289 -0.1767 -0.7438 -0.0628
 9357SOL    HW239531   0.574   2.991  13.423 -0.7595 -0.6243 -0.3814
 9358SOL     OW39532   2.657   1.021   2.704 -0.1760 -0.3692  0.0650
 9358SOL    HW139533   2.663   0.933   2.666 -0.0720 -0.2415 -0.2157
 9358SOL    HW239534   2.584   1.001   2.763 -0.7983 -0.6326 -0.7846
 9359SOL     OW39535   1.385   1.048   6.433  0.1821 -0.4654 -0.0379
 9359SOL    HW139536   1.344   0.971   6.473  0.8966 -1.5910 -1.4725
 9359SOL    HW239537   1.308   1.104   6.425 -0.4116 -1.1956  0.6000
 9360SOL     OW39538   0.056   3.229  14.688 -0.2412  0.2973 -0.2815
 9360SOL    HW139539   0.021   3.202  14.604 -3.4915  0.3417  1.0245
 9360SOL    HW239540   0.138   3.276  14.673 -1.3962  2.6659  0.6600
 9361SOL     OW39541   4.246   2.970   2.619  0.2613  0.0094  0.2151
 9361SOL    HW139542   4.268   3.003   2.532 -1.9054  2.1106  0.4865
 9361SOL    HW239543   4.316   3.012   2.670  0.4251  0.2069 -0.1737
 9362SOL     OW39544   4.419   0.150  15.190 -0.0333 -0.4943  0.1639
 9362SOL    HW139545   4.455   0.166  15.277  2.2659 -0.8941 -0.7036
 9362SOL    HW239546   4.358   0.078  15.205 -0.6609 -0.1223 -0.6440
 9363SOL     OW39547   3.741   2.813  14.439  0.2861 -0.2123 -0.2343
 9363SOL    HW139548   3.703   2.749  14.500 -2.3993  0.8476 -0.7912
 9363SOL    HW239549   3.703   2.798  14.353  1.4451  0.4620 -0.8654
 9364SOL     OW39550   4.714   3.043   0.459 -0.0141  0.2341  0.0766
 9364SOL    HW139551   0.063   3.105   0.432  1.2479 -1.9337 -1.6892
 9364SOL    HW239552   0.042   2.960   0.466 -1.7647 -0.9159 -1.9232
 9365SOL     OW39553   4.289   4.298   3.570 -0.0016  0.0211  0.2449
 9365SOL    HW139554   4.309   4.217   3.618  0.1336  0.0263  0.1964
 9365SOL    HW239555   4.362   4.358   3.586 -1.0768  1.3908  0.0055
 9366SOL     OW39556   3.905   2.299   4.893 -1.0225  0.6056 -0.0305
 9366SOL    HW139557   3.986   2.262   4.858 -0.0893  0.9606  1.7275
 9366SOL    HW239558   3.853   2.317   4.815  1.2454  0.4267 -1.5936
 9367SOL     OW39559   1.840   1.446   0.100 -0.4998 -0.3246  0.1929
 9367SOL    HW139560   1.781   1.513   0.066 -0.1582  0.4574  1.1423
 9367SOL    HW239561   1.793   1.373   0.059  0.5750 -2.4437  2.7517
 9368SOL     OW39562   2.424   0.645   7.461 -0.5335  0.0592  0.3125
 9368SOL    HW139563   2.412   0.661   7.367 -1.7457  2.4415  0.8711
 9368SOL    HW239564   2.512   0.682   7.464 -0.2413 -0.6531  0.3776
 9369SOL     OW39565   2.796   0.020  10.609  0.9212  0.6873 -0.2205
 9369SOL    HW139566   2.865   4.700  10.555  0.9781 -0.2833  0.5721
 9369SOL    HW239567   2.846   0.086  10.657  1.8129 -0.6770  0.7064
 9370SOL     OW39568   2.925   3.927   5.465  0.5383  0.2157  0.3366
 9370SOL    HW139569   2.903   4.019   5.478  1.1247  0.4385 -0.2250
 9370SOL    HW239570   2.880   3.912   5.383 -0.7729  2.7528  0.6221
 9371SOL     OW39571   2.610   3.599   9.515  0.4170  0.0218 -0.2801
 9371SOL    HW139572   2.608   3.695   9.520 -2.0337 -0.0503  0.2142
 9371SOL    HW239573   2.523   3.579   9.549 -0.0271  1.3663 -0.6068
 9372SOL     OW39574   0.151   1.154   0.395  0.2647 -0.1772 -0.0497
 9372SOL    HW139575   0.163   1.138   0.488  3.0042 -2.4777 -0.7722
 9372SOL    HW239576   0.219   1.089   0.377 -1.0646 -1.2227 -1.3033
 9373SOL     OW39577   2.091   0.531   4.267  0.0714  0.1254  0.3539
 9373SOL    HW139578   2.002   0.517   4.235  0.7300  0.9989 -1.9038
 9373SOL    HW239579   2.113   0.612   4.221  0.5505 -0.2873 -0.1418
 9374SOL     OW39580   4.687   3.978  13.407  1.2765  0.3724 -0.3255
 9374SOL    HW139581   0.044   3.979  13.349  1.6391  0.3458  0.1523
 9374SOL    HW239582   4.699   4.063  13.451 -0.3272  0.5695 -0.2775
 9375SOL     OW39583   1.885   1.669   2.643  0.2244 -0.0406 -0.2038
 9375SOL    HW139584   1.960   1.609   2.638  1.3218  1.0576  3.4702
 9375SOL    HW239585   1.862   1.676   2.550  2.3057 -2.3076 -0.9013
 9376SOL     OW39586   0.400   1.989   2.269  0.5556  0.2395 -0.0767
 9376SOL    HW139587   0.413   2.076   2.232  0.7435  0.2196 -0.0588
 9376SOL    HW239588   0.314   1.976   2.230  0.0894 -2.1677  1.7178
 9377SOL     OW39589   0.892   2.668   3.004 -0.5866 -0.5616 -0.3134
 9377SOL    HW139590   0.933   2.643   2.921  2.8070 -0.7592  1.4086
 9377SOL    HW239591   0.834   2.740   2.979  0.2242  0.6248  1.1597
 9378SOL     OW39592   0.115   0.426   4.900  0.6152  0.8964 -0.1146
 9378SOL    HW139593   0.161   0.498   4.857  0.3192  1.1909  0.0595
 9378SOL    HW239594   0.114   0.365   4.826  1.7509 -1.8124  2.1248
 9379SOL     OW39595   2.110   3.361   5.047 -0.2783  0.0613  0.4105
 9379SOL    HW139596   2.092   3.418   4.973  1.9876  1.3947  0.8751
 9379SOL    HW239597   2.032   3.382   5.099 -0.4080  1.8895 -0.5252
 9380SOL     OW39598   3.268   2.414   5.828 -0.1495 -0.2797 -0.0168
 9380SOL    HW139599   3.227   2.490   5.870  0.7262  0.4487 -0.4745
 9380SOL    HW239600   3.354   2.447   5.801  1.0896 -1.4094  2.6008
 9381SOL     OW39601   1.508   0.729   4.369  0.0198  0.6207 -1.0821
 9381SOL    HW139602   1.421   0.761   4.344 -0.2408  1.1871  0.5636
 9381SOL    HW239603   1.492   0.658   4.432  0.6375  1.2039 -0.2668
 9382SOL     OW39604   1.517   0.587  10.918  0.1346  0.1739 -0.9645
 9382SOL    HW139605   1.583   0.520  10.900  0.1467  0.4716 -2.0194
 9382SOL    HW239606   1.439   0.532  10.929  0.4000  0.2711  1.4891
 9383SOL     OW39607   2.624   4.447   8.326 -0.0517  0.4538 -0.3462
 9383SOL    HW139608   2.624   4.510   8.399 -1.6859  0.8544 -0.6898
 9383SOL    HW239609   2.535   4.470   8.299  0.3684  1.1641 -1.1300
 9384SOL     OW39610   1.077   2.449  11.885 -0.3775 -0.2563  0.2861
 9384SOL    HW139611   1.072   2.354  11.899  1.7819 -0.1827  1.5610
 9384SOL    HW239612   1.011   2.446  11.816 -1.0630 -0.5930  0.9502
 9385SOL     OW39613   3.207   2.403  13.011  0.6386 -0.3446  0.0558
 9385SOL    HW139614   3.261   2.392  13.089 -1.5067 -0.9386  1.4273
 9385SOL    HW239615   3.281   2.395  12.950  1.1009 -1.1209  0.7299
 9386SOL     OW39616   1.621   3.348   8.541  0.6345 -0.7989 -0.0161
 9386SOL    HW139617   1.609   3.385   8.628 -0.6306  2.4066 -1.5651
 9386SOL    HW239618   1.612   3.425   8.485 -2.2235 -0.5400  0.7554
 9387SOL     OW39619   0.340   3.222   4.926  0.3058 -0.1709  0.4361
 9387SOL    HW139620   0.428   3.242   4.896 -0.8469  3.1470 -0.7128
 9387SOL    HW239621   0.345   3.131   4.956 -0.4109  0.1110  1.4048
 9388SOL     OW39622   1.072   2.368  15.983 -0.0968  0.0399 -0.2091
 9388SOL    HW139623   1.101   2.399  15.897  0.4487  2.0787  0.7257
 9388SOL    HW239624   1.071   2.450  16.031 -1.7911  0.7164 -1.3980
 9389SOL     OW39625   2.554   3.928  15.993  0.0669 -0.2878  0.3514
 9389SOL    HW139626   2.526   4.009  15.951 -0.6578 -0.3687  0.6702
 9389SOL    HW239627   2.560   3.959  16.084 -0.6014 -1.7299  0.9047
 9390SOL     OW39628   2.803   0.564   2.678 -0.0149  0.8375  0.7465
 9390SOL    HW139629   2.766   0.529   2.759 -2.9922 -1.0204 -1.4108
 9390SOL    HW239630   2.897   0.544   2.677  0.2713  2.2977 -1.8210
 9391SOL     OW39631   3.405   2.658   7.068 -0.1163  0.2808 -0.5552
 9391SOL    HW139632   3.450   2.730   7.024 -0.7237 -0.2891 -2.0875
 9391SOL    HW239633   3.413   2.673   7.162 -1.5554 -1.2747 -0.1837
 9392SOL     OW39634   0.983   3.829   5.435  0.3152  0.4559  0.3836
 9392SOL    HW139635   0.909   3.886   5.457 -0.0352 -0.7492  2.4017
 9392SOL    HW239636   0.976   3.845   5.341  0.5854  0.5597  0.3817
 9393SOL     OW39637   3.342   1.271   9.132  0.1820  0.6614  0.2509
 9393SOL    HW139638   3.331   1.203   9.199 -0.4149 -0.3505 -0.8780
 9393SOL    HW239639   3.298   1.339   9.182  1.6603 -0.7359  3.4587
 9394SOL     OW39640   0.356   4.357   6.352 -0.8264  0.0426  0.0489
 9394SOL    HW139641   0.341   4.276   6.303  1.0004 -0.4094  0.2468
 9394SOL    HW239642   0.309   4.333   6.432 -0.5953 -0.1774  0.1186
 9395SOL     OW39643   1.623   3.857   6.204  0.4005  0.0508 -0.6299
 9395SOL    HW139644   1.576   3.930   6.243 -1.0209 -0.0625 -2.1075
 9395SOL    HW239645   1.661   3.812   6.280  0.1797  0.8358 -0.0576
 9396SOL     OW39646   2.513   2.096   6.567 -0.0399 -0.3059  0.0812
 9396SOL    HW139647   2.465   2.167   6.524  0.7060  0.6626  0.8619
 9396SOL    HW239648   2.451   2.047   6.621 -0.5373  2.2628  1.8192
 9397SOL     OW39649   2.484   3.219   9.172 -1.0947  0.0988 -0.5624
 9397SOL    HW139650   2.580   3.216   9.166 -1.2294 -1.5619 -1.8747
 9397SOL    HW239651   2.473   3.313   9.155 -2.3416  0.0998  0.2428
 9398SOL     OW39652   4.145   2.435  10.891  0.0764  0.2795  0.1686
 9398SOL    HW139653   4.058   2.424  10.852  0.2534 -0.4495 -0.0335
 9398SOL    HW239654   4.119   2.489  10.965 -0.5765 -0.1121  0.2294
 9399SOL     OW39655   0.207   1.862  15.815 -0.4673 -0.5436  0.2105
 9399SOL    HW139656   0.269   1.799  15.778 -0.0582  0.7864 -1.3621
 9399SOL    HW239657   0.270   1.909  15.869  1.3952 -0.4882 -2.0213
 9400SOL     OW39658   4.582   0.468   4.157  0.0753 -0.1272  0.5013
 9400SOL    HW139659   4.532   0.548   4.142  0.6221 -0.1329 -1.3568
 9400SOL    HW239660   4.674   0.493   4.165  0.3319 -0.3509 -1.6074
 9401SOL     OW39661   1.813   1.541   7.211 -0.9265 -0.2606  0.0406
 9401SOL    HW139662   1.878   1.496   7.155  0.2850  3.1922 -1.3033
 9401SOL    HW239663   1.737   1.487   7.190  0.1540 -1.3778 -1.0224
 9402SOL     OW39664   2.158   3.810   7.226  0.4338 -0.3675  0.3253
 9402SOL    HW139665   2.210   3.832   7.148  1.0452  0.4898  0.9783
 9402SOL    HW239666   2.210   3.738   7.261  0.8914 -0.9168 -1.4866
 9403SOL     OW39667   0.003   4.487   6.641 -0.1435 -0.5559 -0.0543
 9403SOL    HW139668   4.658   4.543   6.683 -0.3070 -0.8668  0.1135
 9403SOL    HW239669   0.029   4.440   6.721  0.2861  0.2654  0.2821
 9404SOL     OW39670   2.642   4.177   9.435  0.0761  0.0245  0.0641
 9404SOL    HW139671   2.681   4.263   9.422 -0.3975  0.1180 -0.7423
 9404SOL    HW239672   2.716   4.116   9.440 -0.0275 -0.3001 -2.4941
 9405SOL     OW39673   3.918   4.086  10.602 -1.1506  0.5206 -0.4022
 9405SOL    HW139674   3.873   4.141  10.666  2.1506  0.5475  1.8566
 9405SOL    HW239675   3.916   4.006  10.654 -1.4867 -0.3199 -1.6991
 9406SOL     OW39676   2.059   2.314   8.930  0.1311 -0.1517  0.2985
 9406SOL    HW139677   2.109   2.242   8.969 -0.4198  0.5858  2.4096
 9406SOL    HW239678   2.130   2.378   8.941 -0.5453  0.5827  0.4519
 9407SOL     OW39679   0.036   1.700   2.444  0.3515  0.2312 -0.1826
 9407SOL    HW139680   0.112   1.758   2.458  2.4952 -2.7661  0.5383
 9407SOL    HW239681   0.048   1.672   2.354  0.9207 -1.1984  0.3337
 9408SOL     OW39682   0.652   3.451   9.106 -0.1177 -0.3316 -0.1199
 9408SOL    HW139683   0.695   3.422   9.186  0.8367 -0.4273 -0.6731
 9408SOL    HW239684   0.729   3.455   9.050  1.0614  1.8236  1.6318
 9409SOL     OW39685   4.396   2.356   9.509  0.2236 -0.2135  0.4216
 9409SOL    HW139686   4.470   2.338   9.567  1.0011 -3.5902 -1.5910
 9409SOL    HW239687   4.412   2.295   9.436  0.1741 -0.7819  0.8848
 9410SOL     OW39688   3.405   3.517   4.939 -0.0811 -0.3214 -0.7657
 9410SOL    HW139689   3.456   3.510   4.859 -2.3595 -0.6558 -2.1826
 9410SOL    HW239690   3.444   3.446   4.990  2.5665  1.3755 -0.4642
 9411SOL     OW39691   0.593   1.786   3.486 -0.2123  0.3481 -0.0596
 9411SOL    HW139692   0.550   1.832   3.414  1.3211 -1.3705 -2.0572
 9411SOL    HW239693   0.636   1.712   3.445 -1.0141  0.2682 -0.7497
 9412SOL     OW39694   4.502   0.555   8.763  0.0305  0.2129  0.1785
 9412SOL    HW139695   4.484   0.641   8.802  1.2487 -0.2341  1.7177
 9412SOL    HW239696   4.477   0.499   8.836  2.0223 -1.1886 -0.2218
 9413SOL     OW39697   4.107   0.096   3.797  0.1405  0.5286  0.0203
 9413SOL    HW139698   4.188   0.055   3.825  0.1475  0.0256 -0.7220
 9413SOL    HW239699   4.097   0.160   3.867 -0.0549 -0.5541  0.9857
 9414SOL     OW39700   4.510   2.173  12.947 -0.0204 -0.1018 -0.2435
 9414SOL    HW139701   4.445   2.192  12.879 -1.0644 -1.5870  0.3327
 9414SOL    HW239702   4.545   2.260  12.968  1.4849 -0.7277 -0.2213
 9415SOL     OW39703   0.409   2.672  16.278  0.2829  0.2243 -0.4751
 9415SOL    HW139704   0.416   2.674  16.182 -0.4736 -1.2693 -0.5503
 9415SOL    HW239705   0.500   2.661  16.305 -0.3235 -0.9099  1.0750
 9416SOL     OW39706   2.921   0.342   5.239 -0.4807  0.2178 -0.2874
 9416SOL    HW139707   2.980   0.301   5.176 -0.4845  2.7322 -1.8847
 9416SOL    HW239708   2.972   0.418   5.267  1.0241 -0.7524 -0.4112
 9417SOL     OW39709   0.275   1.747   1.224  0.0076 -0.5146 -0.1099
 9417SOL    HW139710   0.284   1.677   1.160  0.5019 -1.6748  1.2209
 9417SOL    HW239711   0.250   1.822   1.170  2.8888  0.1711 -0.4942
 9418SOL     OW39712   0.612   0.098  14.332 -0.2597  0.4356  0.3109
 9418SOL    HW139713   0.548   0.166  14.311 -0.7219 -0.2980 -0.6902
 9418SOL    HW239714   0.686   0.128  14.278  2.1184 -0.6633  2.9426
 9419SOL     OW39715   3.909   3.811   0.216 -0.0416  0.2993 -0.0953
 9419SOL    HW139716   3.854   3.889   0.215 -0.6223 -0.1266 -1.0280
 9419SOL    HW239717   3.870   3.770   0.139 -0.2600 -2.3478  1.4331
 9420SOL     OW39718   1.102   2.722   0.016  0.3718  0.5149 -0.1090
 9420SOL    HW139719   1.130   2.636  17.666 -1.3031 -0.1618  0.2359
 9420SOL    HW239720   1.021   2.702   0.063  0.2698 -0.3137 -0.6364
 9421SOL     OW39721   2.930   2.005   4.552  0.9331 -0.6584 -0.0115
 9421SOL    HW139722   3.008   2.021   4.605  0.7288  1.1437 -0.2731
 9421SOL    HW239723   2.975   1.966   4.477 -0.1916 -0.7361 -0.6446
 9422SOL     OW39724   3.632   3.623  14.422  0.2083  0.1303  0.1766
 9422SOL    HW139725   3.659   3.576  14.343 -2.1794 -0.5536 -0.2338
 9422SOL    HW239726   3.699   3.593  14.484 -0.1894  0.6290  0.8497
 9423SOL     OW39727   0.769   3.233   1.848  0.1559  0.2372  0.5793
 9423SOL    HW139728   0.701   3.180   1.890  0.1926  1.0517  1.6558
 9423SOL    HW239729   0.774   3.200   1.758  0.9732  1.7099  0.0872
 9424SOL     OW39730   0.453   4.355   0.776 -0.4679  0.3853  0.1989
 9424SOL    HW139731   0.509   4.362   0.699  2.6532 -1.1733  2.3448
 9424SOL    HW239732   0.368   4.391   0.751  0.1336  0.9818 -0.9995
 9425SOL     OW39733   3.094   1.058   8.060 -0.6238 -0.2914  0.1260
 9425SOL    HW139734   3.059   0.980   8.017  0.1550 -0.5421 -0.0409
 9425SOL    HW239735   3.171   1.029   8.108 -1.2229 -2.4066 -0.1918
 9426SOL     OW39736   0.907   0.079  14.623 -0.2660  0.4919 -0.0670
 9426SOL    HW139737   0.981   0.051  14.677  0.9238 -0.5072 -2.2091
 9426SOL    HW239738   0.936   0.132  14.549 -1.1549  0.1992 -0.6235
 9427SOL     OW39739   2.600   4.669  17.444  0.0464  0.3203  0.0451
 9427SOL    HW139740   2.673   4.710  17.491  0.6133 -3.5121  2.5350
 9427SOL    HW239741   2.543   4.643  17.516  0.7110 -0.0179  0.4466
 9428SOL     OW39742   0.069   4.251  14.026  0.0071 -0.3290  0.2884
 9428SOL    HW139743   0.073   4.245  14.122  1.6543  1.4838  0.3409
 9428SOL    HW239744   0.071   4.159  13.999 -1.2630 -0.0557 -0.7350
 9429SOL     OW39745   1.623   2.847   3.433 -0.8145 -0.8611  0.2622
 9429SOL    HW139746   1.712   2.883   3.438 -0.0378 -2.5103 -1.5082
 9429SOL    HW239747   1.642   2.771   3.377  1.3962 -0.1770  0.0811
 9430SOL     OW39748   2.960   1.203  12.526  0.4076  0.4096  0.0292
 9430SOL    HW139749   3.017   1.280  12.524  0.2960  0.5565  1.9761
 9430SOL    HW239750   3.020   1.128  12.527  0.3704  0.3915  0.6276
 9431SOL     OW39751   3.164   0.095   8.063 -0.4768  0.0720 -0.4289
 9431SOL    HW139752   3.171   0.111   8.157 -1.3774 -1.4010 -0.1183
 9431SOL    HW239753   3.250   0.128   8.035  0.0187  0.6006  1.7265
 9432SOL     OW39754   3.268   0.691   1.984 -0.0227  0.3599 -0.1721
 9432SOL    HW139755   3.240   0.633   1.913 -0.8865  0.2610  0.2394
 9432SOL    HW239756   3.188   0.696   2.037  0.9898  0.9353  1.3063
 9433SOL     OW39757   3.778   1.435  12.562  0.3272 -0.0864 -0.5405
 9433SOL    HW139758   3.837   1.395  12.626 -3.4804 -1.4221  2.1579
 9433SOL    HW239759   3.710   1.458  12.625  0.5915 -0.5920 -0.0758
 9434SOL     OW39760   0.128   2.685  16.381  0.3163  0.5024 -0.5437
 9434SOL    HW139761   0.222   2.688  16.363  0.4515 -0.6964 -0.0341
 9434SOL    HW239762   0.131   2.612  16.443 -1.9560  0.5277 -0.4055
 9435SOL     OW39763   4.014   2.367   7.140  0.6466  0.1251 -0.4985
 9435SOL    HW139764   4.004   2.451   7.095 -0.4805  1.1490  1.6507
 9435SOL    HW239765   3.929   2.330   7.118  0.4419 -0.0156  0.5116
 9436SOL     OW39766   2.429   4.193   6.848  0.2812  0.0089  0.1396
 9436SOL    HW139767   2.513   4.157   6.876  0.4661  0.4106  0.0977
 9436SOL    HW239768   2.419   4.135   6.772 -1.4845 -1.1507  1.2565
 9437SOL     OW39769   2.717   0.733   5.443 -0.5876  0.0622 -0.0448
 9437SOL    HW139770   2.744   0.805   5.386  1.1098 -1.2462 -0.9170
 9437SOL    HW239771   2.739   0.775   5.526 -1.9592  0.5489  0.0621
 9438SOL     OW39772   3.705   0.134   3.054  0.6201 -0.6230  0.5010
 9438SOL    HW139773   3.667   0.048   3.037 -0.3725 -0.1728  0.3954
 9438SOL    HW239774   3.787   0.112   3.097  0.5808 -2.8762 -0.6310
 9439SOL     OW39775   0.549   3.659   5.153 -0.1530  0.3079 -0.3104
 9439SOL    HW139776   0.608   3.663   5.228  0.3017  1.4820 -0.7272
 9439SOL    HW239777   0.513   3.571   5.156 -2.0320  1.0137 -1.8172
 9440SOL     OW39778   1.746   1.956  11.112  0.1154 -0.3813 -0.5595
 9440SOL    HW139779   1.688   2.004  11.171 -0.0387 -0.6453 -0.4992
 9440SOL    HW239780   1.823   1.948  11.169  0.4811  1.8924 -0.7366
 9441SOL     OW39781   2.456   0.695   1.303 -0.1511  0.3212 -0.0610
 9441SOL    HW139782   2.417   0.768   1.255  0.4767  1.2400  0.8358
 9441SOL    HW239783   2.375   0.656   1.337 -0.4664  0.0103 -1.1763
 9442SOL     OW39784   2.591   1.994   3.351  0.1364  0.8792 -0.8077
 9442SOL    HW139785   2.646   1.961   3.279  1.2857  0.8930  0.0550
 9442SOL    HW239786   2.552   2.069   3.305  2.5924  1.2915 -2.2611
 9443SOL     OW39787   4.054   1.481   7.843 -0.2668  0.4010 -0.6707
 9443SOL    HW139788   4.033   1.504   7.934 -1.1255  1.0259 -1.0282
 9443SOL    HW239789   3.992   1.409   7.835  1.2109 -1.0537  0.7957
 9444SOL     OW39790   4.567   2.939   2.256  0.1618 -0.2423  0.6435
 9444SOL    HW139791   4.594   2.995   2.183 -1.2440  0.1435  0.4098
 9444SOL    HW239792   4.527   3.005   2.313 -0.5608  0.7618 -1.0168
 9445SOL     OW39793   0.352   0.938   8.864  0.2254 -0.3029  0.0647
 9445SOL    HW139794   0.328   1.029   8.883 -0.5560 -0.9609  2.2696
 9445SOL    HW239795   0.409   0.924   8.939  1.4488  1.9901 -0.4285
 9446SOL     OW39796   4.004   2.385   2.009 -0.3287  0.0705  0.8892
 9446SOL    HW139797   3.924   2.374   1.959  1.2686 -2.4990 -1.1038
 9446SOL    HW239798   4.033   2.470   1.977 -2.0972  0.1774 -0.4242
 9447SOL     OW39799   3.014   1.454   6.856  0.0387  0.3195  0.2121
 9447SOL    HW139800   2.953   1.523   6.882  1.3782  1.1132  1.2428
 9447SOL    HW239801   2.957   1.377   6.857 -1.7592  1.6319 -1.1284
 9448SOL     OW39802   2.075   1.829   2.109 -1.0069 -0.1022  0.2617
 9448SOL    HW139803   2.050   1.921   2.103  2.3743  0.8760  1.0373
 9448SOL    HW239804   2.022   1.790   2.039 -1.4191 -0.7829  0.9439
 9449SOL     OW39805   1.648   2.528   7.343  0.1928 -0.3039 -0.1568
 9449SOL    HW139806   1.641   2.439   7.377  0.7155 -0.4971 -0.5667
 9449SOL    HW239807   1.599   2.581   7.406  0.5220 -1.7621  1.3156
 9450SOL     OW39808   3.167   1.240  16.129 -0.5912  0.5939  0.4481
 9450SOL    HW139809   3.259   1.240  16.156  0.1871 -0.7228 -2.1754
 9450SOL    HW239810   3.172   1.159  16.078  0.6389  0.2615  1.0993
 9451SOL     OW39811   0.892   4.595  14.368  0.2554 -0.0088  0.6280
 9451SOL    HW139812   0.857   4.509  14.391 -1.1747  0.3033 -0.3769
 9451SOL    HW239813   0.837   4.653  14.422 -1.5029 -1.0111 -0.0872
 9452SOL     OW39814   3.965   0.816  14.664  0.0867 -0.3918  0.0471
 9452SOL    HW139815   3.920   0.839  14.583  1.5604  1.0762 -0.3402
 9452SOL    HW239816   3.920   0.882  14.718  0.3397 -0.5500  0.4564
 9453SOL     OW39817   0.180   3.743   7.997  0.9668  0.1234  0.7105
 9453SOL    HW139818   0.089   3.730   7.972  1.3464  0.6012 -0.9078
 9453SOL    HW239819   0.187   3.669   8.057  0.9179 -1.5908 -1.4228
 9454SOL     OW39820   0.445   0.363   4.299  0.3441  0.0805  0.1637
 9454SOL    HW139821   0.500   0.286   4.285  1.0679  0.4625  0.8481
 9454SOL    HW239822   0.457   0.409   4.216 -0.5604 -2.1216 -1.1913
 9455SOL     OW39823   2.334   4.581   7.683 -0.0443 -0.5151  0.9360
 9455SOL    HW139824   2.353   4.494   7.719 -1.5118 -1.7987 -1.3125
 9455SOL    HW239825   2.334   4.552   7.592  0.7088 -2.4336  1.5443
 9456SOL     OW39826   4.427   2.930   1.526  0.1709 -0.1522  0.3043
 9456SOL    HW139827   4.432   2.995   1.455  2.1824  0.0033  0.5863
 9456SOL    HW239828   4.519   2.925   1.554  0.0354 -0.6229  0.6638
 9457SOL     OW39829   2.780   2.652   6.133 -0.6534 -0.3209 -0.0487
 9457SOL    HW139830   2.761   2.563   6.163  0.2553 -0.7388 -0.7174
 9457SOL    HW239831   2.694   2.691   6.117 -0.5120 -0.5374 -1.2996
 9458SOL     OW39832   4.692   3.423   5.418  0.2125 -0.1748  0.0988
 9458SOL    HW139833   4.627   3.478   5.374 -0.0237  0.5695  1.4047
 9458SOL    HW239834   0.050   3.478   5.406 -0.3264  0.6102  0.1924
 9459SOL     OW39835   4.331   1.733   8.328  0.7029 -0.5317 -0.0996
 9459SOL    HW139836   4.276   1.690   8.393 -1.4617  0.9659 -0.9430
 9459SOL    HW239837   4.267   1.779   8.274 -0.2194 -2.2861 -0.4844
 9460SOL     OW39838   3.565   3.963  10.402  0.2742 -0.2099 -0.0791
 9460SOL    HW139839   3.601   4.030  10.460 -0.5595  0.5862 -0.4879
 9460SOL    HW239840   3.550   4.029  10.334  2.5538  0.4227  0.0121
 9461SOL     OW39841   3.597   4.492   1.377 -0.1737 -0.2997  0.0777
 9461SOL    HW139842   3.684   4.483   1.415 -0.0760 -0.5477 -0.2073
 9461SOL    HW239843   3.611   4.521   1.287 -0.5742  0.7476  0.3462
 9462SOL     OW39844   0.484   3.806   1.208 -0.6099 -0.3447 -0.0292
 9462SOL    HW139845   0.475   3.764   1.293 -0.4680  0.3226  0.3159
 9462SOL    HW239846   0.394   3.808   1.175 -0.5870 -1.2311 -0.1406
 9463SOL     OW39847   2.161   0.712   5.735 -0.4417 -0.3046  0.1046
 9463SOL    HW139848   2.151   0.807   5.728  2.1469 -0.1342 -1.1426
 9463SOL    HW239849   2.205   0.699   5.819 -1.5511 -0.0223  0.7279
 9464SOL     OW39850   2.648   3.612   4.695  0.3919 -0.7699 -0.6728
 9464SOL    HW139851   2.561   3.616   4.732 -0.1017  0.3705 -1.9449
 9464SOL    HW239852   2.697   3.648   4.769 -1.3033 -3.0102  1.5358
 9465SOL     OW39853   3.846   3.424   7.882 -0.2457  0.7858  0.3685
 9465SOL    HW139854   3.870   3.359   7.948  0.4016 -1.9960 -2.5821
 9465SOL    HW239855   3.784   3.371   7.831  0.7473 -0.6180  0.6286
 9466SOL     OW39856   1.295   4.040   4.867 -0.4884 -0.0821 -0.5222
 9466SOL    HW139857   1.251   4.081   4.941  1.5609  2.1797 -0.5497
 9466SOL    HW239858   1.224   3.990   4.828 -0.3184  1.0740 -2.2839
 9467SOL     OW39859   0.487   1.213   6.017  0.1035 -0.0040 -0.1763
 9467SOL    HW139860   0.460   1.157   6.090 -3.0495 -0.4552 -1.6990
 9467SOL    HW239861   0.526   1.156   5.951  0.8471 -1.2314  1.3259
 9468SOL     OW39862   0.168   2.718   7.379 -0.2236  0.4217  0.4650
 9468SOL    HW139863   0.199   2.718   7.288 -0.9587  2.2075  0.2158
 9468SOL    HW239864   0.245   2.693   7.429  0.7193  1.0712 -0.6507
 9469SOL     OW39865   1.849   0.372  15.013 -0.7501 -0.1457  0.8017
 9469SOL    HW139866   1.813   0.408  15.094 -2.4736  1.1665 -0.5322
 9469SOL    HW239867   1.940   0.378  15.040 -0.9191 -1.5626  1.6704
 9470SOL     OW39868   0.406   1.437  11.433  0.1422 -0.2850 -0.0693
 9470SOL    HW139869   0.442   1.524  11.420 -1.3006  0.4873  1.0491
 9470SOL    HW239870   0.398   1.399  11.346  0.2707  0.6968 -0.5089
 9471SOL     OW39871   2.119   3.778   2.953 -0.1665 -0.6539  0.1918
 9471SOL    HW139872   2.097   3.685   2.949  0.9483 -0.9896  1.9279
 9471SOL    HW239873   2.202   3.779   2.906  0.3313 -0.3401  1.0919
 9472SOL     OW39874   4.105   3.763  11.651  0.1407  0.3382 -0.1763
 9472SOL    HW139875   4.186   3.806  11.627 -0.5553 -0.2667 -3.5387
 9472SOL    HW239876   4.142   3.681  11.682  1.7630  1.2232  0.2433
 9473SOL     OW39877   1.836   1.806   8.724 -0.2788  0.8843  0.0259
 9473SOL    HW139878   1.765   1.871   8.725  0.1272  1.4014 -2.7786
 9473SOL    HW239879   1.852   1.808   8.629 -2.1546  0.6216 -0.2936
 9474SOL     OW39880   2.639   4.250  12.917  0.0637  0.2234  0.0031
 9474SOL    HW139881   2.549   4.253  12.948  0.8457  2.4523  2.0162
 9474SOL    HW239882   2.636   4.315  12.847  0.0855  1.7484  1.4350
 9475SOL     OW39883   0.589   3.068   6.177  0.4002  0.5931  0.3391
 9475SOL    HW139884   0.542   3.020   6.109 -1.7286  0.0496  2.2135
 9475SOL    HW239885   0.657   3.114   6.127  0.0347  0.2891 -0.4267
 9476SOL     OW39886   2.658   3.799   6.943  0.2464 -0.3758  0.4745
 9476SOL    HW139887   2.621   3.776   6.857 -0.7616  0.9690  0.5467
 9476SOL    HW239888   2.697   3.886   6.936 -1.2267  0.0409 -2.2818
 9477SOL     OW39889   1.027   4.362   3.413  0.1898 -0.3026 -0.2473
 9477SOL    HW139890   0.986   4.275   3.415  1.2286 -0.7527  1.7152
 9477SOL    HW239891   1.109   4.342   3.457  1.2977  1.2627 -1.6030
 9478SOL     OW39892   3.890   1.997   6.490 -0.0424 -0.2294  0.0758
 9478SOL    HW139893   3.967   1.958   6.447 -0.5298  0.4440 -1.4097
 9478SOL    HW239894   3.872   1.940   6.564 -3.2344  1.1157  0.3287
 9479SOL     OW39895   1.847   2.572   4.388  0.1119 -0.0512  0.4977
 9479SOL    HW139896   1.794   2.497   4.361  2.0171 -1.4047  0.4662
 9479SOL    HW239897   1.896   2.540   4.464 -1.0564 -0.5973  1.0122
 9480SOL     OW39898   0.499   1.135  14.108  0.9569  0.2178  0.1817
 9480SOL    HW139899   0.583   1.118  14.065  0.2716 -1.3491 -0.5563
 9480SOL    HW239900   0.484   1.222  14.072  1.1178  1.0028  2.0544
 9481SOL     OW39901   0.023   3.660  14.401  0.6236  0.0907  0.2898
 9481SOL    HW139902   0.110   3.655  14.361  1.0851 -2.0349  1.5652
 9481SOL    HW239903   0.019   3.743  14.448 -0.4699  0.2935 -0.1756
 9482SOL     OW39904   0.527   2.054   5.133 -0.0495  0.1517 -0.1351
 9482SOL    HW139905   0.476   2.098   5.065  0.5986 -1.4668 -1.6714
 9482SOL    HW239906   0.480   1.970   5.133  0.0179  0.1042 -1.8012
 9483SOL     OW39907   2.918   3.841   2.961  0.4999  0.2235 -0.0449
 9483SOL    HW139908   2.949   3.879   2.879 -1.4108 -0.7632 -1.2379
 9483SOL    HW239909   2.830   3.808   2.943  0.3058  0.7934 -0.1395
 9484SOL     OW39910   2.117   2.036   7.203  0.9432 -0.0047  0.3434
 9484SOL    HW139911   2.072   2.011   7.283  1.5314 -1.7188  0.1379
 9484SOL    HW239912   2.048   2.069   7.145  1.5935 -0.8247 -0.9211
 9485SOL     OW39913   1.412   2.852   5.342 -0.2498 -0.3345  0.2608
 9485SOL    HW139914   1.451   2.885   5.261 -0.1293  4.1080  2.1166
 9485SOL    HW239915   1.321   2.882   5.337 -0.1496 -0.1620 -0.4877
 9486SOL     OW39916   3.734   4.284   9.062 -0.2456  0.6423 -0.0019
 9486SOL    HW139917   3.686   4.208   9.094  1.3349 -0.6649 -0.7329
 9486SOL    HW239918   3.689   4.356   9.107 -2.6055  0.0118 -1.3107
 9487SOL     OW39919   1.690   3.833  16.858 -0.5707  0.0809 -0.2835
 9487SOL    HW139920   1.782   3.832  16.886 -0.8454 -1.1327  0.5680
 9487SOL    HW239921   1.699   3.838  16.763 -1.0884 -1.7470 -0.4276
 9488SOL     OW39922   2.005   3.116   5.307 -0.5658  0.1157 -0.6111
 9488SOL    HW139923   1.988   3.042   5.366  1.4913 -0.3066 -0.5288
 9488SOL    HW239924   1.956   3.186   5.350  1.4247  2.3393 -1.9660
 9489SOL     OW39925   0.766   1.288   6.324  0.1021  0.2265  0.4247
 9489SOL    HW139926   0.731   1.365   6.279 -1.0166  1.4022  3.2721
 9489SOL    HW239927   0.860   1.303   6.322  0.1875 -0.3208  0.4292
 9490SOL     OW39928   1.644   2.908  12.170 -0.0989  0.3640  0.4952
 9490SOL    HW139929   1.575   2.974  12.179 -0.6431  0.2348 -2.7974
 9490SOL    HW239930   1.625   2.849  12.243  0.1330  0.3247  0.5223
 9491SOL     OW39931   1.904   3.676   8.916  0.1837 -0.7317 -0.1977
 9491SOL    HW139932   1.967   3.744   8.893  1.3650 -1.3955  1.1076
 9491SOL    HW239933   1.919   3.596   8.865  1.1860  0.6885 -2.1139
 9492SOL     OW39934   2.675   1.663   5.155  0.4449  0.2622  0.2588
 9492SOL    HW139935   2.702   1.647   5.064 -1.8780  1.0027 -0.5547
 9492SOL    HW239936   2.635   1.748   5.139  1.3233  0.5494 -0.4024
 9493SOL     OW39937   1.597   0.274   9.552 -0.0546 -0.3986  0.4082
 9493SOL    HW139938   1.547   0.355   9.551  1.0359  0.2589 -1.3550
 9493SOL    HW239939   1.537   0.220   9.501 -0.5818  0.4173  0.1645
 9494SOL     OW39940   4.141   2.064   5.153  0.5870 -0.0325  0.1961
 9494SOL    HW139941   4.145   2.129   5.083 -1.8147  0.1346  0.2152
 9494SOL    HW239942   4.080   1.996   5.123  2.1950 -1.0546 -0.7619
 9495SOL     OW39943   2.288   1.768   9.140 -0.1714  0.8753 -0.0419
 9495SOL    HW139944   2.304   1.861   9.156  1.8787  0.7211 -1.2721
 9495SOL    HW239945   2.193   1.761   9.130 -0.2361  1.5193  0.1383
 9496SOL     OW39946   3.554   3.562  11.153 -0.1230 -0.2915  0.7319
 9496SOL    HW139947   3.588   3.647  11.126 -0.9094 -1.2992 -3.5446
 9496SOL    HW239948   3.467   3.593  11.179 -0.0279  0.4090  0.2028
 9497SOL     OW39949   2.932   1.026   7.139 -0.1072  0.1553  0.2238
 9497SOL    HW139950   2.947   0.960   7.071  1.0372  0.7774 -0.1264
 9497SOL    HW239951   2.854   1.060   7.095 -1.0573 -2.9841 -0.5323
 9498SOL     OW39952   2.352   1.851  11.552 -0.2790  0.5272 -0.7383
 9498SOL    HW139953   2.384   1.817  11.469 -0.9009  0.6953 -1.0498
 9498SOL    HW239954   2.402   1.932  11.543 -0.0239  0.3473 -0.9399
 9499SOL     OW39955   2.779   2.677   6.986  0.1213  0.2161  0.5736
 9499SOL    HW139956   2.706   2.614   6.988 -0.0597  0.4322  0.9113
 9499SOL    HW239957   2.854   2.627   6.955 -0.6015  0.3995 -1.4431
 9500SOL     OW39958   1.623   1.311   7.174 -0.1773 -0.3137  0.5382
 9500SOL    HW139959   1.558   1.274   7.115  1.9823 -1.6954 -0.9617
 9500SOL    HW239960   1.595   1.272   7.257  0.9055 -2.1231  0.0594
 9501SOL     OW39961   0.666   1.811   8.527  0.5075 -0.1138 -0.0947
 9501SOL    HW139962   0.754   1.823   8.564  0.9182 -0.5296 -0.9417
 9501SOL    HW239963   0.686   1.822   8.434  1.5091  1.1603  0.2607
 9502SOL     OW39964   3.841   1.750   4.186  0.2926 -0.1168  0.1532
 9502SOL    HW139965   3.829   1.774   4.278  0.9028 -0.0669  0.2226
 9502SOL    HW239966   3.759   1.783   4.148 -0.9689 -0.6020  2.4666
 9503SOL     OW39967   2.591   1.361  11.742 -0.5568  0.3874 -0.2801
 9503SOL    HW139968   2.522   1.396  11.798  0.0407  2.2924 -0.7499
 9503SOL    HW239969   2.590   1.428  11.673  1.2607  0.1366 -0.5454
 9504SOL     OW39970   1.494   0.446   9.172  0.0356  0.0884 -0.2052
 9504SOL    HW139971   1.554   0.377   9.198  0.0206 -0.7206 -2.3568
 9504SOL    HW239972   1.526   0.466   9.084  1.2734  1.4582  0.5497
 9505SOL     OW39973   4.405   4.269  15.570 -0.1901  0.4497  0.2689
 9505SOL    HW139974   4.314   4.239  15.559 -0.2733  1.5792 -2.0906
 9505SOL    HW239975   4.418   4.303  15.482  2.0241  1.5820  1.0561
 9506SOL     OW39976   0.138   3.326   0.812 -0.5805 -0.1312  0.2443
 9506SOL    HW139977   0.067   3.304   0.872 -2.6451  2.8838 -1.1285
 9506SOL    HW239978   0.175   3.240   0.791 -0.5296 -0.0393 -0.0390
 9507SOL     OW39979   2.975   0.545  14.448 -0.6173  0.5656  0.0818
 9507SOL    HW139980   3.037   0.607  14.486 -0.2650  0.5592 -0.4865
 9507SOL    HW239981   2.898   0.572  14.498 -0.3038 -0.5088  1.1629
 9508SOL     OW39982   1.617   4.318   7.406  0.4341  0.5543 -0.0413
 9508SOL    HW139983   1.546   4.377   7.383 -1.6430 -1.5181  1.1022
 9508SOL    HW239984   1.662   4.309   7.321 -0.6928  2.9757 -0.8932
 9509SOL     OW39985   4.064   3.319  11.152 -0.2053  0.3598  0.2822
 9509SOL    HW139986   3.978   3.297  11.116 -0.4575  1.3501  0.2804
 9509SOL    HW239987   4.035   3.396  11.201  2.2275  2.5230 -1.7143
 9510SOL     OW39988   1.701   3.846   2.696 -0.0907  0.0264 -0.2779
 9510SOL    HW139989   1.708   3.862   2.602 -0.1147 -1.7219 -0.5641
 9510SOL    HW239990   1.793   3.855   2.722 -0.1037 -0.8387  0.0786
 9511SOL     OW39991   1.091   4.077  12.659  0.2697  0.3596  0.1177
 9511SOL    HW139992   1.104   4.001  12.602  0.2504 -0.1865  0.8322
 9511SOL    HW239993   1.094   4.035  12.746  0.9617 -0.6199 -0.3797
 9512SOL     OW39994   3.673   2.153   6.383  0.6144 -0.1085 -0.1490
 9512SOL    HW139995   3.764   2.124   6.381  0.0590 -1.8212 -0.6348
 9512SOL    HW239996   3.645   2.111   6.465 -2.6303 -1.5544 -1.9865
 9513SOL     OW39997   0.024   0.635  13.891  0.1806 -0.0231 -0.0837
 9513SOL    HW139998   4.719   0.621  13.982 -0.7634  1.5869 -0.0932
 9513SOL    HW239999   0.095   0.698  13.895  1.8868 -1.9755 -0.0162
 9514SOL     OW40000   1.206   2.148   7.506 -0.2973 -0.3773  0.2981
 9514SOL    HW140001   1.200   2.152   7.410  2.2013 -0.1222  0.1519
 9514SOL    HW240002   1.296   2.117   7.513  0.3256  1.3526 -0.1039
 9515SOL     OW40003   3.437   4.224   5.663 -0.2379  0.5245 -0.3340
 9515SOL    HW140004   3.454   4.130   5.653 -1.2368  0.4528 -1.3675
 9515SOL    HW240005   3.348   4.220   5.699  0.4178  2.2667  1.4834
 9516SOL     OW40006   4.129   2.019  12.868 -0.6215  0.0530  0.0430
 9516SOL    HW140007   4.172   2.007  12.953  2.2008  0.2378 -1.3558
 9516SOL    HW240008   4.170   1.952  12.813 -2.1237 -0.6689 -0.1920
 9517SOL     OW40009   4.138   0.062   5.485  0.2728 -0.0769  0.1829
 9517SOL    HW140010   4.111   0.100   5.401  0.4800  0.1682  0.2272
 9517SOL    HW240011   4.231   0.083   5.484  0.4606 -0.7782  2.3598
 9518SOL     OW40012   0.454   2.963   3.168  0.1172 -0.5812  0.3310
 9518SOL    HW140013   0.414   2.903   3.105  1.8058 -1.5750  0.2091
 9518SOL    HW240014   0.380   2.990   3.223 -0.2354  1.2487 -1.0401
 9519SOL     OW40015   0.605   1.772   5.974 -0.1011  0.2016 -0.9698
 9519SOL    HW140016   0.654   1.715   5.914  4.1056  1.0920  1.5521
 9519SOL    HW240017   0.680   1.828   5.995 -0.8199  0.5800  0.5964
 9520SOL     OW40018   0.259   3.862  13.677  0.1597 -0.2916  0.4228
 9520SOL    HW140019   0.304   3.786  13.642  2.3662  0.8771  0.7457
 9520SOL    HW240020   0.170   3.826  13.681  1.3486 -3.5265 -2.1003
 9521SOL     OW40021   2.998   3.510   6.960  0.4512 -0.1415  0.0674
 9521SOL    HW140022   3.029   3.513   7.051 -1.6847 -0.5020  0.7971
 9521SOL    HW240023   2.904   3.505   6.972  0.5891  0.6766  1.5565
 9522SOL     OW40024   4.136   0.692   6.182 -0.0951 -0.1044 -0.6087
 9522SOL    HW140025   4.202   0.739   6.234 -0.0554 -0.4574 -0.3414
 9522SOL    HW240026   4.183   0.610   6.164 -1.3150 -0.9452  0.0741
 9523SOL     OW40027   0.503   2.376  13.018  0.0068  0.0678 -0.1939
 9523SOL    HW140028   0.478   2.287  12.993 -3.1899  1.0293 -0.4519
 9523SOL    HW240029   0.528   2.363  13.109 -2.6931  1.2491  0.7146
 9524SOL     OW40030   1.830   1.745   2.902 -0.9648 -0.8324 -0.6285
 9524SOL    HW140031   1.848   1.713   2.813 -0.2537  1.7317 -1.4109
 9524SOL    HW240032   1.785   1.676   2.950 -0.9121 -0.3789  0.0776
 9525SOL     OW40033   0.188   2.388   7.989 -0.6892  0.2275 -0.2788
 9525SOL    HW140034   0.261   2.450   7.999  0.9716 -1.6236 -1.0326
 9525SOL    HW240035   0.227   2.326   7.927 -0.3915 -1.8770  2.0375
 9526SOL     OW40036   0.743   2.464   8.850  0.3574  0.0482  0.2797
 9526SOL    HW140037   0.807   2.520   8.807  1.7934  0.0941  2.4824
 9526SOL    HW240038   0.684   2.532   8.882 -1.1272 -0.1121 -2.1000
 9527SOL     OW40039   4.160   0.599  16.037 -0.3093  0.0549  0.2303
 9527SOL    HW140040   4.077   0.561  16.007 -1.1232  0.7383  1.6072
 9527SOL    HW240041   4.168   0.660  15.964 -2.0585 -0.5337 -0.4612
 9528SOL     OW40042   0.313   2.701   2.920 -0.2374  0.1101  0.1004
 9528SOL    HW140043   0.373   2.764   2.881 -0.1306 -1.1006 -1.6913
 9528SOL    HW240044   0.302   2.731   3.010 -2.2896 -1.2247  0.2981
 9529SOL     OW40045   3.279   1.085   9.750  0.1401 -0.6239  0.2084
 9529SOL    HW140046   3.265   1.111   9.842 -1.0869 -1.3040  0.2069
 9529SOL    HW240047   3.373   1.101   9.743 -0.0248  0.0276 -0.5397
 9530SOL     OW40048   0.957   3.512  16.608  0.5376 -0.1620  0.2422
 9530SOL    HW140049   0.868   3.519  16.572  1.1406 -0.0735 -1.2138
 9530SOL    HW240050   0.930   3.459  16.683  1.4134  1.0283  1.4253
 9531SOL     OW40051   1.033   2.965   2.846 -0.1392  0.2305  0.1851
 9531SOL    HW140052   1.066   2.903   2.781 -0.0015 -0.4303  0.8702
 9531SOL    HW240053   0.962   3.003   2.795  0.5437  1.5640  0.2213
 9532SOL     OW40054   0.882   1.853   0.077 -0.1041 -0.2373  0.6870
 9532SOL    HW140055   0.868   1.770   0.123  1.7086 -0.5663  0.6090
 9532SOL    HW240056   0.802   1.854   0.023  0.5989  0.8589 -0.3364
 9533SOL     OW40057   2.474   3.904   8.524  0.2176 -0.4990 -0.7138
 9533SOL    HW140058   2.506   3.944   8.605  0.9890  0.4219 -1.4877
 9533SOL    HW240059   2.456   3.812   8.547 -0.1884 -0.0689  0.6623
 9534SOL     OW40060   3.948   1.510  17.317 -0.0803 -0.1649 -0.0068
 9534SOL    HW140061   3.906   1.426  17.298  1.7489 -1.5390  1.9684
 9534SOL    HW240062   3.963   1.534  17.225  0.7320 -2.9855 -0.6129
 9535SOL     OW40063   3.066   3.014   7.315  0.2664  0.3337 -0.1627
 9535SOL    HW140064   3.145   3.025   7.262  1.2666 -0.2286  1.2128
 9535SOL    HW240065   3.010   2.968   7.253 -1.0964 -0.3614  1.5768
 9536SOL     OW40066   2.287   4.712   9.621 -0.3997  0.5459 -0.3372
 9536SOL    HW140067   2.280   4.713   9.717 -1.3785  1.5974 -0.4253
 9536SOL    HW240068   2.196   4.688   9.605  0.2776 -1.8838 -0.5713
 9537SOL     OW40069   0.234   4.649   0.478 -0.0090 -0.2039  0.5661
 9537SOL    HW140070   0.299   4.694   0.425 -2.2934  0.3470 -1.7890
 9537SOL    HW240071   0.162   4.661   0.416 -0.7910  0.4602  1.5977
 9538SOL     OW40072   1.858   0.915  10.448  0.2233 -0.2155 -0.0739
 9538SOL    HW140073   1.946   0.945  10.425  0.0657 -0.7962 -1.4794
 9538SOL    HW240074   1.874   0.828  10.484 -1.1779 -1.6076 -2.7643
 9539SOL     OW40075   1.457   4.037   5.965 -0.1722 -0.4487  0.1414
 9539SOL    HW140076   1.524   4.075   5.907  0.3409 -0.6553  0.5963
 9539SOL    HW240077   1.383   4.025   5.906 -0.3329  1.1707 -0.0019
 9540SOL     OW40078   3.556   2.134   4.024  0.0609 -0.5046  0.2482
 9540SOL    HW140079   3.537   2.114   3.932 -0.2678 -0.6667  0.3508
 9540SOL    HW240080   3.488   2.101   4.082  0.5955 -0.3279  0.9663
 9541SOL     OW40081   0.890   3.256   8.281  0.3149 -0.3884 -1.2026
 9541SOL    HW140082   0.831   3.327   8.308  1.3740 -0.2739  0.8153
 9541SOL    HW240083   0.966   3.260   8.340 -0.6687  5.0655 -0.2745
 9542SOL     OW40084   3.354   0.194   3.634  0.4535  0.1061 -0.0159
 9542SOL    HW140085   3.426   0.212   3.574  0.1658 -3.1042 -1.3182
 9542SOL    HW240086   3.291   0.159   3.571  1.8205 -0.3837 -1.1019
 9543SOL     OW40087   1.460   1.209  15.702 -0.4281 -0.8830  0.1273
 9543SOL    HW140088   1.450   1.119  15.731 -2.5978 -0.3916  0.9160
 9543SOL    HW240089   1.492   1.249  15.782 -2.3466 -0.5119  0.7009
 9544SOL     OW40090   2.240   4.415   8.896 -0.0190 -0.2094  0.4563
 9544SOL    HW140091   2.298   4.369   8.957 -0.0067  0.9027  1.2845
 9544SOL    HW240092   2.275   4.500   8.924 -2.6250  0.8611  0.4183
 9545SOL     OW40093   3.038   1.285   3.343 -0.3968  0.1740 -0.3797
 9545SOL    HW140094   2.951   1.246   3.350  0.2593 -1.0726  0.7691
 9545SOL    HW240095   3.085   1.218   3.295 -0.8132 -0.2858 -0.1399
 9546SOL     OW40096   0.607   3.450   6.486 -0.5147  0.5234 -0.0374
 9546SOL    HW140097   0.576   3.381   6.544  1.3739 -1.6833 -1.6512
 9546SOL    HW240098   0.696   3.419   6.467 -1.0245 -1.4430  0.8049
 9547SOL     OW40099   2.959   1.328   3.629  0.3134 -0.7595  0.2642
 9547SOL    HW140100   2.876   1.343   3.584  0.2666 -1.2562  0.1863
 9547SOL    HW240101   3.026   1.351   3.565 -1.1182  0.0598 -0.9215
 9548SOL     OW40102   1.795   1.006   2.062  0.0645  0.0129  0.8883
 9548SOL    HW140103   1.836   0.922   2.083 -0.4285 -0.1677  1.1359
 9548SOL    HW240104   1.784   1.000   1.967 -2.3545  1.2267  1.0859
 9549SOL     OW40105   2.309   4.408   7.456 -0.5302  0.1495 -0.3488
 9549SOL    HW140106   2.333   4.412   7.363 -1.2371  0.4027 -0.5214
 9549SOL    HW240107   2.214   4.419   7.446 -0.7800  1.1009  2.9393
 9550SOL     OW40108   3.888   1.275   8.897  0.7975  0.4497 -0.3594
 9550SOL    HW140109   3.879   1.360   8.854  0.9333  0.8067  0.3200
 9550SOL    HW240110   3.893   1.222   8.818 -0.4161 -0.4694  0.1970
 9551SOL     OW40111   2.163   2.869  14.980 -0.3335 -0.2572 -0.4975
 9551SOL    HW140112   2.234   2.813  14.948  2.7381  3.2532  0.1287
 9551SOL    HW240113   2.138   2.926  14.908 -1.6933 -1.7980 -1.2396
 9552SOL     OW40114   3.397   2.902   0.514 -0.0953  0.0514 -0.1238
 9552SOL    HW140115   3.343   2.832   0.477  1.3607 -1.3988  0.4721
 9552SOL    HW240116   3.378   2.894   0.608 -0.5407 -1.8893 -0.3742
 9553SOL     OW40117   1.475   2.172   2.583 -0.4572  0.1880  0.7548
 9553SOL    HW140118   1.537   2.099   2.575  1.8629  2.0233  2.2015
 9553SOL    HW240119   1.395   2.129   2.553  1.0403 -0.4104 -2.3797
 9554SOL     OW40120   3.118   0.939  11.938 -0.3581  0.2164 -0.0943
 9554SOL    HW140121   3.040   0.921  11.884 -1.6859  2.0753  1.2511
 9554SOL    HW240122   3.137   1.030  11.916 -0.9223  0.3434 -0.0615
 9555SOL     OW40123   4.193   0.047   7.885 -0.0462 -0.8576 -0.5907
 9555SOL    HW140124   4.177   4.690   7.829 -1.4479  0.6902 -2.3266
 9555SOL    HW240125   4.267   0.012   7.935 -0.4775  0.7849  1.1776
 9556SOL     OW40126   0.611   2.973   3.618 -0.6379 -0.5876 -0.0180
 9556SOL    HW140127   0.583   2.941   3.532 -1.4821 -2.2495  0.8818
 9556SOL    HW240128   0.646   2.895   3.660 -0.2509  0.1623  1.0427
 9557SOL     OW40129   4.227   1.815   2.904  0.0407 -0.5951 -0.0623
 9557SOL    HW140130   4.159   1.799   2.838 -0.9056  0.5597  0.6314
 9557SOL    HW240131   4.301   1.794   2.848  0.7316 -1.3573  1.1240
 9558SOL     OW40132   4.531   0.599   7.039 -0.5936 -0.3075  0.0037
 9558SOL    HW140133   4.599   0.547   6.996 -0.8258 -1.4600  1.0629
 9558SOL    HW240134   4.500   0.544   7.111 -1.3872 -1.1957 -1.0184
 9559SOL     OW40135   0.069   3.853   4.601 -0.1316 -0.3393  0.7618
 9559SOL    HW140136   0.076   3.784   4.535 -0.2393  1.2857 -0.9581
 9559SOL    HW240137   4.712   3.908   4.582 -0.8954 -1.5568  0.3416
 9560SOL     OW40138   0.527   0.621   7.988  0.4926  0.6010  0.0907
 9560SOL    HW140139   0.509   0.715   7.979 -0.1086  0.4889  0.1358
 9560SOL    HW240140   0.622   0.620   7.985  0.5455 -0.2488  2.2129
 9561SOL     OW40141   2.656   3.874  12.069 -0.1541  0.1931 -0.2613
 9561SOL    HW140142   2.643   3.843  11.979 -0.4397  3.2361 -1.2672
 9561SOL    HW240143   2.739   3.921  12.062 -0.6206  0.7493 -2.0485
 9562SOL     OW40144   3.439   3.059  13.334  0.0230  0.3926 -0.0293
 9562SOL    HW140145   3.386   3.128  13.294 -2.2704 -1.1078  0.4325
 9562SOL    HW240146   3.529   3.092  13.331 -0.3672  1.4202 -0.6111
 9563SOL     OW40147   1.058   2.038   4.372 -0.0737 -0.0996 -0.2613
 9563SOL    HW140148   1.008   2.087   4.437  1.4452  0.2879  0.6085
 9563SOL    HW240149   1.124   2.101   4.343  0.2140 -0.9395 -1.4360
 9564SOL     OW40150   2.899   0.729  12.776  0.6124  0.1963  0.2584
 9564SOL    HW140151   2.958   0.685  12.714  1.6391 -2.3778  3.0794
 9564SOL    HW240152   2.868   0.668  12.843 -3.6441  2.3809  0.2604
 9565SOL     OW40153   3.875   2.561   4.120 -0.3343  0.4043  0.6592
 9565SOL    HW140154   3.909   2.583   4.034 -2.4836  4.6905  0.8897
 9565SOL    HW240155   3.838   2.644   4.153  1.9394  1.5332  0.3704
   4.71946   4.71946  17.68067
