Membrane in water
40155
    1TCq1    O1    1   1.079   1.775  10.906  0.6567 -0.8411  0.3168
    1TCq1    C1    2   1.020   1.696  10.998 -0.2918  0.9748 -0.1931
    1TCq1    O2    3   0.939   1.606  10.979 -0.3821  0.0353 -0.0922
    1TCq1    C2    4   1.129   1.660  11.094  0.5504 -0.6232 -0.2703
    1TCq1    C3    5   1.248   1.740  11.097  0.0853  0.1661  0.6475
    1TCq1    C4    6   1.354   1.671  11.143 -0.3045  0.7139 -0.3623
    1TCq1    C5    7   1.350   1.543  11.187  0.1000  0.3548  1.1698
    1TCq1    C6    8   1.227   1.484  11.209  0.4828 -0.5653 -0.2466
    1TCq1    C7    9   1.113   1.544  11.159  0.0525 -0.1993 -0.5783
    1TCq1    C8   10   1.219   1.348  11.256  0.5004  0.1972  0.0747
    1TCq1    O4   11   1.115   1.284  11.250  0.1700  0.6099 -0.9527
    1TCq1    C9   12   1.486   1.731  11.141  0.0813  0.4247  0.5862
    1TCq1    O5   13   1.586   1.677  11.199 -0.5523 -0.5505  0.2426
    1TCq1    O6   14   1.498   1.843  11.083 -0.0012  0.2237  0.5661
    1TCq1    H1   15   1.111   1.857  10.950  2.6592 -1.6682  0.3874
    1TCq1    H2   16   1.262   1.824  11.031  1.1795 -1.2981 -0.9944
    1TCq1    H3   17   1.446   1.501  11.216 -0.2512  0.2725  2.1833
    1TCq1    H4   18   1.019   1.490  11.169  0.0621 -0.0337  0.4847
    2MPD2     C   19   1.421   0.995  11.570 -0.0477  0.6858 -0.4081
    2MPD2    C1   20   1.295   0.989  11.513 -0.2408 -0.6603  0.5738
    2MPD2    C2   21   1.264   1.092  11.425  0.4312 -0.4714 -0.0324
    2MPD2    C3   22   1.358   1.190  11.387  0.0295  0.3886 -0.1695
    2MPD2    C4   23   1.480   1.183  11.450 -0.1546 -0.3610 -0.5923
    2MPD2    C5   24   1.511   1.088  11.541 -0.1475 -0.2859 -0.4012
    2MPD2     H   25   1.161   1.108  11.396 -0.7721 -2.1719  3.3538
    2MPD2    H1   26   1.552   1.264  11.441  0.6518 -0.8121  2.0392
    2MPD2    H2   27   1.434   0.921  11.649 -0.9179  0.8496 -0.1088
    2MPD2    H3   28   1.607   1.090  11.593  0.2764 -1.8769 -1.1061
    2MPD2     N   29   1.328   1.322  11.337 -0.3490  0.4262  0.0560
    2MPD2    H5   30   1.403   1.391  11.340 -1.7772  2.0057 -0.2557
    2MPD2    N1   31   1.193   0.897  11.546  0.3445  0.8453 -0.2242
    2MPD2    H7   32   1.101   0.903  11.502 -1.1867 -1.4775  2.6281
    3TCq1    O1   33   1.063   1.562  10.395  0.3752  0.0691 -0.4719
    3TCq1    C1   34   1.056   1.630  10.278  0.1435  0.5266 -0.3831
    3TCq1    O2   35   1.142   1.626  10.189  0.2856  0.3012  0.0190
    3TCq1    C2   36   0.929   1.704  10.272  0.0024 -0.0678 -0.0194
    3TCq1    C3   37   0.930   1.822  10.212  0.4393  0.5909  0.4358
    3TCq1    C4   38   0.817   1.902  10.224 -1.0242 -0.4886  0.1481
    3TCq1    C5   39   0.710   1.868  10.298 -0.4506  0.6201  0.0266
    3TCq1    C6   40   0.706   1.740  10.348  0.1050 -0.1694  0.1607
    3TCq1    C7   41   0.821   1.659  10.343  0.1368  0.0019  0.3633
    3TCq1    C8   42   0.603   1.704  10.438 -0.7518  0.4484  0.1137
    3TCq1    O4   43   0.571   1.585  10.443  0.1749 -0.6038  0.4349
    3TCq1    C9   44   0.809   2.038  10.160  0.1421 -0.1778  0.7582
    3TCq1    O5   45   0.876   2.050  10.055  0.2415 -0.1314  0.1409
    3TCq1    O6   46   0.749   2.129  10.223  1.0746  0.5337 -0.3038
    3TCq1    H1   47   0.980   1.565  10.447 -0.3358  0.5177 -1.6300
    3TCq1    H2   48   1.010   1.853  10.146  0.6651 -2.5732 -0.7821
    3TCq1    H3   49   0.637   1.944  10.323  0.3843  0.5917  2.5875
    3TCq1    H4   50   0.806   1.557  10.379  0.3074 -0.5803 -1.1928
    4MPD2     C   51   0.316   1.826  10.851 -0.2968  0.5025  0.6293
    4MPD2    C1   52   0.363   1.939  10.791  0.2848 -0.3103  0.1382
    4MPD2    C2   53   0.431   1.927  10.670  0.3094  0.6550  0.9541
    4MPD2    C3   54   0.463   1.809  10.615  0.1676 -0.5180  0.0507
    4MPD2    C4   55   0.414   1.694  10.679 -0.5433 -1.0421 -0.0942
    4MPD2    C5   56   0.341   1.707  10.793  0.2144 -0.1128 -0.8597
    4MPD2     H   57   0.471   2.016  10.624 -1.5422  1.6615  1.2966
    4MPD2    H1   58   0.438   1.591  10.657 -0.8825 -1.1482  0.0323
    4MPD2    H2   59   0.251   1.830  10.938 -0.8443  2.4791  0.1444
    4MPD2    H3   60   0.286   1.617  10.819  1.0722 -0.0880  1.0582
    4MPD2     N   61   0.543   1.809  10.500  0.0086 -0.1955 -0.1258
    4MPD2    H5   62   0.593   1.895  10.478  0.3560  0.2370  2.3003
    4MPD2    N1   63   0.352   2.071  10.840 -0.6116  0.1093 -0.5614
    4MPD2    H7   64   0.400   2.141  10.784  0.7044 -1.5141 -1.4510
    5TCq1    O1   65   1.367   3.766  11.605 -0.3729  0.0730  0.2345
    5TCq1    C1   66   1.270   3.689  11.658  0.4414  0.5035  0.4175
    5TCq1    O2   67   1.254   3.667  11.776  0.0888 -0.1787  0.1139
    5TCq1    C2   68   1.157   3.707  11.572  0.8686  0.4001  0.4585
    5TCq1    C3   69   1.039   3.744  11.634 -0.3548  0.2762 -0.0298
    5TCq1    C4   70   0.930   3.775  11.552 -0.2852 -0.1640 -0.0170
    5TCq1    C5   71   0.933   3.759  11.415  0.0501  0.1781 -0.2431
    5TCq1    C6   72   1.049   3.714  11.365  0.0981  0.1426  0.5107
    5TCq1    C7   73   1.167   3.680  11.437 -0.0622  0.1602 -0.3077
    5TCq1    C8   74   1.033   3.657  11.230 -0.3252  0.8209 -0.7899
    5TCq1    O4   75   1.102   3.557  11.214  0.3340  0.2036  0.4280
    5TCq1    C9   76   0.799   3.813  11.602  0.0028 -0.2845 -0.3729
    5TCq1    O5   77   0.776   3.834  11.723  0.2543  0.5691 -0.0224
    5TCq1    O6   78   0.710   3.833  11.518 -0.6764  0.2653  0.6221
    5TCq1    H1   79   1.346   3.787  11.512  1.0098  1.5448  0.2570
    5TCq1    H2   80   1.036   3.759  11.741  1.4825  1.6151 -0.1683
    5TCq1    H3   81   0.842   3.783  11.361 -0.1893 -0.2084 -0.0128
    5TCq1    H4   82   1.250   3.631  11.388 -0.2477 -0.7425  0.2799
    6MPD2     C   83   0.818   3.769  10.967  0.6032 -0.2877  0.4575
    6MPD2    C1   84   0.905   3.687  11.028  0.0181  0.1401 -0.3218
    6MPD2    C2   85   0.941   3.564  10.966  0.9484 -0.3392  0.4444
    6MPD2    C3   86   0.885   3.528  10.843 -0.5121  0.0119 -0.2091
    6MPD2    C4   87   0.803   3.620  10.789  0.4214 -0.5370  0.3833
    6MPD2    C5   88   0.770   3.737  10.852  0.0889 -0.1380 -0.4807
    6MPD2     H   89   1.009   3.496  11.015  0.3729 -1.1518  0.1178
    6MPD2    H1   90   0.758   3.607  10.691  0.7452  1.1530  0.0133
    6MPD2    H2   91   0.779   3.858  11.015  1.6945  0.1307  0.5652
    6MPD2    H3   92   0.700   3.808  10.809 -0.3888 -1.2831 -1.6142
    6MPD2     N   93   0.928   3.405  10.778 -0.2071  0.1483  0.0783
    6MPD2    H5   94   1.008   3.360  10.821  0.2565  1.3244  0.4551
    6MPD2    N1   95   0.950   3.729  11.157  0.7183 -0.1513  0.0970
    6MPD2    H7   96   0.913   3.814  11.197  0.5749 -0.2226  0.1162
    7TCq1    O1   97   2.786   2.521  12.443  0.0349  0.3360 -0.2320
    7TCq1    C1   98   2.849   2.625  12.381  0.5416 -0.0576  0.4107
    7TCq1    O2   99   2.806   2.671  12.277  0.2488  0.0795  0.4767
    7TCq1    C2  100   2.913   2.707  12.488 -0.1442  0.0745  0.6681
    7TCq1    C3  101   2.912   2.844  12.476 -0.0404 -0.3952 -0.1117
    7TCq1    C4  102   2.977   2.917  12.570 -0.1878  0.0633 -0.2409
    7TCq1    C5  103   3.054   2.858  12.664 -0.0931 -0.2085  0.4353
    7TCq1    C6  104   3.060   2.721  12.669  0.5547 -0.6712  0.3973
    7TCq1    C7  105   2.988   2.643  12.579 -0.0065  0.2304  0.4454
    7TCq1    C8  106   3.130   2.661  12.783  0.6117  0.3298 -0.2695
    7TCq1    O4  107   3.197   2.561  12.762  0.0484 -0.2613  0.5493
    7TCq1    C9  108   2.979   3.066  12.560 -0.4407  0.6454 -0.8134
    7TCq1    O5  109   3.044   3.131  12.647  0.5414  0.0615  0.1741
    7TCq1    O6  110   2.917   3.111  12.457  0.2205  0.0995 -0.5480
    7TCq1    H1  111   2.805   2.513  12.539 -0.4663 -0.4239 -0.1968
    7TCq1    H2  112   2.855   2.894  12.398  0.9577  0.0328 -0.5643
    7TCq1    H3  113   3.121   2.923  12.720  1.1666 -1.0424 -0.0894
    7TCq1    H4  114   2.988   2.535  12.590 -0.2379 -0.0218 -1.9305
    8MPD2     C  115   3.324   2.703  13.277  0.6054 -0.0654  0.6863
    8MPD2    C1  116   3.370   2.617  13.172 -0.1186 -0.0711  0.4293
    8MPD2    C2  117   3.300   2.609  13.049  0.3286 -0.3327 -0.0265
    8MPD2    C3  118   3.202   2.710  13.023  0.2440 -0.2082  0.2805
    8MPD2    C4  119   3.173   2.800  13.121 -0.1124 -0.2321 -0.0700
    8MPD2    C5  120   3.229   2.796  13.248  0.2320 -0.4240  0.3677
    8MPD2     H  121   3.329   2.553  12.961  0.0704  1.7851 -1.4837
    8MPD2    H1  122   3.093   2.873  13.111 -0.6321 -0.9253 -1.0218
    8MPD2    H2  123   3.362   2.699  13.378 -1.9667 -0.0592  1.6373
    8MPD2    H3  124   3.196   2.872  13.318  0.1937  0.5258 -0.6711
    8MPD2     N  125   3.126   2.737  12.901 -0.2021 -0.9090  0.2901
    8MPD2    H5  126   3.065   2.818  12.902  0.5656 -0.3344 -0.2544
    8MPD2    N1  127   3.477   2.536  13.213  0.4417  0.7610  0.2358
    8MPD2    H7  128   3.531   2.570  13.292 -0.7272  2.8851  0.0991
    9TCq1    O1  129   0.822   2.868  10.741  0.0027  0.5892 -0.2533
    9TCq1    C1  130   0.917   2.883  10.839 -0.0447 -0.4662 -0.1916
    9TCq1    O2  131   0.966   2.991  10.865 -0.0209 -0.1338  0.3145
    9TCq1    C2  132   0.948   2.753  10.901 -0.2958 -0.0202 -0.0009
    9TCq1    C3  133   1.077   2.727  10.934 -0.6598  0.5489  0.3402
    9TCq1    C4  134   1.097   2.624  11.025  0.2788  0.0669  0.7716
    9TCq1    C5  135   0.999   2.556  11.090  0.0889 -0.6607 -0.0535
    9TCq1    C6  136   0.872   2.581  11.054 -0.3244  0.8526  0.2775
    9TCq1    C7  137   0.845   2.692  10.972  0.1205  0.4309  0.9540
    9TCq1    C8  138   0.767   2.538  11.141 -0.8009 -0.0653 -0.1951
    9TCq1    O4  139   0.663   2.602  11.152  0.5812 -0.2572  0.6398
    9TCq1    C9  140   1.231   2.574  11.049 -0.1267  0.1767 -0.4371
    9TCq1    O5  141   1.329   2.627  10.991  0.6437 -0.5104  0.1700
    9TCq1    O6  142   1.243   2.479  11.130  0.0794  0.0045 -0.1255
    9TCq1    H1  143   0.806   2.772  10.729 -0.0093  0.6503 -0.7102
    9TCq1    H2  144   1.163   2.770  10.884  0.2421  1.0960  2.3715
    9TCq1    H3  145   1.018   2.464  11.144 -0.2603 -0.7295 -0.0499
    9TCq1    H4  146   0.740   2.704  10.946  0.1384  0.9893  1.1462
   10MPD2     C  147   0.561   2.360  11.261  0.1308  0.1010 -0.0815
   10MPD2    C1  148   0.692   2.326  11.237  0.3564  0.5938 -0.5126
   10MPD2    C2  149   0.742   2.204  11.278 -0.1501 -0.2610 -0.3371
   10MPD2    C3  150   0.661   2.107  11.335  0.1587  0.0686 -0.6100
   10MPD2    C4  151   0.530   2.142  11.358  0.2561 -0.0028 -0.1787
   10MPD2    C5  152   0.486   2.265  11.329 -0.1497  0.4958  0.3161
   10MPD2     H  153   0.845   2.189  11.249 -0.1772 -1.0431 -0.0284
   10MPD2    H1  154   0.459   2.075  11.405  1.2392  0.0064  1.2897
   10MPD2    H2  155   0.517   2.455  11.233 -0.5169  0.4403  2.0815
   10MPD2    H3  156   0.385   2.297  11.348 -0.3854 -1.1294  1.8613
   10MPD2     N  157   0.703   1.978  11.361  0.5665 -0.3473  0.4879
   10MPD2    H5  158   0.632   1.923  11.409  0.5877 -1.2084 -0.4644
   10MPD2    N1  159   0.786   2.409  11.182 -0.1507 -0.5819 -0.0141
   10MPD2    H7  160   0.875   2.373  11.148  0.1175  1.1689 -1.1754
   11TCq1    O1  161   1.740   2.061  13.878 -0.5045  0.1377  0.3832
   11TCq1    C1  162   1.628   2.057  13.949  0.0886 -0.3120  0.1533
   11TCq1    O2  163   1.520   2.096  13.906 -0.4188 -0.1464  0.1254
   11TCq1    C2  164   1.658   1.953  14.042  0.6597 -0.0252  0.2127
   11TCq1    C3  165   1.772   1.959  14.121  0.8153  0.2398 -0.2697
   11TCq1    C4  166   1.771   1.887  14.235  0.0076  0.5210  0.2170
   11TCq1    C5  167   1.667   1.797  14.261 -0.6162 -0.9666 -0.8077
   11TCq1    C6  168   1.559   1.795  14.182  0.7936 -0.3579 -0.2150
   11TCq1    C7  169   1.550   1.873  14.073 -0.0154 -0.2910  0.4239
   11TCq1    C8  170   1.449   1.703  14.216  0.7475  0.4159  0.0472
   11TCq1    O4  171   1.449   1.659  14.335  0.4103  0.0100  0.6635
   11TCq1    C9  172   1.868   1.909  14.337 -0.7388 -0.2639  0.9414
   11TCq1    O5  173   1.973   1.963  14.305 -0.3518 -0.1417  0.1508
   11TCq1    O6  174   1.831   1.889  14.454  0.3691  0.7928 -0.0966
   11TCq1    H1  175   1.818   2.020  13.922 -0.7205 -1.6729 -0.9130
   11TCq1    H2  176   1.844   2.040  14.118 -0.7316  1.5877 -0.8303
   11TCq1    H3  177   1.668   1.744  14.355  0.4789 -0.7666 -0.7100
   11TCq1    H4  178   1.466   1.876  14.004  1.3906 -0.4542 -1.3217
   12MPD2     C  179   1.210   1.556  14.244 -0.5894 -0.4145  0.0080
   12MPD2    C1  180   1.264   1.585  14.112 -0.2229 -1.0430  0.8932
   12MPD2    C2  181   1.210   1.533  13.995  0.4296  0.1781  0.2333
   12MPD2    C3  182   1.103   1.441  14.008  0.4200 -0.4630  0.5531
   12MPD2    C4  183   1.055   1.412  14.131 -0.3616  0.1860 -0.5288
   12MPD2    C5  184   1.109   1.467  14.243 -0.5400 -0.7939  0.6073
   12MPD2     H  185   1.246   1.560  13.897  0.6416 -0.9423 -0.0019
   12MPD2    H1  186   0.976   1.342  14.150 -1.2940  1.5577  0.6403
   12MPD2    H2  187   1.233   1.615  14.332 -0.7790 -0.7064  0.2534
   12MPD2    H3  188   1.059   1.435  14.334  0.2365  0.6125  1.5130
   12MPD2     N  189   1.032   1.376  13.900 -0.1742  0.0905  0.0105
   12MPD2    H5  190   0.962   1.309  13.929 -0.2478  0.2424  0.1843
   12MPD2    N1  191   1.380   1.666  14.108  0.1108 -0.0088 -0.1686
   12MPD2    H7  192   1.420   1.686  14.017 -0.2983 -0.1586 -0.3841
   13TCq1    O1  193   1.480   2.005  10.892  0.3279 -0.0305 -0.0163
   13TCq1    C1  194   1.424   1.974  10.770  0.1206 -0.3316  0.2287
   13TCq1    O2  195   1.316   2.022  10.734 -0.4291  0.0067  0.1079
   13TCq1    C2  196   1.452   1.831  10.758 -0.4079  0.1596 -0.3313
   13TCq1    C3  197   1.568   1.792  10.816 -0.7593  0.9778  0.1974
   13TCq1    C4  198   1.592   1.659  10.828 -0.5704  0.3417 -0.4081
   13TCq1    C5  199   1.499   1.565  10.788  0.4357  0.1412 -0.1353
   13TCq1    C6  200   1.378   1.609  10.753 -0.1360 -0.3361  0.1146
   13TCq1    C7  201   1.358   1.739  10.721  0.5737 -0.3701 -0.1634
   13TCq1    C8  202   1.268   1.515  10.748 -0.4488 -0.0430  0.6598
   13TCq1    O4  203   1.156   1.561  10.735 -0.2576  0.3355 -0.1552
   13TCq1    C9  204   1.714   1.621  10.897  0.6999  0.0046 -0.2318
   13TCq1    O5  205   1.768   1.717  10.957  0.0205 -0.1214 -0.6572
   13TCq1    O6  206   1.712   1.503  10.943 -0.0334  0.3089  0.0126
   13TCq1    H1  207   1.506   1.925  10.941  1.0155 -1.0367 -2.0444
   13TCq1    H2  208   1.648   1.863  10.836 -0.2021  0.3034  0.3708
   13TCq1    H3  209   1.527   1.462  10.807 -1.0842 -0.2092  0.2433
   13TCq1    H4  210   1.258   1.775  10.702  0.8234  0.5149  0.2002
   14MPD2     C  211   1.261   1.160  10.821 -0.8004 -0.3899  0.6084
   14MPD2    C1  212   1.225   1.292  10.832 -0.3406 -0.3599 -0.0198
   14MPD2    C2  213   1.106   1.323  10.892 -0.3892 -0.0627 -0.2260
   14MPD2    C3  214   1.018   1.214  10.940 -0.4096 -0.1054 -0.3689
   14MPD2    C4  215   1.058   1.080  10.934  0.3462  0.4232  0.3289
   14MPD2    C5  216   1.186   1.056  10.872 -0.1699  0.2678 -0.2999
   14MPD2     H  217   1.066   1.424  10.899  1.5552  0.7507 -0.9468
   14MPD2    H1  218   1.003   0.991  10.961  1.9190 -0.8027 -0.4328
   14MPD2    H2  219   1.351   1.134  10.767 -1.2216 -0.0263 -0.2681
   14MPD2    H3  220   1.223   0.955  10.856  1.0469  0.7105 -0.2694
   14MPD2     N  221   0.896   1.260  11.003  0.1605  0.2057  0.1062
   14MPD2    H5  222   0.882   1.361  11.005 -3.5288 -0.3072 -0.1539
   14MPD2    N1  223   1.310   1.384  10.776  0.7017 -0.2367  0.3135
   14MPD2    H7  224   1.408   1.359  10.763  1.0884  1.0408  0.7074
   15TCq1    O1  225   1.954   0.648   1.390 -0.0832  0.7207 -0.1001
   15TCq1    C1  226   1.975   0.601   1.517  0.5946  0.0364  0.1955
   15TCq1    O2  227   1.896   0.611   1.610 -0.6730  0.3322 -0.3233
   15TCq1    C2  228   2.109   0.630   1.540 -0.0986 -0.1289 -0.3157
   15TCq1    C3  229   2.131   0.695   1.658 -0.1300 -0.4381  0.1304
   15TCq1    C4  230   2.251   0.689   1.715  0.2624  0.1629 -0.3707
   15TCq1    C5  231   2.353   0.627   1.648  0.2352 -0.0439 -0.5632
   15TCq1    C6  232   2.326   0.550   1.539  0.1035 -0.0005  0.4040
   15TCq1    C7  233   2.205   0.551   1.478  0.1712  0.2340  0.4159
   15TCq1    C8  234   2.435   0.505   1.463 -0.7807  0.1364  0.1176
   15TCq1    O4  235   2.545   0.503   1.510 -0.5687  0.2932 -0.4596
   15TCq1    C9  236   2.284   0.761   1.831 -0.4060 -0.4365 -0.1805
   15TCq1    O5  237   2.402   0.737   1.874  0.5816  0.1571  0.3341
   15TCq1    O6  238   2.206   0.854   1.876  0.0875  0.6384 -0.4768
   15TCq1    H1  239   2.034   0.660   1.335 -0.6120  1.6925 -0.6731
   15TCq1    H2  240   2.057   0.755   1.710  0.7415 -0.6335  1.5684
   15TCq1    H3  241   2.455   0.626   1.686 -0.3792  1.8350  1.1204
   15TCq1    H4  242   2.183   0.475   1.404  0.9288  0.3751  0.0430
   16MPD2     C  243   2.430   0.451   1.105 -0.5198 -0.3801  0.9039
   16MPD2    C1  244   2.485   0.449   1.231  0.5996 -0.3773  0.5616
   16MPD2    C2  245   2.614   0.415   1.251 -0.3104  0.3369  0.0294
   16MPD2    C3  246   2.690   0.379   1.139 -0.5589  0.7118 -0.2610
   16MPD2    C4  247   2.635   0.392   1.011 -0.5444 -0.1351 -0.1448
   16MPD2    C5  248   2.507   0.425   1.001 -1.1334  0.2046 -1.0174
   16MPD2     H  249   2.664   0.415   1.347 -1.4446 -3.0566  0.6010
   16MPD2    H1  250   2.692   0.373   0.920  0.0852  1.6798 -0.1186
   16MPD2    H2  251   2.326   0.480   1.098 -0.6081 -0.5454  1.5010
   16MPD2    H3  252   2.473   0.436   0.898  0.1282  0.2976 -1.4194
   16MPD2     N  253   2.823   0.335   1.169  0.3004 -0.3273  0.1215
   16MPD2    H5  254   2.858   0.333   1.264  0.4696 -1.2225  0.0335
   16MPD2    N1  255   2.402   0.487   1.336 -0.1266  0.7689 -0.7543
   16MPD2    H7  256   2.308   0.514   1.310  0.7409  2.2931 -2.3244
   17TCq1    O1  257   0.339   1.268  10.789 -0.3425  0.6341 -0.0295
   17TCq1    C1  258   0.411   1.173  10.854  0.4010  1.0875 -0.1586
   17TCq1    O2  259   0.389   1.099  10.947 -0.5505 -0.3743 -0.5468
   17TCq1    C2  260   0.545   1.170  10.782  0.1442  0.0301 -0.4884
   17TCq1    C3  261   0.590   1.290  10.746 -0.0833  0.1567 -0.4014
   17TCq1    C4  262   0.716   1.302  10.688 -0.2756 -0.5369  0.2016
   17TCq1    C5  263   0.800   1.189  10.682 -0.0353  0.2687  0.1453
   17TCq1    C6  264   0.751   1.065  10.727 -0.0629 -0.0693  0.2625
   17TCq1    C7  265   0.621   1.050  10.780  0.5445  0.7097  0.3882
   17TCq1    C8  266   0.852   0.963  10.719 -1.1944 -0.2643  0.4742
   17TCq1    O4  267   0.923   0.972  10.620  0.3184 -0.6365 -0.0982
   17TCq1    C9  268   0.768   1.432  10.677  0.2851  0.2100 -0.3992
   17TCq1    O5  269   0.864   1.450  10.599 -0.0342  0.3201 -0.1626
   17TCq1    O6  270   0.742   1.516  10.766  0.1899  0.3662 -0.6165
   17TCq1    H1  271   0.387   1.294  10.707 -3.3874  4.1298 -0.7128
   17TCq1    H2  272   0.538   1.382  10.772 -2.8317 -0.6518 -3.0191
   17TCq1    H3  273   0.900   1.205  10.645 -0.0999 -0.7844 -0.4847
   17TCq1    H4  274   0.582   0.950  10.797  0.7323  0.4901 -0.5075
   18MPD2     C  275   0.874   0.652  10.916  0.9133 -0.5848 -0.2044
   18MPD2    C1  276   0.909   0.738  10.811  0.4577  0.2753  0.5187
   18MPD2    C2  277   1.030   0.723  10.744 -0.1348  0.0506 -0.3703
   18MPD2    C3  278   1.115   0.615  10.773 -0.5047  0.7419  0.1899
   18MPD2    C4  279   1.069   0.528  10.865 -0.5567  0.0775  1.3305
   18MPD2    C5  280   0.955   0.546  10.940  0.1730  0.6091  0.1382
   18MPD2     H  281   1.062   0.800  10.675 -1.4521 -0.1561 -1.2089
   18MPD2    H1  282   1.134   0.447  10.895  0.4365  0.6615  0.7852
   18MPD2    H2  283   0.788   0.665  10.980  0.0862 -0.1950 -1.3895
   18MPD2    H3  284   0.938   0.469  11.015  0.1757  0.7220  0.2556
   18MPD2     N  285   1.238   0.588  10.708 -0.5247 -0.2863 -0.1680
   18MPD2    H5  286   1.276   0.500  10.741 -0.8610  0.1989  1.4946
   18MPD2    N1  287   0.826   0.853  10.800 -0.1144  0.2931 -0.4104
   18MPD2    H7  288   0.746   0.852  10.863 -0.7370 -0.3844 -1.2166
   19TMC2    C1  289   2.558   1.132  14.065 -0.5545  0.2656  0.3676
   19TMC2    C2  290   2.545   1.249  14.136 -0.7420 -0.1034  0.4765
   19TMC2    C3  291   2.422   1.302  14.145 -0.4209  0.6195 -0.1176
   19TMC2    C4  292   2.449   1.064  14.020  0.0206  0.0017 -0.2389
   19TMC2    C5  293   2.326   1.121  14.033 -0.5171  0.4058 -0.2915
   19TMC2    C6  294   2.311   1.243  14.096  0.0879  0.1227 -0.1070
   19TMC2     C  295   2.681   1.059  14.068 -0.1423  0.0777  0.5159
   19TMC2     O  296   2.706   0.972  13.985  0.9963  0.5862 -0.5453
   19TMC2     H  297   2.635   1.304  14.162  1.0405 -2.2529 -1.0857
   19TMC2    H1  298   2.460   0.973  13.962  1.3056  0.9058 -1.4312
   19TMC2    H2  299   2.213   1.290  14.098 -0.4614 -0.9385 -2.0152
   19TMC2    C7  300   2.216   1.047  13.980 -1.3469  0.5071  0.0220
   19TMC2    C8  301   2.417   1.441  14.180  0.3953 -0.8382 -0.1830
   19TMC2    O1  302   2.234   0.928  13.967 -0.2342  0.4532 -0.0927
   19TMC2    O2  303   2.435   1.471  14.296  0.2015  0.1115 -0.1246
   19TMC2    O5  304   2.480   1.490  14.071 -0.1264  0.2013  0.1054
   19TMC2    H5  305   2.463   1.437  13.989  1.2791  0.2483 -0.2113
   20MPD2     C  306   2.945   0.960  14.170  0.4308  0.5074  0.4651
   20MPD2    C1  307   2.864   1.053  14.234 -0.6537 -0.2110  0.5705
   20MPD2    C2  308   2.895   1.099  14.361 -0.5443  0.1284  0.5242
   20MPD2    C3  309   3.007   1.050  14.424 -0.0613 -0.0678 -0.1208
   20MPD2    C4  310   3.082   0.956  14.363  0.3624 -0.5771 -0.5729
   20MPD2    C5  311   3.056   0.915  14.231 -0.3853  0.0851  0.0108
   20MPD2     H  312   2.820   1.156  14.416 -0.4094  0.1945  0.6390
   20MPD2    H1  313   3.159   0.898  14.413  1.2289 -0.4462 -1.7413
   20MPD2    H2  314   2.918   0.936  14.068 -2.0905  2.2276  0.7151
   20MPD2    H3  315   3.125   0.846  14.184  1.2466  1.5940  0.2157
   20MPD2     N  316   3.042   1.087  14.553  0.1675 -0.0111  0.4247
   20MPD2    H5  317   3.115   1.032  14.598  2.4420  0.8337 -2.2784
   20MPD2    N1  318   2.750   1.100  14.179 -0.3247  0.2289  0.8955
   20MPD2    H7  319   2.700   1.168  14.235  1.4021  0.9410  1.5738
   21MPD2     C  320   0.075   1.970  13.957  0.3166  0.7114  0.2024
   21MPD2    C1  321   0.144   1.870  14.023 -0.3195  0.4894  0.0097
   21MPD2    C2  322   0.072   1.790  14.107  0.2381  0.0046 -0.2974
   21MPD2    C3  323   4.664   1.826  14.138  0.7587  0.1123  0.1151
   21MPD2    C4  324   4.610   1.929  14.074 -0.3028 -0.7125  0.2574
   21MPD2    C5  325   4.672   2.004  13.982  0.2809 -0.4475  0.4962
   21MPD2     H  326   0.127   1.712  14.158 -0.7696 -0.1006  0.6357
   21MPD2    H1  327   4.511   1.965  14.101  1.0928  0.8343  3.3470
   21MPD2    H2  328   0.133   2.016  13.878 -1.5310 -0.7031 -1.9781
   21MPD2    H3  329   4.624   2.085  13.929  2.1344 -0.1061 -0.6705
   21MPD2     N  330   4.578   1.754  14.227 -0.1037  0.3173  0.6236
   21MPD2    H5  331   4.481   1.778  14.244  0.0891 -0.0364  2.2571
   21MPD2    N1  332   0.284   1.840  14.013  0.0904  1.4794 -0.2915
   21MPD2    H7  333   0.315   1.765  14.074 -1.9338 -0.4811 -1.6883
   22TCq2    C1  334   4.624   1.637  14.292  0.3735  0.3153 -0.0613
   22TCq2    O2  335   4.711   1.558  14.273 -0.1992 -0.3208  0.3331
   22TCq2    C2  336   4.522   1.584  14.390 -0.2233  0.3287 -0.5065
   22TCq2    C3  337   4.568   1.463  14.453  0.4192  0.3463 -0.4299
   22TCq2    C4  338   4.500   1.415  14.558 -0.3855 -0.7127  0.0964
   22TCq2    C5  339   4.414   1.496  14.626 -0.6877 -0.0686  0.4505
   22TCq2    C6  340   4.383   1.615  14.567 -0.1005  0.1084 -0.3788
   22TCq2    C7  341   4.428   1.660  14.446  0.5728  0.0842 -0.1035
   22TCq2    C8  342   4.293   1.701  14.638 -0.1573  0.3014  0.0112
   22TCq2    O4  343   4.301   1.711  14.762 -0.1567 -0.2176  0.2923
   22TCq2    C9  344   4.535   1.285  14.607 -0.6277  0.2046  0.2911
   22TCq2    O5  345   4.644   1.241  14.559  0.2695  0.5225  0.6747
   22TCq2    O6  346   4.489   1.248  14.718  0.5733  0.6996 -0.2156
   22TCq2    H2  347   4.638   1.393  14.410  1.8653  1.0522  0.7740
   22TCq2    H3  348   4.365   1.458  14.715  0.8951 -1.6322  0.6487
   22TCq2    H4  349   4.410   1.762  14.413  0.7058 -0.3030 -1.3363
   23MPD2     C  350   1.784   2.993  14.909  0.2426  0.6300 -0.0368
   23MPD2    C1  351   1.705   2.882  14.895 -0.6175 -0.3225 -0.0554
   23MPD2    C2  352   1.656   2.850  14.770  0.6699 -0.4362 -0.2950
   23MPD2    C3  353   1.688   2.923  14.660  0.2547 -0.5553 -0.3505
   23MPD2    C4  354   1.782   3.021  14.668  0.4911 -0.1352 -0.0593
   23MPD2    C5  355   1.819   3.055  14.793  0.2779  0.3387 -0.1201
   23MPD2     H  356   1.591   2.765  14.753  1.0365 -0.7348 -0.1987
   23MPD2    H1  357   1.806   3.065  14.572  0.4706  0.4278  0.1973
   23MPD2    H2  358   1.817   3.027  15.006  1.2977  0.3443 -0.2975
   23MPD2    H3  359   1.881   3.143  14.808 -0.0884  0.6746 -0.6088
   23MPD2     N  360   1.639   2.898  14.534  0.3344  0.1777  0.0649
   23MPD2    H5  361   1.659   2.969  14.465 -1.1575 -2.7632 -3.4248
   23MPD2    N1  362   1.661   2.818  15.015 -0.2766  0.0337  0.0443
   23MPD2    H7  363   1.680   2.869  15.101 -0.9038  0.4012 -0.0409
   24TCq2    C1  364   1.537   2.811  14.500 -0.2328 -0.2618 -0.3942
   24TCq2    O2  365   1.461   2.749  14.574  0.1435 -0.2080 -0.2441
   24TCq2    C2  366   1.529   2.797  14.359 -0.0621  0.9965  0.6512
   24TCq2    C3  367   1.629   2.846  14.277 -0.0350 -0.3819  0.1560
   24TCq2    C4  368   1.606   2.874  14.150 -0.1162  0.2202 -0.3011
   24TCq2    C5  369   1.477   2.866  14.108  0.0735 -0.0255  0.1511
   24TCq2    C6  370   1.375   2.824  14.185 -0.6478  0.3280 -0.5789
   24TCq2    C7  371   1.400   2.773  14.309  0.4176  0.6339 -0.0600
   24TCq2    C8  372   1.248   2.894  14.174 -0.9359  1.0274 -0.3042
   24TCq2    O4  373   1.148   2.829  14.214  0.1053 -0.1097  0.3129
   24TCq2    C9  374   1.712   2.922  14.066  0.0522  0.3525  0.2790
   24TCq2    O5  375   1.828   2.897  14.113 -0.2372  0.4879  0.0305
   24TCq2    O6  376   1.679   2.969  13.951 -0.6221  0.4218  0.4368
   24TCq2    H2  377   1.732   2.841  14.310  0.5336  0.6824 -1.4964
   24TCq2    H3  378   1.453   2.898  14.008  0.1022 -1.1143 -0.2095
   24TCq2    H4  379   1.320   2.744  14.377 -2.2847  0.1991 -3.4320
   25TMC2    C1  380   0.821   0.002  11.133 -0.0963  0.4030 -0.3343
   25TMC2    C2  381   0.936   0.075  11.144  0.7407 -0.3484 -0.0860
   25TMC2    C3  382   0.941   0.179  11.236 -0.2199  0.9188 -0.2881
   25TMC2    C4  383   0.718   0.019  11.220  0.5335  0.2879 -0.7765
   25TMC2    C5  384   0.745   0.109  11.320  0.2862  0.2440 -0.3940
   25TMC2    C6  385   0.842   0.196  11.325  0.8037  0.3684 -0.3481
   25TMC2     C  386   0.830   4.622  11.039  0.1746  0.0303  0.9384
   25TMC2     O  387   0.938   4.599  10.978  0.3446  0.0503  0.2927
   25TMC2     H  388   1.025   0.061  11.084  1.5517 -0.7180  1.1883
   25TMC2    H1  389   0.638   4.673  11.219 -0.0738  0.9368  1.2953
   25TMC2    H2  390   0.833   0.274  11.400 -0.5446 -0.4204  0.3081
   25TMC2    C7  391   0.634   0.135  11.405 -0.4981 -0.1670  0.1976
   25TMC2    C8  392   1.064   0.249  11.262 -0.3428  0.0181 -0.3290
   25TMC2    O1  393   0.655   0.165  11.523  0.5032 -0.3462 -0.4272
   25TMC2    O2  394   1.077   0.317  11.364 -0.1957  0.3847  0.2541
   25TMC2    O5  395   1.108   0.286  11.140  0.1909  0.0092  0.6952
   25TMC2    H5  396   1.082   0.226  11.067  0.7387  0.6004 -0.0015
   26MPD2     C  397   0.666   4.177  10.850  0.6284  0.2082  0.1185
   26MPD2    C1  398   0.551   4.245  10.886  0.2617  0.5040 -0.3878
   26MPD2    C2  399   0.574   4.375  10.949  0.7440  0.8643 -0.3492
   26MPD2    C3  400   0.706   4.417  10.967  0.0381  0.4555 -0.4134
   26MPD2    C4  401   0.811   4.331  10.933  0.1607 -0.2496 -0.3827
   26MPD2    C5  402   0.793   4.219  10.865  0.3138 -0.2645  0.2028
   26MPD2     H  403   0.492   4.440  10.974  1.0130  0.9171  0.3925
   26MPD2    H1  404   0.914   4.363  10.946  0.1720 -0.4465  0.0269
   26MPD2    H2  405   0.652   4.087  10.791  0.0804  0.4098 -0.0613
   26MPD2    H3  406   0.873   4.160  10.822 -0.5929 -0.9311 -0.5536
   26MPD2     N  407   0.715   4.548  11.027 -0.4593  0.1765 -0.2082
   26MPD2    H5  408   0.628   4.596  11.046  0.4298  0.8088  2.2653
   26MPD2    N1  409   0.425   4.193  10.847  0.7995  0.0008 -0.2138
   26MPD2    H7  410   0.409   4.114  10.786 -2.2136  0.7744 -0.4065
   27TMC2    C1  411   4.459   1.451  12.336  0.5995 -0.5971 -0.5225
   27TMC2    C2  412   4.533   1.337  12.321 -0.4597 -0.0873  0.0554
   27TMC2    C3  413   4.553   1.306  12.188 -0.2703 -0.3751  0.4733
   27TMC2    C4  414   4.409   1.527  12.235  0.3986 -0.2511 -0.0322
   27TMC2    C5  415   4.429   1.489  12.107 -1.0304 -0.2201  0.5873
   27TMC2    C6  416   4.502   1.367  12.081  0.2794 -0.3756  1.0068
   27TMC2     C  417   4.437   1.494  12.475  0.3817  0.6104 -0.6517
   27TMC2     O  418   4.517   1.449  12.561  0.5202 -0.2561  0.4338
   27TMC2     H  419   4.570   1.276  12.402 -2.7760  0.9702  1.9015
   27TMC2    H1  420   4.379   1.630  12.252 -1.0068 -0.8685  1.2615
   27TMC2    H2  421   4.516   1.327  11.982  3.0895  1.4311  0.6971
   27TMC2    C7  422   4.328   1.536  12.016  0.7128 -0.1141  0.2695
   27TMC2    C8  423   4.645   1.203  12.160  0.3086  0.1083  0.8783
   27TMC2    O1  424   4.247   1.615  12.068 -1.0627 -0.2215 -0.0539
   27TMC2    O2  425   4.644   1.103  12.229 -0.0774 -0.5723  0.4259
   27TMC2    O5  426   0.018   1.253  12.096  0.3200  0.3623 -0.7714
   27TMC2    H5  427   0.006   1.345  12.062 -0.6035  0.6054  0.1975
   28MPD2     C  428   4.228   1.791  12.831  0.3551 -0.3843  0.0611
   28MPD2    C1  429   4.137   1.789  12.721 -0.7133 -0.1865 -0.0250
   28MPD2    C2  430   4.175   1.725  12.608 -0.2019 -0.0932  0.1858
   28MPD2    C3  431   4.291   1.652  12.614 -0.1542  1.0338 -0.3266
   28MPD2    C4  432   4.376   1.661  12.717 -0.0880  0.3073  0.0550
   28MPD2    C5  433   4.347   1.731  12.828 -0.2268 -0.0784  0.0627
   28MPD2     H  434   4.109   1.721  12.523 -0.0443 -0.4921  0.0795
   28MPD2    H1  435   4.470   1.607  12.714  0.2033  0.8121  0.1434
   28MPD2    H2  436   4.209   1.846  12.922 -0.5973 -1.3013  0.4100
   28MPD2    H3  437   4.415   1.755  12.909  1.2797  1.7334 -1.7350
   28MPD2     N  438   4.325   1.577  12.501 -0.2525  0.5035  0.7323
   28MPD2    H5  439   4.255   1.592  12.429  1.6165 -1.6265 -1.5222
   28MPD2    N1  440   4.019   1.868  12.742 -0.1370 -0.0374  0.1622
   28MPD2    H7  441   4.017   1.916  12.831  1.6845  1.3375 -0.5557
   29MPD2     C  442   3.273   4.347  14.060  0.5917  0.3351  0.6704
   29MPD2    C1  443   3.316   4.317  14.186  1.0535  0.8280 -0.4769
   29MPD2    C2  444   3.323   4.423  14.276  0.1914  0.9993  0.2542
   29MPD2    C3  445   3.292   4.560  14.246  0.5341 -0.0792 -0.3128
   29MPD2    C4  446   3.265   4.583  14.119  1.0231  0.3779 -0.0027
   29MPD2    C5  447   3.249   4.478  14.030 -0.8410 -0.5614 -0.0891
   29MPD2     H  448   3.364   4.392  14.371  2.3628  0.8666 -0.7393
   29MPD2    H1  449   3.244   4.682  14.080  0.4095 -0.2391 -1.2522
   29MPD2    H2  450   3.271   4.274  13.979  0.4516  0.5068  0.5178
   29MPD2    H3  451   3.215   4.499  13.929 -1.8977 -0.9646  0.1870
   29MPD2     N  452   3.306   4.668  14.335  0.1926  0.2162 -0.8843
   29MPD2    H5  453   3.297   0.035  14.298 -0.7358  1.0684  1.4746
   29MPD2    N1  454   3.356   4.196  14.230  0.1026  0.1189  0.5114
   29MPD2    H7  455   3.383   4.193  14.328 -0.2049  1.7728  0.6445
   30TCq2    C1  456   3.310   4.657  14.470 -0.3846 -0.4601  0.4629
   30TCq2    O2  457   3.292   4.556  14.543 -0.3842 -0.0875  0.0907
   30TCq2    C2  458   3.315   0.056  14.542  0.5707  0.5004  0.1384
   30TCq2    C3  459   3.290   0.064  14.671  0.0897  0.1232 -0.1854
   30TCq2    C4  460   3.297   0.189  14.733  0.7508 -0.6390 -0.1698
   30TCq2    C5  461   3.303   0.298  14.656  0.0930 -0.7499  0.2587
   30TCq2    C6  462   3.331   0.293  14.527  1.1009  0.3819 -0.0431
   30TCq2    C7  463   3.333   0.170  14.463 -0.5259 -0.2214 -0.6271
   30TCq2    C8  464   3.388   0.411  14.458 -0.0145  0.5559  0.4502
   30TCq2    O4  465   3.373   0.414  14.337  0.4691 -0.2740  0.5767
   30TCq2    C9  466   3.266   0.197  14.876  0.7197  0.6171  0.1711
   30TCq2    O5  467   3.238   0.097  14.944  0.3998  0.3122  0.0643
   30TCq2    O6  468   3.240   0.315  14.919 -0.1647 -0.9055 -0.4583
   30TCq2    H2  469   3.248   4.721  14.743 -0.6281  0.8913  0.1365
   30TCq2    H3  470   3.294   0.400  14.690  0.7411 -1.6569  3.1303
   30TCq2    H4  471   3.371   0.163  14.362  0.1729  3.4572 -0.6305
   31MPD2     C  472   1.689   3.380  14.530 -0.2782 -0.5829 -0.3624
   31MPD2    C1  473   1.635   3.309  14.425  0.7957 -0.0464 -0.9710
   31MPD2    C2  474   1.526   3.222  14.450  0.5546 -0.4786 -0.3344
   31MPD2    C3  475   1.482   3.201  14.580 -0.0942 -0.1135 -0.3212
   31MPD2    C4  476   1.555   3.251  14.686  0.2520 -0.9085 -0.1747
   31MPD2    C5  477   1.653   3.340  14.657  0.5696 -0.3953  0.1323
   31MPD2     H  478   1.490   3.163  14.367 -0.6290 -1.7538  1.0967
   31MPD2    H1  479   1.531   3.238  14.791 -0.8262  2.8069  0.0204
   31MPD2    H2  480   1.765   3.455  14.512 -1.1290  0.3025 -0.2537
   31MPD2    H3  481   1.695   3.396  14.740 -0.6289  1.2943 -0.4242
   31MPD2     N  482   1.382   3.123  14.626 -0.1135 -0.4347 -0.1367
   31MPD2    H5  483   1.364   3.123  14.726 -0.1362 -0.7063 -0.1406
   31MPD2    N1  484   1.680   3.352  14.295 -0.3373 -0.9632 -0.1130
   31MPD2    H7  485   1.742   3.432  14.289 -1.3910 -0.1197  0.1555
   32TCq2    C1  486   1.300   3.049  14.543 -0.0650 -0.3081  0.3868
   32TCq2    O2  487   1.275   3.075  14.428 -0.4560 -0.4515 -0.3548
   32TCq2    C2  488   1.215   2.961  14.614  0.4422  0.0830 -0.0626
   32TCq2    C3  489   1.094   2.929  14.561 -0.3514  0.1054 -0.0148
   32TCq2    C4  490   0.998   2.874  14.644  0.1377 -0.1408  0.6883
   32TCq2    C5  491   1.021   2.839  14.772 -0.5408 -0.3626  0.3936
   32TCq2    C6  492   1.147   2.860  14.811  0.4746 -0.0971  0.5772
   32TCq2    C7  493   1.245   2.926  14.744  0.6350 -0.0204 -0.3617
   32TCq2    C8  494   1.155   2.873  14.951 -0.5250 -0.8086 -0.4409
   32TCq2    O4  495   1.260   2.839  15.009 -0.0259  0.1865 -0.7348
   32TCq2    C9  496   0.878   2.828  14.577 -0.1964  0.6218  0.1799
   32TCq2    O5  497   0.872   2.815  14.452 -0.5128 -0.1126  0.4613
   32TCq2    O6  498   0.778   2.801  14.657 -0.3195 -0.2643 -0.2838
   32TCq2    H2  499   1.057   2.956  14.463 -1.3952  0.4893  0.4829
   32TCq2    H3  500   0.944   2.782  14.823  1.0538 -2.7271  0.1835
   32TCq2    H4  501   1.339   2.943  14.795  0.8152 -2.5144  0.1573
   33MPD2     C  502   1.918   0.951  10.277  0.3124 -0.6875 -0.2896
   33MPD2    C1  503   1.803   0.901  10.222 -0.5673  0.6236  0.0218
   33MPD2    C2  504   1.756   0.964  10.106 -0.4183 -0.1535 -0.8398
   33MPD2    C3  505   1.808   1.080  10.052 -0.2918  0.2102  0.3209
   33MPD2    C4  506   1.929   1.123  10.111 -0.3862  0.3379  0.6783
   33MPD2    C5  507   1.972   1.067  10.223  0.7827  0.5094 -0.7511
   33MPD2     H  508   1.662   0.934  10.062 -1.5162  1.1074  0.6388
   33MPD2    H1  509   1.989   1.205  10.075  2.1099 -2.3273 -1.2304
   33MPD2    H2  510   1.969   0.905  10.361  0.3342 -1.2555 -0.6158
   33MPD2    H3  511   2.059   1.112  10.270  1.7998 -2.5864  0.3572
   33MPD2     N  512   1.746   1.162   9.957 -0.4122  0.3295 -0.1695
   33MPD2    H5  513   1.786   1.255   9.948  2.8956 -0.9668  1.2814
   33MPD2    N1  514   1.749   0.785  10.285  0.4541  0.6157  0.5310
   33MPD2    H7  515   1.808   0.737  10.352 -0.5617 -1.7423 -0.2673
   34TCq2    C1  516   1.616   1.140   9.905 -0.0509 -0.1978  0.1096
   34TCq2    O2  517   1.537   1.047   9.920 -0.2755 -0.3988 -0.3972
   34TCq2    C2  518   1.568   1.255   9.831 -0.2498 -0.0242  0.0077
   34TCq2    C3  519   1.435   1.269   9.805 -0.2321  0.2395 -0.7703
   34TCq2    C4  520   1.387   1.368   9.731 -0.2232  0.9886  0.2480
   34TCq2    C5  521   1.472   1.456   9.669  0.1198  0.6506  0.0904
   34TCq2    C6  522   1.605   1.443   9.685 -0.3837 -0.3891  0.0765
   34TCq2    C7  523   1.652   1.345   9.768 -0.6669  0.1710  0.7199
   34TCq2    C8  524   1.701   1.523   9.609  0.1270  0.0491 -0.9795
   34TCq2    O4  525   1.816   1.510   9.647 -0.3305 -0.1021 -0.3648
   34TCq2    C9  526   1.247   1.395   9.717  0.3260 -0.3079  0.0056
   34TCq2    O5  527   1.172   1.358   9.815 -0.6535  0.1347  0.4577
   34TCq2    O6  528   1.211   1.479   9.630  0.0685  0.2375  0.0862
   34TCq2    H2  529   1.362   1.194   9.834  0.3400  0.3938  1.0462
   34TCq2    H3  530   1.430   1.531   9.602  0.3756 -0.6279 -1.5181
   34TCq2    H4  531   1.758   1.325   9.761 -0.5772  0.4253  1.3655
   35MPD2     C  532   3.771   2.580  11.810 -0.0097 -0.4674 -0.0056
   35MPD2    C1  533   3.682   2.494  11.869 -0.2274  0.3808  0.9972
   35MPD2    C2  534   3.620   2.407  11.790  0.7763 -0.4296  0.3769
   35MPD2    C3  535   3.648   2.407  11.652 -0.3692 -0.5603 -0.1378
   35MPD2    C4  536   3.740   2.490  11.598  0.4499  0.2320  0.3784
   35MPD2    C5  537   3.804   2.583  11.677  0.3445 -0.5560 -0.6624
   35MPD2     H  538   3.539   2.345  11.826  0.7410 -0.4671  0.2327
   35MPD2    H1  539   3.767   2.474  11.494 -1.6558 -1.6039  0.1179
   35MPD2    H2  540   3.817   2.655  11.874  1.3122 -1.2284 -0.0632
   35MPD2    H3  541   3.880   2.649  11.637 -2.1713  1.0865 -2.6786
   35MPD2     N  542   3.559   2.336  11.570 -0.8236  0.3672 -0.2978
   35MPD2    H5  543   3.490   2.282  11.621 -0.1927 -0.9454 -0.8361
   35MPD2    N1  544   3.641   2.517  12.000 -0.7158 -0.2558 -0.4776
   35MPD2    H7  545   3.685   2.598  12.042 -1.6571  1.4107 -2.7184
   36TCq2    C1  546   3.574   2.302  11.438  0.6007 -0.2420  0.6127
   36TCq2    O2  547   3.671   2.309  11.373  1.1950 -0.0810  0.7170
   36TCq2    C2  548   3.455   2.231  11.385 -0.2311  0.1348 -0.7034
   36TCq2    C3  549   3.452   2.165  11.263 -0.6446 -0.2132 -0.4805
   36TCq2    C4  550   3.345   2.101  11.212 -0.4943 -0.3029 -0.7162
   36TCq2    C5  551   3.234   2.087  11.288  0.3897  0.3467  0.4098
   36TCq2    C6  552   3.236   2.145  11.416 -1.0114 -0.4311 -0.2506
   36TCq2    C7  553   3.340   2.222  11.460  0.1916  0.7032  0.0255
   36TCq2    C8  554   3.127   2.105  11.505 -0.3438  0.5948 -0.2120
   36TCq2    O4  555   3.009   2.103  11.474  0.1274 -0.2354  0.4060
   36TCq2    C9  556   3.356   2.033  11.087  0.0187 -0.6773 -0.2224
   36TCq2    O5  557   3.465   2.027  11.031  0.1000 -0.0573  0.0815
   36TCq2    O6  558   3.250   1.969  11.059  0.1916 -0.2288 -0.1233
   36TCq2    H2  559   3.543   2.173  11.204 -2.7141 -1.1003 -3.8107
   36TCq2    H3  560   3.145   2.034  11.257  1.3795 -0.2408 -1.4079
   36TCq2    H4  561   3.328   2.288  11.546  1.4356  0.4846  0.3700
   37TMC2    C1  562   0.282   2.603  11.632  0.4491  0.4571 -0.2819
   37TMC2    C2  563   0.225   2.657  11.517 -0.3804  0.0267  0.3363
   37TMC2    C3  564   0.310   2.714  11.426  0.4159  0.5531  0.5811
   37TMC2    C4  565   0.416   2.604  11.650  0.0541  0.0164 -0.2793
   37TMC2    C5  566   0.497   2.650  11.552  0.6996 -0.3605  0.3721
   37TMC2    C6  567   0.449   2.705  11.438 -0.2920  0.9982 -0.2435
   37TMC2     C  568   0.189   2.571  11.737 -0.2279  0.2749 -0.3433
   37TMC2     O  569   0.066   2.576  11.718  0.2443 -0.3393  0.0907
   37TMC2     H  570   0.117   2.652  11.512 -0.3123 -0.2449 -0.9131
   37TMC2    H1  571   0.458   2.576  11.746  0.5306  0.2340 -0.4243
   37TMC2    H2  572   0.505   2.764  11.367 -0.3726  0.1034 -1.0423
   37TMC2    C7  573   0.642   2.644  11.578 -0.1578 -0.1964  0.1475
   37TMC2    C8  574   0.257   2.776  11.314 -0.2531  0.1717 -0.5235
   37TMC2    O1  575   0.676   2.630  11.693  0.1978 -0.4823 -0.7215
   37TMC2    O2  576   0.333   2.812  11.225 -0.3116  0.1823 -0.0317
   37TMC2    O5  577   0.159   2.855  11.365  0.1097 -0.1256  0.5100
   37TMC2    H5  578   0.150   2.864  11.462 -0.8699  1.7035  0.2401
   38MPD2     C  579   0.075   2.341  12.171 -0.2505  0.2262 -0.2475
   38MPD2    C1  580   0.212   2.339  12.158 -0.1610 -0.1286  0.4593
   38MPD2    C2  581   0.272   2.405  12.052  0.1628  0.0446 -0.8790
   38MPD2    C3  582   0.188   2.467  11.957  0.3318  0.7627  0.2257
   38MPD2    C4  583   0.051   2.456  11.975  0.7261 -0.0747 -0.3832
   38MPD2    C5  584   4.723   2.398  12.082  0.5662 -0.0761 -0.3686
   38MPD2     H  585   0.378   2.394  12.033  0.4676  0.4175  0.5936
   38MPD2    H1  586   4.709   2.498  11.902 -0.9376 -0.4912  0.9720
   38MPD2    H2  587   0.028   2.303  12.260  0.6003  0.8882  0.4909
   38MPD2    H3  588   4.615   2.400  12.097  0.7632  1.2057  0.7947
   38MPD2     N  589   0.247   2.522  11.846  0.6712  0.2486  0.2439
   38MPD2    H5  590   0.348   2.521  11.850  0.6505 -2.4542  0.2198
   38MPD2    N1  591   0.296   2.288  12.253 -0.5248 -0.2089  0.0998
   38MPD2    H7  592   0.395   2.312  12.250 -1.5441  3.7294 -2.0581
   39MPD2     C  593   3.434   4.393   1.433 -0.6513  0.0745  0.0274
   39MPD2    C1  594   3.369   4.503   1.485 -0.0697 -0.0416 -0.7231
   39MPD2    C2  595   3.243   4.548   1.437 -0.9952 -0.2479  0.4964
   39MPD2    C3  596   3.182   4.465   1.346  0.1860  0.4280  0.3932
   39MPD2    C4  597   3.240   4.342   1.307  0.4671  0.0518  1.0030
   39MPD2    C5  598   3.370   4.315   1.343 -0.1025 -0.5366 -0.3145
   39MPD2     H  599   3.198   4.643   1.462  1.5432  0.4765  2.3486
   39MPD2    H1  600   3.186   4.277   1.239  0.6790  1.1871 -0.2621
   39MPD2    H2  601   3.534   4.362   1.461  0.9442  0.4612 -5.1695
   39MPD2    H3  602   3.410   4.229   1.291 -2.3214 -1.5513 -0.2947
   39MPD2     N  603   3.069   4.506   1.279 -0.1762  0.8324 -0.2414
   39MPD2    H5  604   3.037   4.441   1.208  1.3839  0.3423 -0.5023
   39MPD2    N1  605   3.448   4.567   1.582 -0.0379  0.3172  0.2989
   39MPD2    H7  606   3.542   4.536   1.604  0.4173  2.2134  1.1369
   40TCq2    C1  607   3.415   4.692   1.639 -0.2204 -0.0544  0.5167
   40TCq2    O2  608   3.315   0.034   1.621  0.0228  0.1463 -0.1308
   40TCq2    C2  609   3.526   0.029   1.715  0.1364 -0.5576 -0.7500
   40TCq2    C3  610   3.495   0.111   1.815 -0.3317  1.0108 -0.9040
   40TCq2    C4  611   3.598   0.158   1.888 -0.6143  0.5866  0.3110
   40TCq2    C5  612   3.727   0.127   1.860  0.2327  0.1328 -0.2842
   40TCq2    C6  613   3.753   0.044   1.755 -0.1412 -0.0079  0.0401
   40TCq2    C7  614   3.655   4.721   1.675 -0.6680  0.4828 -0.0413
   40TCq2    C8  615   3.890   0.009   1.722  0.1101  0.2439  0.6871
   40TCq2    O4  616   3.902   4.638   1.653 -0.0318  0.4233 -0.2684
   40TCq2    C9  617   3.571   0.256   1.994 -0.4971 -0.5473  0.3430
   40TCq2    O5  618   3.458   0.250   2.052 -0.6292  0.3934  0.2444
   40TCq2    O6  619   3.671   0.311   2.039 -0.6504 -0.3354 -0.0808
   40TCq2    H2  620   3.395   0.145   1.835 -0.8613 -1.6465  0.9935
   40TCq2    H3  621   3.796   0.172   1.931  0.4074 -3.5051  1.8421
   40TCq2    H4  622   3.684   4.666   1.586 -1.5411 -0.1886  0.0783
   41TMC2    C1  623   2.452   2.760  13.511  0.3328  0.2757  0.0515
   41TMC2    C2  624   2.462   2.901  13.515  0.3043  0.2384 -0.3811
   41TMC2    C3  625   2.489   2.953  13.390 -0.6432  0.2592  0.1156
   41TMC2    C4  626   2.475   2.688  13.396 -0.6394  0.6956 -0.0020
   41TMC2    C5  627   2.497   2.743  13.275 -0.0960 -0.0947 -0.5977
   41TMC2    C6  628   2.498   2.879  13.265 -0.9097  0.1768  0.5806
   41TMC2     C  629   2.399   2.690  13.630  0.2422  0.3283 -0.5691
   41TMC2     O  630   2.443   2.735  13.732 -0.4905  0.4248  0.5060
   41TMC2     H  631   2.451   2.955  13.608 -1.3179  1.0539 -1.0575
   41TMC2    H1  632   2.485   2.581  13.405  0.0962  0.8227  0.6114
   41TMC2    H2  633   2.504   2.936  13.173 -1.6965  0.7081  0.8624
   41TMC2    C7  634   2.486   2.661  13.155 -0.4818 -0.1687 -0.2924
   41TMC2    C8  635   2.436   3.085  13.367  0.0250  0.1050 -0.4473
   41TMC2    O1  636   2.465   2.542  13.183 -0.2494 -0.5620  0.2770
   41TMC2    O2  637   2.357   3.116  13.275 -0.0079  0.4808  0.2814
   41TMC2    O5  638   2.474   3.162  13.476 -0.1148  0.5191 -0.2701
   41TMC2    H5  639   2.551   3.124  13.524 -0.1393 -1.4274 -1.7495
   42MPD2     C  640   2.198   2.385  13.660  0.7996  0.4544 -0.3142
   42MPD2    C1  641   2.265   2.494  13.705  0.2702  0.0369  0.0938
   42MPD2    C2  642   2.270   2.521  13.839  0.6051 -0.0804  1.1531
   42MPD2    C3  643   2.216   2.430  13.926 -0.4308  0.0793 -0.1221
   42MPD2    C4  644   2.123   2.341  13.885 -0.9464  0.2112 -0.0829
   42MPD2    C5  645   2.115   2.313  13.749  0.1806  0.0804  0.0263
   42MPD2     H  646   2.318   2.614  13.867  2.7348  0.0810 -3.0539
   42MPD2    H1  647   2.070   2.274  13.951 -0.7084 -0.0475 -0.1545
   42MPD2    H2  648   2.203   2.339  13.562  0.6981 -1.5015  0.5870
   42MPD2    H3  649   2.062   2.226  13.712 -1.1843  1.2015 -0.6572
   42MPD2     N  650   2.228   2.452  14.061 -0.2749 -0.0843 -0.4908
   42MPD2    H5  651   2.177   2.389  14.122 -1.3189  0.4243 -0.8475
   42MPD2    N1  652   2.315   2.581  13.611 -0.3263  0.4327  0.0704
   42MPD2    H7  653   2.304   2.564  13.512  0.1428 -1.5438  0.3655
   43MPD2     C  654   0.221   1.693   1.467  0.1820  0.2135  0.0415
   43MPD2    C1  655   0.099   1.644   1.429  0.2250 -0.0477  0.0100
   43MPD2    C2  656   4.724   1.723   1.470  0.1389  0.2140  0.2361
   43MPD2    C3  657   0.013   1.841   1.548 -0.0473  0.0158  0.1749
   43MPD2    C4  658   0.140   1.874   1.600  0.5916 -0.3436 -0.6879
   43MPD2    C5  659   0.248   1.795   1.557  0.3586 -0.5403  0.4929
   43MPD2     H  660   4.621   1.706   1.442  0.8124 -2.3762 -0.6054
   43MPD2    H1  661   0.158   1.951   1.673  0.4104 -2.9472  2.1153
   43MPD2    H2  662   0.305   1.645   1.419 -1.6940 -3.4054  0.3841
   43MPD2    H3  663   0.348   1.831   1.578 -0.3999  1.2126  1.1114
   43MPD2     N  664   4.617   1.905   1.583 -0.5635  0.4698 -0.0376
   43MPD2    H5  665   4.532   1.872   1.538  1.4686 -2.4151 -1.7690
   43MPD2    N1  666   0.074   1.519   1.373 -0.0236  0.3750 -0.1055
   43MPD2    H7  667   4.702   1.497   1.365 -0.1095  1.1037 -1.1136
   44TCq2    C1  668   4.166   1.854   1.652 -0.0556  0.2919 -0.3981
   44TCq2    O2  669   4.203   1.798   1.545 -0.3131  0.2603 -0.1554
   44TCq2    C2  670   4.253   1.952   1.721  0.3480  0.4950 -0.4618
   44TCq2    C3  671   4.233   1.974   1.849  0.0365 -0.3460  0.2794
   44TCq2    C4  672   4.335   2.033   1.910  0.6350  0.2518 -0.6172
   44TCq2    C5  673   4.450   2.063   1.853  0.3835  1.4338 -0.7226
   44TCq2    C6  674   4.470   2.038   1.718 -0.0673  0.0043  0.0217
   44TCq2    C7  675   4.367   1.984   1.651 -1.0956 -0.0026  0.3886
   44TCq2    C8  676   4.609   2.015   1.666  0.4475  0.1898 -0.0113
   44TCq2    O4  677   4.694   2.062   1.747 -0.4153  0.0428 -0.8255
   44TCq2    C9  678   4.327   2.038   2.058  0.3957  0.1081  0.5022
   44TCq2    O5  679   4.419   2.106   2.110  0.4881  0.2788  0.2745
   44TCq2    O6  680   4.258   1.947   2.115  0.7651  0.2792  0.5104
   44TCq2    H2  681   4.153   1.936   1.911 -0.6203  0.4898 -0.0576
   44TCq2    H3  682   4.532   2.101   1.913  1.8953 -0.9917 -1.2767
   44TCq2    H4  683   4.373   1.960   1.546 -2.1769 -0.7666  0.5081
   45TMC2    C1  684   3.876   3.221   8.760 -0.6462 -0.6640  0.7211
   45TMC2    C2  685   3.981   3.141   8.782 -0.8302  0.0721 -0.0573
   45TMC2    C3  686   4.089   3.206   8.844 -0.3499  0.4995  0.3840
   45TMC2    C4  687   3.859   3.351   8.808 -0.4517 -0.1385  0.6393
   45TMC2    C5  688   3.963   3.400   8.889  0.5856 -0.6985  0.4021
   45TMC2    C6  689   4.073   3.320   8.909 -0.3995 -0.1359 -0.0850
   45TMC2     C  690   3.763   3.178   8.679  0.1135 -0.9066  0.3972
   45TMC2     O  691   3.712   3.262   8.608 -0.4020  0.0170 -0.0767
   45TMC2     H  692   3.985   3.043   8.735 -2.2220 -1.3526  2.7581
   45TMC2    H1  693   3.770   3.413   8.802 -1.1999 -1.4836 -2.2066
   45TMC2    H2  694   4.152   3.350   8.976 -0.4705 -1.6409  0.6669
   45TMC2    C7  695   3.916   3.455   9.013  0.1334 -0.4220 -0.1663
   45TMC2    C8  696   4.227   3.165   8.806 -0.3894 -0.1354 -0.0850
   45TMC2    O1  697   3.794   3.445   9.028 -0.2166  0.4796 -0.6549
   45TMC2    O2  698   4.326   3.174   8.877 -0.1083 -0.1430 -0.8617
   45TMC2    O5  699   4.215   3.076   8.705 -0.0978 -0.2420  0.1389
   45TMC2    H5  700   4.130   3.096   8.660  0.4073  2.0068  0.2005
   46MPD2     C  701   3.504   3.082   8.632 -0.0633 -0.1479  0.0578
   46MPD2    C1  702   3.593   3.012   8.705  0.1489  0.0427  0.4241
   46MPD2    C2  703   3.557   2.892   8.768  0.4840 -0.2954  0.3687
   46MPD2    C3  704   3.428   2.834   8.757  0.5646  0.0667  0.1269
   46MPD2    C4  705   3.339   2.919   8.686  0.3399  0.1522  0.0199
   46MPD2    C5  706   3.375   3.038   8.623 -0.7636 -0.3255 -0.0514
   46MPD2     H  707   3.627   2.833   8.827  1.5068  0.6262  0.0680
   46MPD2    H1  708   3.233   2.895   8.695  0.5575 -0.2295  1.4790
   46MPD2    H2  709   3.522   3.181   8.591  0.5072 -0.2377  0.0954
   46MPD2    H3  710   3.305   3.086   8.557 -0.8385 -0.8715 -0.3708
   46MPD2     N  711   3.399   2.708   8.819 -0.0957 -0.1724  0.4179
   46MPD2    H5  712   3.473   2.658   8.867  1.4035  0.3334 -1.3969
   46MPD2    N1  713   3.724   3.063   8.722  0.1572 -0.1885 -0.0419
   46MPD2    H7  714   3.789   3.018   8.785 -0.3996 -2.5417 -1.1347
   47TMC2    C1  715   2.277   3.649   8.768  0.0919  0.0093 -0.4613
   47TMC2    C2  716   2.250   3.700   8.645  0.4174  0.1371 -0.5368
   47TMC2    C3  717   2.124   3.709   8.605 -0.4759 -0.0705 -0.0670
   47TMC2    C4  718   2.180   3.602   8.845 -0.0979  0.2049  0.4653
   47TMC2    C5  719   2.052   3.619   8.805  0.8773  0.6290  0.3292
   47TMC2    C6  720   2.020   3.680   8.683  0.0973  0.3016  0.5094
   47TMC2     C  721   2.413   3.636   8.813 -0.8873 -0.1977 -0.7903
   47TMC2     O  722   2.480   3.731   8.773 -0.7780  0.4493  0.2896
   47TMC2     H  723   2.337   3.719   8.583  0.7951  1.6670  0.4534
   47TMC2    H1  724   2.197   3.577   8.949  0.8132 -1.6050 -0.1266
   47TMC2    H2  725   1.920   3.703   8.648  0.8057  0.8563 -1.1762
   47TMC2    C7  726   1.948   3.581   8.902  1.5128 -0.0145  0.2422
   47TMC2    C8  727   2.096   3.759   8.479  0.3644  0.2640 -0.7050
   47TMC2    O1  728   1.838   3.633   8.880 -0.2599  0.1397 -0.1305
   47TMC2    O2  729   2.020   3.855   8.456 -0.2382 -0.2004 -0.5757
   47TMC2    O5  730   2.181   3.714   8.389  0.5577 -0.7491 -0.2449
   47TMC2    H5  731   2.225   3.639   8.435  0.1514 -0.8483 -0.0144
   48MPD2     C  732   2.645   3.628   9.001 -0.4518 -0.0753 -0.6332
   48MPD2    C1  733   2.560   3.523   8.983 -0.0228  0.9030  0.4818
   48MPD2    C2  734   2.593   3.401   9.042 -0.0064  0.1126  0.1288
   48MPD2    C3  735   2.701   3.394   9.130 -0.3090  0.4898 -0.6445
   48MPD2    C4  736   2.785   3.499   9.153  0.0284  0.9671  0.2318
   48MPD2    C5  737   2.755   3.615   9.081  1.0031 -0.6613 -0.3029
   48MPD2     H  738   2.527   3.316   9.033 -1.5175  1.3533 -0.5981
   48MPD2    H1  739   2.879   3.503   9.207 -0.2750  0.5192  0.7971
   48MPD2    H2  740   2.635   3.717   8.939  3.9399  1.0131  0.1781
   48MPD2    H3  741   2.830   3.693   9.086 -2.6241  2.6459  2.7149
   48MPD2     N  742   2.726   3.267   9.192 -0.2535 -0.0090  0.5109
   48MPD2    H5  743   2.676   3.184   9.160 -0.2522  0.7663 -1.4996
   48MPD2    N1  744   2.440   3.532   8.900  0.0340 -0.1176 -0.0841
   48MPD2    H7  745   2.371   3.458   8.905  1.2585 -1.2349  0.4513
   49MPD2     C  746   0.418   4.456   9.787 -0.3831 -0.5664 -0.0164
   49MPD2    C1  747   0.353   4.434   9.908 -0.3465  0.1901  0.0893
   49MPD2    C2  748   0.349   4.535  10.000  0.0468 -0.9759  0.8077
   49MPD2    C3  749   0.417   4.653   9.985  0.1049  0.5448 -0.6134
   49MPD2    C4  750   0.475   4.678   9.867 -0.6580 -0.8306 -1.0527
   49MPD2    C5  751   0.472   4.582   9.763 -0.2562 -0.3971 -0.1746
   49MPD2     H  752   0.305   4.503  10.094  0.9686 -2.8163  0.6120
   49MPD2    H1  753   0.528   0.042   9.844 -0.0841 -0.8595  0.1797
   49MPD2    H2  754   0.437   4.383   9.709 -1.6363 -0.5392 -0.3380
   49MPD2    H3  755   0.527   4.590   9.670  0.1466  0.9320  0.1774
   49MPD2     N  756   0.447   0.025  10.084  0.5151 -0.4588  0.3210
   49MPD2    H5  757   0.512   0.100  10.062 -0.9895  1.2913  1.7978
   49MPD2    N1  758   0.291   4.311   9.935  0.2769 -0.0743 -1.0082
   49MPD2    H7  759   0.263   4.295  10.031  0.5646 -0.9392 -1.0688
   50TCq2    C1  760   0.248   4.220   9.837 -0.2797  0.6819 -0.6943
   50TCq2    O2  761   0.243   4.234   9.713 -0.2287 -0.0736 -0.3051
   50TCq2    C2  762   0.189   4.100   9.893  0.0019 -0.4657 -0.4209
   50TCq2    C3  763   0.148   4.007   9.790 -0.6411 -0.1617  0.0734
   50TCq2    C4  764   0.111   3.886   9.836  0.5336 -0.2863 -0.0516
   50TCq2    C5  765   0.105   3.864   9.972 -0.2508  0.8706  0.2896
   50TCq2    C6  766   0.163   3.946  10.066  0.5328  0.0088  0.1750
   50TCq2    C7  767   0.211   4.066  10.023  0.3046  0.1769 -0.5879
   50TCq2    C8  768   0.164   3.925  10.212 -0.0459  0.0458 -0.1808
   50TCq2    O4  769   0.248   3.986  10.275 -0.2266 -0.0221  0.1139
   50TCq2    C9  770   0.050   3.798   9.735  0.4409 -0.7136  0.1092
   50TCq2    O5  771   0.050   3.832   9.612  0.1698 -0.5758 -0.2867
   50TCq2    O6  772   0.019   3.691   9.786  0.4153 -0.4565 -0.8065
   50TCq2    H2  773   0.136   4.039   9.687  1.4271  1.0247  0.2005
   50TCq2    H3  774   0.056   3.777  10.015  0.8086 -0.3990 -1.0756
   50TCq2    H4  775   0.246   4.133  10.102 -2.8115  2.0248 -0.7427
   51MPD2     C  776   0.858   4.165   0.829 -0.3796 -0.4985  0.4280
   51MPD2    C1  777   0.776   4.061   0.796 -1.0555 -0.1794  0.1087
   51MPD2    C2  778   0.787   3.943   0.865 -0.4877  0.3095  0.0930
   51MPD2    C3  779   0.880   3.932   0.969 -0.4891  0.1149  0.4615
   51MPD2    C4  780   0.964   4.034   0.993  0.4792  0.6945 -0.2836
   51MPD2    C5  781   0.958   4.152   0.921 -0.7918  0.5925  0.6981
   51MPD2     H  782   0.733   3.852   0.840  0.9299 -0.9349  1.5371
   51MPD2    H1  783   1.044   4.032   1.067  0.6886 -0.1156 -0.5323
   51MPD2    H2  784   0.857   4.263   0.783  2.2395  0.0505  1.5935
   51MPD2    H3  785   1.016   4.240   0.944 -0.0679 -0.0428  1.2771
   51MPD2     N  786   0.891   3.814   1.044  0.8519  0.2862 -0.0258
   51MPD2    H5  787   0.961   3.818   1.118 -0.5979  0.0339  1.3583
   51MPD2    N1  788   0.667   4.071   0.701  1.2420 -0.0705  0.0423
   51MPD2    H7  789   0.611   3.988   0.685  1.0171  0.5726 -2.3806
   52TCq2    C1  790   0.824   3.696   1.034  0.2763  0.4476  0.0462
   52TCq2    O2  791   0.751   3.654   0.945 -0.0355 -0.3820  0.3847
   52TCq2    C2  792   0.890   3.602   1.118  0.1303  0.4911  0.6359
   52TCq2    C3  793   0.911   3.480   1.070 -0.0748 -0.5822  0.0179
   52TCq2    C4  794   1.005   3.402   1.127  0.3058  0.0236  0.2031
   52TCq2    C5  795   1.057   3.437   1.251 -0.8020 -1.0396 -0.0350
   52TCq2    C6  796   1.028   3.562   1.301  0.4668 -0.2049  0.4386
   52TCq2    C7  797   0.947   3.652   1.238 -0.6933  0.2419  0.8925
   52TCq2    C8  798   1.082   3.610   1.423 -0.3847  1.0573  0.1156
   52TCq2    O4  799   1.123   3.727   1.417 -0.1922  0.0536  0.1727
   52TCq2    C9  800   1.034   3.272   1.075  0.0251  0.6292 -0.0910
   52TCq2    O5  801   0.954   3.218   1.001 -1.0596  0.1305  0.0371
   52TCq2    O6  802   1.119   3.207   1.143 -0.5888  0.2004 -0.1042
   52TCq2    H2  803   0.873   3.453   0.973 -1.3992  0.2306  0.3145
   52TCq2    H3  804   1.120   3.368   1.306  1.3624 -0.2487 -1.5105
   52TCq2    H4  805   0.918   3.746   1.284 -0.7498 -0.1103  1.5790
   53TMC2    C1  806   1.326   2.719  11.821 -0.2565 -0.3856 -0.1295
   53TMC2    C2  807   1.449   2.656  11.842 -0.1189  0.1401  0.3054
   53TMC2    C3  808   1.485   2.629  11.974 -0.0828 -0.3740 -0.0896
   53TMC2    C4  809   1.246   2.753  11.925  0.6096  0.0595 -0.2048
   53TMC2    C5  810   1.299   2.750  12.051  0.3243  0.1339  0.2016
   53TMC2    C6  811   1.415   2.682  12.077 -0.3657 -0.2396  0.3518
   53TMC2     C  812   1.281   2.730  11.683 -0.4706  0.2506  0.0590
   53TMC2     O  813   1.368   2.742  11.599 -0.0982  0.5962 -0.8022
   53TMC2     H  814   1.507   2.636  11.753  1.4949  0.2216  1.3419
   53TMC2    H1  815   1.146   2.792  11.920  0.4996 -0.2369 -0.3559
   53TMC2    H2  816   1.443   2.663  12.180 -0.8071 -1.4818  0.2419
   53TMC2    C7  817   1.192   2.733  12.150 -0.3536  0.7932 -0.8722
   53TMC2    C8  818   1.602   2.561  12.016  0.2856  0.6781 -0.3226
   53TMC2    O1  819   1.108   2.821  12.150 -0.0851  0.3861 -0.2131
   53TMC2    O2  820   1.669   2.580  12.117 -0.4234  0.1267  0.1165
   53TMC2    O5  821   1.647   2.498  11.898  0.2604 -0.0098  0.1865
   53TMC2    H5  822   1.572   2.471  11.840  1.1452  0.2064 -1.0572
   54MPD2     C  823   1.105   2.802  11.452 -0.0678 -0.4571 -0.1681
   54MPD2    C1  824   1.064   2.741  11.566 -0.0706  0.2777 -0.0555
   54MPD2    C2  825   0.929   2.701  11.566  0.9212  0.1754  0.0913
   54MPD2    C3  826   0.845   2.722  11.459  0.1222  0.3107  0.2793
   54MPD2    C4  827   0.889   2.775  11.339  0.3320  0.0018  0.3962
   54MPD2    C5  828   1.024   2.817  11.339 -0.4170  0.3275 -0.5239
   54MPD2     H  829   0.893   2.642  11.650  0.5473 -0.2351 -0.3602
   54MPD2    H1  830   0.818   2.793  11.259  0.6988 -0.8106 -0.1142
   54MPD2    H2  831   1.210   2.827  11.440 -0.3200  1.2153  1.1416
   54MPD2    H3  832   1.070   2.864  11.253 -0.8635  2.7345  0.5512
   54MPD2     N  833   0.711   2.685  11.470  0.6677 -0.0414 -0.0235
   54MPD2    H5  834   0.651   2.692  11.388  0.6813  0.0967 -0.0227
   54MPD2    N1  835   1.147   2.708  11.675  0.0673 -0.7071 -0.0195
   54MPD2    H7  836   1.098   2.654  11.746  0.1499  1.7551  1.9184
   55MPD2     C  837   1.735   0.645  17.340  0.6105 -0.2236 -0.3712
   55MPD2    C1  838   1.675   0.526  17.380 -0.5129 -0.1750  0.1030
   55MPD2    C2  839   1.587   0.524  17.488 -0.1363 -0.1246  0.0386
   55MPD2    C3  840   1.554   0.640  17.548 -0.3203  0.1151 -0.0106
   55MPD2    C4  841   1.606   0.756  17.506 -0.0178  0.4227  0.9980
   55MPD2    C5  842   1.694   0.761  17.396  0.0751 -0.2263 -0.7202
   55MPD2     H  843   1.560   0.427  17.528  0.9746 -1.4251 -2.3679
   55MPD2    H1  844   1.576   0.851  17.549  0.2308  1.0382 -0.1580
   55MPD2    H2  845   1.809   0.645  17.261  0.4574  2.9809 -0.5224
   55MPD2    H3  846   1.736   0.853  17.358  0.1111 -0.4025 -1.1014
   55MPD2     N  847   1.457   0.620  17.648  0.5038 -0.1186 -0.5914
   55MPD2    H5  848   1.427   0.525  17.666 -1.9038  0.6019 -0.6897
   55MPD2    N1  849   1.712   0.407  17.313  0.1313 -0.3231 -0.0537
   55MPD2    H7  850   1.773   0.429  17.235 -0.1428  1.4552  0.2514
   56TCq2    C1  851   1.660   0.283  17.329 -0.0533 -0.3938 -0.2105
   56TCq2    O2  852   1.599   0.233  17.426 -0.3216  0.2504  0.7056
   56TCq2    C2  853   1.703   0.185  17.230  0.5656 -0.2682  0.0283
   56TCq2    C3  854   1.775   0.224  17.118  0.1870 -0.6974  0.3338
   56TCq2    C4  855   1.799   0.132  17.028 -0.3201  0.3007  0.3302
   56TCq2    C5  856   1.770   0.001  17.047  0.2810 -0.4624 -0.4413
   56TCq2    C6  857   1.710   4.689  17.159  0.4935  0.3206  0.4517
   56TCq2    C7  858   1.663   0.060  17.249 -0.4362 -0.6349  0.8488
   56TCq2    C8  859   1.665   4.551  17.180 -0.2974  0.0245 -0.7772
   56TCq2    O4  860   1.698   4.459  17.105 -0.0505  0.2640  1.2352
   56TCq2    C9  861   1.861   0.169  16.904  0.3031  0.9001 -0.4928
   56TCq2    O5  862   1.931   0.083  16.844 -0.1815 -0.2210 -0.2798
   56TCq2    O6  863   1.861   0.292  16.879 -0.6849 -0.0203 -0.2888
   56TCq2    H2  864   1.814   0.324  17.101 -0.5383 -0.1649  1.7350
   56TCq2    H3  865   1.783   4.656  16.967  2.3489  0.0402 -0.5373
   56TCq2    H4  866   1.605   0.034  17.337 -1.0031 -0.5775  0.4913
   57TMC2    C1  867   1.176   1.692  13.462  0.2262  0.0623  0.0591
   57TMC2    C2  868   1.248   1.716  13.576 -0.3238  0.4891  0.4494
   57TMC2    C3  869   1.378   1.744  13.571 -0.1986  0.0038  0.3047
   57TMC2    C4  870   1.246   1.675  13.347  0.4905  0.6516 -0.6690
   57TMC2    C5  871   1.375   1.717  13.339  0.7375 -0.3904 -0.6688
   57TMC2    C6  872   1.443   1.755  13.449  0.6721 -0.3830  0.5795
   57TMC2     C  873   1.031   1.696  13.450 -0.1944 -0.9311 -0.6150
   57TMC2     O  874   0.981   1.740  13.345  0.1731  0.1872  0.3142
   57TMC2     H  875   1.194   1.725  13.669  0.4768  2.1411  0.7640
   57TMC2    H1  876   1.203   1.650  13.251 -3.4673  1.8173  0.8274
   57TMC2    H2  877   1.538   1.806  13.444 -0.2862  1.1288 -2.1276
   57TMC2    C7  878   1.462   1.643  13.245  0.1601  0.0618  0.5335
   57TMC2    C8  879   1.448   1.748  13.698 -0.6693  0.7873 -0.0710
   57TMC2    O1  880   1.413   1.545  13.193  0.0831  0.6641 -0.0785
   57TMC2    O2  881   1.391   1.716  13.803 -0.4408 -0.1089 -0.3191
   57TMC2    O5  882   1.574   1.702  13.669  0.0733 -0.5279  0.0241
   57TMC2    H5  883   1.629   1.723  13.591 -0.5302  1.8594  0.2504
   58MPD2     C  884   0.580   1.643  13.698  0.0751 -0.3872  0.0994
   58MPD2    C1  885   0.601   1.699  13.573 -0.6637 -0.8970 -0.1482
   58MPD2    C2  886   0.728   1.705  13.515  0.4965  0.2468 -0.3629
   58MPD2    C3  887   0.829   1.652  13.590 -0.6120 -0.3492 -1.1335
   58MPD2    C4  888   0.805   1.603  13.721 -0.5402 -0.5545  0.2411
   58MPD2    C5  889   0.682   1.587  13.769 -0.1108  0.5589  0.3644
   58MPD2     H  890   0.754   1.754  13.422  0.4989 -0.6418 -0.8316
   58MPD2    H1  891   0.890   1.576  13.782 -0.9920 -1.1880  0.5889
   58MPD2    H2  892   0.480   1.633  13.739 -0.7995 -0.3693 -1.9801
   58MPD2    H3  893   0.683   1.543  13.868 -0.8874 -0.7151 -0.1894
   58MPD2     N  894   0.968   1.653  13.566  0.4107 -0.2889 -0.1156
   58MPD2    H5  895   1.030   1.601  13.628 -0.8493 -0.0327  1.3603
   58MPD2    N1  896   0.486   1.764  13.512 -0.2819  0.2203 -0.4965
   58MPD2    H7  897   0.505   1.800  13.419 -0.5815  1.1537 -0.1933
   59MPD2     C  898   3.577   1.317  12.699  0.4750  0.5355  0.0286
   59MPD2    C1  899   3.532   1.447  12.724  0.4471 -0.2385  0.1739
   59MPD2    C2  900   3.612   1.527  12.805 -0.0782 -0.0062 -0.0912
   59MPD2    C3  901   3.724   1.477  12.875 -0.3576 -0.3661  0.1800
   59MPD2    C4  902   3.758   1.349  12.846  0.1376 -0.4609 -0.5184
   59MPD2    C5  903   3.688   1.272  12.759 -0.5543  0.2699 -0.8132
   59MPD2     H  904   3.567   1.624  12.820 -0.6705 -0.0992 -1.2239
   59MPD2    H1  905   3.850   1.304  12.883  0.1410  0.2184  0.3040
   59MPD2    H2  906   3.529   1.254  12.626 -0.2258 -2.2030  2.8378
   59MPD2    H3  907   3.728   1.175  12.733  0.4899 -0.7517  4.6308
   59MPD2     N  908   3.805   1.549  12.963 -0.2197  0.2296  0.2938
   59MPD2    H5  909   3.893   1.509  12.995 -0.0270  0.3515 -0.0855
   59MPD2    N1  910   3.405   1.500  12.675 -0.1974  0.1318  0.6309
   59MPD2    H7  911   3.380   1.598  12.679  0.8296  0.4792 -1.4097
   60TCq2    C1  912   3.302   1.429  12.619 -0.5511 -0.5140  0.1489
   60TCq2    O2  913   3.295   1.306  12.602 -0.2986  0.3739  0.4970
   60TCq2    C2  914   3.174   1.495  12.626  0.5898 -0.0664 -0.7659
   60TCq2    C3  915   3.072   1.415  12.679 -0.3108  0.5646  0.1483
   60TCq2    C4  916   2.964   1.472  12.728  0.0217  0.0909 -0.3303
   60TCq2    C5  917   2.954   1.604  12.745  0.1987  0.1523 -0.7633
   60TCq2    C6  918   3.051   1.682  12.681 -0.1044 -0.6811 -0.1658
   60TCq2    C7  919   3.165   1.631  12.630 -0.4932 -0.3007 -0.1489
   60TCq2    C8  920   2.999   1.810  12.641  0.5699 -0.1667  0.2363
   60TCq2    O4  921   2.878   1.811  12.634  0.5332 -0.1356 -0.5783
   60TCq2    C9  922   2.864   1.382  12.782 -0.5740  0.0587  0.8041
   60TCq2    O5  923   2.889   1.260  12.768  0.2417  0.1521  0.3605
   60TCq2    O6  924   2.770   1.433  12.855 -0.4195 -0.3882 -0.1415
   60TCq2    H2  925   3.081   1.310  12.656  0.4085  0.7338 -0.3356
   60TCq2    H3  926   2.861   1.647  12.779  1.3466  1.2763  0.9613
   60TCq2    H4  927   3.237   1.693  12.577 -0.9650  0.4926  0.1412
   61MPD2     C  928   2.552   2.900  14.396 -0.1805 -0.1226 -0.0836
   61MPD2    C1  929   2.544   3.018  14.473 -0.3386  0.5333 -0.0920
   61MPD2    C2  930   2.508   3.144  14.415  0.2220  0.1133 -0.1056
   61MPD2    C3  931   2.458   3.145  14.285  0.9030 -0.2187  0.1225
   61MPD2    C4  932   2.449   3.026  14.215  0.5333  0.2166  0.5653
   61MPD2    C5  933   2.501   2.911  14.267 -0.3595  0.2691 -0.7367
   61MPD2     H  934   2.508   3.230  14.481 -0.0703  0.4814 -0.5778
   61MPD2    H1  935   2.425   3.016  14.109  1.3850  2.1305  0.1952
   61MPD2    H2  936   2.588   2.806  14.437  2.1473  0.1814 -1.4544
   61MPD2    H3  937   2.510   2.824  14.203 -1.2669 -0.0385 -0.4309
   61MPD2     N  938   2.394   3.257  14.227  0.7602  0.1837  0.0624
   61MPD2    H5  939   2.323   3.238  14.157 -0.6651  1.3504  1.1742
   61MPD2    N1  940   2.564   3.027  14.613  0.2575  0.3283 -0.3360
   61MPD2    H7  941   2.539   3.117  14.654 -2.9281 -0.2959 -0.8628
   62TCq2    C1  942   2.605   2.931  14.706 -0.1953 -0.1534 -0.2243
   62TCq2    O2  943   2.636   2.815  14.684  0.5123 -0.6085 -0.1924
   62TCq2    C2  944   2.586   2.975  14.846  0.4000 -0.1011  1.0180
   62TCq2    C3  945   2.526   2.881  14.919 -0.3561 -0.7110  0.5213
   62TCq2    C4  946   2.464   2.927  15.032  0.3668  0.3967  0.4877
   62TCq2    C5  947   2.464   3.060  15.073  0.0235  0.5554 -0.3004
   62TCq2    C6  948   2.537   3.149  14.999 -0.1366  0.6667 -0.2569
   62TCq2    C7  949   2.594   3.109  14.881 -0.5193  0.2509 -0.9558
   62TCq2    C8  950   2.509   3.288  15.016  0.2105 -0.3868  0.5507
   62TCq2    O4  951   2.572   3.372  14.955 -0.0272  0.6541  0.8428
   62TCq2    C9  952   2.419   2.831  15.135 -0.0101  0.4782 -0.2652
   62TCq2    O5  953   2.424   2.709  15.101  0.1147  0.0757 -0.2485
   62TCq2    O6  954   2.381   2.873  15.248 -0.1664 -0.3254  0.5875
   62TCq2    H2  955   2.523   2.774  14.898 -0.3337 -0.4679 -0.7504
   62TCq2    H3  956   2.427   3.082  15.172 -0.1192  1.2977 -0.5150
   62TCq2    H4  957   2.647   3.182  14.822  1.5750 -0.7763 -0.3902
   63TMC2    C1  958   2.789   2.981  10.922 -0.2053  0.2627  0.5066
   63TMC2    C2  959   2.900   3.023  10.996 -0.0048  0.0393  0.0257
   63TMC2    C3  960   2.987   3.103  10.933 -0.1704 -0.4927  0.7121
   63TMC2    C4  961   2.755   3.038  10.806 -0.6321  0.1269 -0.3156
   63TMC2    C5  962   2.854   3.119  10.741 -0.0619  0.0654 -0.4989
   63TMC2    C6  963   2.975   3.142  10.803  0.1002 -0.2111  0.0223
   63TMC2     C  964   2.690   2.891  10.983 -0.4842  0.0829 -0.3608
   63TMC2     O  965   2.688   2.876  11.103 -0.2437 -0.2315  0.3008
   63TMC2     H  966   2.927   2.980  11.091  1.7447  3.2607  0.9708
   63TMC2    H1  967   2.657   3.028  10.761  0.1858  2.4523 -2.5958
   63TMC2    H2  968   3.052   3.194  10.746 -1.3452  0.5697 -1.2028
   63TMC2    C7  969   2.815   3.171  10.617  0.1529 -0.0006 -0.5585
   63TMC2    C8  970   3.104   3.145  11.010  0.6566 -0.3158  0.5289
   63TMC2    O1  971   2.730   3.102  10.559  0.1092  0.2341 -0.3014
   63TMC2    O2  972   3.119   3.116  11.126  0.0997  0.3837 -0.4718
   63TMC2    O5  973   3.121   3.276  10.969  0.0029 -0.5405  0.0559
   63TMC2    H5  974   3.098   3.304  10.878  0.9374  0.9591  0.2755
   64MPD2     C  975   2.289   2.569  10.945  0.3903 -0.2244  0.1377
   64MPD2    C1  976   2.315   2.624  10.822  0.4267  0.4640 -0.5709
   64MPD2    C2  977   2.412   2.721  10.805  0.3222 -0.5313 -0.0835
   64MPD2    C3  978   2.492   2.757  10.912 -0.9068 -0.3859  0.0429
   64MPD2    C4  979   2.463   2.702  11.032 -0.1233  0.0717  0.0647
   64MPD2    C5  980   2.364   2.608  11.047 -0.0076 -0.5877  0.5191
   64MPD2     H  981   2.428   2.755  10.703  0.8819 -0.4390  0.0320
   64MPD2    H1  982   2.523   2.728  11.119 -1.3058  1.3322  0.5106
   64MPD2    H2  983   2.220   2.487  10.955 -1.6569  1.3807 -0.8197
   64MPD2    H3  984   2.347   2.564  11.145 -1.5120 -0.8843  0.1197
   64MPD2     N  985   2.604   2.837  10.890  0.1573 -0.2460  0.1600
   64MPD2    H5  986   2.639   2.853  10.796 -0.0833  0.4772  0.1935
   64MPD2    N1  987   2.265   2.568  10.703 -0.4204 -0.4285 -0.3191
   64MPD2    H7  988   2.292   2.602  10.611  3.7446  2.3216  1.9334
   65MPD2     C  989   3.106   2.507  15.836  0.0008 -0.3773 -0.4056
   65MPD2    C1  990   3.150   2.509  15.706  0.5047 -0.5077 -0.2557
   65MPD2    C2  991   3.119   2.400  15.626  0.3926  0.6103 -0.9225
   65MPD2    C3  992   3.046   2.293  15.674  1.2018 -0.0497  0.4696
   65MPD2    C4  993   3.009   2.288  15.814 -0.2647 -0.0097 -0.0056
   65MPD2    C5  994   3.041   2.399  15.892 -0.4409 -0.2117  0.1179
   65MPD2     H  995   3.142   2.408  15.521  1.8550  0.3160 -0.6238
   65MPD2    H1  996   2.951   2.207  15.857  1.2005 -1.0723 -0.0244
   65MPD2    H2  997   3.143   2.577  15.910 -0.3391 -0.7672  0.1312
   65MPD2    H3  998   3.014   2.394  15.997 -1.3410  1.6876 -0.0209
   65MPD2     N  999   3.001   2.190  15.591  0.1468  0.1111  0.3771
   65MPD2    H5 1000   2.954   2.115  15.641  0.8328 -0.5698 -0.0032
   65MPD2    N1 1001   3.208   2.618  15.638 -0.1397 -0.4553 -0.6063
   65MPD2    H7 1002   3.238   2.602  15.543 -3.1138 -1.6108 -1.3181
   66TCq2    C1 1003   3.202   2.750  15.673  0.1966 -0.3742  0.7543
   66TCq2    O2 1004   3.154   2.796  15.778  0.1498  0.2503 -0.4700
   66TCq2    C2 1005   3.243   2.842  15.571 -0.6482 -0.1454  0.3148
   66TCq2    C3 1006   3.308   2.792  15.463  0.4067  0.0407 -0.0073
   66TCq2    C4 1007   3.301   2.855  15.348  0.6810 -0.3612 -0.0293
   66TCq2    C5 1008   3.213   2.960  15.326 -0.4204  0.1680  1.2748
   66TCq2    C6 1009   3.142   2.997  15.433 -0.4070  0.0012 -0.0437
   66TCq2    C7 1010   3.157   2.953  15.559 -0.2059  0.0834 -0.2809
   66TCq2    C8 1011   3.035   3.090  15.396  0.6052  0.8558  0.5043
   66TCq2    O4 1012   3.024   3.116  15.277 -0.1488 -0.0627 -0.3497
   66TCq2    C9 1013   3.383   2.808  15.242 -0.1336  1.4442 -0.1985
   66TCq2    O5 1014   3.412   2.684  15.242 -0.1277  0.3513 -0.4679
   66TCq2    O6 1015   3.412   2.892  15.149 -1.2021 -0.0121 -0.3085
   66TCq2    H2 1016   3.376   2.708  15.473  0.5152  0.2500  0.9430
   66TCq2    H3 1017   3.216   3.017  15.234 -2.2152  0.4891  1.4210
   66TCq2    H4 1018   3.101   2.991  15.644 -2.7436  0.3917 -2.0855
   67MPD2     C 1019   3.112   2.178  14.041 -0.2220 -0.0136  0.0008
   67MPD2    C1 1020   3.103   2.307  14.099  0.4408 -0.4028  0.4504
   67MPD2    C2 1021   3.038   2.407  14.019 -0.3595 -0.1114 -0.5620
   67MPD2    C3 1022   3.004   2.389  13.882  0.7634 -0.1286 -0.6001
   67MPD2    C4 1023   3.005   2.258  13.834 -0.7389 -0.3327  1.0993
   67MPD2    C5 1024   3.066   2.157  13.909  0.6464  0.3563 -0.9784
   67MPD2     H 1025   3.024   2.500  14.073 -0.3657 -0.1975 -0.4154
   67MPD2    H1 1026   2.962   2.250  13.735  0.8703  2.1866  0.1893
   67MPD2    H2 1027   3.162   2.095  14.090 -0.6255 -0.6319 -0.6345
   67MPD2    H3 1028   3.082   2.056  13.872  1.8424  0.6911 -1.3767
   67MPD2     N 1029   2.957   2.487  13.799  0.1960  0.7759 -1.0577
   67MPD2    H5 1030   2.935   2.466  13.702 -2.9009 -0.7283 -0.0085
   67MPD2    N1 1031   3.143   2.336  14.231  0.1499  0.1826 -0.9198
   67MPD2    H7 1032   3.120   2.429  14.264  2.0320  1.3401 -2.8538
   68TCq2    C1 1033   3.223   2.257  14.306  0.9062  0.0002 -0.4495
   68TCq2    O2 1034   3.297   2.167  14.269  0.2505  0.0951 -0.6203
   68TCq2    C2 1035   3.232   2.302  14.447 -0.2342  0.2879  0.0293
   68TCq2    C3 1036   3.138   2.385  14.506 -0.5104 -0.3359  0.0598
   68TCq2    C4 1037   3.161   2.423  14.635 -0.3555 -0.3657 -0.5217
   68TCq2    C5 1038   3.277   2.389  14.703  0.0843 -0.6088  0.7627
   68TCq2    C6 1039   3.375   2.314  14.638  0.3574  0.9282 -0.0177
   68TCq2    C7 1040   3.349   2.265  14.511 -0.5199  0.1372 -0.0640
   68TCq2    C8 1041   3.509   2.294  14.695  0.4829  0.5234 -0.5112
   68TCq2    O4 1042   3.589   2.242  14.618  0.0952  0.1025 -0.0002
   68TCq2    C9 1043   3.063   2.508  14.702  0.4279  0.1574  0.2926
   68TCq2    O5 1044   3.079   2.534  14.827 -0.0672 -0.0046 -0.0724
   68TCq2    O6 1045   2.949   2.501  14.653 -0.1742 -0.2033 -0.0524
   68TCq2    H2 1046   3.047   2.415  14.455  0.4454  0.5705 -1.1169
   68TCq2    H3 1047   3.283   2.421  14.807  0.4058 -0.2945  0.6502
   68TCq2    H4 1048   3.426   2.210  14.459 -1.6704 -0.4871 -1.1096
   69TMC2    C1 1049   0.321   3.225  12.052  0.1166  0.2590  0.2498
   69TMC2    C2 1050   0.219   3.167  11.977  0.2475 -0.3679  0.1804
   69TMC2    C3 1051   0.238   3.178  11.844  0.4793  0.2313 -0.0961
   69TMC2    C4 1052   0.398   3.326  11.996 -0.0401  0.5557 -0.2207
   69TMC2    C5 1053   0.395   3.350  11.861 -0.3463  0.5762 -0.0921
   69TMC2    C6 1054   0.322   3.268  11.781  0.6616  0.4420  0.0030
   69TMC2     C 1055   0.382   3.136  12.149 -0.4157 -0.2829 -0.4934
   69TMC2     O 1056   0.324   3.048  12.209  0.2517 -0.0704  0.6703
   69TMC2     H 1057   0.165   3.082  12.019 -0.1042 -0.0225  0.4275
   69TMC2    H1 1058   0.460   3.385  12.063 -1.4145  2.0315 -0.2421
   69TMC2    H2 1059   0.313   3.294  11.676  0.2455  3.2873  0.7246
   69TMC2    C7 1060   0.522   3.394  11.810  0.6744  0.6671  0.7505
   69TMC2    C8 1061   0.124   3.122  11.772  0.6841  0.4739  0.0408
   69TMC2    O1 1062   0.615   3.371  11.882 -0.6426 -0.0093  0.3138
   69TMC2    O2 1063   0.010   3.114  11.813 -0.3480  0.2188  0.8898
   69TMC2    O5 1064   0.142   3.149  11.640  0.2458 -0.2643 -0.6212
   69TMC2    H5 1065   0.233   3.129  11.610 -0.6245 -1.9373 -2.1908
   70MPD2     C 1066   0.752   3.127  12.144 -0.7480 -0.3301 -0.8159
   70MPD2    C1 1067   0.627   3.098  12.195  0.2925  0.2421 -0.7049
   70MPD2    C2 1068   0.618   3.005  12.298  0.2207  0.3249  0.2475
   70MPD2    C3 1069   0.730   2.938  12.350  0.2503 -0.3720  0.6021
   70MPD2    C4 1070   0.852   2.968  12.302  0.0791  0.2215 -0.3149
   70MPD2    C5 1071   0.860   3.068  12.205 -0.6092  0.7747  0.2921
   70MPD2     H 1072   0.516   2.984  12.328 -0.5610 -1.2969 -3.5640
   70MPD2    H1 1073   0.935   2.911  12.343 -0.8394 -0.0878  1.0870
   70MPD2    H2 1074   0.767   3.196  12.061 -1.1233 -0.0466 -0.6468
   70MPD2    H3 1075   0.958   3.079  12.161 -0.2011  0.0818  1.0098
   70MPD2     N 1076   0.723   2.850  12.463 -0.7845 -0.5175 -0.3687
   70MPD2    H5 1077   0.814   2.823  12.500 -0.7548 -0.8062 -0.6496
   70MPD2    N1 1078   0.521   3.157  12.132 -0.2541 -0.1553  0.2488
   70MPD2    H7 1079   0.551   3.218  12.056 -2.2120 -1.2366 -1.3740
   71TMC2    C1 1080   3.361   3.475   1.448  0.1801 -0.0231 -0.1812
   71TMC2    C2 1081   3.483   3.488   1.508 -0.8108 -0.2032 -0.8300
   71TMC2    C3 1082   3.485   3.500   1.638 -0.1357  1.1222 -0.0883
   71TMC2    C4 1083   3.243   3.486   1.524  0.1460  1.1032  0.6195
   71TMC2    C5 1084   3.251   3.512   1.658 -0.1759 -0.5257 -0.3659
   71TMC2    C6 1085   3.371   3.509   1.720 -0.2358  0.0050  0.0000
   71TMC2     C 1086   3.356   3.480   1.303 -0.4077  0.6759 -0.6621
   71TMC2     O 1087   3.452   3.530   1.248  0.2377 -0.1803  0.9739
   71TMC2     H 1088   3.574   3.477   1.449 -0.8952  2.1183 -1.4122
   71TMC2    H1 1089   3.150   3.480   1.468 -0.0248 -0.6824  1.1042
   71TMC2    H2 1090   3.377   3.515   1.828 -3.5383  0.9505  0.1285
   71TMC2    C7 1091   3.127   3.530   1.740 -0.6171  0.0851  0.0264
   71TMC2    C8 1092   3.617   3.494   1.694 -0.4274  0.2883  0.1881
   71TMC2    O1 1093   3.134   3.505   1.862  0.3288  0.3839 -0.6229
   71TMC2    O2 1094   3.704   3.444   1.624  0.5039 -0.2270  0.5038
   71TMC2    O5 1095   3.638   3.592   1.790 -0.2445 -0.0256  0.2755
   71TMC2    H5 1096   3.555   3.632   1.822  0.4248 -0.2738  2.3212
   72MPD2     C 1097   3.079   3.471   0.879  0.1495  0.3935  0.1801
   72MPD2    C1 1098   3.171   3.572   0.922  0.1170 -0.0684 -0.1892
   72MPD2    C2 1099   3.231   3.554   1.052  0.0869 -0.1789 -0.1501
   72MPD2    C3 1100   3.190   3.446   1.129 -0.5312 -0.0345 -0.5784
   72MPD2    C4 1101   3.103   3.354   1.088  0.4152  0.2062  0.3974
   72MPD2    C5 1102   3.043   3.368   0.967 -0.0070 -0.3519 -0.4943
   72MPD2     H 1103   3.311   3.622   1.079  0.7088 -0.2509 -1.8052
   72MPD2    H1 1104   3.066   3.268   1.142 -1.5914 -0.9113 -2.7762
   72MPD2    H2 1105   3.047   3.457   0.777 -0.9876  2.2127  0.3058
   72MPD2    H3 1106   2.967   3.296   0.939  0.5556 -0.0543 -2.8054
   72MPD2     N 1107   3.240   3.420   1.257 -0.6032 -0.0984  0.4726
   72MPD2    H5 1108   3.189   3.361   1.321  2.1723 -1.4711  1.3733
   72MPD2    N1 1109   3.211   3.673   0.840  0.4737 -0.1726  0.0560
   72MPD2    H7 1110   3.265   3.746   0.884  0.3330 -0.1573  0.2039
   73TMC2    C1 1111   3.388   1.388  14.255 -0.5824  0.2477 -0.1230
   73TMC2    C2 1112   3.408   1.354  14.391  0.1427  0.3124  0.3980
   73TMC2    C3 1113   3.318   1.405  14.474  0.3370 -0.3653  0.1590
   73TMC2    C4 1114   3.300   1.486  14.212  1.0650 -0.6974  0.7563
   73TMC2    C5 1115   3.204   1.522  14.300 -0.1524 -0.7846  0.5905
   73TMC2    C6 1116   3.211   1.484  14.432 -0.1171  0.6788  0.1292
   73TMC2     C 1117   3.398   1.283  14.155  0.2193 -0.0214  0.2748
   73TMC2     O 1118   3.315   1.290  14.072  0.3891 -0.0675  0.7587
   73TMC2     H 1119   3.470   1.271  14.423 -1.4968 -0.9906  0.2114
   73TMC2    H1 1120   3.316   1.537  14.119 -1.2892 -0.5532  0.4252
   73TMC2    H2 1121   3.125   1.497  14.496 -2.4516 -2.1075 -2.4604
   73TMC2    C7 1122   3.070   1.510  14.243 -0.5260 -0.2148 -1.1488
   73TMC2    C8 1123   3.315   1.370  14.610  0.0930  0.3357 -0.2273
   73TMC2    O1 1124   2.974   1.562  14.301  0.1387 -0.2128  0.1167
   73TMC2    O2 1125   3.325   1.255  14.645 -0.3631  0.4141  0.1082
   73TMC2    O5 1126   3.262   1.475  14.683  1.0514 -0.0694 -0.4597
   73TMC2    H5 1127   3.260   1.562  14.637 -0.1897  0.2866  0.2743
   74MPD2     C 1128   3.569   0.867  13.919  0.2434  0.3910 -0.1760
   74MPD2    C1 1129   3.448   0.926  13.915  0.2237  0.1185  0.1985
   74MPD2    C2 1130   3.427   1.032  13.998 -0.3067  0.0547  0.3117
   74MPD2    C3 1131   3.515   1.068  14.095  0.0075 -0.1216 -0.6411
   74MPD2    C4 1132   3.625   0.993  14.115 -0.2101  0.3855 -0.7225
   74MPD2    C5 1133   3.656   0.897  14.021  0.2528  0.3895 -0.5124
   74MPD2     H 1134   3.339   1.094  13.983  1.4102  1.6563 -3.0324
   74MPD2    H1 1135   3.710   1.026  14.175  0.5659 -0.3017 -1.4416
   74MPD2    H2 1136   3.597   0.786  13.852 -1.0276 -0.9958  0.9467
   74MPD2    H3 1137   3.753   0.849  14.027  0.4240  0.6484 -1.2680
   74MPD2     N 1138   3.500   1.194  14.169  0.6575  0.4853 -0.3599
   74MPD2    H5 1139   3.576   1.209  14.235  2.1900 -1.6474 -1.6501
   74MPD2    N1 1140   3.360   0.885  13.820 -0.4176 -0.5868 -0.6591
   74MPD2    H7 1141   3.402   0.821  13.752 -1.4191 -1.6147 -0.3059
   75TCq2    C1 1142   2.936   2.616  13.837 -0.1961 -0.1750  0.3038
   75TCq2    O2 1143   2.950   2.676  13.947 -0.0788  0.4371  0.5004
   75TCq2    C2 1144   2.893   2.698  13.725  0.2204  0.8565  0.8233
   75TCq2    C3 1145   2.856   2.825  13.753  0.1371 -0.3278 -0.7754
   75TCq2    C4 1146   2.817   2.909  13.653 -0.4191 -0.0679  0.2468
   75TCq2    C5 1147   2.829   2.870  13.518 -0.2297  0.1055 -0.5191
   75TCq2    C6 1148   2.873   2.739  13.493  0.4995  0.5561 -0.4289
   75TCq2    C7 1149   2.913   2.656  13.594  0.1902  0.3227  0.3710
   75TCq2    C8 1150   2.851   2.675  13.366 -0.7154 -0.2657  0.3530
   75TCq2    O4 1151   2.862   2.556  13.352  0.4575 -0.1844  0.1350
   75TCq2    C9 1152   2.759   3.031  13.692  0.2325  0.3372 -0.4486
   75TCq2    O5 1153   2.740   3.055  13.818  0.4302 -0.5914  0.7353
   75TCq2    O6 1154   2.688   3.089  13.604 -0.2243 -0.3658 -0.7777
   75TCq2    H2 1155   2.842   2.853  13.856 -0.1002 -1.4444 -0.5059
   75TCq2    H3 1156   2.787   2.935  13.442 -0.0924 -0.7337 -1.3092
   75TCq2    H4 1157   2.934   2.552  13.572  0.4104  0.0547  1.8588
   76MPD2     C 1158   1.632   2.962  11.921 -0.3843  0.3189 -0.5301
   76MPD2    C1 1159   1.615   2.938  11.790 -1.0187 -0.0436  0.5628
   76MPD2    C2 1160   1.703   2.860  11.714 -0.8664  0.0709  0.1801
   76MPD2    C3 1161   1.820   2.808  11.774 -0.3765 -1.2295  0.2941
   76MPD2    C4 1162   1.845   2.839  11.906  0.0479  0.2404  0.2037
   76MPD2    C5 1163   1.750   2.915  11.977  0.4671  0.6230  0.9910
   76MPD2     H 1164   1.683   2.848  11.608 -0.5998 -0.8471  0.2349
   76MPD2    H1 1165   1.940   2.824  11.957 -0.5155  0.1013  1.2209
   76MPD2    H2 1166   1.567   3.008  11.994 -0.6961  1.4424 -1.5269
   76MPD2    H3 1167   1.760   2.939  12.083 -1.2023 -2.9822  1.9718
   76MPD2     N 1168   1.919   2.749  11.695  0.1208  0.2878 -0.1682
   76MPD2    H5 1169   2.012   2.741  11.736  0.2508 -0.0589 -0.5328
   76MPD2    N1 1170   1.510   2.995  11.714 -0.3605  0.0205 -0.1418
   76MPD2    H7 1171   1.515   3.000  11.612 -0.5117 -1.4943 -0.2312
   77TCq2    C1 1172   1.902   2.699  11.566  0.2064  0.3245  0.5527
   77TCq2    O2 1173   1.805   2.705  11.492 -0.2436 -0.8404  0.0377
   77TCq2    C2 1174   2.006   2.610  11.515  0.2070 -0.4240  0.0634
   77TCq2    C3 1175   1.989   2.577  11.383  0.4775  0.0270  0.0740
   77TCq2    C4 1176   2.083   2.499  11.325 -0.4859  0.6224  0.3393
   77TCq2    C5 1177   2.187   2.448  11.398  0.7045 -0.5341 -0.1825
   77TCq2    C6 1178   2.197   2.475  11.532 -0.2584  0.0488 -0.4433
   77TCq2    C7 1179   2.106   2.555  11.593 -0.3227  0.2273  0.0235
   77TCq2    C8 1180   2.316   2.432  11.607  0.1837 -0.0717 -0.0632
   77TCq2    O4 1181   2.376   2.331  11.565  0.5874 -0.2293  0.1602
   77TCq2    C9 1182   2.052   2.462  11.186 -0.5228 -0.6034 -0.1213
   77TCq2    O5 1183   1.978   2.535  11.116 -0.1045  0.0310  0.1320
   77TCq2    O6 1184   2.098   2.349  11.157  0.3419  0.3709  0.1955
   77TCq2    H2 1185   1.914   2.621  11.318 -0.8520 -0.2413  1.4108
   77TCq2    H3 1186   2.266   2.405  11.339  0.9797  1.8259 -1.5377
   77TCq2    H4 1187   2.114   2.572  11.699  0.1595 -2.0321  0.3330
   78MPD1     C 1188   2.286   3.432   0.925  0.4769  0.1736  0.2464
   78MPD1    C1 1189   2.413   3.472   0.927  0.9339 -0.6291 -0.6772
   78MPD1    C2 1190   2.495   3.437   1.033  0.0683 -0.2968 -0.1368
   78MPD1    C3 1191   2.432   3.384   1.150 -0.1201  0.0743 -0.1447
   78MPD1    C4 1192   2.294   3.364   1.152 -0.1084 -0.3661 -0.0691
   78MPD1    C5 1193   2.227   3.378   1.039  0.1789 -0.7059  0.5260
   78MPD1     H 1194   2.601   3.458   1.036 -0.2729  1.3787 -0.1062
   78MPD1    H1 1195   2.243   3.318   1.236 -2.0392  0.2633 -0.8780
   78MPD1    H2 1196   2.222   3.444   0.839  1.9606  1.8874 -0.6103
   78MPD1    H3 1197   2.120   3.360   1.042  0.4252 -1.9724  2.2144
   78MPD1     N 1198   2.500   3.354   1.267  0.0255 -0.2701  0.2039
   78MPD1    H5 1199   2.441   3.340   1.349 -0.0179  0.1668  0.2480
   78MPD1    N1 1200   2.470   3.520   0.803  0.4894  0.5446  0.2181
   78MPD1    H6 1201   2.405   3.583   0.756  0.4779 -0.1786 -0.7492
   78MPD1    H7 1202   2.549   3.573   0.840  1.0189 -1.2735  1.6507
   79TCq2    C1 1203   2.637   3.340   1.274 -0.7142 -0.0984  0.0908
   79TCq2    O2 1204   2.727   3.351   1.194  0.0822  0.2479 -0.0851
   79TCq2    C2 1205   2.675   3.287   1.401 -0.2097 -0.1673  0.1989
   79TCq2    C3 1206   2.598   3.195   1.466  0.4719 -1.1404 -0.1177
   79TCq2    C4 1207   2.655   3.124   1.569  0.1116 -0.0085  0.0762
   79TCq2    C5 1208   2.790   3.124   1.587  0.0602 -0.3431 -0.2529
   79TCq2    C6 1209   2.867   3.215   1.522  0.1455 -0.0534  0.0534
   79TCq2    C7 1210   2.806   3.296   1.432 -0.7555  0.2163 -0.1349
   79TCq2    C8 1211   3.008   3.217   1.522  0.2918 -0.1561  0.5767
   79TCq2    O4 1212   3.059   3.240   1.415  0.2527 -0.0152 -0.1491
   79TCq2    C9 1213   2.572   3.025   1.643 -0.3225 -0.4215  0.4563
   79TCq2    O5 1214   2.448   3.015   1.630 -0.4343 -0.2000  0.2544
   79TCq2    O6 1215   2.637   2.936   1.700  0.5018  0.3299  0.3990
   79TCq2    H2 1216   2.496   3.169   1.443  0.6941 -2.2538  0.1669
   79TCq2    H3 1217   2.838   3.053   1.654 -1.2061 -0.7970  0.1741
   79TCq2    H4 1218   2.871   3.362   1.375 -0.1364 -2.3112 -2.3387
   80MPD2     C 1219   1.245   2.089  12.371 -0.6739  0.1467  0.3168
   80MPD2    C1 1220   1.138   2.107  12.274 -0.6310 -0.0982 -0.1118
   80MPD2    C2 1221   1.005   2.094  12.307 -0.6189 -0.3308 -0.2136
   80MPD2    C3 1222   0.968   2.055  12.433  0.1010  0.1969  0.7457
   80MPD2    C4 1223   1.058   2.034  12.524 -0.1044 -0.4061 -0.3883
   80MPD2    C5 1224   1.196   2.044  12.498  0.3834 -0.7688 -0.8117
   80MPD2     H 1225   0.935   2.091  12.225 -0.3250  1.1421 -0.5168
   80MPD2    H1 1226   1.036   1.991  12.621 -2.6118 -1.7384 -1.5509
   80MPD2    H2 1227   1.350   2.098  12.349 -0.9812  0.8742 -0.8190
   80MPD2    H3 1228   1.267   2.011  12.573  3.0030  2.9862 -1.6017
   80MPD2     N 1229   0.831   2.044  12.474 -0.3886  0.1943 -0.1767
   80MPD2    H5 1230   0.814   2.016  12.570  0.8742 -2.6167 -0.7813
   80MPD2    N1 1231   1.170   2.131  12.138  0.3918 -0.9275 -0.3284
   80MPD2    H7 1232   1.097   2.127  12.067  0.6107 -1.1532 -0.5394
   81TCq2    C1 1233   1.299   2.141  12.089 -0.3308 -0.4006 -0.3010
   81TCq2    O2 1234   1.400   2.170  12.141  0.3707  0.2525 -0.3209
   81TCq2    C2 1235   1.293   2.138  11.935 -0.2582  0.5014  0.1326
   81TCq2    C3 1236   1.360   2.233  11.871  0.3926  0.0423  1.1090
   81TCq2    C4 1237   1.320   2.270  11.748 -0.2982 -0.0674 -0.1524
   81TCq2    C5 1238   1.225   2.186  11.683  0.6749  0.3531 -0.1516
   81TCq2    C6 1239   1.173   2.080  11.749 -0.3927  0.3055 -0.1243
   81TCq2    C7 1240   1.202   2.056  11.879 -0.2457  0.3943  1.0780
   81TCq2    C8 1241   1.051   2.021  11.693 -0.6526 -0.1216 -0.2867
   81TCq2    O4 1242   1.004   2.083  11.594  0.2373  0.6519 -0.4625
   81TCq2    C9 1243   1.387   2.373  11.678 -0.5357 -0.0892  0.1274
   81TCq2    O5 1244   1.504   2.408  11.719  0.2241  0.1603 -0.2415
   81TCq2    O6 1245   1.340   2.396  11.561  0.3284 -0.4266  0.3030
   81TCq2    H2 1246   1.448   2.278  11.916  0.9680 -0.3656  0.4055
   81TCq2    H3 1247   1.206   2.210  11.579 -0.9481  1.0033  0.2984
   81TCq2    H4 1248   1.168   1.965  11.927 -0.7225  0.0338  0.0774
   82MPD2     C 1249   4.060   2.213  10.138  0.1863  0.0475  0.6389
   82MPD2    C1 1250   3.977   2.103  10.154 -0.0337 -0.7900  0.1629
   82MPD2    C2 1251   4.013   2.007  10.249 -0.6441 -0.3000  0.3485
   82MPD2    C3 1252   4.133   2.015  10.318 -0.0451 -0.4126 -0.4864
   82MPD2    C4 1253   4.211   2.125  10.296 -0.0966  0.4723 -0.2086
   82MPD2    C5 1254   4.181   2.220  10.203  0.0653 -0.6368 -0.4297
   82MPD2     H 1255   3.948   1.921  10.265  1.7591 -1.9321  1.2765
   82MPD2    H1 1256   4.310   2.126  10.341  0.0699  0.6326 -0.5830
   82MPD2    H2 1257   4.032   2.282  10.059  1.5905 -0.7140 -0.5330
   82MPD2    H3 1258   4.250   2.301  10.184 -0.4801 -0.1121 -0.1828
   82MPD2     N 1259   4.196   1.916  10.398  0.2393 -0.0428 -0.4898
   82MPD2    H5 1260   4.294   1.930  10.419  0.6642 -2.4834 -0.8626
   82MPD2    N1 1261   3.866   2.090  10.067  0.7523 -0.6803  0.2988
   82MPD2    H7 1262   3.862   2.164   9.997 -1.3573 -2.4769 -1.4555
   83TCq2    C1 1263   4.129   1.809  10.457  0.5427 -0.2239  0.7642
   83TCq2    O2 1264   4.007   1.792  10.448 -0.3765  0.1030  0.2974
   83TCq2    C2 1265   4.207   1.721  10.539  0.4027 -0.4356  0.0427
   83TCq2    C3 1266   4.337   1.688  10.516  0.2875 -0.1779 -0.1153
   83TCq2    C4 1267   4.397   1.603  10.604 -0.5001  0.7015 -0.6669
   83TCq2    C5 1268   4.338   1.550  10.720 -0.3889  0.5788  0.0401
   83TCq2    C6 1269   4.205   1.589  10.740  0.1897  0.0745  0.6930
   83TCq2    C7 1270   4.143   1.675  10.653 -0.2444  0.6381  0.2754
   83TCq2    C8 1271   4.122   1.535  10.844  0.5301 -0.1387  0.3685
   83TCq2    O4 1272   4.030   1.600  10.885  0.1108 -0.3160 -0.6734
   83TCq2    C9 1273   4.531   1.561  10.566 -0.3776  0.3084 -0.7973
   83TCq2    O5 1274   4.589   1.632  10.482 -0.1102 -0.1146 -0.2768
   83TCq2    O6 1275   4.585   1.466  10.629  0.0184 -0.1190  0.2028
   83TCq2    H2 1276   4.370   1.712  10.416 -3.2852 -1.8983 -1.7107
   83TCq2    H3 1277   4.392   1.475  10.777 -2.4367 -0.1645  1.0108
   83TCq2    H4 1278   4.042   1.706  10.678 -1.7387 -4.2987  0.3690
   84TCq2    C1 1279   0.400   0.020  10.214 -0.8921  0.0862 -0.2693
   84TCq2    O2 1280   0.306   4.683  10.265  0.1337  0.2788  0.6468
   84TCq2    C2 1281   0.475   0.114  10.294  0.2346 -0.0214 -0.8553
   84TCq2    C3 1282   0.608   0.121  10.269  0.2817  0.1400  0.0084
   84TCq2    C4 1283   0.699   0.169  10.357  0.1626 -0.9397 -0.2990
   84TCq2    C5 1284   0.643   0.220  10.473 -0.1406 -0.0002 -0.0146
   84TCq2    C6 1285   0.510   0.203  10.506  0.1233  0.3353  0.3337
   84TCq2    C7 1286   0.423   0.149  10.415 -0.8649  0.4273  0.7023
   84TCq2    C8 1287   0.453   0.241  10.638 -0.1525 -0.4533  0.9933
   84TCq2    O4 1288   0.332   0.251  10.653 -0.3477  0.9120  0.2173
   84TCq2    C9 1289   0.843   0.172  10.334  0.1427 -0.1997 -0.1127
   84TCq2    O5 1290   0.915   0.219  10.423  0.6863  0.7256 -0.8241
   84TCq2    O6 1291   0.891   0.110  10.234 -0.2993  0.3151  0.7475
   84TCq2    H2 1292   0.656   0.089  10.177 -0.7916 -2.6400  0.4342
   84TCq2    H3 1293   0.717   0.262  10.540 -1.9188  1.2457  1.1558
   84TCq2    H4 1294   0.316   0.154  10.428 -0.7615  1.1693  1.2929
   85MPD2     C 1295   0.472   3.609  16.230 -0.6861  0.2541  1.2307
   85MPD2    C1 1296   0.384   3.601  16.118 -0.3141 -0.1829 -1.4680
   85MPD2    C2 1297   0.393   3.696  16.018 -0.1174  0.2420 -0.7280
   85MPD2    C3 1298   0.496   3.788  16.010 -0.3745  0.2194 -0.2787
   85MPD2    C4 1299   0.592   3.775  16.111  0.9299  0.1556  0.2717
   85MPD2    C5 1300   0.572   3.695  16.222 -0.1887  0.7398 -0.1456
   85MPD2     H 1301   0.314   3.700  15.944  0.4608 -1.2691 -1.4227
   85MPD2    H1 1302   0.678   3.840  16.104  1.3230 -0.6951 -2.6075
   85MPD2    H2 1303   0.469   3.540  16.313 -3.5670 -0.2738  0.6791
   85MPD2    H3 1304   0.643   3.725  16.299 -0.3847  0.6229  0.0822
   85MPD2     N 1305   0.504   3.863  15.889  0.2401 -0.8180  0.3657
   85MPD2    H5 1306   0.428   3.844  15.825  1.2575 -1.0397 -0.7663
   85MPD2    N1 1307   0.283   3.509  16.103 -0.2400  0.1440 -0.4298
   85MPD2    H7 1308   0.227   3.518  16.019 -0.8716  1.2572  0.1136
   86TCq2    C1 1309   0.597   3.963  15.864  0.0094 -0.8080 -0.2053
   86TCq2    O2 1310   0.690   4.001  15.929 -0.3177  0.9256 -0.0454
   86TCq2    C2 1311   0.595   4.006  15.723 -0.3286  0.0522  0.3366
   86TCq2    C3 1312   0.477   4.038  15.658 -0.4451 -0.1665  0.2371
   86TCq2    C4 1313   0.485   4.106  15.541  0.1736 -0.8321  0.4130
   86TCq2    C5 1314   0.603   4.151  15.492 -0.9994  0.3653 -0.0764
   86TCq2    C6 1315   0.716   4.130  15.563  0.4739  0.3570  0.2372
   86TCq2    C7 1316   0.709   4.061  15.678 -0.4654 -0.4770 -0.5420
   86TCq2    C8 1317   0.845   4.134  15.498  0.2024 -0.2611  0.4823
   86TCq2    O4 1318   0.932   4.063  15.544  0.1263 -0.5551 -0.1371
   86TCq2    C9 1319   0.358   4.144  15.471 -0.1093 -0.4556 -0.0919
   86TCq2    O5 1320   0.248   4.110  15.520  0.1333  0.5930 -0.2924
   86TCq2    O6 1321   0.370   4.203  15.364  0.0006 -0.1084  0.2655
   86TCq2    H2 1322   0.380   4.007  15.696 -0.5174 -1.5031 -1.0209
   86TCq2    H3 1323   0.618   4.220  15.410 -0.9211  0.6381  0.1668
   86TCq2    H4 1324   0.802   4.045  15.732  0.3451  2.3198 -1.1173
   87MPD2     C 1325   2.742   2.125   1.696 -0.4314 -0.2151  0.0273
   87MPD2    C1 1326   2.712   2.142   1.560 -0.6626  0.4215 -0.1514
   87MPD2    C2 1327   2.663   2.263   1.518  0.4090  0.5172 -0.3740
   87MPD2    C3 1328   2.644   2.370   1.606  0.9741  0.4139  0.4820
   87MPD2    C4 1329   2.696   2.354   1.731 -0.4622  0.4334 -0.9224
   87MPD2    C5 1330   2.751   2.238   1.774  0.2791 -0.8194 -0.6101
   87MPD2     H 1331   2.624   2.275   1.418 -0.5422  0.7337  0.0302
   87MPD2    H1 1332   2.684   2.435   1.801 -1.9932  0.6222 -1.3979
   87MPD2    H2 1333   2.772   2.030   1.740 -1.2260 -0.8628 -0.8264
   87MPD2    H3 1334   2.801   2.240   1.870 -1.7332 -0.5733  0.4457
   87MPD2     N 1335   2.575   2.487   1.570  0.1109  0.2421 -0.4832
   87MPD2    H5 1336   2.580   2.565   1.634 -1.0077 -0.4122  0.3983
   87MPD2    N1 1337   2.751   2.036   1.474 -0.0504  0.1415 -0.5764
   87MPD2    H7 1338   2.767   1.947   1.519  1.2116  0.3923 -0.5124
   88TCq2    C1 1339   2.747   2.037   1.333  0.5937  0.1354 -0.3109
   88TCq2    O2 1340   2.707   2.120   1.255 -0.3717 -0.3051 -0.1628
   88TCq2    C2 1341   2.795   1.914   1.274  0.0261  0.0564 -0.1982
   88TCq2    C3 1342   2.789   1.798   1.347 -0.2020 -0.5150  0.3035
   88TCq2    C4 1343   2.850   1.691   1.287 -0.4591  0.1473  0.3459
   88TCq2    C5 1344   2.909   1.687   1.167 -0.0819 -0.3542  0.7089
   88TCq2    C6 1345   2.895   1.800   1.094  0.2718 -0.1404  0.1173
   88TCq2    C7 1346   2.834   1.909   1.147 -0.6837  0.4755 -0.2407
   88TCq2    C8 1347   2.923   1.796   0.950  0.5912  0.7260  0.3004
   88TCq2    O4 1348   2.953   1.905   0.906 -0.4249 -0.3745 -0.1222
   88TCq2    C9 1349   2.850   1.571   1.369  0.0652 -0.1052 -0.9664
   88TCq2    O5 1350   2.756   1.571   1.456  0.1963  0.3883 -0.3410
   88TCq2    O6 1351   2.962   1.515   1.360 -0.7573 -0.0894  0.0200
   88TCq2    H2 1352   2.757   1.798   1.451  0.4762  0.8545  0.5060
   88TCq2    H3 1353   2.944   1.593   1.126 -1.8211 -0.0711 -1.4193
   88TCq2    H4 1354   2.833   1.998   1.085  2.0465  0.3229 -0.4956
   89MPD2     C 1355   4.177   4.720   1.678  0.1080  0.1888  0.3012
   89MPD2    C1 1356   4.121   0.098   1.745  0.1433 -0.1306  0.9006
   89MPD2    C2 1357   4.200   0.213   1.765  0.1903  0.2273  0.8394
   89MPD2    C3 1358   4.339   0.213   1.726 -0.4830  0.5166  0.2632
   89MPD2    C4 1359   4.395   0.106   1.670 -0.0079  0.1005 -0.4638
   89MPD2    C5 1360   4.313   4.724   1.649 -0.1414 -0.3183 -0.1996
   89MPD2     H 1361   4.151   0.303   1.800 -2.2480 -0.4239 -0.9014
   89MPD2    H1 1362   4.499   0.093   1.643  0.4593 -0.8384  1.7589
   89MPD2    H2 1363   4.125   4.633   1.640 -0.4203 -0.4109  2.4141
   89MPD2    H3 1364   4.356   4.633   1.610 -0.5954 -1.1903  1.3516
   89MPD2     N 1365   4.422   0.335   1.741 -0.1624 -0.8561 -0.5200
   89MPD2    H5 1366   4.376   0.422   1.766  2.7334 -0.3123  2.8205
   89MPD2    N1 1367   3.983   0.101   1.769  0.2736 -0.1784  0.1484
   89MPD2    H7 1368   3.942   0.185   1.810  1.0724  0.0409  0.5011
   90TCq2    C1 1369   4.556   0.336   1.727 -0.2146 -0.4769  0.0364
   90TCq2    O2 1370   4.633   0.242   1.732  0.5738 -0.1083  0.5067
   90TCq2    C2 1371   4.609   0.470   1.754  0.0495 -0.3420  0.0242
   90TCq2    C3 1372   4.527   0.580   1.745 -0.4073  0.6822 -0.6045
   90TCq2    C4 1373   4.593   0.703   1.744 -0.0033  0.3689 -0.0039
   90TCq2    C5 1374   0.004   0.720   1.751  0.0877  0.1838 -0.2698
   90TCq2    C6 1375   0.079   0.603   1.752  0.7158  0.2064 -0.0634
   90TCq2    C7 1376   0.016   0.478   1.752  1.0433 -0.7369 -0.3214
   90TCq2    C8 1377   0.219   0.621   1.788 -0.7995  0.9154 -0.1962
   90TCq2    O4 1378   0.278   0.525   1.845  0.2394 -0.0416  0.4461
   90TCq2    C9 1379   4.512   0.821   1.733 -0.5606  0.6417  0.5323
   90TCq2    O5 1380   4.567   0.932   1.694 -0.4607 -0.5769  0.3852
   90TCq2    O6 1381   4.387   0.806   1.748 -0.1758  0.1161  0.3251
   90TCq2    H2 1382   4.420   0.582   1.729 -0.6990 -1.9976  0.9549
   90TCq2    H3 1383   0.039   0.821   1.768  1.0119 -0.5491  2.0766
   90TCq2    H4 1384   0.074   0.391   1.780  1.0550 -0.9828 -1.1040
   91TMC2    C1 1385   0.811   0.157  16.158 -0.1770  0.1850  0.1508
   91TMC2    C2 1386   0.916   0.074  16.180  0.2530 -0.8886  0.2014
   91TMC2    C3 1387   0.944   0.013  16.300  0.6961 -0.3859  0.0903
   91TMC2    C4 1388   0.735   0.202  16.261  0.1831 -0.0535 -0.3257
   91TMC2    C5 1389   0.755   0.137  16.378 -0.0523  0.3850  0.2144
   91TMC2    C6 1390   0.848   0.047  16.390 -0.7268  0.5436  0.1083
   91TMC2     C 1391   0.783   0.229  16.044  0.1820 -0.0820  0.4982
   91TMC2     O 1392   0.669   0.248  16.009 -0.7257  0.3931  0.0948
   91TMC2     H 1393   0.968   0.035  16.093  0.4941  0.7630 -0.4025
   91TMC2    H1 1394   0.652   0.271  16.256 -0.2508 -0.5579 -0.0161
   91TMC2    H2 1395   0.868   0.010  16.490  0.1377 -1.2387 -0.7220
   91TMC2    C7 1396   0.651   0.125  16.476  0.0226 -0.0881 -0.1127
   91TMC2    C8 1397   0.968   4.600  16.294 -0.1941  0.4986 -0.2800
   91TMC2    O1 1398   0.683   0.089  16.590 -0.0279  0.2142  0.3919
   91TMC2    O2 1399   0.894   4.520  16.351  0.7406  0.6520 -0.3885
   91TMC2    O5 1400   1.070   4.569  16.213  0.5476  0.0806  0.2680
   91TMC2    H5 1401   1.144   4.633  16.214 -0.8107  1.6430  1.9254
   92MPD2     C 1402   0.825   0.405  15.802 -0.0538  0.0254 -0.7807
   92MPD2    C1 1403   0.915   0.382  15.896  0.2594 -0.1624  0.0883
   92MPD2    C2 1404   1.033   0.448  15.897  0.0115 -0.3377 -0.2052
   92MPD2    C3 1405   1.066   0.540  15.799 -0.6254  0.8954  0.1509
   92MPD2    C4 1406   0.980   0.552  15.694 -0.0016  0.4355  0.5632
   92MPD2    C5 1407   0.860   0.486  15.702  0.4739  1.0779  0.2298
   92MPD2     H 1408   1.092   0.438  15.988 -1.3169  1.8426  0.8958
   92MPD2    H1 1409   0.995   0.621  15.612  0.8057  2.4061  2.3923
   92MPD2    H2 1410   0.739   0.340  15.797  0.1040 -0.2512  0.1247
   92MPD2    H3 1411   0.790   0.505  15.621 -2.0586 -1.3025  1.8738
   92MPD2     N 1412   1.194   0.597  15.804  0.2634 -0.1720  0.3581
   92MPD2    H5 1413   1.250   0.556  15.878  2.7770 -0.5824 -1.7972
   92MPD2    N1 1414   0.896   0.280  16.000  0.6444  0.3486  0.5241
   92MPD2    H7 1415   0.973   0.278  16.066 -0.8210  1.4721  2.2767
   93MPD2     C 1416   2.647   4.132  13.679  0.4766 -0.6993 -0.3894
   93MPD2    C1 1417   2.597   4.235  13.599 -0.0736  0.0341 -0.5733
   93MPD2    C2 1418   2.468   4.227  13.555 -0.5911 -0.3136  0.7017
   93MPD2    C3 1419   2.381   4.128  13.596  0.8782  0.2065 -0.2553
   93MPD2    C4 1420   2.428   4.029  13.678  0.4926 -0.3226 -0.2563
   93MPD2    C5 1421   2.557   4.035  13.721 -0.9053  0.2524 -0.0154
   93MPD2     H 1422   2.433   4.307  13.491 -2.6349 -1.6830  0.1337
   93MPD2    H1 1423   2.368   3.945  13.710 -1.1284  1.6327  1.8786
   93MPD2    H2 1424   2.751   4.119  13.707 -0.1546 -0.5636  2.0262
   93MPD2    H3 1425   2.590   3.961  13.793  0.1954  1.5768  0.8536
   93MPD2     N 1426   2.250   4.126  13.554  0.0078  0.2588  0.4183
   93MPD2    H5 1427   2.193   4.056  13.600 -0.5385  0.0985 -0.4857
   93MPD2    N1 1428   2.673   4.353  13.571  0.2915 -0.1657  0.3289
   93MPD2    H7 1429   2.642   4.425  13.506 -0.8979 -0.6765  0.3420
   94TCq2    C1 1430   2.805   4.371  13.615 -0.5579 -0.3012 -0.5988
   94TCq2    O2 1431   2.851   4.317  13.714  0.0483 -0.0632 -0.3476
   94TCq2    C2 1432   2.871   4.483  13.547 -0.3373 -0.4784  0.1298
   94TCq2    C3 1433   2.840   4.517  13.417 -0.2388  0.2914 -0.0344
   94TCq2    C4 1434   2.938   4.594  13.353  0.3042 -0.0001  0.8516
   94TCq2    C5 1435   3.055   4.632  13.416  0.0490  0.4595  0.4275
   94TCq2    C6 1436   3.078   4.593  13.542  0.5581 -0.5806  0.1209
   94TCq2    C7 1437   2.984   4.526  13.611 -0.3812  0.5866  0.4392
   94TCq2    C8 1438   3.213   4.614  13.592 -0.8566  0.9537  0.3122
   94TCq2    O4 1439   3.298   4.595  13.505 -0.3428  0.1630  0.4526
   94TCq2    C9 1440   2.915   4.645  13.221  0.5551 -0.0022 -0.3895
   94TCq2    O5 1441   2.976   0.027  13.199  0.1577 -0.1256 -0.4828
   94TCq2    O6 1442   2.802   4.609  13.165 -0.0137 -0.2582 -0.0542
   94TCq2    H2 1443   2.748   4.487  13.368 -0.5441  0.6015  0.3506
   94TCq2    H3 1444   3.126   4.693  13.360  0.0945  0.8303  0.8871
   94TCq2    H4 1445   2.991   4.488  13.712  1.0914  0.2026  0.1953
   95TMC2    C1 1446   2.294   1.978  16.084 -0.1181 -0.4112 -0.4431
   95TMC2    C2 1447   2.297   1.866  16.167  0.3178 -0.2987  0.1083
   95TMC2    C3 1448   2.325   1.885  16.296 -0.4298  0.6796 -0.2518
   95TMC2    C4 1449   2.328   2.100  16.133  0.2509  0.5126 -0.4129
   95TMC2    C5 1450   2.345   2.117  16.269  0.1224 -0.1900 -0.0563
   95TMC2    C6 1451   2.344   2.006  16.359 -0.2924 -0.3001  0.4916
   95TMC2     C 1452   2.328   1.958  15.942 -0.2987 -0.0259  0.0566
   95TMC2     O 1453   2.395   2.048  15.889 -0.3405  0.3290 -0.0676
   95TMC2     H 1454   2.273   1.764  16.137 -1.6819  0.2537 -0.1699
   95TMC2    H1 1455   2.362   2.179  16.066  2.0831 -0.0480 -0.1391
   95TMC2    H2 1456   2.352   2.023  16.466  2.0457  0.8056  0.1585
   95TMC2    C7 1457   2.378   2.239  16.331 -0.1500  0.4277  0.0305
   95TMC2    C8 1458   2.326   1.773  16.384 -0.2200 -0.7591 -0.0900
   95TMC2    O1 1459   2.423   2.229  16.444  0.0862  0.0986  0.1321
   95TMC2    O2 1460   2.350   1.659  16.358 -0.5696  0.0668 -0.0102
   95TMC2    O5 1461   2.249   1.804  16.487  0.5349 -0.5787 -0.1530
   95TMC2    H5 1462   2.212   1.894  16.475  1.5320 -0.4758 -2.4755
   96MPD2     C 1463   2.366   1.671  15.530 -0.7522  1.0479 -0.0521
   96MPD2    C1 1464   2.427   1.793  15.552  0.7573 -0.0164 -0.1523
   96MPD2    C2 1465   2.394   1.844  15.676 -0.3080  0.0104 -0.2453
   96MPD2    C3 1466   2.302   1.791  15.769  0.3009 -0.6266  0.0608
   96MPD2    C4 1467   2.242   1.670  15.741 -0.6740 -0.2697 -1.4572
   96MPD2    C5 1468   2.273   1.612  15.615 -0.0760  0.0112 -0.3070
   96MPD2     H 1469   2.454   1.927  15.711  2.9739 -2.2898 -0.4944
   96MPD2    H1 1470   2.179   1.611  15.806  2.0881  1.2269  2.5790
   96MPD2    H2 1471   2.380   1.618  15.437 -0.9591  0.1997  0.3996
   96MPD2    H3 1472   2.243   1.513  15.583 -0.3502  0.1957 -0.6187
   96MPD2     N 1473   2.265   1.853  15.890  0.1293 -0.2088 -0.1836
   96MPD2    H5 1474   2.204   1.793  15.945 -2.4827  1.0334 -1.7311
   96MPD2    N1 1475   2.518   1.851  15.459  0.8539 -0.3795  0.1217
   96MPD2    H7 1476   2.551   1.787  15.388  1.1607  1.9754 -1.8428
   97MPD2     C 1477   4.307   3.603   0.593 -0.4670  0.1398  0.4320
   97MPD2    C1 1478   4.338   3.734   0.588  0.0720  0.4731 -0.1269
   97MPD2    C2 1479   4.375   3.785   0.462  0.4599 -0.1223 -0.5118
   97MPD2    C3 1480   4.366   3.707   0.346 -1.1374 -0.1828 -0.0376
   97MPD2    C4 1481   4.317   3.577   0.360  0.8238  0.1981 -0.1918
   97MPD2    C5 1482   4.291   3.529   0.485 -0.0285 -0.3876  0.6272
   97MPD2     H 1483   4.408   3.887   0.449 -0.8921  0.2460 -1.0784
   97MPD2    H1 1484   4.294   3.514   0.275 -0.0819 -0.7486  0.7510
   97MPD2    H2 1485   4.281   3.570   0.693  1.0897 -0.6025  0.5910
   97MPD2    H3 1486   4.267   3.423   0.496  0.4259 -0.8610 -2.7330
   97MPD2     N 1487   4.392   3.755   0.217  0.4559  0.0281 -0.1228
   97MPD2    H5 1488   4.397   3.687   0.142  1.2732 -0.4242  0.3447
   97MPD2    N1 1489   4.346   3.806   0.709 -0.0344  0.2100 -0.6762
   97MPD2    H7 1490   4.338   3.749   0.793 -2.3783 -2.0380 -2.4428
   98TCq2    C1 1491   4.425   3.884   0.181  0.1017 -0.1467  0.2871
   98TCq2    O2 1492   4.421   3.986   0.252 -0.4565  0.6747 -0.1537
   98TCq2    C2 1493   4.450   3.898   0.038 -0.0460 -0.3885 -0.5613
   98TCq2    C3 1494   4.364   3.846  17.656  0.4392  0.1897  0.5931
   98TCq2    C4 1495   4.367   3.900  17.529 -0.1672  0.3100 -0.0234
   98TCq2    C5 1496   4.429   4.018  17.495  0.1832 -0.3866 -0.1733
   98TCq2    C6 1497   4.511   4.071  17.598 -0.5141 -0.8234 -0.2688
   98TCq2    C7 1498   4.510   4.021   0.013 -0.1533 -0.2052 -0.5093
   98TCq2    C8 1499   4.557   4.208  17.576 -0.0899  0.2875  0.6991
   98TCq2    O4 1500   4.575   4.262  17.466  0.2548 -0.1535  0.3697
   98TCq2    C9 1501   4.291   3.834  17.436 -0.2705 -0.0416  0.7089
   98TCq2    O5 1502   4.278   3.883  17.319  0.2557  0.0921 -0.2419
   98TCq2    O6 1503   4.223   3.736  17.470 -0.5399 -0.0110 -0.2699
   98TCq2    H2 1504   4.332   3.744  17.676  3.5016 -0.7513  0.7676
   98TCq2    H3 1505   4.421   4.066  17.398  0.4458 -3.8815 -1.9306
   98TCq2    H4 1506   4.574   4.060   0.091 -0.1792 -0.5857 -0.3038
   99MPD2     C 1507   3.737   1.574   1.626 -0.4505  0.0635 -0.4972
   99MPD2    C1 1508   3.764   1.621   1.757  0.3439  0.3684  0.2490
   99MPD2    C2 1509   3.869   1.709   1.783  0.4541 -0.1084  0.5848
   99MPD2    C3 1510   3.954   1.749   1.681  0.2976  0.3569 -0.5804
   99MPD2    C4 1511   3.933   1.694   1.553  0.0556 -0.1646 -0.1331
   99MPD2    C5 1512   3.825   1.617   1.532  0.2746  0.2391  0.4257
   99MPD2     H 1513   3.896   1.729   1.886 -1.0270  0.8281  0.7762
   99MPD2    H1 1514   4.002   1.722   1.474 -0.8913  0.4963 -0.7194
   99MPD2    H2 1515   3.657   1.508   1.595  0.3563 -0.1531 -2.1109
   99MPD2    H3 1516   3.815   1.572   1.434  0.6987 -0.2978  0.6313
   99MPD2     N 1517   4.054   1.833   1.724  0.0832  0.4460 -0.6421
   99MPD2    H5 1518   4.036   1.892   1.805 -0.3300 -1.0235  0.3374
   99MPD2    N1 1519   3.680   1.595   1.871 -0.4809  0.0469 -0.2801
   99MPD2    H7 1520   3.707   1.642   1.956 -0.5877  0.6984 -0.6066
  100TCq2    C1 1521   3.574   1.510   1.875 -0.0784  0.3614 -0.0161
  100TCq2    O2 1522   3.508   1.454   1.782 -0.4189 -0.0445 -0.1631
  100TCq2    C2 1523   3.543   1.460   2.006  0.5678  0.3048 -0.3138
  100TCq2    C3 1524   3.632   1.478   2.113  0.1203  0.7570  0.1959
  100TCq2    C4 1525   3.592   1.442   2.239 -0.4579 -0.3803 -0.0055
  100TCq2    C5 1526   3.469   1.389   2.266 -0.5414 -0.2534 -0.3478
  100TCq2    C6 1527   3.383   1.379   2.156 -0.6285  0.1104  0.3671
  100TCq2    C7 1528   3.415   1.403   2.025  0.3600 -0.1232  0.7562
  100TCq2    C8 1529   3.249   1.316   2.185  0.6557  0.2595  0.4453
  100TCq2    O4 1530   3.218   1.295   2.302 -0.0535  0.9106 -0.2317
  100TCq2    C9 1531   3.675   1.479   2.350 -0.3139  0.3618 -0.4359
  100TCq2    O5 1532   3.629   1.449   2.468  0.0464  0.2108 -0.2153
  100TCq2    O6 1533   3.775   1.554   2.326 -0.0433  0.2912  0.2228
  100TCq2    H2 1534   3.736   1.506   2.101  0.6575 -0.2896  2.4182
  100TCq2    H3 1535   3.438   1.353   2.363 -4.5369 -0.5041 -1.7262
  100TCq2    H4 1536   3.345   1.401   1.942  0.3994  0.8258  0.7003
  101MPD2     C 1537   4.525   2.115  12.969  0.4572  0.4049 -0.5548
  101MPD2    C1 1538   4.413   2.184  13.024 -0.2704 -0.2057  0.5770
  101MPD2    C2 1539   4.328   2.120  13.111 -0.2526 -0.2351 -0.3407
  101MPD2    C3 1540   4.346   1.986  13.136  0.5211 -0.0611  0.1151
  101MPD2    C4 1541   4.461   1.921  13.096 -0.2809  0.6357 -0.2995
  101MPD2    C5 1542   4.547   1.981  13.011  0.4539 -0.1353 -0.4079
  101MPD2     H 1543   4.242   2.169  13.156  1.2667  2.3767 -0.3160
  101MPD2    H1 1544   4.471   1.814  13.113 -2.7171  0.7443  1.8654
  101MPD2    H2 1545   4.603   2.158  12.907 -1.8575  2.0214 -2.3664
  101MPD2    H3 1546   4.638   1.927  12.986 -0.0941 -2.5777  2.8936
  101MPD2     N 1547   4.234   1.915  13.193  0.1031 -0.0261 -1.0142
  101MPD2    H5 1548   4.157   1.978  13.211  0.6730  0.8212 -1.5745
  101MPD2    N1 1549   4.393   2.320  12.988  0.4259 -0.4203 -0.8176
  101MPD2    H7 1550   4.453   2.342  12.910 -2.0595  1.0787 -2.2821
  102TCq2    C1 1551   4.429   2.630  12.647  0.3932 -0.0106  0.4318
  102TCq2    O2 1552   4.542   2.657  12.673 -0.0284  0.1111  0.0742
  102TCq2    C2 1553   4.325   2.621  12.750 -0.1908 -0.2646 -0.4855
  102TCq2    C3 1554   4.195   2.641  12.721 -0.5021 -0.3220  0.2541
  102TCq2    C4 1555   4.101   2.615  12.820 -0.2500 -0.9096 -0.0519
  102TCq2    C5 1556   4.134   2.547  12.935 -0.3009 -0.0339  0.3936
  102TCq2    C6 1557   4.265   2.523  12.958  0.3249 -0.1766 -0.0848
  102TCq2    C7 1558   4.365   2.569  12.869  0.3234  0.0889  0.3587
  102TCq2    C8 1559   4.292   2.409  13.036  1.9498 -0.2558  0.0092
  102TCq2    O4 1560   4.218   2.394  13.133  0.6635  0.2186 -0.3088
  102TCq2    C9 1561   3.957   2.625  12.798 -0.8572  0.6132  0.3700
  102TCq2    O5 1562   3.917   2.669  12.688  0.6040  0.1076 -0.2230
  102TCq2    O6 1563   3.876   2.558  12.866  0.1213  0.0921  0.2501
  102TCq2    H2 1564   4.159   2.659  12.620 -0.3816 -0.1688  0.2381
  102TCq2    H3 1565   4.055   2.534  13.009 -0.8961  0.4872 -0.1511
  102TCq2    H4 1566   4.470   2.554  12.893  0.5141 -0.0927 -0.5961
  103TMC2    C1 1567   2.579   2.929  12.172 -0.1275  0.7627 -0.3420
  103TMC2    C2 1568   2.625   3.054  12.153 -0.1674  0.0111  0.2354
  103TMC2    C3 1569   2.649   3.126  12.264 -0.1712 -0.2149  0.6998
  103TMC2    C4 1570   2.560   2.875  12.296  0.5091  0.0132 -0.0955
  103TMC2    C5 1571   2.577   2.956  12.409  0.4666  0.0600  0.7095
  103TMC2    C6 1572   2.622   3.084  12.393  1.2757 -0.0933  0.4851
  103TMC2     C 1573   2.558   2.848  12.056 -0.1957  0.1490  0.1754
  103TMC2     O 1574   2.533   2.913  11.955 -0.0287  0.3974  0.3744
  103TMC2     H 1575   2.625   3.102  12.056 -1.3852  0.5602  0.5003
  103TMC2    H1 1576   2.526   2.774  12.313  0.0442 -0.2351 -2.5015
  103TMC2    H2 1577   2.643   3.145  12.480 -2.3323  3.2433 -0.9783
  103TMC2    C7 1578   2.569   2.894  12.541  0.0609  0.7986 -0.0087
  103TMC2    C8 1579   2.690   3.261  12.228  0.2463 -0.3786 -0.6216
  103TMC2    O1 1580   2.631   2.953  12.630  0.5130 -0.0518 -0.1282
  103TMC2    O2 1581   2.665   3.322  12.125  0.1792 -0.3954 -0.7340
  103TMC2    O5 1582   2.800   3.277  12.305 -0.3505  0.1031 -0.2985
  103TMC2    H5 1583   2.816   3.206  12.371  1.4604 -0.3702 -1.2515
  104MPD2     C 1584   2.636   2.489  12.009 -0.1370  0.1343 -0.5641
  104MPD2    C1 1585   2.570   2.610  11.984 -0.2692  0.2911  0.4838
  104MPD2    C2 1586   2.480   2.621  11.884  0.2690 -0.1460 -0.1466
  104MPD2    C3 1587   2.460   2.514  11.796 -0.5825 -0.6486 -0.4146
  104MPD2    C4 1588   2.536   2.399  11.815  0.1154  0.4292  0.4809
  104MPD2    C5 1589   2.630   2.386  11.914  0.3427 -0.5568 -0.1308
  104MPD2     H 1590   2.414   2.707  11.879  0.8367  0.2280 -1.3451
  104MPD2    H1 1591   2.521   2.314  11.749  1.9111  0.8940 -0.5008
  104MPD2    H2 1592   2.701   2.481  12.095  1.6594 -0.4140 -1.9626
  104MPD2    H3 1593   2.680   2.292  11.932  2.2758  0.4153 -0.3978
  104MPD2     N 1594   2.354   2.525  11.705  0.3945  0.5299 -0.0700
  104MPD2    H5 1595   2.293   2.605  11.717 -3.4896 -2.1690 -1.8432
  104MPD2    N1 1596   2.593   2.715  12.078 -0.1332 -0.3057  0.3762
  104MPD2    H7 1597   2.651   2.691  12.157  1.0946  1.1008 -0.0984
  105MPD2     C 1598   3.601   1.733  17.329  0.0055 -0.4452  0.9581
  105MPD2    C1 1599   3.572   1.868  17.347 -0.1531  0.3790 -0.1514
  105MPD2    C2 1600   3.515   1.909  17.471 -0.1819  1.2171 -0.0514
  105MPD2    C3 1601   3.503   1.823  17.579 -0.1948 -0.0220 -0.3408
  105MPD2    C4 1602   3.541   1.688  17.564  0.2810  0.6619  0.1242
  105MPD2    C5 1603   3.601   1.654  17.444 -0.1188 -0.3660 -0.7286
  105MPD2     H 1604   3.519   2.015  17.493 -2.0175  1.0401  1.1197
  105MPD2    H1 1605   3.531   1.610  17.638  0.1920  1.1755  0.6519
  105MPD2    H2 1606   3.646   1.689  17.241 -0.7504 -0.6346  0.6655
  105MPD2    H3 1607   3.624   1.548  17.434 -1.3983 -0.7290  0.1903
  105MPD2     N 1608   3.445   1.856  17.703 -0.2849 -0.4287  0.3243
  105MPD2    H5 1609   3.421   1.782   0.060 -0.9629 -0.2112  0.3201
  105MPD2    N1 1610   3.588   1.967  17.250 -0.1655 -0.0888 -0.0685
  105MPD2    H7 1611   3.547   2.056  17.276  0.5964  0.4445 -0.6530
  106TCq2    C1 1612   3.407   1.988   0.033  0.2933 -0.3478  0.2373
  106TCq2    O2 1613   3.448   2.094  17.704 -0.5784  0.0594  0.4115
  106TCq2    C2 1614   3.313   1.992   0.142 -0.1312 -0.2482 -0.5189
  106TCq2    C3 1615   3.300   2.116   0.196  0.4214  0.0207  0.5769
  106TCq2    C4 1616   3.203   2.136   0.295  0.2525 -0.3380  0.5979
  106TCq2    C5 1617   3.114   2.032   0.325 -0.6841 -0.2491  0.9699
  106TCq2    C6 1618   3.137   1.904   0.277  0.3295  0.8590 -0.0658
  106TCq2    C7 1619   3.240   1.879   0.190  0.0508  0.0153  0.1123
  106TCq2    C8 1620   3.062   1.787   0.320  0.1007  0.2587  0.9760
  106TCq2    O4 1621   3.078   1.684   0.254  0.7316 -0.6417 -0.4531
  106TCq2    C9 1622   3.178   2.263   0.350  0.0165  0.5591  0.3039
  106TCq2    O5 1623   3.063   2.280   0.399 -0.3491 -0.0522  0.6252
  106TCq2    O6 1624   3.252   2.360   0.338 -0.3967  0.4802  0.2716
  106TCq2    H2 1625   3.356   2.203   0.164 -2.0883  1.0613 -1.0702
  106TCq2    H3 1626   3.027   2.056   0.385 -2.2779 -1.7601 -0.7606
  106TCq2    H4 1627   3.243   1.786   0.135  1.0420  1.4732 -2.3003
  107TMC2    C1 1628   0.004   0.748  11.339  0.4161  0.3448  0.6099
  107TMC2    C2 1629   4.644   0.763  11.229  0.8157  0.1855 -0.6426
  107TMC2    C3 1630   4.676   0.700  11.115 -1.2258 -0.1488 -0.1537
  107TMC2    C4 1631   0.107   0.659  11.326 -0.3504  0.1799  0.5367
  107TMC2    C5 1632   0.135   0.604  11.198 -0.2038 -0.0293 -1.1154
  107TMC2    C6 1633   0.061   0.635  11.085  0.0478  0.4849  0.0375
  107TMC2     C 1634   4.716   0.825  11.460  0.0107  1.1149 -0.4328
  107TMC2     O 1635   4.613   0.884  11.481 -0.2351 -0.4068  0.1550
  107TMC2     H 1636   4.559   0.827  11.249  1.2297  1.0103 -1.5561
  107TMC2    H1 1637   0.164   0.627  11.413  0.3597  0.1072  0.0488
  107TMC2    H2 1638   0.092   0.600  10.987 -0.5252 -2.5017  0.9298
  107TMC2    C7 1639   0.267   0.545  11.194  0.0173  0.3394 -0.2510
  107TMC2    C8 1640   4.588   0.747  11.002 -0.3336  0.8154 -0.4570
  107TMC2    O1 1641   0.336   0.548  11.295  0.8760  0.1396  0.0708
  107TMC2    O2 1642   4.605   0.729  10.881 -0.1581 -0.0144 -0.1567
  107TMC2    O5 1643   4.467   0.734  11.058  0.5808 -0.2321 -0.2228
  107TMC2    H5 1644   4.457   0.714  11.154 -0.5229 -0.9517 -0.4817
  108MPD2     C 1645   0.213   0.848  11.748  0.9488 -0.0641  0.3950
  108MPD2    C1 1646   0.092   0.863  11.681  0.8153 -0.3374 -0.5340
  108MPD2    C2 1647   4.695   0.873  11.757  0.4222 -0.5413 -0.5148
  108MPD2    C3 1648   4.707   0.880  11.898 -0.3702  0.1048 -0.6950
  108MPD2    C4 1649   0.104   0.865  11.957 -0.3983 -0.3356  0.5813
  108MPD2    C5 1650   0.218   0.840  11.882 -0.9089 -0.7570  0.3394
  108MPD2     H 1651   4.596   0.884  11.715  1.0163 -1.1642 -2.0606
  108MPD2    H1 1652   0.141   0.862  12.059 -1.2990  0.1169  0.9176
  108MPD2    H2 1653   0.301   0.818  11.693  1.2740 -2.7932  2.4331
  108MPD2    H3 1654   0.314   0.823  11.928  0.0097 -0.5172 -1.4922
  108MPD2     N 1655   4.596   0.908  11.981  0.1584  0.6636  0.3088
  108MPD2    H5 1656   4.614   0.871  12.074  0.2999  0.0686  0.0423
  108MPD2    N1 1657   0.100   0.842  11.539  0.1236  0.5671 -0.2979
  108MPD2    H7 1658   0.190   0.814  11.499 -0.4550 -0.4272 -0.9264
  109MPD2     C 1659   4.064   3.020   1.805 -0.9615  0.3366  0.1767
  109MPD2    C1 1660   4.098   3.102   1.696 -0.6967  0.1441  0.7474
  109MPD2    C2 1661   4.221   3.164   1.700  0.1679  0.2815  0.7431
  109MPD2    C3 1662   4.309   3.142   1.801  0.1634 -0.0924 -0.4333
  109MPD2    C4 1663   4.281   3.057   1.905  0.0047  0.3783 -0.1233
  109MPD2    C5 1664   4.157   2.998   1.903 -0.2698  0.2318  0.5281
  109MPD2     H 1665   4.245   3.239   1.626  0.6597 -0.5342  0.0735
  109MPD2    H1 1666   4.343   3.034   1.991 -3.8896 -0.6870  2.4284
  109MPD2    H2 1667   3.973   2.962   1.803  0.0382 -1.2630  0.2904
  109MPD2    H3 1668   4.125   2.946   1.993 -3.6591  1.0753 -0.2080
  109MPD2     N 1669   4.434   3.218   1.790 -0.3162 -0.0728  0.7167
  109MPD2    H5 1670   4.452   3.255   1.697 -0.4028  1.4780  1.3289
  109MPD2    N1 1671   4.009   3.100   1.586 -0.2821  0.2906 -0.0849
  109MPD2    H7 1672   3.920   3.051   1.597  0.0804 -0.9061 -2.5290
  110TCq2    C1 1673   4.536   3.234   1.882  0.8390  0.3669 -0.6955
  110TCq2    O2 1674   4.537   3.187   1.994 -0.6048 -0.1811 -0.6327
  110TCq2    C2 1675   4.649   3.319   1.837 -0.2484  0.0254  0.3097
  110TCq2    C3 1676   0.034   3.315   1.911 -0.4331 -0.2654 -0.7301
  110TCq2    C4 1677   0.119   3.419   1.889  0.7060  0.7657 -0.0929
  110TCq2    C5 1678   0.099   3.518   1.798  0.1412  0.0845  0.0694
  110TCq2    C6 1679   4.704   3.522   1.735  0.8429 -0.6334 -0.5913
  110TCq2    C7 1680   4.622   3.410   1.742  0.1704 -0.1391 -0.0418
  110TCq2    C8 1681   4.685   3.616   1.630  0.5022  0.2068 -0.3713
  110TCq2    O4 1682   4.604   3.574   1.544  0.1768 -0.2759 -0.1653
  110TCq2    C9 1683   0.234   3.424   1.969  0.6989  0.6514 -0.3140
  110TCq2    O5 1684   0.329   3.500   1.937 -0.0260 -0.4269  0.0210
  110TCq2    O6 1685   0.230   3.342   2.062  0.9506 -0.3268 -0.3251
  110TCq2    H2 1686   0.051   3.241   1.988 -1.1706  2.4136  2.0108
  110TCq2    H3 1687   0.185   3.581   1.785  0.4713 -0.9377 -2.6524
  110TCq2    H4 1688   4.523   3.421   1.699  0.0593 -1.2170 -0.0494
  111TMC2    C1 1689   0.290   3.127  11.115  0.3825  0.5753 -0.5272
  111TMC2    C2 1690   0.393   3.148  11.032 -0.1434  0.2004 -0.4548
  111TMC2    C3 1691   0.516   3.161  11.085 -0.7409 -0.3029 -0.1333
  111TMC2    C4 1692   0.303   3.124  11.250  0.3878 -0.6488  0.2602
  111TMC2    C5 1693   0.431   3.136  11.299  0.2362 -0.4937 -0.0043
  111TMC2    C6 1694   0.542   3.157  11.215 -0.4344 -0.4147 -0.7031
  111TMC2     C 1695   0.157   3.112  11.054 -0.3934 -0.1140 -0.0191
  111TMC2     O 1696   0.143   3.140  10.938  0.1957 -0.0319 -0.0161
  111TMC2     H 1697   0.375   3.161  10.926  1.1096  1.4943 -0.5038
  111TMC2    H1 1698   0.217   3.113  11.315 -0.2769  1.0006 -0.3253
  111TMC2    H2 1699   0.640   3.183  11.253 -0.7737 -2.6459  1.6787
  111TMC2    C7 1700   0.444   3.097  11.435 -0.0372 -0.2567 -0.4681
  111TMC2    C8 1701   0.619   3.223  11.009 -0.3694  0.4401 -0.3164
  111TMC2    O1 1702   0.344   3.070  11.502 -0.1084 -0.1547  0.1789
  111TMC2    O2 1703   0.681   3.320  11.055  0.4014  0.5143  0.3993
  111TMC2    O5 1704   0.676   3.115  10.964  0.6195 -0.8223 -0.1809
  111TMC2    H5 1705   0.612   3.041  10.955  0.4346 -0.6841 -0.0077
  112MPD2     C 1706   4.371   3.059  11.089 -0.6476 -0.6968 -0.3890
  112MPD2    C1 1707   4.452   3.087  10.974  0.2577  1.1610  0.2000
  112MPD2    C2 1708   4.592   3.085  10.984 -0.3279 -0.4496  0.0607
  112MPD2    C3 1709   4.651   3.054  11.112 -0.1658 -0.3346 -0.0240
  112MPD2    C4 1710   4.569   3.018  11.215 -0.4521 -0.3431  0.3532
  112MPD2    C5 1711   4.430   3.027  11.209 -0.0888  0.2237 -0.0452
  112MPD2     H 1712   4.647   3.112  10.895 -0.8056 -1.7306 -0.6326
  112MPD2    H1 1713   4.607   2.987  11.311  2.0097 -1.9507 -1.1212
  112MPD2    H2 1714   4.266   3.086  11.096 -0.1359  0.9100  1.2656
  112MPD2    H3 1715   4.372   3.003  11.297 -0.0164 -1.7908 -0.5628
  112MPD2     N 1716   0.061   3.057  11.139  0.4358  0.4041 -0.3943
  112MPD2    H5 1717   0.099   3.018  11.224 -0.0030 -0.4627 -0.5937
  112MPD2    N1 1718   4.391   3.124  10.855 -0.0324 -0.1277  0.0133
  112MPD2    H7 1719   4.458   3.132  10.779  0.8744 -1.9331  0.6197
  113MPD2     C 1720   2.859   1.079   1.293  1.3022 -0.0499 -0.3790
  113MPD2    C1 1721   2.740   1.143   1.322  0.7181  0.8605 -0.2483
  113MPD2    C2 1722   2.642   1.147   1.227 -0.5548  0.0018  0.6962
  113MPD2    C3 1723   2.655   1.072   1.104  0.1260  0.1293  0.0197
  113MPD2    C4 1724   2.773   1.006   1.084 -0.4624  0.2434  0.3654
  113MPD2    C5 1725   2.876   1.009   1.177 -0.2217  0.3036 -0.4960
  113MPD2     H 1726   2.551   1.202   1.250  0.6831  2.3487  0.0020
  113MPD2    H1 1727   2.791   0.948   0.993 -0.2014 -0.2835  0.7532
  113MPD2    H2 1728   2.945   1.087   1.359  1.8376  1.3259 -1.2416
  113MPD2    H3 1729   2.972   0.966   1.151  0.7843  2.7920 -0.9145
  113MPD2     N 1730   2.556   1.065   1.001 -0.4932  0.0089  0.2582
  113MPD2    H5 1731   2.590   1.020   0.917 -0.8760 -2.6945  1.5553
  113MPD2    N1 1732   2.711   1.214   1.443 -0.0807 -0.0631 -0.5191
  113MPD2    H7 1733   2.619   1.255   1.438  0.6864  2.0799  3.6803
  114TCq2    C1 1734   2.424   1.108   1.021  0.2335  0.3692  0.4853
  114TCq2    O2 1735   2.369   1.154   1.122 -0.0607 -0.1533  0.8267
  114TCq2    C2 1736   2.329   1.052   0.923  0.3677  0.1179 -0.5831
  114TCq2    C3 1737   2.370   1.022   0.795 -0.2704  0.4274 -0.2686
  114TCq2    C4 1738   2.276   0.967   0.709  0.1178 -0.2062  0.7364
  114TCq2    C5 1739   2.168   0.910   0.769 -0.1854 -0.2434 -0.3179
  114TCq2    C6 1740   2.132   0.938   0.897 -0.3367 -0.0339  0.3542
  114TCq2    C7 1741   2.212   1.006   0.980 -0.1522 -0.4903  0.0563
  114TCq2    C8 1742   2.012   0.864   0.950  0.0196 -0.0204 -0.5676
  114TCq2    O4 1743   2.006   0.837   1.067  0.2088 -0.2645  0.0525
  114TCq2    C9 1744   2.307   0.938   0.569 -0.7276  0.8952  0.1839
  114TCq2    O5 1745   2.427   0.965   0.539  0.0523  0.0518  0.0582
  114TCq2    O6 1746   2.213   0.890   0.501  0.5675  0.2684  0.0466
  114TCq2    H2 1747   2.462   1.059   0.751  0.5387 -1.1800  0.0720
  114TCq2    H3 1748   2.108   0.843   0.709  1.9057 -1.7208 -0.7229
  114TCq2    H4 1749   2.193   1.009   1.086 -0.4955 -0.0859 -0.0202
  115TMC2    C1 1750   3.326   4.562  17.559  0.1735 -0.0309 -0.9075
  115TMC2    C2 1751   3.254   4.594  17.451 -0.5909  0.5165  0.3436
  115TMC2    C3 1752   3.263   4.718  17.401  0.7711 -1.2802  0.1405
  115TMC2    C4 1753   3.426   4.638  17.608  0.0655  0.0802 -0.3181
  115TMC2    C5 1754   3.441   0.036  17.546 -0.2518 -0.3032 -0.3015
  115TMC2    C6 1755   3.354   0.078  17.449 -0.2036  0.1804 -0.2735
  115TMC2     C 1756   3.289   4.442  17.627  0.2602  1.0235 -0.0367
  115TMC2     O 1757   3.220   4.373  17.550 -0.5461 -0.1153  0.2363
  115TMC2     H 1758   3.189   4.522  17.402 -0.7034  0.6641  0.2742
  115TMC2    H1 1759   3.482   4.612  17.697  2.2564  1.4848 -1.2813
  115TMC2    H2 1760   3.348   0.183  17.423  0.4537  0.4751  0.7504
  115TMC2    C7 1761   3.551   0.124  17.580 -0.2881  0.0550  0.2631
  115TMC2    C8 1762   3.177   0.035  17.291  0.5072  0.7248  0.3890
  115TMC2    O1 1763   3.619   0.099  17.678  0.4267  0.2648 -0.5924
  115TMC2    O2 1764   3.217   0.115  17.209  0.0592 -0.5958  0.4916
  115TMC2    O5 1765   3.053   4.713  17.302  0.5890 -0.1787 -0.2612
  115TMC2    H5 1766   3.041   4.655  17.380 -2.3304 -0.6927 -1.0911
  116MPD2     C 1767   3.380   4.052   0.248 -0.4705  0.1734 -0.3240
  116MPD2    C1 1768   3.305   4.058   0.128  0.3159 -0.3268 -0.4527
  116MPD2    C2 1769   3.292   4.175   0.056 -0.0353 -0.2074 -0.1114
  116MPD2    C3 1770   3.362   4.291   0.101 -0.1902  0.1147 -0.3402
  116MPD2    C4 1771   3.429   4.289   0.224  0.0267  0.4180 -0.2689
  116MPD2    C5 1772   3.444   4.170   0.294 -0.5555 -0.6391 -0.7879
  116MPD2     H 1773   3.230   4.184  17.676 -0.5571  0.5560  0.3373
  116MPD2    H1 1774   3.476   4.377   0.268 -1.6152  0.0836  2.1128
  116MPD2    H2 1775   3.376   3.968   0.316  0.8140 -0.2804 -0.8134
  116MPD2    H3 1776   3.507   4.156   0.381  1.1765 -0.2132 -1.9842
  116MPD2     N 1777   3.351   4.419   0.039 -0.1884  0.0329  0.3001
  116MPD2    H5 1778   3.402   4.490   0.090  0.9935  0.5558 -1.6357
  116MPD2    N1 1779   3.230   3.948   0.071  0.1340 -0.0176 -0.1568
  116MPD2    H7 1780   3.193   3.960  17.685 -1.9521  3.2519  1.0457
  117TMC2    C1 1781   1.588   0.425  13.767 -0.5627  0.3154  0.6857
  117TMC2    C2 1782   1.622   0.321  13.847 -0.5724 -0.1541 -0.2736
  117TMC2    C3 1783   1.725   0.341  13.934 -0.3837 -0.3140  0.5350
  117TMC2    C4 1784   1.647   0.553  13.774 -0.1323  0.0311 -0.1313
  117TMC2    C5 1785   1.753   0.562  13.857  0.0025  0.1779  0.9581
  117TMC2    C6 1786   1.794   0.460  13.937 -0.2266 -0.2671 -0.2500
  117TMC2     C 1787   1.452   0.421  13.714  0.9165 -0.2338  0.6877
  117TMC2     O 1788   1.415   0.306  13.705 -0.3216  0.5585 -0.2256
  117TMC2     H 1789   1.568   0.226  13.848 -0.0866 -0.4235  1.0085
  117TMC2    H1 1790   1.629   0.614  13.687 -0.3671 -1.4849 -1.1421
  117TMC2    H2 1791   1.868   0.479  14.014 -0.5284 -1.0296  0.2318
  117TMC2    C7 1792   1.830   0.680  13.867  0.0259 -0.2063 -0.6627
  117TMC2    C8 1793   1.753   0.259  14.045 -0.2983  0.2281 -0.0964
  117TMC2    O1 1794   1.932   0.684  13.940  0.1097  0.1934  0.4082
  117TMC2    O2 1795   1.838   0.292  14.125  0.3804 -0.2653  0.0164
  117TMC2    O5 1796   1.657   0.165  14.076 -0.2717 -0.3958 -0.5301
  117TMC2    H5 1797   1.633   0.127  13.989 -2.2736  1.4757 -0.8141
  118MPD2     C 1798   1.747   1.028  13.803 -0.2895  0.2030  0.1890
  118MPD2    C1 1799   1.824   0.916  13.846  0.1223 -0.6220 -1.3655
  118MPD2    C2 1800   1.952   0.958  13.892 -0.3761 -0.0588 -0.4802
  118MPD2    C3 1801   1.989   1.093  13.892 -0.8885  0.0590  0.0716
  118MPD2    C4 1802   1.907   1.192  13.862 -0.5926 -0.2320  0.3787
  118MPD2    C5 1803   1.784   1.163  13.814 -0.5235 -0.6469  0.2397
  118MPD2     H 1804   2.021   0.883  13.931 -1.6276 -0.6656  0.5684
  118MPD2    H1 1805   1.950   1.292  13.869 -1.9699  0.3174  1.0666
  118MPD2    H2 1806   1.646   1.018  13.765  0.8752 -1.1639 -2.4894
  118MPD2    H3 1807   1.706   1.237  13.798  1.3220  0.8856 -1.7264
  118MPD2     N 1808   2.119   1.134  13.941  0.4718 -1.1514  0.0519
  118MPD2    H5 1809   2.139   1.232  13.956  0.4597 -0.9129 -1.5024
  118MPD2    N1 1810   1.763   0.795  13.836  0.4667 -0.1901  0.0793
  118MPD2    H7 1811   1.675   0.796  13.786  0.6124 -0.7303 -0.1858
  119MPD2     C 1812   0.119   1.777  12.886  0.1239  0.2275 -0.7770
  119MPD2    C1 1813   0.132   1.717  13.011  0.1648  1.4699  0.7876
  119MPD2    C2 1814   0.113   1.579  13.018  0.1132 -0.4003 -0.1105
  119MPD2    C3 1815   0.071   1.508  12.907  0.5601 -0.1088  0.0935
  119MPD2    C4 1816   0.064   1.566  12.782  0.3053 -0.5604  0.2497
  119MPD2    C5 1817   0.079   1.701  12.777  0.0807  0.5483  0.0562
  119MPD2     H 1818   0.131   1.522  13.108 -1.1079 -2.2518 -1.0294
  119MPD2    H1 1819   0.025   1.512  12.697  0.3240 -1.0299  0.5435
  119MPD2    H2 1820   0.125   1.885  12.878  0.1100  0.3054  0.2105
  119MPD2    H3 1821   0.055   1.750  12.684 -0.0301  0.3804 -0.0029
  119MPD2     N 1822   0.066   1.367  12.920  0.0075  0.3177  0.2644
  119MPD2    H5 1823   0.083   1.320  12.831  1.1587 -0.0256  0.6605
  119MPD2    N1 1824   0.177   1.786  13.121  0.5740 -0.9231 -0.8735
  119MPD2    H7 1825   0.173   1.734  13.208  0.9409 -1.8044 -1.3806
  120TCq2    C1 1826   0.042   1.302  13.039  0.3523 -0.0310  0.3302
  120TCq2    O2 1827   4.706   1.337  13.138  0.1654  0.2715  0.8694
  120TCq2    C2 1828   0.053   1.156  13.031  0.3108  0.3735  0.7950
  120TCq2    C3 1829   0.109   1.098  12.919 -0.5137 -0.2631  0.1560
  120TCq2    C4 1830   0.184   0.983  12.944  0.0490 -0.5907  0.3036
  120TCq2    C5 1831   0.189   0.924  13.064 -0.3623 -0.0905  0.0386
  120TCq2    C6 1832   0.132   0.975  13.177  0.1493 -0.3858 -0.5746
  120TCq2    C7 1833   0.061   1.092  13.155  0.1815 -0.4516  0.1769
  120TCq2    C8 1834   0.161   0.925  13.311  0.0155  0.1853 -0.1306
  120TCq2    O4 1835   0.240   0.831  13.321 -0.1645 -0.1402 -0.5334
  120TCq2    C9 1836   0.237   0.909  12.833 -0.5682  0.1440 -0.4515
  120TCq2    O5 1837   0.147   0.848  12.769  0.1017 -0.0273 -0.3386
  120TCq2    O6 1838   0.360   0.908  12.811  0.2276  0.3142 -0.0141
  120TCq2    H2 1839   0.088   1.134  12.818  3.1836  1.5784  0.0382
  120TCq2    H3 1840   0.257   0.839  13.067  0.6690  0.7687  1.1051
  120TCq2    H4 1841   0.036   1.152  13.242  1.3283 -1.5638  1.2680
  121TMC2    C1 1842   1.842   3.191  13.614  0.8285 -0.4923  0.5060
  121TMC2    C2 1843   1.796   3.079  13.677 -0.6629 -0.8270 -0.6107
  121TMC2    C3 1844   1.673   3.026  13.638  0.1689  0.1758  0.0281
  121TMC2    C4 1845   1.771   3.252  13.513 -0.4368  0.0015 -0.1455
  121TMC2    C5 1846   1.643   3.209  13.493 -0.3453  0.3629  0.7082
  121TMC2    C6 1847   1.587   3.108  13.560 -0.1253 -0.5386 -0.6132
  121TMC2     C 1848   1.962   3.253  13.674 -0.1652 -0.2527  0.2309
  121TMC2     O 1849   2.008   3.208  13.778  1.2463  0.4942 -0.2737
  121TMC2     H 1850   1.868   3.017  13.730 -1.0413 -0.8549 -0.1252
  121TMC2    H1 1851   1.803   3.347  13.474 -0.1768  0.5397  1.3502
  121TMC2    H2 1852   1.497   3.067  13.517  0.1063 -1.2038 -0.4609
  121TMC2    C7 1853   1.559   3.276  13.393 -0.7292  0.2401  0.7229
  121TMC2    C8 1854   1.662   2.883  13.632 -0.0341 -0.8750  0.6117
  121TMC2    O1 1855   1.611   3.330  13.297  0.2877 -0.0036 -0.2454
  121TMC2    O2 1856   1.626   2.840  13.520  0.7116 -0.4156  0.3390
  121TMC2    O5 1857   1.651   2.820  13.754 -0.4102 -0.0224 -0.0411
  121TMC2    H5 1858   1.660   2.884  13.827  1.0784 -0.4138  0.1402
  122MPD2     C 1859   2.174   3.445  13.742 -0.1627 -0.5363 -0.3991
  122MPD2    C1 1860   2.114   3.439  13.619  0.5506 -0.0383  0.5512
  122MPD2    C2 1861   2.158   3.522  13.513  0.6054  0.3935 -0.5138
  122MPD2    C3 1862   2.256   3.616  13.546  0.2797  0.8526 -0.3407
  122MPD2    C4 1863   2.325   3.609  13.667  0.0498  0.3330  0.1974
  122MPD2    C5 1864   2.289   3.515  13.760 -0.1398  0.6690 -0.3323
  122MPD2     H 1865   2.109   3.515  13.417  0.2575  0.6990 -0.3584
  122MPD2    H1 1866   2.419   3.657  13.689  1.3905 -1.7854 -0.9680
  122MPD2    H2 1867   2.144   3.378  13.822  0.0468 -0.5184 -0.3055
  122MPD2    H3 1868   2.333   3.506  13.859 -1.2660 -1.1850  0.0094
  122MPD2     N 1869   2.297   3.713  13.456  0.5435  0.1890 -0.6951
  122MPD2    H5 1870   2.383   3.761  13.483  1.6015 -1.8210 -0.5140
  122MPD2    N1 1871   2.010   3.350  13.585  0.0090  0.2473 -0.4158
  122MPD2    H7 1872   1.963   3.347  13.495  0.3696  0.8093 -0.6248
  123MPD2     C 1873   4.183   1.983   8.832  0.2181  1.0052 -0.4919
  123MPD2    C1 1874   4.211   2.098   8.893  0.2773 -0.0933  0.1320
  123MPD2    C2 1875   4.299   2.085   8.997  0.0972  0.2000  0.7636
  123MPD2    C3 1876   4.366   1.973   9.032 -0.5038  0.0192  0.0707
  123MPD2    C4 1877   4.337   1.858   8.969 -0.0473  0.1210 -0.1662
  123MPD2    C5 1878   4.233   1.860   8.874 -0.8235  0.1278  0.4513
  123MPD2     H 1879   4.332   2.167   9.058 -0.7002  2.3005 -1.6313
  123MPD2    H1 1880   4.381   1.762   8.996 -0.8118  0.4173  2.1137
  123MPD2    H2 1881   4.119   1.995   8.745 -0.2115  1.1626 -0.1587
  123MPD2    H3 1882   4.191   1.773   8.826 -1.8864  0.0223  1.5764
  123MPD2     N 1883   4.450   1.988   9.143 -0.0129  0.7070 -0.6462
  123MPD2    H5 1884   4.470   2.082   9.175  2.3825 -0.0650  0.1721
  123MPD2    N1 1885   4.132   2.213   8.857  0.0187 -0.3054  0.0767
  123MPD2    H7 1886   4.050   2.203   8.799 -1.5642 -1.2360  2.4839
  124TCq2    C1 1887   4.528   1.885   9.197 -0.0830 -0.8296 -0.0371
  124TCq2    O2 1888   4.505   1.765   9.202 -0.0852  0.4946  0.6232
  124TCq2    C2 1889   4.638   1.921   9.281  0.2977 -0.0574  0.7006
  124TCq2    C3 1890   4.697   2.044   9.280 -0.1230  0.0492  1.0145
  124TCq2    C4 1891   0.102   2.058   9.314  0.8935  0.0980  0.3675
  124TCq2    C5 1892   0.170   1.950   9.368  0.1511 -0.2611 -0.0586
  124TCq2    C6 1893   0.111   1.829   9.381  0.3477  0.3087  0.5767
  124TCq2    C7 1894   4.710   1.814   9.333 -0.0488  0.1938  0.0382
  124TCq2    C8 1895   0.159   1.725   9.468 -1.0995 -0.2260  0.4777
  124TCq2    O4 1896   0.083   1.633   9.493 -0.0113 -0.3142 -0.0687
  124TCq2    C9 1897   0.164   2.186   9.306 -0.1842  0.7735  0.4361
  124TCq2    O5 1898   0.292   2.193   9.314  0.2599  0.3212 -0.0652
  124TCq2    O6 1899   0.093   2.285   9.271 -0.3219 -0.2523  0.6953
  124TCq2    H2 1900   4.640   2.129   9.245  0.0116 -0.9992 -1.7302
  124TCq2    H3 1901   0.266   1.973   9.414  0.4005  1.0880 -1.2509
  124TCq2    H4 1902   4.664   1.716   9.338 -0.6795  0.5586  1.4397
  125TMC2    C1 1903   1.187   3.682   9.450  0.4026 -0.0709 -0.8577
  125TMC2    C2 1904   1.139   3.721   9.330  0.3197  0.6759  0.3251
  125TMC2    C3 1905   1.197   3.679   9.217 -0.0735  1.0357  0.8160
  125TMC2    C4 1906   1.300   3.607   9.465 -0.2685 -0.1719 -0.3495
  125TMC2    C5 1907   1.365   3.585   9.348  0.2989 -0.0306  0.4203
  125TMC2    C6 1908   1.311   3.613   9.225  0.0578 -0.9342 -0.4063
  125TMC2     C 1909   1.080   3.667   9.546 -0.5052  0.4476 -0.4787
  125TMC2     O 1910   0.969   3.630   9.505  0.2544  0.3166 -0.3480
  125TMC2     H 1911   1.055   3.789   9.319 -1.3852 -1.7983 -1.8467
  125TMC2    H1 1912   1.342   3.584   9.562 -0.5436 -0.6550 -0.3448
  125TMC2    H2 1913   1.361   3.581   9.134  1.1344 -1.6912  0.4538
  125TMC2    C7 1914   1.490   3.514   9.358 -0.2111  0.1674 -0.0237
  125TMC2    C8 1915   1.197   3.769   9.110  1.1710  1.1735 -0.7750
  125TMC2    O1 1916   1.521   3.464   9.467  0.0917  0.0892 -0.3986
  125TMC2    O2 1917   1.239   3.743   8.998 -0.3724 -0.0269 -0.0560
  125TMC2    O5 1918   1.227   3.880   9.174  0.2781 -0.1962 -0.1024
  125TMC2    H5 1919   1.168   3.896   9.251  0.5968  1.5382 -0.2274
  126MPD1     C 1920   0.882   3.729  10.007  0.0218  0.1462  0.0916
  126MPD1    C1 1921   1.019   3.752  10.020  0.2195  0.6560  0.9834
  126MPD1    C2 1922   1.097   3.744   9.899  0.9886 -0.1893  0.1595
  126MPD1    C3 1923   1.039   3.702   9.790  0.1059 -0.4058 -1.0477
  126MPD1    C4 1924   0.903   3.675   9.777  0.0868  0.2710  0.4385
  126MPD1    C5 1925   0.826   3.689   9.888 -0.0920 -0.2567  0.5083
  126MPD1     H 1926   1.203   3.768   9.897  1.2082 -1.1982 -0.3866
  126MPD1    H1 1927   0.854   3.641   9.687  0.5369  2.4382 -0.6137
  126MPD1    H2 1928   0.816   3.734  10.093 -0.7037  0.5673 -0.4884
  126MPD1    H3 1929   0.722   3.660   9.887 -0.4789  1.2005 -1.8169
  126MPD1     N 1930   1.123   3.697   9.674 -0.5153 -0.3904 -0.3085
  126MPD1    H5 1931   1.221   3.720   9.684 -0.1563 -1.6581 -0.9255
  126MPD1    N1 1932   1.071   3.780  10.149  0.1498 -0.8631 -0.2505
  126MPD1    H6 1933   1.077   3.693  10.202  1.8201  0.7386  2.2240
  126MPD1    H7 1934   1.163   3.820  10.138  0.4076 -1.2809  0.3425
  127MPD2     C 1935   2.596   2.325   9.033 -0.0061  0.0080 -0.0095
  127MPD2    C1 1936   2.582   2.329   9.171 -0.4214  0.0925  1.2491
  127MPD2    C2 1937   2.635   2.443   9.236  0.3292  0.6468 -0.4037
  127MPD2    C3 1938   2.709   2.541   9.171  0.3765  0.3378  0.1122
  127MPD2    C4 1939   2.734   2.524   9.037  0.2846 -0.1510 -0.0095
  127MPD2    C5 1940   2.668   2.422   8.967  0.5136 -1.2517  0.2528
  127MPD2     H 1941   2.614   2.461   9.341 -0.8388 -2.2644 -0.1195
  127MPD2    H1 1942   2.795   2.586   8.973 -1.0293 -1.5301 -2.5969
  127MPD2    H2 1943   2.557   2.243   8.974 -0.4467 -0.1148  0.4464
  127MPD2    H3 1944   2.681   2.404   8.861 -0.8174 -1.8168  0.1819
  127MPD2     N 1945   2.748   2.659   9.246  0.6893  0.5077 -0.1467
  127MPD2    H5 1946   2.737   2.657   9.346  0.5023 -0.9688 -0.1929
  127MPD2    N1 1947   2.513   2.219   9.233  0.2431  0.0013 -0.1990
  127MPD2    H7 1948   2.461   2.157   9.171  1.0499 -1.0155  0.1412
  128TCq2    C1 1949   2.518   2.186   9.363  0.3156  0.4803  0.0077
  128TCq2    O2 1950   2.573   2.249   9.457  0.9162 -0.2584 -0.3194
  128TCq2    C2 1951   2.448   2.060   9.390 -0.2236  0.4645  0.0539
  128TCq2    C3 1952   2.477   1.988   9.500 -0.5227  0.0145  0.3412
  128TCq2    C4 1953   2.418   1.873   9.525  0.1749  0.6126  0.7849
  128TCq2    C5 1954   2.312   1.827   9.452  0.2347 -0.2878  0.4073
  128TCq2    C6 1955   2.285   1.900   9.338 -0.2837 -0.5374 -0.4329
  128TCq2    C7 1956   2.355   2.014   9.308 -0.3977  0.5262 -0.1678
  128TCq2    C8 1957   2.152   1.886   9.277 -0.2742 -0.6746 -0.6569
  128TCq2    O4 1958   2.134   1.947   9.171 -0.1843 -0.1931 -0.1545
  128TCq2    C9 1959   2.460   1.791   9.646 -0.2429  0.1205  0.3687
  128TCq2    O5 1960   2.564   1.833   9.707  0.1353  0.5107  0.1194
  128TCq2    O6 1961   2.390   1.692   9.677  0.0644 -0.0006  0.0886
  128TCq2    H2 1962   2.534   2.036   9.579 -2.0111 -1.2532  2.1441
  128TCq2    H3 1963   2.270   1.728   9.450 -0.4920 -0.0100  1.9082
  128TCq2    H4 1964   2.331   2.073   9.220 -1.2259  0.9564  0.3431
  129MPD2     C 1965   4.668   3.665   0.855  0.1592 -0.7654  0.0450
  129MPD2    C1 1966   0.047   3.717   0.926  0.4480 -0.5322 -0.6850
  129MPD2    C2 1967   0.124   3.811   0.863 -0.5838  0.1001  0.5123
  129MPD2    C3 1968   0.107   3.846   0.735 -0.1468 -0.5321  0.4387
  129MPD2    C4 1969   0.009   3.788   0.660 -0.5138  0.0035  0.7799
  129MPD2    C5 1970   4.650   3.705   0.729  0.8407  0.5668 -0.1057
  129MPD2     H 1971   0.194   3.864   0.925  1.0463  0.2156 -1.4292
  129MPD2    H1 1972   4.705   3.818   0.561 -1.3196  0.1906  1.0829
  129MPD2    H2 1973   4.596   3.598   0.901  1.4587 -0.0786  3.1031
  129MPD2    H3 1974   4.571   3.650   0.681  0.1438  2.6973 -1.3840
  129MPD2     N 1975   0.197   3.944   0.681 -0.0338  0.1483 -0.4370
  129MPD2    H5 1976   0.269   3.983   0.742 -0.5542  2.1805 -1.1164
  129MPD2    N1 1977   0.076   3.682   1.058 -0.0210  0.1883 -0.0737
  129MPD2    H7 1978   0.149   3.737   1.103 -0.9822  0.6613  0.9280
  130TCq2    C1 1979   0.022   3.572   1.123  0.7845 -0.4145 -0.1799
  130TCq2    O2 1980   4.662   3.492   1.082  0.4277  0.0956 -0.0524
  130TCq2    C2 1981   0.091   3.543   1.250  0.3303  0.1835 -0.0759
  130TCq2    C3 1982   0.207   3.600   1.296  0.1449 -0.0904  0.5297
  130TCq2    C4 1983   0.283   3.534   1.386 -0.0728 -0.6867  0.2872
  130TCq2    C5 1984   0.235   3.418   1.452 -0.0323  0.5358  0.2394
  130TCq2    C6 1985   0.124   3.369   1.407 -0.0298  0.1137  0.2646
  130TCq2    C7 1986   0.049   3.420   1.306 -0.2998 -0.2760 -0.3390
  130TCq2    C8 1987   0.072   3.258   1.473  1.0248 -0.0560 -0.7070
  130TCq2    O4 1988   4.691   3.223   1.428 -0.3553  0.4189  0.3760
  130TCq2    C9 1989   0.413   3.589   1.427 -0.5780  0.9430  0.3621
  130TCq2    O5 1990   0.445   3.702   1.380  0.2535 -0.2052  0.2802
  130TCq2    O6 1991   0.459   3.526   1.525 -0.0258  0.6983  0.1322
  130TCq2    H2 1992   0.251   3.693   1.262  0.3021 -0.2644  0.2613
  130TCq2    H3 1993   0.296   3.373   1.530 -0.5047  1.0997  0.9327
  130TCq2    H4 1994   4.683   3.377   1.269 -2.2967  1.9890  2.0280
  131MPD2     C 1995   4.025   3.169   9.218 -0.3136 -0.2131 -0.1486
  131MPD2    C1 1996   4.146   3.101   9.203  0.7981 -0.9030 -0.4159
  131MPD2    C2 1997   4.154   2.999   9.113 -0.4553 -0.1348  0.0669
  131MPD2    C3 1998   4.039   2.953   9.051  0.7208  0.2198 -0.4151
  131MPD2    C4 1999   3.923   3.013   9.070  0.2744  1.0626  0.4263
  131MPD2    C5 2000   3.916   3.125   9.149  0.1774 -0.0548  0.2109
  131MPD2     H 2001   4.249   2.959   9.080  1.1817  3.5570  0.3129
  131MPD2    H1 2002   3.830   2.979   9.028  1.3691 -0.0448 -1.1225
  131MPD2    H2 2003   4.019   3.258   9.279 -4.2721 -1.6762  1.6015
  131MPD2    H3 2004   3.816   3.166   9.160 -1.2779 -3.4280 -0.5159
  131MPD2     N 2005   4.052   2.836   8.974  0.1145  0.0518  0.1657
  131MPD2    H5 2006   4.144   2.794   8.967  0.0935 -0.1097  0.8461
  131MPD2    N1 2007   4.266   3.156   9.266 -0.3515  0.1581  0.0561
  131MPD2    H7 2008   4.254   3.239   9.323 -0.4062  0.3264 -0.2017
  132TCq2    C1 2009   0.099   3.076   9.314 -0.1355 -0.0163 -0.7087
  132TCq2    O2 2010   0.078   2.957   9.307 -0.8603 -0.6609  0.0821
  132TCq2    C2 2011   4.718   3.167   9.348  0.1748 -0.0141 -0.2262
  132TCq2    C3 2012   0.004   3.303   9.326 -0.1690 -0.0634  0.5514
  132TCq2    C4 2013   4.618   3.368   9.304  0.3783 -0.0636  0.2624
  132TCq2    C5 2014   4.495   3.307   9.281  0.7131 -0.1159  0.3977
  132TCq2    C6 2015   4.484   3.177   9.321  0.4653  0.7433  0.2183
  132TCq2    C7 2016   4.593   3.105   9.362 -0.4739  0.5409  0.4936
  132TCq2    C8 2017   4.383   3.088   9.279 -0.6716 -0.1982 -0.4265
  132TCq2    O4 2018   4.407   2.973   9.247  0.2296  0.0093 -0.4460
  132TCq2    C9 2019   4.628   3.502   9.259 -0.6082 -0.5499  0.4372
  132TCq2    O5 2020   0.012   3.559   9.272 -0.1840 -0.4243 -0.1360
  132TCq2    O6 2021   4.525   3.559   9.216 -0.9915  0.5176 -0.1666
  132TCq2    H2 2022   0.097   3.358   9.333  0.5682 -0.9677 -2.2554
  132TCq2    H3 2023   4.417   3.373   9.245  0.0353 -0.3571  1.4163
  132TCq2    H4 2024   4.580   3.001   9.389 -0.2426 -0.0664 -1.7412
  133MPD2     C 2025   2.621   2.068   8.621  0.3147 -0.1711 -0.5597
  133MPD2    C1 2026   2.704   1.997   8.709 -0.0512  0.3526 -0.5297
  133MPD2    C2 2027   2.812   2.067   8.761  0.1648 -0.1478  0.7550
  133MPD2    C3 2028   2.845   2.197   8.728 -0.0115 -0.3657 -0.2828
  133MPD2    C4 2029   2.763   2.261   8.640  0.5357 -0.1112 -0.6615
  133MPD2    C5 2030   2.654   2.198   8.581  0.2181 -0.0320  0.3612
  133MPD2     H 2031   2.872   2.013   8.833 -1.4344 -1.3567  1.1717
  133MPD2    H1 2032   2.785   2.365   8.619 -2.0875  0.9975  2.1023
  133MPD2    H2 2033   2.535   2.023   8.574 -0.3259 -0.3194  0.7545
  133MPD2    H3 2034   2.594   2.264   8.520  3.3285  0.3072 -2.3309
  133MPD2     N 2035   2.945   2.270   8.790 -0.3361  0.2100 -0.5721
  133MPD2    H5 2036   2.944   2.368   8.761 -1.9658  0.5017  0.4901
  133MPD2    N1 2037   2.674   1.864   8.745  0.0772 -0.0414  0.1099
  133MPD2    H7 2038   2.588   1.820   8.713  1.3907 -0.2488 -3.1875
  134TCq2    C1 2039   2.747   1.774   8.818  0.3139 -0.0774 -0.2648
  134TCq2    O2 2040   2.858   1.787   8.865  0.2901 -0.3372  0.0537
  134TCq2    C2 2041   2.694   1.638   8.817  0.1654 -0.1261 -0.1902
  134TCq2    C3 2042   2.580   1.610   8.745  0.1366  0.6517  0.6221
  134TCq2    C4 2043   2.528   1.486   8.769 -0.4940  0.2905  0.9567
  134TCq2    C5 2044   2.576   1.405   8.869  0.1101 -0.8732 -0.8912
  134TCq2    C6 2045   2.679   1.442   8.948 -0.4511  0.1783 -0.5253
  134TCq2    C7 2046   2.736   1.565   8.922  0.5871  0.5734 -1.1336
  134TCq2    C8 2047   2.742   1.362   9.046 -0.2200 -0.2134 -0.3699
  134TCq2    O4 2048   2.856   1.383   9.077  0.1559  0.6967  0.0586
  134TCq2    C9 2049   2.405   1.451   8.693 -0.2483 -0.5167 -0.0251
  134TCq2    O5 2050   2.352   1.341   8.728  0.3459  0.4343  0.0877
  134TCq2    O6 2051   2.357   1.534   8.618  0.0475  0.1523  0.2641
  134TCq2    H2 2052   2.553   1.664   8.655  2.1908 -1.3836 -1.2168
  134TCq2    H3 2053   2.528   1.309   8.878 -2.2780  0.3766 -0.2903
  134TCq2    H4 2054   2.812   1.605   8.988 -0.4533 -1.2290  1.1810
  135MPD2     C 2055   1.936   3.929   8.959  1.0065  0.0161 -0.5636
  135MPD2    C1 2056   2.046   3.880   9.028 -0.0072 -0.8850 -0.3463
  135MPD2    C2 2057   2.171   3.905   8.975 -1.0400  0.1312  0.4967
  135MPD2    C3 2058   2.184   3.975   8.859  0.0682  0.1323  0.0244
  135MPD2    C4 2059   2.071   4.022   8.788  0.5318 -0.1029 -0.0921
  135MPD2    C5 2060   1.951   4.002   8.842  0.1173 -0.6848  0.5116
  135MPD2     H 2061   2.262   3.874   9.024 -0.7943  0.3398  0.1777
  135MPD2    H1 2062   2.070   4.084   8.699  0.1764  1.4130  0.9660
  135MPD2    H2 2063   1.836   3.916   8.999  0.2618 -1.9518 -3.0822
  135MPD2    H3 2064   1.869   4.040   8.782 -0.9208  1.5147  3.3275
  135MPD2     N 2065   2.317   4.007   8.815 -0.8736 -0.2015  0.7052
  135MPD2    H5 2066   2.384   3.944   8.856  0.2049  0.4761 -0.0223
  135MPD2    N1 2067   2.032   3.796   9.141 -0.2166 -0.1226 -0.2373
  135MPD2    H7 2068   2.121   3.761   9.177  0.4377  1.6886 -0.0562
  136TCq2    C1 2069   1.919   3.803   9.218  0.4161  0.2192  0.2735
  136TCq2    O2 2070   1.817   3.870   9.205 -0.0980  0.1202 -0.5176
  136TCq2    C2 2071   1.932   3.734   9.347  0.2798 -0.3678  0.3059
  136TCq2    C3 2072   1.833   3.766   9.440  0.4888 -0.3232  0.1051
  136TCq2    C4 2073   1.822   3.697   9.553  0.2454  0.6824  0.6824
  136TCq2    C5 2074   1.917   3.604   9.592 -0.0528 -0.0532 -0.0413
  136TCq2    C6 2075   2.021   3.576   9.504 -0.1595  0.7173  0.8677
  136TCq2    C7 2076   2.034   3.642   9.380  0.0471  0.0554 -0.1056
  136TCq2    C8 2077   2.086   3.445   9.508  0.0985  0.4426 -0.4611
  136TCq2    O4 2078   2.200   3.427   9.466 -0.0071  0.2679 -0.3854
  136TCq2    C9 2079   1.719   3.733   9.650  1.0389  0.2395  0.0495
  136TCq2    O5 2080   1.708   3.654   9.746 -0.4242 -0.2258  0.2087
  136TCq2    O6 2081   1.634   3.825   9.615  0.1441  0.3525  0.3909
  136TCq2    H2 2082   1.774   3.854   9.419 -0.5263 -0.3078  3.0975
  136TCq2    H3 2083   1.925   3.554   9.687  0.2863  1.1842  0.5838
  136TCq2    H4 2084   2.112   3.606   9.314 -0.2522  0.7838 -0.8416
  137MPD2     C 2085   1.595   2.736   9.509  0.1076 -0.5176  0.1180
  137MPD2    C1 2086   1.716   2.705   9.459  0.3810 -0.1905  0.9213
  137MPD2    C2 2087   1.777   2.586   9.497  0.1733 -0.4943  0.3672
  137MPD2    C3 2088   1.714   2.501   9.586  0.2000  0.1229 -0.4050
  137MPD2    C4 2089   1.579   2.530   9.621 -0.2498  0.0397  0.1600
  137MPD2    C5 2090   1.524   2.642   9.578  0.0282 -0.0522  0.1764
  137MPD2     H 2091   1.879   2.559   9.472 -0.4039 -2.8588  0.5634
  137MPD2    H1 2092   1.514   2.468   9.683  1.8117 -0.7033  1.5805
  137MPD2    H2 2093   1.541   2.827   9.481  1.0008  0.5522  1.9082
  137MPD2    H3 2094   1.424   2.671   9.608 -0.7175 -0.7015 -1.6424
  137MPD2     N 2095   1.783   2.402   9.656 -0.7724  0.4229  0.3914
  137MPD2    H5 2096   1.884   2.406   9.658 -0.7015 -1.2164 -0.3569
  137MPD2    N1 2097   1.762   2.793   9.354 -0.5274  0.7631 -0.3492
  137MPD2    H7 2098   1.704   2.874   9.336 -0.2618  0.4871 -2.4525
  138TCq2    C1 2099   1.886   2.774   9.292 -0.0382  0.7675 -0.4919
  138TCq2    O2 2100   1.978   2.703   9.319 -0.4132  0.1383 -0.6533
  138TCq2    C2 2101   1.913   2.885   9.198  0.0863  0.0296 -0.6747
  138TCq2    C3 2102   2.038   2.904   9.153  0.2792  0.1926  0.6776
  138TCq2    C4 2103   2.050   2.985   9.041 -0.1194  0.1057 -0.0909
  138TCq2    C5 2104   1.945   3.042   8.983  0.5942 -0.3282 -0.2388
  138TCq2    C6 2105   1.823   3.032   9.037 -0.1133  0.0270  0.8058
  138TCq2    C7 2106   1.801   2.959   9.154 -0.0372  0.7916 -0.8449
  138TCq2    C8 2107   1.722   3.117   8.971  0.5425 -0.2583 -0.3668
  138TCq2    O4 2108   1.735   3.141   8.850  0.5429  0.5267  0.5615
  138TCq2    C9 2109   2.185   3.003   8.993  0.1583 -0.0141  0.5774
  138TCq2    O5 2110   2.201   3.068   8.884 -0.5755  0.2048 -0.3438
  138TCq2    O6 2111   2.278   2.939   9.051  0.0362 -0.3269  0.0357
  138TCq2    H2 2112   2.123   2.840   9.176  0.6589  0.0233 -1.1472
  138TCq2    H3 2113   1.970   3.105   8.898  0.3892  1.1540  0.8054
  138TCq2    H4 2114   1.700   2.945   9.190 -0.1944  0.3682 -1.4469
  139TMC2    C1 2115   1.981   1.462  13.536 -0.1904 -0.2743 -0.5090
  139TMC2    C2 2116   2.063   1.464  13.648  0.2982  0.4794 -0.4673
  139TMC2    C3 2117   2.077   1.584  13.713 -0.6561 -0.2880 -0.2621
  139TMC2    C4 2118   1.915   1.568  13.488  0.4315  0.0650  0.0725
  139TMC2    C5 2119   1.942   1.685  13.554  0.6459 -0.0113  0.3534
  139TMC2    C6 2120   2.018   1.699  13.665 -0.0818  0.1473  0.0785
  139TMC2     C 2121   1.914   1.338  13.502 -0.0737  0.1581  0.0370
  139TMC2     O 2122   1.804   1.349  13.449  0.5221 -0.0870  0.4223
  139TMC2     H 2123   2.114   1.377  13.688  0.2377 -0.1396 -1.7297
  139TMC2    H1 2124   1.841   1.573  13.410 -0.0835 -0.9318  0.4934
  139TMC2    H2 2125   2.021   1.793  13.718 -0.4937  0.2860 -0.1505
  139TMC2    C7 2126   1.863   1.799  13.506  0.1586  0.0089  0.6152
  139TMC2    C8 2127   2.148   1.585  13.836 -0.2946 -0.3508 -0.5573
  139TMC2    O1 2128   1.749   1.771  13.473  0.4754  0.7804  0.3403
  139TMC2    O2 2129   2.166   1.490  13.910  0.4482  0.8677 -0.3221
  139TMC2    O5 2130   2.215   1.702  13.846  0.3064  0.2323  0.1540
  139TMC2    H5 2131   2.185   1.781  13.796  0.6299  1.0355  1.2336
  140MPD2     C 2132   1.819   1.049  13.483 -0.0823 -0.0665  0.6736
  140MPD2    C1 2133   1.948   1.092  13.506  0.1015 -0.0942 -0.1013
  140MPD2    C2 2134   2.039   1.000  13.526  1.0838  0.4153 -0.3259
  140MPD2    C3 2135   2.006   0.865  13.536  0.2623  0.3715 -0.2254
  140MPD2    C4 2136   1.875   0.819  13.509 -0.1816 -0.1770 -0.0525
  140MPD2    C5 2137   1.781   0.916  13.481 -0.0430  0.4893  0.3261
  140MPD2     H 2138   2.142   1.034  13.531  1.3691 -0.3914 -0.7157
  140MPD2    H1 2139   1.843   0.716  13.501 -0.2690 -0.0969 -0.7426
  140MPD2    H2 2140   1.739   1.115  13.450  2.0526  1.7828 -0.8182
  140MPD2    H3 2141   1.680   0.890  13.453  1.0925 -2.4238 -1.0615
  140MPD2     N 2142   2.114   0.776  13.581 -0.5418  0.1970  0.5780
  140MPD2    H5 2143   2.210   0.808  13.595 -0.3908 -0.0411  0.0767
  140MPD2    N1 2144   1.991   1.229  13.506 -0.5193 -0.0109 -0.2700
  140MPD2    H7 2145   2.091   1.247  13.504 -0.9382  2.3021 -0.0387
  141TCq2    C1 2146   2.310   2.545  14.125 -0.0645 -0.0604 -0.1314
  141TCq2    O2 2147   2.370   2.645  14.083  0.1509  0.6016  0.2573
  141TCq2    C2 2148   2.319   2.506  14.264 -0.3069 -0.4656  0.2606
  141TCq2    C3 2149   2.323   2.373  14.289 -0.0765 -0.0623 -0.5794
  141TCq2    C4 2150   2.328   2.333  14.421 -0.0359  0.0476 -0.9319
  141TCq2    C5 2151   2.309   2.423  14.524 -0.6191  0.4635 -0.3229
  141TCq2    C6 2152   2.289   2.557  14.493 -0.6351 -0.3154 -0.0030
  141TCq2    C7 2153   2.291   2.599  14.359  0.2148  0.5720 -0.5575
  141TCq2    C8 2154   2.279   2.658  14.604 -0.3304  0.5184  0.1081
  141TCq2    O4 2155   2.252   2.614  14.718 -0.3269 -0.1895 -0.1265
  141TCq2    C9 2156   2.361   2.199  14.448 -1.0006 -0.6564 -0.4134
  141TCq2    O5 2157   2.330   2.110  14.364  0.5943  0.5063 -0.1152
  141TCq2    O6 2158   2.380   2.171  14.567 -0.1768  0.1836  0.3324
  141TCq2    H2 2159   2.343   2.306  14.207  1.9522 -0.4019  0.2064
  141TCq2    H3 2160   2.316   2.389  14.627 -1.6524  0.4421 -0.2626
  141TCq2    H4 2161   2.282   2.703  14.329 -1.3840  0.3394 -0.8946
  142MPD2     C 2162   4.351   0.795   9.623 -0.0851 -0.0099  0.2491
  142MPD2    C1 2163   4.417   0.738   9.728 -0.4744  0.6353 -0.3491
  142MPD2    C2 2164   4.540   0.787   9.772  0.4689  1.1303  0.1607
  142MPD2    C3 2165   4.602   0.894   9.703 -0.4390  0.8263  0.2492
  142MPD2    C4 2166   4.528   0.957   9.603  0.4246 -0.1483  0.4418
  142MPD2    C5 2167   4.407   0.908   9.565  0.2390 -0.1390  0.1812
  142MPD2     H 2168   4.596   0.738   9.852 -0.3786  0.4755  0.3461
  142MPD2    H1 2169   4.575   1.040   9.551 -0.3052 -1.5623 -2.4334
  142MPD2    H2 2170   4.257   0.760   9.581 -0.6949  2.3913 -0.3804
  142MPD2    H3 2171   4.372   0.962   9.478  1.0095 -1.7965 -1.1632
  142MPD2     N 2172   0.008   0.940   9.728 -0.2455  0.2162  0.0715
  142MPD2    H5 2173   0.052   1.005   9.663  0.1898 -1.7301 -1.5452
  142MPD2    N1 2174   4.352   0.623   9.779  0.6599  0.1735 -0.2885
  142MPD2    H7 2175   4.259   0.603   9.744 -0.1685  2.1992  0.7657
  143TCq2    C1 2176   0.092   0.887   9.829  0.0848 -1.4663 -0.8164
  143TCq2    O2 2177   0.086   0.788   9.898 -0.4000 -0.3615 -0.0492
  143TCq2    C2 2178   0.211   0.968   9.823 -0.4233  0.1975 -0.2771
  143TCq2    C3 2179   0.335   0.912   9.844 -0.4509 -0.0915  0.3189
  143TCq2    C4 2180   0.441   0.997   9.863  0.6930 -0.1830  0.0589
  143TCq2    C5 2181   0.430   1.130   9.867  0.2869 -0.2004 -0.2320
  143TCq2    C6 2182   0.299   1.175   9.851  0.2238 -0.4794  0.1905
  143TCq2    C7 2183   0.188   1.095   9.822  0.6219  0.7861 -0.5286
  143TCq2    C8 2184   0.291   1.304   9.793  0.4486 -0.2540  0.2344
  143TCq2    O4 2185   0.195   1.377   9.803  0.9464 -0.0867  0.5967
  143TCq2    C9 2186   0.568   0.932   9.892 -0.1573  0.0486 -0.5480
  143TCq2    O5 2187   0.667   1.011   9.891 -0.7278  0.4599 -0.0789
  143TCq2    O6 2188   0.572   0.808   9.890 -0.1225  0.3703 -0.7640
  143TCq2    H2 2189   0.342   0.803   9.847 -1.0174 -0.1412 -0.0949
  143TCq2    H3 2190   0.514   1.191   9.898 -1.0817  1.5732 -0.0398
  143TCq2    H4 2191   0.090   1.138   9.809  0.4149  1.2413  2.3881
  144MPD2     C 2192   2.280   0.618   0.655 -0.3612 -0.2013  0.3517
  144MPD2    C1 2193   2.321   0.560   0.539 -0.6882 -0.0118  0.4493
  144MPD2    C2 2194   2.457   0.535   0.535 -0.6547  0.2328 -0.4975
  144MPD2    C3 2195   2.548   0.561   0.637 -0.1869  0.1810 -0.5683
  144MPD2    C4 2196   2.505   0.621   0.747  0.0652 -0.0465  0.0498
  144MPD2    C5 2197   2.369   0.639   0.757  0.0275  0.1139 -0.4674
  144MPD2     H 2198   2.495   0.494   0.442 -1.2540  0.4071 -0.8174
  144MPD2    H1 2199   2.573   0.638   0.830 -0.7477  0.0594  0.6866
  144MPD2    H2 2200   2.179   0.652   0.673  0.2543  1.2591  1.0656
  144MPD2    H3 2201   2.336   0.669   0.856  2.7633 -0.0630  0.4886
  144MPD2     N 2202   2.686   0.531   0.626  0.4676  0.0020 -0.3290
  144MPD2    H5 2203   2.743   0.551   0.708  0.3064  2.2556 -0.7668
  144MPD2    N1 2204   2.242   0.525   0.430  0.2637 -1.0325 -0.5505
  144MPD2    H7 2205   2.300   0.474   0.364 -2.1527 -3.9410 -0.4076
  145TCq2    C1 2206   2.755   0.467   0.526  0.2107  0.5703  0.4120
  145TCq2    O2 2207   2.710   0.430   0.420  0.8872 -0.2495 -0.3156
  145TCq2    C2 2208   2.898   0.475   0.554 -0.4859 -0.6140 -0.8826
  145TCq2    C3 2209   2.976   0.467   0.444 -0.2853  0.0713 -0.9244
  145TCq2    C4 2210   3.111   0.468   0.454 -0.2698 -0.1802  0.1971
  145TCq2    C5 2211   3.166   0.477   0.575  0.6150  0.3274 -0.2970
  145TCq2    C6 2212   3.091   0.485   0.690  0.2566  0.0553  0.5580
  145TCq2    C7 2213   2.956   0.475   0.678 -0.0825  0.5715  0.1497
  145TCq2    C8 2214   3.161   0.466   0.816 -0.1921 -0.1751 -0.3942
  145TCq2    O4 2215   3.280   0.437   0.818  0.3361 -0.2095 -0.1913
  145TCq2    C9 2216   3.197   0.430   0.340  0.1853  0.2082  0.8414
  145TCq2    O5 2217   3.321   0.414   0.355 -0.3921 -0.0524  0.2616
  145TCq2    O6 2218   3.133   0.366   0.246  0.4552 -0.6251  0.5831
  145TCq2    H2 2219   2.940   0.469   0.342 -0.1580 -3.9241 -1.0460
  145TCq2    H3 2220   3.272   0.462   0.589  0.3839 -1.2984 -0.2461
  145TCq2    H4 2221   2.897   0.461   0.768 -1.9273  0.2207 -1.1101
  146TMC2    C1 2222   4.098   3.743  12.533  0.3251  0.5804 -0.1810
  146TMC2    C2 2223   4.083   3.830  12.429 -1.0180  0.1242  0.3240
  146TMC2    C3 2224   4.119   3.779  12.312  0.1892  0.8702  0.3287
  146TMC2    C4 2225   4.137   3.603  12.525  0.4247 -0.1927 -0.4503
  146TMC2    C5 2226   4.177   3.558  12.400 -0.6978 -0.3721 -0.0423
  146TMC2    C6 2227   4.158   3.646  12.298  0.6568  0.2264 -0.5522
  146TMC2     C 2228   4.092   3.797  12.666  0.4670  0.3819 -0.3160
  146TMC2     O 2229   4.043   3.913  12.667 -0.3317 -0.4229  0.2185
  146TMC2     H 2230   4.054   3.933  12.446  2.1205  1.4130 -2.2490
  146TMC2    H1 2231   4.128   3.534  12.608  0.2577  0.4525  0.0673
  146TMC2    H2 2232   4.181   3.618  12.196 -0.7232 -1.0052 -0.5221
  146TMC2    C7 2233   4.233   3.430  12.376 -0.2962  0.1372  0.1284
  146TMC2    C8 2234   4.094   3.865  12.193  0.2536  0.3497  0.1989
  146TMC2    O1 2235   4.230   3.381  12.262  0.2072 -0.4988 -0.5380
  146TMC2    O2 2236   4.098   3.990  12.193 -0.0277  0.8019  0.0633
  146TMC2    O5 2237   4.041   3.797  12.093  0.1184  0.5061  0.2523
  146TMC2    H5 2238   4.019   3.703  12.109 -2.4616  1.0632 -0.0277
  147MPD2     C 2239   4.370   2.962  12.529 -0.0584  0.3506 -0.8504
  147MPD2    C1 2240   4.404   3.046  12.631 -0.2418 -0.6645 -0.4076
  147MPD2    C2 2241   4.373   3.182  12.622 -0.1309  0.2719 -0.3596
  147MPD2    C3 2242   4.311   3.227  12.503 -0.6115  0.4316  0.7110
  147MPD2    C4 2243   4.259   3.137  12.415  0.4794  0.3899 -0.4137
  147MPD2    C5 2244   4.290   3.008  12.425 -0.7513 -0.0304  0.2993
  147MPD2     H 2245   4.415   3.260  12.684  0.9619 -0.8082  0.2567
  147MPD2    H1 2246   4.199   3.167  12.331 -2.9055 -4.3666  0.3383
  147MPD2    H2 2247   4.384   2.855  12.534 -0.2563  0.4042  0.9546
  147MPD2    H3 2248   4.252   2.936  12.353 -0.2759  1.1325 -1.1154
  147MPD2     N 2249   4.287   3.370  12.494  0.1696  0.0133 -0.2693
  147MPD2    H5 2250   4.317   3.434  12.567 -2.8136  1.5286 -0.3855
  147MPD2    N1 2251   4.484   2.991  12.730 -0.5878  0.1722 -0.0227
  147MPD2    H7 2252   4.518   2.895  12.727  1.4318  0.8116  2.2361
  148MPD2     C 2253   0.297   1.188  10.215  0.1737  0.0228 -0.3467
  148MPD2    C1 2254   0.270   1.325  10.201  0.6520 -0.2463 -0.2959
  148MPD2    C2 2255   0.140   1.360  10.214 -0.2876 -0.1036  0.1462
  148MPD2    C3 2256   0.034   1.278  10.242  0.2630  0.2069 -0.0263
  148MPD2    C4 2257   0.065   1.139  10.241 -0.0018 -0.1551  0.2486
  148MPD2    C5 2258   0.194   1.102  10.250  0.2320  0.3127  0.0296
  148MPD2     H 2259   0.118   1.466  10.217  0.1396  0.0114 -1.0723
  148MPD2    H1 2260   4.714   1.064  10.250  1.3769 -1.6639 -0.4022
  148MPD2    H2 2261   0.398   1.155  10.193  0.3163 -0.3340  0.8095
  148MPD2    H3 2262   0.210   0.996  10.266  2.2292  0.3931 -1.4531
  148MPD2     N 2263   4.629   1.320  10.254  0.0115 -0.1849 -0.9057
  148MPD2    H5 2264   4.560   1.248  10.275 -0.5167  0.7030  0.3665
  148MPD2    N1 2265   0.365   1.424  10.177 -0.5497 -0.5950  0.0205
  148MPD2    H7 2266   0.343   1.523  10.184  1.0518 -0.3433  1.5255
  149TCq2    C1 2267   0.492   1.406  10.135  0.3555 -0.9889  0.2939
  149TCq2    O2 2268   0.557   1.304  10.117  0.6578 -0.4567 -0.2603
  149TCq2    C2 2269   0.562   1.530  10.089  0.2322  0.9093 -0.0899
  149TCq2    C3 2270   0.695   1.523  10.039  0.3455  0.2527 -0.9358
  149TCq2    C4 2271   0.747   1.638   9.991 -0.5726  0.4281  0.0371
  149TCq2    C5 2272   0.672   1.755   9.975 -0.2458 -0.3558  0.0357
  149TCq2    C6 2273   0.550   1.760  10.038  0.3663  0.1189  0.2782
  149TCq2    C7 2274   0.494   1.652  10.087 -0.3650 -0.8577  0.1336
  149TCq2    C8 2275   0.443   1.853  10.001  0.6952 -0.0371  0.0433
  149TCq2    O4 2276   0.339   1.865  10.074 -0.5085 -0.7344 -0.1719
  149TCq2    C9 2277   0.866   1.625   9.899 -0.2977  0.8438 -0.3327
  149TCq2    O5 2278   0.884   1.718   9.811 -0.0208 -0.1488  0.1666
  149TCq2    O6 2279   0.926   1.514   9.904 -0.9585 -0.3213 -0.1393
  149TCq2    H2 2280   0.739   1.425  10.029 -0.8618 -0.4915  0.9242
  149TCq2    H3 2281   0.713   1.840   9.920  0.7516 -0.3683  0.7575
  149TCq2    H4 2282   0.388   1.654  10.109 -0.0471  1.8103  1.4493
  150MPD2     C 2283   1.257   1.355  11.762  0.2247 -0.0484 -0.2151
  150MPD2    C1 2284   1.274   1.456  11.672 -0.1222 -0.6842  0.2359
  150MPD2    C2 2285   1.399   1.495  11.632  0.7547  0.5051 -0.6289
  150MPD2    C3 2286   1.508   1.437  11.688 -0.1485 -0.9394 -0.3802
  150MPD2    C4 2287   1.494   1.331  11.769 -0.0643  0.1622 -0.2226
  150MPD2    C5 2288   1.370   1.292  11.811 -0.5063 -0.6284 -0.8095
  150MPD2     H 2289   1.415   1.582  11.570  0.1490  0.7638 -0.4238
  150MPD2    H1 2290   1.577   1.272  11.806 -1.6700 -1.7157  0.4190
  150MPD2    H2 2291   1.161   1.325  11.803 -0.6553 -2.8059 -4.2292
  150MPD2    H3 2292   1.364   1.207  11.878 -2.2129  1.2902  1.4424
  150MPD2     N 2293   1.642   1.487  11.642 -0.0199  0.6042  0.3568
  150MPD2    H5 2294   1.639   1.569  11.581  2.0206  0.7426  0.4566
  150MPD2    N1 2295   1.151   1.513  11.624  0.0763 -0.1383 -0.3599
  150MPD2    H7 2296   1.069   1.474  11.670 -0.3898 -0.8289 -1.7501
  151TCq2    C1 2297   1.765   1.454  11.695 -0.2981  0.1851  0.4448
  151TCq2    O2 2298   1.793   1.364  11.770 -0.1518  0.2827  0.3696
  151TCq2    C2 2299   1.872   1.534  11.637 -0.1106 -0.1068  0.5038
  151TCq2    C3 2300   1.863   1.568  11.507 -0.3538 -0.1073  0.2983
  151TCq2    C4 2301   1.932   1.676  11.463 -0.2162  0.3226 -0.0924
  151TCq2    C5 2302   2.004   1.751  11.554 -0.3245 -0.3080 -0.0158
  151TCq2    C6 2303   2.014   1.703  11.684  0.0352 -0.4417 -0.3824
  151TCq2    C7 2304   1.956   1.589  11.727  0.2814 -0.6658 -0.0712
  151TCq2    C8 2305   2.104   1.779  11.777  0.7788  0.1432  0.1601
  151TCq2    O4 2306   2.140   1.886  11.731 -0.0914  0.1057 -0.1285
  151TCq2    C9 2307   1.904   1.732  11.333 -0.0866 -0.2806  0.1989
  151TCq2    O5 2308   1.927   1.855  11.322  0.1066 -0.7003 -0.2775
  151TCq2    O6 2309   1.870   1.657  11.244  0.1969 -0.6044 -0.5770
  151TCq2    H2 2310   1.788   1.515  11.449  0.8280  1.5087 -2.7409
  151TCq2    H3 2311   2.062   1.838  11.527 -1.1886 -0.4263 -2.2317
  151TCq2    H4 2312   1.953   1.568  11.833  4.6972 -1.5656 -0.1279
  152MPD2     C 2313   1.372   1.302  12.635 -1.0652  0.6340  0.4852
  152MPD2    C1 2314   1.394   1.368  12.519  0.0354  0.2188 -0.0817
  152MPD2    C2 2315   1.289   1.394  12.427  0.1928  1.1077  0.4359
  152MPD2    C3 2316   1.160   1.363  12.467  0.1742  0.5582  0.4268
  152MPD2    C4 2317   1.135   1.304  12.592 -0.0781  0.5668 -0.2535
  152MPD2    C5 2318   1.244   1.273  12.675  0.0455 -0.3697 -0.3829
  152MPD2     H 2319   1.304   1.438  12.329  0.1592  1.5486  0.6310
  152MPD2    H1 2320   1.035   1.276  12.625  0.1893  1.5459  1.4018
  152MPD2    H2 2321   1.465   1.277  12.686 -1.8944  0.5802  1.9698
  152MPD2    H3 2322   1.229   1.212  12.763 -0.3757 -1.6540 -1.3412
  152MPD2     N 2323   1.056   1.363  12.367 -0.8075 -0.0355 -0.4880
  152MPD2    H5 2324   1.085   1.409  12.282 -2.1292  0.7293 -0.5265
  152MPD2    N1 2325   1.526   1.410  12.502 -0.6296  0.7302  0.1797
  152MPD2    H7 2326   1.586   1.392  12.582  0.3377 -1.8922 -1.1477
  153TCq2    C1 2327   1.582   1.498  12.402 -0.2988  0.0457 -0.1738
  153TCq2    O2 2328   1.523   1.558  12.315 -0.2450  0.1339 -0.5326
  153TCq2    C2 2329   1.722   1.507  12.409 -0.6367  0.1159 -0.5615
  153TCq2    C3 2330   1.792   1.421  12.486  0.0492  0.3594 -0.4841
  153TCq2    C4 2331   1.922   1.442  12.515 -0.5512  0.0110  0.0872
  153TCq2    C5 2332   1.985   1.549  12.462  0.2502  0.7742  0.4713
  153TCq2    C6 2333   1.911   1.636  12.391  0.4129 -0.4257  0.1572
  153TCq2    C7 2334   1.776   1.615  12.352  0.1650  0.3106  0.2114
  153TCq2    C8 2335   1.974   1.755  12.337 -0.1660 -0.1641  0.7649
  153TCq2    O4 2336   1.923   1.798  12.237 -0.1819  0.6998  0.2341
  153TCq2    C9 2337   1.997   1.368  12.614 -0.5154 -0.2891 -0.3407
  153TCq2    O5 2338   2.123   1.391  12.635 -0.0456 -0.0757  0.1604
  153TCq2    O6 2339   1.940   1.269  12.668  0.2272  0.2591  0.2072
  153TCq2    H2 2340   1.740   1.338  12.531 -0.4844  0.5571 -0.7423
  153TCq2    H3 2341   2.089   1.558  12.494  0.3555 -0.5274  0.4984
  153TCq2    H4 2342   1.718   1.683  12.290  1.0222 -1.8735 -2.9482
  154MPD2     C 2343   2.621   1.570   0.155 -0.1590 -0.3502  0.2001
  154MPD2    C1 2344   2.691   1.687   0.182 -0.4572 -0.2669 -0.6667
  154MPD2    C2 2345   2.667   1.759   0.299 -0.5261 -0.5977  0.2493
  154MPD2    C3 2346   2.592   1.702   0.397  0.3820  0.1029 -0.1524
  154MPD2    C4 2347   2.529   1.585   0.375 -0.0479 -0.1736  0.2645
  154MPD2    C5 2348   2.550   1.523   0.255 -0.1926 -0.3129  0.2799
  154MPD2     H 2349   2.727   1.847   0.321 -3.1262  0.9375  1.1542
  154MPD2    H1 2350   2.472   1.533   0.451  2.7763 -0.9792  1.7977
  154MPD2    H2 2351   2.637   1.510   0.066  2.1149  0.4437  0.0813
  154MPD2    H3 2352   2.500   1.428   0.241  0.8008 -1.1643  2.5983
  154MPD2     N 2353   2.581   1.773   0.517  0.1358 -0.4665 -0.2373
  154MPD2    H5 2354   2.615   1.868   0.518 -2.2073  0.3538  1.2069
  154MPD2    N1 2355   2.784   1.736   0.086 -0.2014 -0.4673  0.0007
  154MPD2    H7 2356   2.812   1.680   0.007  0.5224  1.0738 -0.8302
  155TCq2    C1 2357   2.829   1.871   0.077  0.0897 -0.2798  1.1701
  155TCq2    O2 2358   2.805   1.969   0.144 -0.0209  0.4337  0.2793
  155TCq2    C2 2359   2.932   1.890  17.682 -0.3804  0.2036  0.7286
  155TCq2    C3 2360   3.020   1.792  17.636 -0.0541 -0.1981  0.6949
  155TCq2    C4 2361   3.108   1.826  17.539  0.1140 -0.9531  0.4110
  155TCq2    C5 2362   3.136   1.956  17.503 -0.2868 -0.4114  0.6729
  155TCq2    C6 2363   3.073   2.049  17.579 -0.1545 -0.2510 -0.7034
  155TCq2    C7 2364   2.964   2.018  17.657  0.1433 -0.4611  0.0536
  155TCq2    C8 2365   3.110   2.187  17.564 -0.3300  0.1576 -0.0127
  155TCq2    O4 2366   3.192   2.225  17.485 -0.1405 -0.0214 -0.2298
  155TCq2    C9 2367   3.183   1.718  17.477  0.3520  0.3015  0.8764
  155TCq2    O5 2368   3.231   1.742  17.365  0.8321 -0.4162 -0.1577
  155TCq2    O6 2369   3.168   1.604  17.529  0.1053  0.4984  0.3696
  155TCq2    H2 2370   2.999   1.688  17.656 -1.4947  0.1208  0.8301
  155TCq2    H3 2371   3.226   1.962  17.443 -0.5586 -2.0959  0.1120
  155TCq2    H4 2372   2.904   2.090   0.002  2.9236 -0.7831  3.6287
  156MPD2     C 2373   1.711   3.334  11.777 -0.8281 -0.1641 -0.4510
  156MPD2    C1 2374   1.629   3.397  11.684 -0.7031  0.4720  0.8124
  156MPD2    C2 2375   1.566   3.511  11.726 -0.7248 -0.7349 -0.5202
  156MPD2    C3 2376   1.561   3.555  11.860  0.4543  0.3367 -0.5779
  156MPD2    C4 2377   1.622   3.475  11.945 -0.5295 -0.3885  0.1075
  156MPD2    C5 2378   1.703   3.368  11.911  0.4167 -0.0314 -0.0398
  156MPD2     H 2379   1.522   3.565  11.643 -0.1463 -0.1374 -0.4434
  156MPD2    H1 2380   1.628   3.495  12.051 -0.6889  1.2908 -0.2019
  156MPD2    H2 2381   1.768   3.250  11.739  0.2969  0.0150  0.8584
  156MPD2    H3 2382   1.743   3.309  11.992 -0.9607  0.2704  0.8600
  156MPD2     N 2383   1.518   3.687  11.882  0.1306  0.3650  0.2714
  156MPD2    H5 2384   1.486   3.746  11.806  1.2088 -0.5647 -0.9001
  156MPD2    N1 2385   1.628   3.354  11.551 -0.2804  0.3626  0.4791
  156MPD2    H7 2386   1.680   3.271  11.526  0.5758  1.5322 -1.6694
  157TCq2    C1 2387   1.547   3.410  11.455  0.0872 -0.8958 -0.1355
  157TCq2    O2 2388   1.438   3.463  11.463  0.0947 -0.0567  0.0939
  157TCq2    C2 2389   1.582   3.369  11.318 -0.4656  1.0959 -0.2037
  157TCq2    C3 2390   1.704   3.314  11.293 -0.1856  0.0422 -0.1137
  157TCq2    C4 2391   1.784   3.347  11.188  0.2595  0.5620 -0.2881
  157TCq2    C5 2392   1.744   3.438  11.104 -0.2932  0.6613  0.9335
  157TCq2    C6 2393   1.616   3.488  11.120 -0.0266 -0.4135  0.5893
  157TCq2    C7 2394   1.533   3.451  11.224  0.0092 -0.3781 -0.0636
  157TCq2    C8 2395   1.586   3.618  11.054  0.0664 -0.2077  0.2168
  157TCq2    O4 2396   1.685   3.690  11.033 -0.9718 -0.0354  0.0808
  157TCq2    C9 2397   1.910   3.274  11.168 -0.2227  0.0062 -0.6725
  157TCq2    O5 2398   1.984   3.302  11.069 -0.0867 -0.0667 -0.2886
  157TCq2    O6 2399   1.949   3.204  11.261  0.3593  0.2199  0.3232
  157TCq2    H2 2400   1.743   3.242  11.364 -0.9149 -1.3329 -1.1112
  157TCq2    H3 2401   1.794   3.459  11.011  1.9346  0.5256  2.0886
  157TCq2    H4 2402   1.437   3.499  11.240 -1.1693 -2.8731  0.4306
  158TMC2    C1 2403   1.875   3.155  13.072 -0.2243  0.5690 -0.3847
  158TMC2    C2 2404   1.881   3.282  13.022  0.2403  0.2833 -0.3051
  158TMC2    C3 2405   1.846   3.302  12.889  0.1241  0.2112  0.6543
  158TMC2    C4 2406   1.836   3.045  12.992 -0.8736 -0.6210  0.2443
  158TMC2    C5 2407   1.807   3.066  12.860  0.7629 -0.6542  0.0291
  158TMC2    C6 2408   1.813   3.199  12.809 -0.7963  0.5661  0.0558
  158TMC2     C 2409   1.925   3.135  13.209  0.0385 -0.6552  0.0326
  158TMC2     O 2410   1.988   3.226  13.256  0.4929  0.3080  0.3147
  158TMC2     H 2411   1.900   3.373  13.078 -0.3228  0.2277 -0.0243
  158TMC2    H1 2412   1.840   2.946  13.037 -0.3555  0.0133  1.6192
  158TMC2    H2 2413   1.810   3.214  12.701  0.9836 -1.0261 -0.2191
  158TMC2    C7 2414   1.710   2.984  12.801 -0.0968 -0.0554  0.2943
  158TMC2    C8 2415   1.894   3.433  12.846 -0.9280  0.1900 -0.4295
  158TMC2    O1 2416   1.681   2.996  12.680  0.5737  0.0546 -0.1259
  158TMC2    O2 2417   1.985   3.488  12.909 -0.1636 -0.9335  0.3574
  158TMC2    O5 2418   1.871   3.452  12.714  0.1482  0.3463  0.3799
  158TMC2    H5 2419   1.788   3.412  12.681  2.7497 -1.7500 -3.5560
  159MPD2     C 2420   2.065   2.828  13.598 -0.3515  0.1138  0.3687
  159MPD2    C1 2421   1.975   2.759  13.521  0.4815 -0.5993  0.7508
  159MPD2    C2 2422   1.918   2.818  13.412 -0.0958 -0.1771  0.4077
  159MPD2    C3 2423   1.960   2.943  13.368  0.1870 -0.1824  0.6071
  159MPD2    C4 2424   2.065   2.997  13.434  0.7891 -0.5104  0.1719
  159MPD2    C5 2425   2.112   2.946  13.548 -0.2422  0.9027  0.0084
  159MPD2     H 2426   1.838   2.759  13.369  0.7488 -0.4875 -0.7448
  159MPD2    H1 2427   2.115   3.087  13.400  2.0356 -1.6227 -0.9959
  159MPD2    H2 2428   2.119   2.787  13.683 -1.4149  0.2980  1.1262
  159MPD2    H3 2429   2.194   2.993  13.601  0.1885  0.5373 -0.3252
  159MPD2     N 2430   1.897   3.009  13.257  0.6057  0.1763  0.0694
  159MPD2    H5 2431   1.823   2.959  13.207 -1.2721  1.7613  1.2743
  159MPD2    N1 2432   1.932   2.634  13.581 -0.0176  0.0280  0.0405
  159MPD2    H7 2433   1.961   2.617  13.677  1.7625  2.5781 -0.0368
  160TMC2    C1 2434   1.157   1.108   0.866  0.0130  0.3651  0.5771
  160TMC2    C2 2435   1.162   1.079   0.998 -0.5320  0.2350  0.6994
  160TMC2    C3 2436   1.288   1.058   1.050  0.5788  0.8726  0.1160
  160TMC2    C4 2437   1.269   1.107   0.783 -0.4997  0.4152  0.4200
  160TMC2    C5 2438   1.394   1.091   0.841  0.1577 -0.2569 -0.2374
  160TMC2    C6 2439   1.405   1.056   0.972 -0.1387 -0.1425  0.1509
  160TMC2     C 2440   1.039   1.163   0.799  0.8102  0.5562 -0.0005
  160TMC2     O 2441   1.026   1.135   0.679  0.1585 -0.1393 -0.0920
  160TMC2     H 2442   1.070   1.086   1.054 -1.8699 -1.6489 -1.2833
  160TMC2    H1 2443   1.266   1.143   0.681 -2.1359  2.7065  1.2782
  160TMC2    H2 2444   1.502   1.030   1.013  0.4557 -1.9799 -2.4307
  160TMC2    C7 2445   1.510   1.109   0.756 -0.5371  0.0259 -0.1479
  160TMC2    C8 2446   1.289   1.026   1.194 -0.4224 -0.3730 -0.2458
  160TMC2    O1 2447   1.493   1.078   0.638 -0.3680 -0.1075 -0.2981
  160TMC2    O2 2448   1.377   0.956   1.245  0.1457 -0.1786 -0.4240
  160TMC2    O5 2449   1.167   1.050   1.242 -0.1656  0.1836 -0.3404
  160TMC2    H5 2450   1.131   1.125   1.190  0.2523 -0.4014 -1.4764
  161MPD2     C 2451   0.763   1.219   0.742  0.0532 -0.3281  0.7989
  161MPD2    C1 2452   0.824   1.286   0.842  0.0748 -1.1218 -0.5793
  161MPD2    C2 2453   0.753   1.395   0.900 -0.2625  0.9531 -0.9267
  161MPD2    C3 2454   0.622   1.417   0.868 -0.3242 -0.1919 -0.2127
  161MPD2    C4 2455   0.566   1.333   0.773  1.0009  0.0410  0.8140
  161MPD2    C5 2456   0.637   1.239   0.711  0.8330  0.2772 -0.3833
  161MPD2     H 2457   0.809   1.449   0.976 -0.0255 -0.2398 -0.2521
  161MPD2    H1 2458   0.460   1.338   0.751  0.7186 -0.6188  1.9995
  161MPD2    H2 2459   0.802   1.128   0.698 -0.7771 -0.1000 -0.4116
  161MPD2    H3 2460   0.600   1.177   0.631 -3.6056  2.0790  0.2717
  161MPD2     N 2461   0.535   1.502   0.940  0.7871 -0.3260 -0.2707
  161MPD2    H5 2462   0.440   1.501   0.904  0.7008 -0.4151 -0.0350
  161MPD2    N1 2463   0.958   1.246   0.882  0.0559 -0.2359  0.3617
  161MPD2    H7 2464   0.997   1.277   0.970 -0.2079  1.7908 -0.2535
  162TMC2    C1 2465   3.451   2.817   0.940  0.0447  0.1586  0.2408
  162TMC2    C2 2466   3.356   2.724   0.964  0.3220  0.4054 -0.3747
  162TMC2    C3 2467   3.390   2.615   1.038 -0.2377 -0.2804 -0.0725
  162TMC2    C4 2468   3.580   2.801   0.992  0.1066  0.8985  0.9640
  162TMC2    C5 2469   3.610   2.691   1.064  0.1974 -0.6278  0.6823
  162TMC2    C6 2470   3.518   2.594   1.086 -0.3784  0.7722 -0.0893
  162TMC2     C 2471   3.431   2.872   0.804 -0.4524  0.8101 -0.2930
  162TMC2     O 2472   3.337   2.814   0.747  0.0355 -0.0392 -0.2243
  162TMC2     H 2473   3.252   2.748   0.943 -0.8270 -2.1556  2.3160
  162TMC2    H1 2474   3.656   2.874   0.969  1.0276 -0.0373  1.0809
  162TMC2    H2 2475   3.534   2.500   1.138 -2.7851  0.5696  0.2739
  162TMC2    C7 2476   3.734   2.695   1.130 -0.3101  0.6893 -0.6689
  162TMC2    C8 2477   3.296   2.509   1.043 -0.1640  0.2198  0.4459
  162TMC2    O1 2478   3.732   2.630   1.236  0.3523 -0.2639 -0.0836
  162TMC2    O2 2479   3.239   2.462   0.945  0.0500  0.0437  0.8331
  162TMC2    O5 2480   3.220   2.539   1.152  0.2373  0.6448  0.5745
  162TMC2    H5 2481   3.265   2.595   1.218 -1.1867  0.8547  1.3566
  163MPD2     C 2482   3.623   3.103   0.383  0.7583 -0.0461  0.0524
  163MPD2    C1 2483   3.539   2.995   0.394 -0.0332 -0.4847  0.1591
  163MPD2    C2 2484   3.500   2.948   0.516  0.5134 -0.4307  0.2594
  163MPD2    C3 2485   3.557   3.003   0.632  0.3536 -0.1109  0.1565
  163MPD2    C4 2486   3.649   3.104   0.616  0.7003 -0.4529  0.2734
  163MPD2    C5 2487   3.688   3.152   0.494 -0.1184  0.1179 -0.4002
  163MPD2     H 2488   3.415   2.881   0.522 -1.1649  1.6681 -0.3065
  163MPD2    H1 2489   3.705   3.137   0.702  1.8332 -1.6578  0.0094
  163MPD2    H2 2490   3.654   3.123   0.281  0.7935 -0.4854 -0.0220
  163MPD2    H3 2491   3.772   3.220   0.484  0.4704 -0.4008  1.1754
  163MPD2     N 2492   3.528   2.959   0.763  0.3727  0.8631  0.3605
  163MPD2    H5 2493   3.580   3.003   0.839  1.2030 -0.5449  0.6192
  163MPD2    N1 2494   3.504   2.931   0.275 -0.2400 -0.1187 -0.5473
  163MPD2    H7 2495   3.569   2.950   0.199  0.8507 -0.1055  0.3928
  164TCq2    C1 2496   0.302   2.106  10.962  0.0003  0.5811 -1.2153
  164TCq2    O2 2497   0.230   2.031  11.028  0.0414  0.3621  0.5014
  164TCq2    C2 2498   0.327   2.239  11.006 -0.1079 -0.1494 -1.1501
  164TCq2    C3 2499   0.430   2.309  10.942 -0.1998  0.4151 -0.0510
  164TCq2    C4 2500   0.436   2.449  10.951 -0.2252 -0.3245 -0.4092
  164TCq2    C5 2501   0.349   2.512  11.027  0.7364 -0.0847  0.4677
  164TCq2    C6 2502   0.253   2.442  11.098 -0.4221  0.4668 -0.6809
  164TCq2    C7 2503   0.246   2.308  11.081  0.1204  0.3000  0.5357
  164TCq2    C8 2504   0.125   2.514  11.111 -0.2898 -0.1831  0.3103
  164TCq2    O4 2505   0.092   2.586  11.017 -0.3166  0.1337  0.1092
  164TCq2    C9 2506   0.524   2.518  10.857 -0.0748  0.1630 -0.1884
  164TCq2    O5 2507   0.590   2.449  10.776 -0.1804 -0.2578 -0.1802
  164TCq2    O6 2508   0.516   2.644  10.853  0.2941  0.2107  0.4386
  164TCq2    H2 2509   0.495   2.255  10.874 -1.1598 -0.8282  0.0153
  164TCq2    H3 2510   0.335   2.619  11.016  2.3618  0.0374 -0.3856
  164TCq2    H4 2511   0.163   2.254  11.123  1.3314 -1.7189  0.3339
  165MPD2     C 2512   1.150   3.440   1.741  0.0753  0.5114 -0.0388
  165MPD2    C1 2513   1.163   3.532   1.638 -1.4338  0.0394 -0.1260
  165MPD2    C2 2514   1.245   3.645   1.675 -0.1046 -0.5965  0.0074
  165MPD2    C3 2515   1.301   3.659   1.800  0.2468  0.5056  0.6457
  165MPD2    C4 2516   1.287   3.560   1.896  0.2222 -0.1566 -0.4622
  165MPD2    C5 2517   1.200   3.455   1.867  0.1696 -0.1555  0.7454
  165MPD2     H 2518   1.276   3.700   1.587 -1.2465  1.6842  1.0233
  165MPD2    H1 2519   1.352   3.555   1.983  0.9021  2.4271 -0.8206
  165MPD2    H2 2520   1.088   3.352   1.736 -0.4231  0.7040  2.4004
  165MPD2    H3 2521   1.186   3.372   1.935  1.7924  0.7685  2.2201
  165MPD2     N 2522   1.384   3.772   1.834  0.7458  0.1590 -0.1270
  165MPD2    H5 2523   1.444   3.764   1.916  1.7821  0.6454 -0.8352
  165MPD2    N1 2524   1.099   3.510   1.516 -0.3223 -0.2809  0.0083
  165MPD2    H7 2525   1.041   3.428   1.506  1.2368 -1.5356  1.4144
  166TCq2    C1 2526   1.371   3.895   1.777  0.2811  0.5656 -0.0359
  166TCq2    O2 2527   1.294   3.923   1.688 -0.4089  0.1871  0.0172
  166TCq2    C2 2528   1.451   4.003   1.835  0.5762  0.0921 -0.1583
  166TCq2    C3 2529   1.558   3.976   1.926  0.2860 -0.3065 -0.5218
  166TCq2    C4 2530   1.632   4.080   1.975 -0.0524  0.2021  0.1425
  166TCq2    C5 2531   1.604   4.209   1.932  0.8241 -0.0042  0.0616
  166TCq2    C6 2532   1.501   4.235   1.848  0.1601  0.4642 -0.0262
  166TCq2    C7 2533   1.423   4.129   1.800 -0.0734 -0.6252 -0.1777
  166TCq2    C8 2534   1.493   4.362   1.778  0.0478 -0.2345  0.5162
  166TCq2    O4 2535   1.594   4.428   1.787 -0.5032  0.4118  0.1551
  166TCq2    C9 2536   1.754   4.056   2.044 -0.6028 -0.0985  0.0419
  166TCq2    O5 2537   1.848   4.142   2.040  0.2710 -0.8326  0.0392
  166TCq2    O6 2538   1.773   3.933   2.062 -0.1564  0.3410 -0.9374
  166TCq2    H2 2539   1.580   3.871   1.945 -1.4469 -0.5336  0.2207
  166TCq2    H3 2540   1.679   4.283   1.959 -2.1078  2.3825  1.6684
  166TCq2    H4 2541   1.342   4.146   1.731  1.0874  1.7230 -0.9522
  167TMC2    C1 2542   3.809   1.925  11.678 -1.0820  0.1416 -0.2556
  167TMC2    C2 2543   3.673   1.916  11.688  0.4326  0.0738  0.1721
  167TMC2    C3 2544   3.611   1.994  11.786 -0.6123  0.3953 -0.5773
  167TMC2    C4 2545   3.880   2.010  11.764  0.5260  0.9080 -0.1460
  167TMC2    C5 2546   3.815   2.081  11.861 -0.5968 -0.1266 -1.0228
  167TMC2    C6 2547   3.683   2.070  11.871 -0.5104  0.0314  0.2364
  167TMC2     C 2548   3.871   1.799  11.642  0.1102 -0.1160 -0.0083
  167TMC2     O 2549   3.816   1.740  11.550  0.1881  0.2560  0.1343
  167TMC2     H 2550   3.623   1.842  11.625  0.3527  0.2989 -0.0301
  167TMC2    H1 2551   3.988   2.003  11.754  0.2871 -2.3749 -0.3112
  167TMC2    H2 2552   3.629   2.123  11.948 -0.5452 -0.3808  0.4963
  167TMC2    C7 2553   3.883   2.076  11.993 -0.6977 -1.1260  0.0070
  167TMC2    C8 2554   3.475   2.017  11.752 -1.1747  0.3196  0.1639
  167TMC2    O1 2555   3.805   2.078  12.088  0.0080 -0.3393 -0.1270
  167TMC2    O2 2556   3.436   2.130  11.723 -0.0519 -0.1947  0.2097
  167TMC2    O5 2557   3.422   1.906  11.703  0.5531 -0.4266  0.0658
  167TMC2    H5 2558   3.457   1.826  11.747  1.5493 -0.9539 -1.6775
  168MPD2     C 2559   4.030   1.549  11.616  0.4900  0.4763 -0.4805
  168MPD2    C1 2560   4.050   1.644  11.713 -0.5935  0.5409 -0.0962
  168MPD2    C2 2561   4.153   1.624  11.805 -0.3756 -0.0656  0.7521
  168MPD2    C3 2562   4.230   1.507  11.798 -0.2826  0.0766  0.3604
  168MPD2    C4 2563   4.196   1.408  11.710 -0.0988  0.2051 -0.0197
  168MPD2    C5 2564   4.109   1.435  11.613 -0.6732 -0.2916 -0.9454
  168MPD2     H 2565   4.176   1.701  11.878 -1.7856  1.9593 -0.9479
  168MPD2    H1 2566   4.247   1.313  11.705  0.8685  0.6260  1.8258
  168MPD2    H2 2567   3.959   1.551  11.534 -0.6111  0.6690  0.4758
  168MPD2    H3 2568   4.097   1.366  11.530  2.0902 -1.5518 -0.3247
  168MPD2     N 2569   4.320   1.468  11.898 -0.2087  0.8009 -0.1215
  168MPD2    H5 2570   4.366   1.381  11.872  0.3852  1.3737 -0.9690
  168MPD2    N1 2571   3.962   1.754  11.734  0.4607  0.8592  0.3444
  168MPD2    H7 2572   3.994   1.817  11.807  0.6112  1.0546  0.1105
  169MPD1     C 2573   1.053   0.940   9.562 -0.3032 -0.5097 -0.3449
  169MPD1    C1 2574   1.158   0.856   9.600 -0.3092  0.3464  0.0148
  169MPD1    C2 2575   1.288   0.906   9.576  1.0216  0.5722  0.3028
  169MPD1    C3 2576   1.312   1.017   9.504  0.1816 -0.2904 -0.3439
  169MPD1    C4 2577   1.209   1.090   9.457  0.2999 -0.0077 -0.5990
  169MPD1    C5 2578   1.081   1.048   9.484  0.3486  0.4949  0.0114
  169MPD1     H 2579   1.369   0.854   9.626 -0.9065 -1.2752  1.5042
  169MPD1    H1 2580   1.224   1.176   9.393 -0.7345  0.6683  0.0873
  169MPD1    H2 2581   0.951   0.906   9.575 -1.3271  1.7891 -2.5192
  169MPD1    H3 2582   0.997   1.106   9.447  0.2867 -0.4565 -1.3144
  169MPD1     N 2583   1.447   1.055   9.475 -0.2917 -0.2835 -0.4462
  169MPD1    H5 2584   1.521   1.009   9.527 -0.4308  0.6971  0.6282
  169MPD1    N1 2585   1.133   0.752   9.686 -0.0672 -0.2632  0.3653
  169MPD1    H6 2586   1.199   0.674   9.688 -0.2115 -0.3743  0.8561
  169MPD1    H7 2587   1.034   0.730   9.678 -0.2604  1.0511 -0.7529
  170MPD1     C 2588   4.675   4.086  12.499 -0.5420 -0.3092  0.0075
  170MPD1    C1 2589   0.035   4.028  12.591  0.4710  0.1890  0.2470
  170MPD1    C2 2590   0.086   4.097  12.702 -0.2419 -0.2146 -0.4397
  170MPD1    C3 2591   0.030   4.226  12.727 -0.0019  0.3973 -0.0511
  170MPD1    C4 2592   4.658   4.277  12.642  0.6117  0.3554 -0.2866
  170MPD1    C5 2593   4.619   4.208  12.537  1.2302 -0.6655 -0.3183
  170MPD1     H 2594   0.171   4.051  12.751 -0.3971  1.0975  1.0412
  170MPD1    H1 2595   4.603   4.367  12.667 -1.3575 -1.0946  0.6081
  170MPD1    H2 2596   4.651   4.039  12.405  1.2037  1.9197 -1.5612
  170MPD1    H3 2597   4.540   4.248  12.474  0.0243 -0.4847  1.3274
  170MPD1     N 2598   0.102   4.309  12.820  0.1316 -0.4217 -0.3948
  170MPD1    H5 2599   0.181   4.269  12.869 -1.7695 -2.9092  0.6194
  170MPD1    N1 2600   0.099   3.914  12.552 -0.1976 -0.1288  0.2157
  170MPD1    H6 2601   0.143   3.867  12.630 -2.0824 -1.3228  0.5420
  170MPD1    H7 2602   0.056   3.849  12.487 -4.0630  0.9758  1.6982
  171MPD1     C 2603   3.771   1.507  15.110  0.2668 -0.5848 -0.0443
  171MPD1    C1 2604   3.686   1.408  15.057  0.3752 -0.5814 -0.4566
  171MPD1    C2 2605   3.688   1.284  15.119 -0.0323  0.4474 -0.7469
  171MPD1    C3 2606   3.773   1.243  15.215 -0.1521 -0.2655  0.0713
  171MPD1    C4 2607   3.855   1.338  15.264 -0.2797 -0.2404  0.6667
  171MPD1    C5 2608   3.861   1.466  15.209  0.1043 -0.7300 -0.4942
  171MPD1     H 2609   3.621   1.207  15.084  1.5329 -1.4460  0.3865
  171MPD1    H1 2610   3.923   1.308  15.343 -0.6593 -2.3366  0.2037
  171MPD1    H2 2611   3.778   1.611  15.081  0.6914 -0.4955  0.3801
  171MPD1    H3 2612   3.936   1.535  15.246  0.8464 -2.6605  1.6106
  171MPD1     N 2613   3.761   1.109  15.279 -0.2848  0.1760 -0.0534
  171MPD1    H5 2614   3.810   1.089  15.366  0.5869  0.5200 -0.4677
  171MPD1    N1 2615   3.580   1.451  14.974  0.1616 -0.7595 -0.4528
  171MPD1    H6 2616   3.535   1.382  14.914  1.8142  0.8053 -3.4583
  171MPD1    H7 2617   3.611   1.534  14.925  0.1805 -0.5495 -0.0808
  172MPD1     C 2618   2.117   0.010   0.064  0.0464  0.0286 -0.5222
  172MPD1    C1 2619   2.167   0.062   0.181 -0.2884  0.8739  0.3672
  172MPD1    C2 2620   2.274   0.152   0.181  0.0560  0.5114 -0.0669
  172MPD1    C3 2621   2.337   0.177   0.061 -0.3138 -0.3696  0.2777
  172MPD1    C4 2622   2.285   0.120  17.654 -0.6524  0.3058  0.1689
  172MPD1    C5 2623   2.165   0.052  17.654 -0.6749 -0.3139  0.3689
  172MPD1     H 2624   2.298   0.192   0.279  0.5485 -1.5772  0.6834
  172MPD1    H1 2625   2.344   0.133  17.564  1.8816  0.0747  1.7719
  172MPD1    H2 2626   2.044   4.656   0.063 -1.0169  0.9840 -0.2037
  172MPD1    H3 2627   2.116   0.016  17.564 -0.0043  1.5395 -0.7418
  172MPD1     N 2628   2.453   0.258   0.046 -0.0994 -0.7721  0.1583
  172MPD1    H5 2629   2.500   0.256  17.664 -0.9964 -2.2425 -0.2875
  172MPD1    N1 2630   2.101   0.048   0.308 -0.1798  0.2787 -0.5364
  172MPD1    H6 2631   2.055   4.686   0.325 -1.6609  0.8916 -1.3494
  172MPD1    H7 2632   2.167   0.065   0.383 -1.3198 -0.0125  0.5247
  173MPD1     C 2633   3.851   0.497  14.240 -0.1665 -0.4917  0.1432
  173MPD1    C1 2634   3.805   0.402  14.160 -0.3710 -0.4098  0.2297
  173MPD1    C2 2635   3.757   0.283  14.218  0.2895  0.1913 -0.0573
  173MPD1    C3 2636   3.760   0.258  14.357 -0.7991 -0.4971  0.4244
  173MPD1    C4 2637   3.825   0.351  14.428  0.4630 -0.0510 -0.2960
  173MPD1    C5 2638   3.874   0.463  14.375  0.6687 -0.3769  0.0614
  173MPD1     H 2639   3.715   0.207  14.152  0.3215 -0.4382  0.6497
  173MPD1    H1 2640   3.839   0.347  14.535 -0.7970  1.1298 -0.0913
  173MPD1    H2 2641   3.883   0.592  14.198 -0.3103  0.3824  2.0079
  173MPD1    H3 2642   3.900   0.544  14.443  2.0398 -2.4441  1.9737
  173MPD1     N 2643   3.711   0.136  14.414 -0.8597  0.4674 -1.2004
  173MPD1    H5 2644   3.689   0.079  14.333 -0.6000 -1.7735  0.2978
  173MPD1    N1 2645   3.779   0.435  14.029  0.1916 -0.4890 -0.3708
  173MPD1    H6 2646   3.784   0.350  13.972 -0.1708 -1.6524  1.3046
  173MPD1    H7 2647   3.833   0.506  13.981 -0.5920 -0.3081 -0.9844
  174MPD1     C 2648   3.877   4.230  13.959 -0.5423  0.9366  0.6086
  174MPD1    C1 2649   3.748   4.218  14.009 -0.4886 -0.0361  0.1553
  174MPD1    C2 2650   3.719   4.286  14.125 -0.7492  0.1553  0.0126
  174MPD1    C3 2651   3.819   4.337  14.206  0.1640 -0.4002  0.0471
  174MPD1    C4 2652   3.942   4.361  14.153  0.2665 -0.9256 -0.5026
  174MPD1    C5 2653   3.970   4.304  14.030 -0.0061  0.4362  0.0940
  174MPD1     H 2654   3.616   4.287  14.161 -1.2265  0.8598 -1.4084
  174MPD1    H1 2655   4.014   4.421  14.207 -0.4708 -1.6300  1.2694
  174MPD1    H2 2656   3.911   4.184  13.867 -0.5962 -0.0324  1.0680
  174MPD1    H3 2657   4.062   4.333  13.981 -0.3445 -0.9979 -1.4011
  174MPD1     N 2658   3.782   4.407  14.320 -0.3200 -0.1020 -0.3699
  174MPD1    H5 2659   3.845   4.477  14.356 -0.6572  0.6703 -1.2776
  174MPD1    N1 2660   3.641   4.173  13.928  0.4515  0.4806  0.6493
  174MPD1    H6 2661   3.559   4.149  13.982  0.7163 -0.2428  0.7319
  174MPD1    H7 2662   3.666   4.103  13.859  0.7951  0.9007  0.3423
  175MPD1     C 2663   2.680   1.073  15.074  0.1216 -0.6465  0.2894
  175MPD1    C1 2664   2.541   1.089  15.086 -0.3350  0.1750  0.4438
  175MPD1    C2 2665   2.477   1.058  15.210 -0.5308  0.5135  0.6650
  175MPD1    C3 2666   2.558   1.024  15.316  0.0447 -0.2476 -0.0622
  175MPD1    C4 2667   2.693   1.011  15.302  1.4492 -0.2056 -0.0429
  175MPD1    C5 2668   2.759   1.029  15.183  0.2736  0.6441 -0.6430
  175MPD1     H 2669   2.373   1.051  15.237 -1.0742  0.4771 -1.4451
  175MPD1    H1 2670   2.748   0.979  15.390 -1.5076  0.5803  2.0889
  175MPD1    H2 2671   2.730   1.102  14.982  0.8867  0.4980  1.0560
  175MPD1    H3 2672   2.867   1.040  15.181  0.1404  2.2524  1.3894
  175MPD1     N 2673   2.511   1.011  15.451 -0.1100 -0.5144  0.2663
  175MPD1    H5 2674   2.580   1.024  15.524  1.6507 -0.7357 -1.3648
  175MPD1    N1 2675   2.466   1.162  14.990 -0.0460  0.0978  0.6542
  175MPD1    H6 2676   2.373   1.124  14.972  0.3156 -1.7568  2.6292
  175MPD1    H7 2677   2.503   1.143  14.897  0.6929  0.3648  0.8974
  176MPD1     C 2678   3.542   2.776  16.222 -0.3002  0.3937  0.7113
  176MPD1    C1 2679   3.566   2.704  16.339  0.1368  0.2297  0.3135
  176MPD1    C2 2680   3.593   2.784  16.449  0.3009 -0.4302 -0.2133
  176MPD1    C3 2681   3.617   2.919  16.434 -0.5899 -0.2107 -0.6211
  176MPD1    C4 2682   3.609   2.980  16.311 -0.0867  0.1036 -0.1498
  176MPD1    C5 2683   3.565   2.912  16.203  0.3089 -1.2647 -0.1816
  176MPD1     H 2684   3.598   2.733  16.544 -1.6244  2.8567  1.6535
  176MPD1    H1 2685   3.629   3.086  16.296 -0.2341  0.3259  1.1850
  176MPD1    H2 2686   3.514   2.724  16.131  2.9206 -0.5602  0.2619
  176MPD1    H3 2687   3.556   2.962  16.107  1.0673 -1.6813 -0.4633
  176MPD1     N 2688   3.679   2.977  16.543 -0.2717  0.3486  0.6872
  176MPD1    H5 2689   3.681   2.919  16.627 -1.1153  1.2441  1.3290
  176MPD1    N1 2690   3.525   2.566  16.342  0.1549  0.0588  0.1662
  176MPD1    H6 2691   3.522   2.513  16.255  0.0119  3.1696 -1.7062
  176MPD1    H7 2692   3.563   2.517  16.423 -0.5530 -0.2109  0.3321
  177MPD1     C 2693   3.154   2.612   9.977  0.2349  0.0267 -0.7220
  177MPD1    C1 2694   3.102   2.530   9.879 -0.4481 -0.2325 -0.5573
  177MPD1    C2 2695   3.033   2.598   9.777 -0.9343  0.3490 -0.1927
  177MPD1    C3 2696   3.022   2.739   9.775  0.2271 -0.0579  0.2579
  177MPD1    C4 2697   3.071   2.816   9.872 -0.5705  0.4060 -0.0486
  177MPD1    C5 2698   3.140   2.752   9.973  0.1018  0.1865  0.2397
  177MPD1     H 2699   3.000   2.539   9.692 -1.6621  0.6853 -0.1426
  177MPD1    H1 2700   3.082   2.924   9.863 -0.1011  0.3172 -0.5347
  177MPD1    H2 2701   3.218   2.570  10.055  1.1665  1.1486 -0.8796
  177MPD1    H3 2702   3.176   2.822  10.047 -2.8520  0.2007  1.6615
  177MPD1     N 2703   2.959   2.797   9.659  0.1825 -0.2775 -0.1547
  177MPD1    H5 2704   2.917   2.732   9.593  1.7563 -3.6909  2.1651
  177MPD1    N1 2705   3.117   2.397   9.889 -0.1017  0.1088  0.2522
  177MPD1    H6 2706   3.181   2.349   9.952  0.4749  0.6101  0.0528
  177MPD1    H7 2707   3.142   2.357   9.798  0.9148  0.1308  0.5187
  178MPD1     C 2708   4.669   3.647   0.080 -0.0552  0.2105  0.3066
  178MPD1    C1 2709   4.589   3.563  17.708 -0.0221 -0.5888  0.5356
  178MPD1    C2 2710   4.610   3.577  17.568 -0.1067  0.3538  0.6357
  178MPD1    C3 2711   4.709   3.661  17.509  0.8711  0.2016  0.0994
  178MPD1    C4 2712   0.054   3.744  17.593  0.5451 -0.0949 -0.0208
  178MPD1    C5 2713   0.033   3.730   0.023  0.3668 -0.6997  1.4836
  178MPD1     H 2714   4.536   3.530  17.504  0.0071 -0.6253  1.2223
  178MPD1    H1 2715   0.121   3.823  17.560  1.2363 -0.6816 -0.0423
  178MPD1    H2 2716   4.654   3.648   0.187 -0.2180 -1.5497  0.3099
  178MPD1    H3 2717   0.099   3.790   0.084  1.6125 -0.6566  0.1064
  178MPD1     N 2718   0.008   3.667  17.374  0.2795 -0.4556 -0.0010
  178MPD1    H5 2719   0.081   3.733  17.351 -0.9172  0.0603 -2.2574
  178MPD1    N1 2720   4.483   3.496   0.058  0.3972 -0.7437 -0.5918
  178MPD1    H6 2721   4.449   3.425  17.701  1.0213  0.3655 -2.1353
  178MPD1    H7 2722   4.497   3.450   0.148  0.3234  0.8418  0.2305
  179MPD1     C 2723   4.482   2.322  16.198 -0.3024 -0.4268  0.3536
  179MPD1    C1 2724   4.519   2.367  16.069 -0.4736 -0.2792  0.0823
  179MPD1    C2 2725   4.564   2.268  15.975  0.0373  0.0614 -0.3154
  179MPD1    C3 2726   4.591   2.133  16.018  0.4490  0.0271 -0.0755
  179MPD1    C4 2727   4.578   2.103  16.154 -0.3210 -0.4537  0.0331
  179MPD1    C5 2728   4.518   2.194  16.234  0.2767  0.2406 -1.1460
  179MPD1     H 2729   4.587   2.299  15.874  2.3689  1.1226  0.5459
  179MPD1    H1 2730   4.605   2.003  16.185  1.1071 -0.3572 -0.9031
  179MPD1    H2 2731   4.438   2.384  16.275 -2.6079 -1.2643 -0.2992
  179MPD1    H3 2732   4.487   2.159  16.332  0.0006  1.1985 -0.8954
  179MPD1     N 2733   4.623   2.029  15.928  0.0382  0.9161 -0.0659
  179MPD1    H5 2734   4.634   1.940  15.976 -1.1084  0.6293 -0.3558
  179MPD1    N1 2735   4.482   2.496  16.024 -0.0810  0.2872 -0.1737
  179MPD1    H6 2736   4.541   2.520  15.944  2.4513 -1.0751  1.2906
  179MPD1    H7 2737   4.492   2.559  16.104 -2.2728  0.8619 -0.3558
  180MPD1     C 2738   4.297   3.700  15.301 -0.0364 -0.0579 -0.3900
  180MPD1    C1 2739   4.395   3.720  15.203 -0.3689  0.9916  0.5085
  180MPD1    C2 2740   4.367   3.671  15.081  0.3879 -0.1399 -0.0814
  180MPD1    C3 2741   4.272   3.576  15.056  0.8352 -0.4410  0.3066
  180MPD1    C4 2742   4.188   3.544  15.161 -0.2731 -0.0263 -1.0499
  180MPD1    C5 2743   4.198   3.612  15.282  0.1376  0.5023 -0.2199
  180MPD1     H 2744   4.422   3.713  14.997  0.5628 -2.8033 -1.3242
  180MPD1    H1 2745   4.114   3.465  15.155  1.0174 -1.4291  1.5491
  180MPD1    H2 2746   4.304   3.747  15.399 -2.0929 -0.0124 -0.2640
  180MPD1    H3 2747   4.128   3.595  15.363 -0.5675  0.3270 -0.8580
  180MPD1     N 2748   4.268   3.520  14.923  0.1395 -0.3716  0.2425
  180MPD1    H5 2749   4.341   3.545  14.858  2.5713 -0.8730  2.8058
  180MPD1    N1 2750   4.494   3.814  15.225 -0.2674  0.2948 -0.1964
  180MPD1    H6 2751   4.504   3.844  15.321  1.1213 -0.8977  0.0329
  180MPD1    H7 2752   4.468   3.901  15.180  1.2416  0.6727 -0.3451
  181MPD1     C 2753   0.994   4.021   9.568  0.1402 -0.7199  0.7361
  181MPD1    C1 2754   1.076   4.054   9.466 -0.2874  0.2996 -0.3574
  181MPD1    C2 2755   1.209   4.080   9.496 -0.2132  0.7039 -0.6203
  181MPD1    C3 2756   1.249   4.094   9.626  0.6406 -0.2549 -0.9744
  181MPD1    C4 2757   1.168   4.052   9.726  0.0009  0.7795  0.6230
  181MPD1    C5 2758   1.036   4.020   9.699 -0.2958  0.2758  0.2684
  181MPD1     H 2759   1.276   4.100   9.413  2.9002  2.3597  2.2761
  181MPD1    H1 2760   1.199   4.061   9.829  1.2541  0.5758  0.2607
  181MPD1    H2 2761   0.891   3.988   9.561 -0.5292  1.6842 -0.8009
  181MPD1    H3 2762   0.971   3.995   9.781 -1.2212 -0.6945 -0.7520
  181MPD1     N 2763   1.381   4.137   9.675  0.3083  0.1145 -0.1079
  181MPD1    H5 2764   1.395   4.164   9.772 -0.8283 -0.9426  0.3438
  181MPD1    N1 2765   1.042   4.045   9.334 -0.2807 -0.6483 -0.5128
  181MPD1    H6 2766   0.950   4.087   9.318  0.3541  0.5062 -1.1712
  181MPD1    H7 2767   1.106   4.094   9.272  0.3295  2.1264  2.2986
  182MPD1     C 2768   2.711   4.311   1.547 -0.7521  0.0531  0.6551
  182MPD1    C1 2769   2.779   4.300   1.428  0.3816 -0.1866 -0.1763
  182MPD1    C2 2770   2.717   4.344   1.311  0.0384  0.2694 -0.7298
  182MPD1    C3 2771   2.590   4.404   1.317  0.7739  0.3597 -0.0709
  182MPD1    C4 2772   2.535   4.433   1.437  0.4898 -0.3221 -0.1290
  182MPD1    C5 2773   2.592   4.388   1.550  0.3468  0.4385  0.2999
  182MPD1     H 2774   2.759   4.327   1.213 -0.3930 -0.5001 -0.7786
  182MPD1    H1 2775   2.438   4.481   1.431  0.0021 -1.4818 -1.4928
  182MPD1    H2 2776   2.754   4.269   1.637 -0.3927 -0.3854  0.2774
  182MPD1    H3 2777   2.542   4.422   1.640  1.0750 -1.0807  1.2644
  182MPD1     N 2778   2.517   4.436   1.198  0.5351 -0.0259  0.3815
  182MPD1    H5 2779   2.442   4.503   1.208 -0.4659 -0.8114 -1.8154
  182MPD1    N1 2780   2.887   4.218   1.414 -0.2301  0.1654  0.2112
  182MPD1    H6 2781   2.942   4.233   1.499  1.1051 -2.3207 -0.2172
  182MPD1    H7 2782   2.945   4.237   1.333  0.7677 -1.2972  0.5889
  183MPD1     C 2783   3.679   0.586  10.354  0.1096  0.4290 -0.0544
  183MPD1    C1 2784   3.559   0.642  10.393 -0.5074  0.1305  0.7010
  183MPD1    C2 2785   3.449   0.582  10.347  0.0095  0.0419  0.4768
  183MPD1    C3 2786   3.455   0.464  10.269  0.0252  0.1590  0.4421
  183MPD1    C4 2787   3.580   0.407  10.242  1.0271  0.1112 -0.7402
  183MPD1    C5 2788   3.694   0.468  10.288  0.2028  0.1330 -0.6483
  183MPD1     H 2789   3.349   0.621  10.359  1.2410  2.5561  2.3924
  183MPD1    H1 2790   3.594   0.316  10.185 -0.9564 -1.1545  0.7875
  183MPD1    H2 2791   3.770   0.630  10.393 -1.5007  1.5643  2.4377
  183MPD1    H3 2792   3.792   0.424  10.275 -0.4486 -0.9198 -1.9262
  183MPD1     N 2793   3.336   0.403  10.232  0.3134 -0.2701  0.8169
  183MPD1    H5 2794   3.248   0.439  10.268  0.5227  0.8019  0.2799
  183MPD1    N1 2795   3.546   0.774  10.436  0.0775 -0.1751 -0.0147
  183MPD1    H6 2796   3.612   0.813  10.503  1.4547 -1.9551 -0.3525
  183MPD1    H7 2797   3.453   0.807  10.464 -0.3842 -1.4977  0.0266
  184MPD1     C 2798   2.430   2.048  10.037  0.3240 -0.7840 -0.1856
  184MPD1    C1 2799   2.340   2.004   9.946  0.6642 -0.3785  0.4793
  184MPD1    C2 2800   2.341   2.067   9.825 -0.1265  0.3286 -0.5582
  184MPD1    C3 2801   2.403   2.190   9.801 -0.9968 -0.4061  0.7125
  184MPD1    C4 2802   2.500   2.224   9.899 -0.0597  0.6221 -0.0010
  184MPD1    C5 2803   2.512   2.150  10.010 -0.6966 -0.3772  0.0515
  184MPD1     H 2804   2.273   2.029   9.749 -0.3004  0.3560 -0.4155
  184MPD1    H1 2805   2.553   2.319   9.892 -0.3854  0.8216  0.2505
  184MPD1    H2 2806   2.439   1.999  10.133 -1.9201  1.2397  1.0653
  184MPD1    H3 2807   2.575   2.180  10.093  1.2393  1.2672 -1.9776
  184MPD1     N 2808   2.379   2.277   9.694  0.3192 -0.3113 -0.5041
  184MPD1    H5 2809   2.451   2.346   9.679 -0.7620  0.9401  0.1592
  184MPD1    N1 2810   2.272   1.882   9.970  0.4667 -0.2827 -0.5245
  184MPD1    H6 2811   2.249   1.869  10.069 -1.2790 -0.2324 -0.9222
  184MPD1    H7 2812   2.180   1.890   9.926 -0.8581  0.1792  2.2720
  185MPD1     C 2813   2.351   2.341   8.675 -0.0723 -0.3433 -0.0019
  185MPD1    C1 2814   2.303   2.244   8.756 -0.1664  0.6542 -0.3445
  185MPD1    C2 2815   2.270   2.288   8.883  0.3601  0.6115 -0.2954
  185MPD1    C3 2816   2.305   2.413   8.942  0.1817  0.4818 -1.3441
  185MPD1    C4 2817   2.368   2.505   8.855 -0.9217 -0.1152  0.1989
  185MPD1    C5 2818   2.382   2.464   8.724 -0.2900  0.0368 -0.1998
  185MPD1     H 2819   2.216   2.220   8.948  0.6036 -1.3040 -2.0828
  185MPD1    H1 2820   2.412   2.600   8.882  1.7850 -0.6624 -2.2413
  185MPD1    H2 2821   2.373   2.325   8.570 -1.1890  2.4952 -0.6571
  185MPD1    H3 2822   2.413   2.539   8.652  0.7995 -3.2985 -3.2211
  185MPD1     N 2823   2.290   2.449   9.079 -0.1581  0.5292 -0.0855
  185MPD1    H5 2824   2.346   2.531   9.098 -0.0349  0.8917 -2.0154
  185MPD1    N1 2825   2.239   2.130   8.706 -0.3646 -0.1392  0.1119
  185MPD1    H6 2826   2.284   2.099   8.620 -1.2756 -1.9249  0.2738
  185MPD1    H7 2827   2.235   2.046   8.764 -1.0062  0.8640  1.5203
  186MPD1     C 2828   0.356   1.814  15.614 -0.1802  0.7781 -0.3340
  186MPD1    C1 2829   0.413   1.813  15.742 -0.2064 -0.0366  0.5195
  186MPD1    C2 2830   0.371   1.911  15.829  0.7583  0.5310 -0.0663
  186MPD1    C3 2831   0.279   2.010  15.785 -0.4217  0.2768 -0.1868
  186MPD1    C4 2832   0.231   2.012  15.659 -0.1148  0.0519  0.0060
  186MPD1    C5 2833   0.273   1.912  15.573 -1.1222 -0.0614  0.8010
  186MPD1     H 2834   0.404   1.906  15.932 -0.0381  0.2228  0.1784
  186MPD1    H1 2835   0.151   2.081  15.635 -1.1278 -1.0300  0.2869
  186MPD1    H2 2836   0.389   1.737  15.545  2.2644 -0.3881  2.1392
  186MPD1    H3 2837   0.238   1.915  15.470  0.6289 -0.8978  0.1938
  186MPD1     N 2838   0.229   2.105  15.874 -0.1318 -0.4227  0.3381
  186MPD1    H5 2839   0.176   2.180  15.829 -1.5333 -1.7440 -0.2072
  186MPD1    N1 2840   0.477   1.699  15.796 -0.2236  0.4605  0.9327
  186MPD1    H6 2841   0.512   1.637  15.722  0.5833  2.3595 -0.2666
  186MPD1    H7 2842   0.409   1.634  15.836 -1.2490 -0.0470 -1.5746
  187MPD1     C 2843   3.940   3.723   0.137  0.3891  0.5981  0.4487
  187MPD1    C1 2844   4.018   3.809   0.215  0.7373 -0.3151  0.2666
  187MPD1    C2 2845   4.052   3.927   0.154  0.3199  0.4686 -0.0760
  187MPD1    C3 2846   4.029   3.958   0.023 -0.2856 -0.3097  0.8322
  187MPD1    C4 2847   3.957   3.871  17.659  0.5349 -0.4818  0.0993
  187MPD1    C5 2848   3.910   3.758   0.010  0.2563  0.3771 -0.8088
  187MPD1     H 2849   4.098   4.005   0.212 -3.0789 -0.2636  3.5825
  187MPD1    H1 2850   3.944   3.878  17.552 -0.7117 -0.6506  0.2322
  187MPD1    H2 2851   3.911   3.625   0.174 -1.8725  1.6678  1.4836
  187MPD1    H3 2852   3.852   3.694  17.654 -2.3980 -0.3368  2.3387
  187MPD1     N 2853   4.055   4.083  17.666 -0.0137 -0.1106  0.4012
  187MPD1    H5 2854   4.029   4.085  17.567  0.2777  1.7766  0.3639
  187MPD1    N1 2855   4.043   3.785   0.353 -0.2647  0.1664  0.3618
  187MPD1    H6 2856   4.115   3.841   0.397  0.3561 -0.7256  0.4665
  187MPD1    H7 2857   4.049   3.684   0.367  0.9314  0.0527 -0.9323
  188MPD1     C 2858   4.133   4.139   9.942  0.9195  0.1561  0.2249
  188MPD1    C1 2859   4.041   4.127   9.838  0.0149  0.0812  0.1533
  188MPD1    C2 2860   3.973   4.007   9.817  0.6396 -0.5088  0.9624
  188MPD1    C3 2861   4.018   3.892   9.875 -0.0086 -0.4478  0.4578
  188MPD1    C4 2862   4.109   3.906   9.974 -0.4009 -0.1485  0.5109
  188MPD1    C5 2863   4.167   4.024  10.006  1.0024 -0.3912 -0.0066
  188MPD1     H 2864   3.887   4.010   9.750  2.1014  1.5375 -0.8618
  188MPD1    H1 2865   4.152   3.818  10.021 -2.1656 -1.2371  0.0806
  188MPD1    H2 2866   4.178   4.237   9.945  1.2359  0.0174 -0.0059
  188MPD1    H3 2867   4.239   4.013  10.085 -0.6647 -1.4880  1.3770
  188MPD1     N 2868   3.968   3.759   9.840  0.1063 -0.5141 -0.4987
  188MPD1    H5 2869   4.018   3.681   9.881 -0.8584 -0.2616  1.1694
  188MPD1    N1 2870   4.002   4.239   9.761 -0.2913  0.2073 -0.3858
  188MPD1    H6 2871   3.950   4.214   9.677  1.6602  0.3216 -1.6343
  188MPD1    H7 2872   4.081   4.302   9.748  0.3897 -0.6191 -0.2608
  189MPD1     C 2873   0.840   4.260  17.356 -0.2382 -0.0612  0.2742
  189MPD1    C1 2874   0.712   4.236  17.387  0.2641 -0.2025 -0.2848
  189MPD1    C2 2875   0.630   4.346  17.378  0.1870 -0.4225  0.0161
  189MPD1    C3 2876   0.666   4.476  17.343 -0.1851  0.9084  0.6100
  189MPD1    C4 2877   0.793   4.493  17.295  0.6796 -0.2210 -0.4279
  189MPD1    C5 2878   0.878   4.385  17.309 -0.8071 -0.5705 -0.0252
  189MPD1     H 2879   0.532   4.325  17.419  1.5795 -0.5097  3.3122
  189MPD1    H1 2880   0.832   4.589  17.261  2.1878 -0.0935  1.6201
  189MPD1    H2 2881   0.919   4.186  17.350 -1.3016 -1.2193  0.4473
  189MPD1    H3 2882   0.977   4.403  17.269 -0.7783 -0.9887 -0.1419
  189MPD1     N 2883   0.567   4.575  17.357  0.2339  0.8362 -0.6134
  189MPD1    H5 2884   0.471   4.544  17.370  0.3723  0.1407 -1.2913
  189MPD1    N1 2885   0.666   4.113  17.444 -0.3421  0.0332 -0.3377
  189MPD1    H6 2886   0.712   4.038  17.394 -0.8652 -1.5202  1.5311
  189MPD1    H7 2887   0.569   4.106  17.415 -0.3834  0.2899 -0.2637
  190MPD1     C 2888   3.873   3.318  15.616 -0.3793  0.5294  0.0377
  190MPD1    C1 2889   3.899   3.423  15.703 -0.7948  0.6531 -0.5570
  190MPD1    C2 2890   4.020   3.485  15.699  1.0710 -0.0155  0.2728
  190MPD1    C3 2891   4.127   3.426  15.628  0.4476 -0.0881 -0.0428
  190MPD1    C4 2892   4.103   3.308  15.558 -0.0658  0.0817  0.6651
  190MPD1    C5 2893   3.973   3.258  15.545  1.4168  0.2756 -0.1427
  190MPD1     H 2894   4.040   3.568  15.766 -0.5660  1.1399 -0.6910
  190MPD1    H1 2895   4.175   3.261  15.491 -0.6672 -3.0471  2.1807
  190MPD1    H2 2896   3.776   3.271  15.603  0.5371 -0.4350 -3.3681
  190MPD1    H3 2897   3.962   3.166  15.487  0.1787 -1.9328  3.5967
  190MPD1     N 2898   4.253   3.486  15.641 -0.3298 -1.1348 -0.5498
  190MPD1    H5 2899   4.252   3.563  15.707 -0.0294 -2.2282  0.7325
  190MPD1    N1 2900   3.791   3.480  15.764  0.3933  0.1928  0.4419
  190MPD1    H6 2901   3.808   3.553  15.833  2.6777 -0.0371  0.1074
  190MPD1    H7 2902   3.721   3.416  15.801  1.0037  0.0460  1.3421
  191MPD1     C 2903   4.033   0.689  12.415  1.0992 -0.4876 -0.1765
  191MPD1    C1 2904   4.100   0.585  12.356 -0.6004  0.1106 -0.1487
  191MPD1    C2 2905   4.111   0.582  12.217  1.1283 -0.3156  0.0576
  191MPD1    C3 2906   4.083   0.692  12.146  0.4199  0.3963  0.2341
  191MPD1    C4 2907   4.018   0.796  12.202  0.3571  0.1777  0.2948
  191MPD1    C5 2908   3.997   0.795  12.336 -0.5149 -0.6687  0.7921
  191MPD1     H 2909   4.163   0.501  12.166  0.6583  0.2618 -1.3267
  191MPD1    H1 2910   3.998   0.891  12.152 -0.9431 -0.2016  0.0937
  191MPD1    H2 2911   4.026   0.703  12.522 -1.6211 -1.3635 -0.2497
  191MPD1    H3 2912   3.965   0.882  12.392 -1.0598 -0.9489  0.9133
  191MPD1     N 2913   4.121   0.699  12.010 -0.1201 -0.3076 -0.5831
  191MPD1    H5 2914   4.167   0.617  11.972 -0.1946 -0.3700 -0.5370
  191MPD1    N1 2915   4.132   0.479  12.439 -0.0503 -0.7048 -0.5481
  191MPD1    H6 2916   4.209   0.426  12.398  0.1125 -0.1935 -0.8991
  191MPD1    H7 2917   4.172   0.512  12.527  0.7775 -2.6897 -0.1751
  192MPD1     C 2918   4.513   1.406  11.345  0.4088 -0.0744  0.4315
  192MPD1    C1 2919   4.380   1.376  11.342 -0.2076  0.0263 -0.1704
  192MPD1    C2 2920   4.339   1.261  11.397 -0.6469 -0.2475 -0.4457
  192MPD1    C3 2921   4.429   1.163  11.441 -0.4130  0.5447 -0.6834
  192MPD1    C4 2922   4.565   1.191  11.430  0.2970  0.7328 -0.3960
  192MPD1    C5 2923   4.605   1.311  11.390 -0.5079 -0.3660  0.2830
  192MPD1     H 2924   4.232   1.248  11.402 -0.7090  0.3073 -0.2625
  192MPD1    H1 2925   4.637   1.116  11.462 -0.8894 -0.0948  0.3766
  192MPD1    H2 2926   4.552   1.501  11.310  0.0383 -0.0024  0.2150
  192MPD1    H3 2927   4.713   1.318  11.376 -0.9202  0.3680 -2.4065
  192MPD1     N 2928   4.383   1.040  11.496  0.0189 -0.2756 -0.0524
  192MPD1    H5 2929   4.453   0.970  11.514  0.5767  0.6444  1.3179
  192MPD1    N1 2930   4.283   1.473  11.304 -0.0394 -0.0171  0.0185
  192MPD1    H6 2931   4.319   1.541  11.237 -2.4728  0.7465 -0.5134
  192MPD1    H7 2932   4.196   1.437  11.264 -1.0344  1.5775  0.7584
  193MPD1     C 2933   3.137   0.815  15.818 -0.0490 -0.1046  0.1773
  193MPD1    C1 2934   3.117   0.938  15.883 -0.0453 -0.2800  0.4351
  193MPD1    C2 2935   3.202   0.969  15.986  0.4733 -0.1635  0.6691
  193MPD1    C3 2936   3.313   0.887  16.030  0.0928 -1.0166 -0.0031
  193MPD1    C4 2937   3.335   0.773  15.959  0.5676  0.5627 -0.5648
  193MPD1    C5 2938   3.243   0.732  15.867 -0.4035 -0.0977  0.0209
  193MPD1     H 2939   3.192   1.062  16.041  0.6027 -0.0382  0.4780
  193MPD1    H1 2940   3.424   0.716  15.981  1.1544  1.1011 -1.5183
  193MPD1    H2 2941   3.074   0.780  15.738  0.5264 -0.2352 -0.2197
  193MPD1    H3 2942   3.246   0.636  15.816  3.4395  1.2559 -2.2339
  193MPD1     N 2943   3.406   0.916  16.131  0.2406  0.3102 -0.1976
  193MPD1    H5 2944   3.478   0.848  16.151 -0.9639 -0.1965  2.3509
  193MPD1    N1 2945   3.034   1.037  15.831 -0.0302  0.0344  0.3180
  193MPD1    H6 2946   2.991   1.090  15.906  0.0939  0.7322 -0.1059
  193MPD1    H7 2947   2.959   0.992  15.778 -0.7081  2.0037 -0.3800
  194MPD1     C 2948   0.913   2.937  17.270 -0.4066 -0.4297  0.8729
  194MPD1    C1 2949   0.967   2.949  17.140 -0.7141 -0.1732 -0.5123
  194MPD1    C2 2950   1.008   2.843  17.073  0.2789 -0.0820  0.1486
  194MPD1    C3 2951   1.003   2.720  17.126  0.4470  0.6771 -0.0989
  194MPD1    C4 2952   0.941   2.705  17.250 -0.0809  0.2009 -0.2250
  194MPD1    C5 2953   0.899   2.814  17.320 -0.2469  0.3680  0.1272
  194MPD1     H 2954   1.055   2.865  16.978 -1.9935  1.6227 -0.5848
  194MPD1    H1 2955   0.927   2.612  17.304  0.0393  0.0354 -0.4769
  194MPD1    H2 2956   0.892   3.019  17.338 -0.3037  0.3890 -0.0661
  194MPD1    H3 2957   0.855   2.794  17.417  1.6887 -1.7291  0.5774
  194MPD1     N 2958   1.068   2.599  17.078 -0.9151  0.5655 -0.6267
  194MPD1    H5 2959   1.076   2.520  17.140 -2.9707  1.6501  1.0313
  194MPD1    N1 2960   1.006   3.073  17.091  0.0665  0.2197 -0.2398
  194MPD1    H6 2961   0.940   3.147  17.113 -0.4906 -0.2013 -0.4763
  194MPD1    H7 2962   1.022   3.079  16.991 -0.3407  3.3455 -0.0884
  195MPD1     C 2963   3.767   4.571  17.580 -0.5868 -0.0731  0.0377
  195MPD1    C1 2964   3.782   4.513  17.704 -0.1368 -0.0296  0.6819
  195MPD1    C2 2965   3.746   4.371   0.006  0.3914 -0.5723  0.5509
  195MPD1    C3 2966   3.680   4.305  17.602 -0.0645  0.0570  0.1420
  195MPD1    C4 2967   3.659   4.374  17.484 -0.5944 -0.2146  0.0690
  195MPD1    C5 2968   3.711   4.505  17.478  0.8722  0.0893  0.0753
  195MPD1     H 2969   3.781   4.316   0.093  1.6646  0.6403  0.8177
  195MPD1    H1 2970   3.600   4.335  17.402 -0.7541  0.5890 -0.1998
  195MPD1    H2 2971   3.812   4.668  17.562  1.7419 -1.2065 -0.2566
  195MPD1    H3 2972   3.696   4.555  17.383  0.5336  0.2079  0.1912
  195MPD1     N 2973   3.645   4.172  17.609  0.2504  0.4789 -0.1581
  195MPD1    H5 2974   3.607   4.128  17.527  0.1079  1.1774 -0.4664
  195MPD1    N1 2975   3.859   4.574   0.091  0.3169 -0.0093 -0.2638
  195MPD1    H6 2976   3.863   4.529   0.182 -0.4813 -0.2030 -0.3263
  195MPD1    H7 2977   3.841   4.673   0.107  1.6135  0.4931 -1.9154
  196MPD1     C 2978   2.702   3.797  17.707 -0.2423 -0.3631  0.8550
  196MPD1    C1 2979   2.775   3.915   0.021  0.2144  0.1544  0.6911
  196MPD1    C2 2980   2.859   3.935   0.135 -1.0731 -0.3716  0.4158
  196MPD1    C3 2981   2.857   3.846   0.234  0.5425  0.0275  0.1565
  196MPD1    C4 2982   2.771   3.737   0.224  0.1633  0.2775  0.2403
  196MPD1    C5 2983   2.707   3.709   0.105 -0.0187 -0.7262  0.4237
  196MPD1     H 2984   2.916   4.027   0.137 -3.0647  0.8886 -0.7961
  196MPD1    H1 2985   2.767   3.664   0.303  0.2957  0.6238  0.5672
  196MPD1    H2 2986   2.646   3.774  17.617  0.6745  1.9651 -0.2989
  196MPD1    H3 2987   2.648   3.618   0.100  0.8273 -1.2927  0.8022
  196MPD1     N 2988   2.924   3.867   0.355  0.5869  0.8083 -0.0240
  196MPD1    H5 2989   2.908   3.810   0.438  0.7437  0.1555 -0.4411
  196MPD1    N1 2990   2.758   4.022  17.639  0.3513  0.1254  0.0142
  196MPD1    H6 2991   2.735   3.994  17.544 -0.4326  0.9877 -0.0627
  196MPD1    H7 2992   2.835   4.088  17.638 -0.0407  0.5763 -0.6062
  197MPD1     C 2993   2.057   0.859  17.242 -0.0043 -0.5269 -0.0933
  197MPD1    C1 2994   2.193   0.842  17.263 -0.0643 -0.1870 -0.0079
  197MPD1    C2 2995   2.278   0.922  17.188  0.6080 -0.2986  0.0373
  197MPD1    C3 2996   2.233   1.009  17.096  0.1023 -0.0113 -0.8479
  197MPD1    C4 2997   2.095   1.022  17.069 -0.0050 -0.6545  0.1006
  197MPD1    C5 2998   2.009   0.943  17.142  0.1710  1.0141 -0.2687
  197MPD1     H 2999   2.384   0.904  17.200  0.8730  1.8222  0.9007
  197MPD1    H1 3000   2.049   1.081  16.991  2.2842 -0.4926 -1.1279
  197MPD1    H2 3001   1.985   0.795  17.292 -1.3021  1.0492  0.0694
  197MPD1    H3 3002   1.909   0.934  17.102  0.3079 -0.7174 -0.2387
  197MPD1     N 3003   2.321   1.076  17.009 -0.4166 -0.1751 -0.2204
  197MPD1    H5 3004   2.283   1.128  16.931 -0.2348 -0.2143 -0.3359
  197MPD1    N1 3005   2.243   0.755  17.361  0.3283 -0.0224  0.0428
  197MPD1    H6 3006   2.341   0.738  17.342  1.0086  2.9205  0.8947
  197MPD1    H7 3007   2.189   0.669  17.351  1.4693 -0.8445  0.8993
  198MPD1     C 3008   4.024   4.473  15.677  0.0154  0.2920  0.7027
  198MPD1    C1 3009   4.117   4.370  15.655 -0.7071  0.4142 -0.4281
  198MPD1    C2 3010   4.232   4.379  15.729 -0.6006 -0.2089  0.0902
  198MPD1    C3 3011   4.246   4.471  15.829 -0.0675  1.6688 -0.5573
  198MPD1    C4 3012   4.156   4.577  15.836 -0.3440 -0.3177 -0.6021
  198MPD1    C5 3013   4.036   4.571  15.768  0.0883 -0.1527  0.1391
  198MPD1     H 3014   4.316   4.312  15.710  1.6887  1.9819  2.5390
  198MPD1    H1 3015   4.178   4.663  15.898 -0.8366  0.2163 -1.1622
  198MPD1    H2 3016   3.935   4.477  15.615  0.3312  3.0546  0.4280
  198MPD1    H3 3017   3.960   4.647  15.778 -0.1047 -0.3708  0.3325
  198MPD1     N 3018   4.375   4.476  15.877 -0.3715 -0.1712  0.2122
  198MPD1    H5 3019   4.444   4.417  15.831  0.6222  1.5845 -0.5718
  198MPD1    N1 3020   4.102   4.294  15.541 -0.0669  0.5204  0.1317
  198MPD1    H6 3021   4.005   4.274  15.519 -0.3183  0.1174  1.6295
  198MPD1    H7 3022   4.154   4.206  15.547  1.8960  1.5670 -1.2504
  199MPD1     C 3023   2.602   4.597  10.118 -0.0566 -0.1796 -0.4255
  199MPD1    C1 3024   2.564   4.723  10.157  0.6381  0.5656 -0.1247
  199MPD1    C2 3025   2.451   0.050  10.104 -0.2907 -0.1767  0.0137
  199MPD1    C3 3026   2.381   4.707  10.003 -0.1646  0.1227  0.1897
  199MPD1    C4 3027   2.416   4.579   9.962  0.2775 -0.1285  0.7505
  199MPD1    C5 3028   2.534   4.529  10.022 -0.5588 -0.0652 -0.1764
  199MPD1     H 3029   2.415   0.143  10.146 -2.0766 -0.5744 -0.6195
  199MPD1    H1 3030   2.378   4.523   9.878  2.0012  0.1136 -0.1801
  199MPD1    H2 3031   2.690   4.550  10.161  1.7555  4.2810  0.7316
  199MPD1    H3 3032   2.576   4.434   9.991 -0.7365  0.4691 -2.0715
  199MPD1     N 3033   2.285   0.032   9.920 -0.4619 -0.0074 -0.0276
  199MPD1    H5 3034   2.248   4.696   9.849 -0.9432 -0.4390  0.5997
  199MPD1    N1 3035   2.619   0.052  10.274 -0.0157 -0.1207 -0.3188
  199MPD1    H6 3036   2.595   0.151  10.277  2.1974  0.4149 -0.1873
  199MPD1    H7 3037   2.720   0.040  10.278 -0.1667 -0.4572  2.4292
  200MPD1     C 3038   1.992   1.377  14.775  0.2485 -0.2490 -0.3291
  200MPD1    C1 3039   1.897   1.345  14.680  0.1053 -0.2309  0.3830
  200MPD1    C2 3040   1.814   1.447  14.633 -0.7860  0.0198  0.3914
  200MPD1    C3 3041   1.808   1.567  14.698 -0.1869 -0.4337  0.5811
  200MPD1    C4 3042   1.899   1.595  14.793 -0.8733  0.3876  0.1312
  200MPD1    C5 3043   1.992   1.501  14.836  0.7145  0.3395 -0.2475
  200MPD1     H 3044   1.750   1.425  14.548  0.0293 -2.0938  0.3375
  200MPD1    H1 3045   1.900   1.688  14.848  3.4431 -0.8270  2.1534
  200MPD1    H2 3046   2.061   1.307  14.821  1.9453  1.0205 -0.9296
  200MPD1    H3 3047   2.064   1.519  14.915 -0.2953 -0.7800  0.9381
  200MPD1     N 3048   1.702   1.660  14.673  0.0037 -0.1198  0.1212
  200MPD1    H5 3049   1.722   1.752  14.711  3.8799 -0.6864 -0.5438
  200MPD1    N1 3050   1.907   1.227  14.605 -0.6415  0.6998  0.8393
  200MPD1    H6 3051   1.960   1.158  14.658 -2.2772 -1.3055 -0.1109
  200MPD1    H7 3052   1.817   1.201  14.565  0.7183 -1.8855 -0.5723
  201MPD1     C 3053   3.488   0.137  12.767 -0.7459  0.1401 -0.3397
  201MPD1    C1 3054   3.453   0.054  12.668 -0.4217 -0.8340 -0.4858
  201MPD1    C2 3055   3.450   4.642  12.696 -0.2677  0.4871 -0.4820
  201MPD1    C3 3056   3.497   4.595  12.818  0.0270  0.5211  0.6682
  201MPD1    C4 3057   3.533   4.682  12.921  0.4741  0.0189 -0.3828
  201MPD1    C5 3058   3.532   0.088  12.891 -0.6384  0.1664  0.4401
  201MPD1     H 3059   3.423   4.572  12.617  0.4510 -0.9921  0.5830
  201MPD1    H1 3060   3.580   4.655  13.014  0.8556  0.3806 -0.4663
  201MPD1    H2 3061   3.488   0.245  12.754 -0.7498 -0.0769 -2.0315
  201MPD1    H3 3062   3.559   0.164  12.963 -0.9765  1.0783 -0.3856
  201MPD1     N 3063   3.513   4.458  12.831 -0.4186  0.0590 -0.6611
  201MPD1    H5 3064   3.488   4.406  12.748 -2.0164 -0.3301  0.0732
  201MPD1    N1 3065   3.387   0.110  12.557  0.0619 -0.3606  0.2154
  201MPD1    H6 3066   3.431   0.201  12.546  2.5704 -1.7097 -1.0146
  201MPD1    H7 3067   3.406   0.060  12.470  0.2710 -1.4570  0.8972
  202MPD1     C 3068   3.245   4.205   9.118  0.2160  0.0750 -0.0488
  202MPD1    C1 3069   3.233   4.065   9.128  0.1236 -0.2855  0.0833
  202MPD1    C2 3070   3.266   4.008   9.249 -0.4983  0.3555  0.3577
  202MPD1    C3 3071   3.311   4.079   9.358 -0.2628 -0.4294 -0.5290
  202MPD1    C4 3072   3.329   4.213   9.342 -0.3405  0.6268  0.2063
  202MPD1    C5 3073   3.291   4.273   9.227  0.5164  0.1796 -0.5192
  202MPD1     H 3074   3.241   3.905   9.271 -1.3147 -0.0622 -2.4691
  202MPD1    H1 3075   3.353   4.274   9.428 -1.5165 -0.7253  1.4906
  202MPD1    H2 3076   3.199   4.270   9.044 -1.2238 -1.7666 -0.7900
  202MPD1    H3 3077   3.288   4.382   9.231  1.1970  0.1320  1.3361
  202MPD1     N 3078   3.358   4.025   9.478 -0.2005  0.4378 -0.6408
  202MPD1    H5 3079   3.395   4.087   9.549  1.4970  0.9091 -1.9344
  202MPD1    N1 3080   3.138   3.992   9.055  0.3968 -0.3085 -0.5463
  202MPD1    H6 3081   3.160   3.893   9.059  0.1124 -0.3784 -0.6723
  202MPD1    H7 3082   3.122   4.027   8.960 -0.0404 -0.8726 -0.6805
  203MPD1     C 3083   3.075   0.588  12.737  0.4148  1.2122  0.6041
  203MPD1    C1 3084   3.177   0.537  12.665 -0.0214  0.4622  0.9777
  203MPD1    C2 3085   3.207   0.402  12.667 -0.3022 -0.2285  0.0950
  203MPD1    C3 3086   3.133   0.316  12.741 -0.2081  0.5267 -0.0816
  203MPD1    C4 3087   3.033   0.368  12.819  0.5866 -0.1069  0.2050
  203MPD1    C5 3088   2.994   0.500  12.812  0.0965 -1.0531 -0.2311
  203MPD1     H 3089   3.301   0.366  12.626 -0.5868  1.6893 -2.2001
  203MPD1    H1 3090   2.972   0.314  12.890 -1.4009 -0.7537 -2.0101
  203MPD1    H2 3091   3.057   0.694  12.747 -1.1941  0.8282  1.7241
  203MPD1    H3 3092   2.914   0.539  12.874  3.5326  2.0793  2.2005
  203MPD1     N 3093   3.166   0.184  12.751  0.3023 -0.0942 -0.1939
  203MPD1    H5 3094   3.241   0.150  12.692 -0.6768 -2.0329 -0.3043
  203MPD1    N1 3095   3.263   0.629  12.602 -0.2833  0.0195  0.5790
  203MPD1    H6 3096   3.211   0.712  12.573 -1.0917 -1.3773 -2.0246
  203MPD1    H7 3097   3.313   0.592  12.521 -0.3079  0.5524  0.3238
  204MPD1     C 3098   0.988   1.151  17.554  0.4842  0.0270 -0.3719
  204MPD1    C1 3099   1.050   1.209  17.446 -0.0212  0.3626 -0.7598
  204MPD1    C2 3100   1.122   1.131  17.361  0.2514 -0.3245 -0.5314
  204MPD1    C3 3101   1.166   1.009  17.401 -0.0496  0.2516 -0.4147
  204MPD1    C4 3102   1.112   0.955  17.516  0.0236  0.4831 -0.2751
  204MPD1    C5 3103   1.025   1.024  17.589  0.2638 -0.1572 -0.8577
  204MPD1     H 3104   1.162   1.174  17.270  1.5265 -0.0072  0.1795
  204MPD1    H1 3105   1.143   0.862  17.562  0.1504 -0.2382 -1.8091
  204MPD1    H2 3106   0.911   1.199  17.614  0.8282  0.5366 -0.3476
  204MPD1    H3 3107   0.991   0.983  17.683 -0.6091  0.6886 -0.7994
  204MPD1     N 3108   1.257   0.935  17.321  0.0566 -0.2996 -0.1149
  204MPD1    H5 3109   1.286   0.985  17.238 -0.5522 -0.2646 -0.3101
  204MPD1    N1 3110   1.028   1.340  17.406 -0.0662  0.8519  0.1171
  204MPD1    H6 3111   1.003   1.398  17.486  0.9804  0.6969  0.5597
  204MPD1    H7 3112   1.113   1.375  17.362  0.8158 -1.4063  0.0017
  205MPD1     C 3113   1.861   4.726  16.019  0.5048 -0.7919  0.2992
  205MPD1    C1 3114   1.761   4.626  16.027 -0.2585 -0.6585 -0.1247
  205MPD1    C2 3115   1.719   4.589  16.152 -0.7997 -0.0073 -0.1129
  205MPD1    C3 3116   1.778   4.641  16.266 -0.4895  0.1498 -0.1683
  205MPD1    C4 3117   1.885   0.006  16.248 -0.6028  0.0735  0.3873
  205MPD1    C5 3118   1.934   0.040  16.125  1.0508 -0.0911  0.6991
  205MPD1     H 3119   1.633   4.524  16.163 -2.1709  2.0786  1.4945
  205MPD1    H1 3120   1.930   0.062  16.330  1.6561 -1.0934 -0.0469
  205MPD1    H2 3121   1.902   0.028  15.923 -1.2982  0.0040 -0.2283
  205MPD1    H3 3122   2.008   0.119  16.113 -0.6762  1.8215  2.5886
  205MPD1     N 3123   1.744   4.596  16.396 -0.7449  0.5510  0.0954
  205MPD1    H5 3124   1.796   4.639  16.472 -1.6333 -0.2761  1.1733
  205MPD1    N1 3125   1.683   4.608  15.912  0.3886 -0.2013 -0.6446
  205MPD1    H6 3126   1.634   4.520  15.924  1.9759 -0.9756  0.1377
  205MPD1    H7 3127   1.735   4.584  15.828  0.9853  0.3395 -0.4304
  206MPD1     C 3128   1.131   3.149  16.462  0.0265  0.0224 -0.1038
  206MPD1    C1 3129   1.236   3.063  16.433  0.6168  0.1763 -0.2362
  206MPD1    C2 3130   1.223   2.994  16.309  0.6486  0.6943  0.0713
  206MPD1    C3 3131   1.136   3.029  16.213  0.8707 -0.1741 -1.2627
  206MPD1    C4 3132   1.060   3.141  16.239  0.8305  0.2987  0.5959
  206MPD1    C5 3133   1.054   3.203  16.364  0.1420  0.4291  0.1630
  206MPD1     H 3134   1.289   2.911  16.287 -1.6333 -0.9531 -0.5592
  206MPD1    H1 3135   0.997   3.182  16.161 -1.7976 -2.9479  1.0214
  206MPD1    H2 3136   1.122   3.188  16.562  0.1785 -0.8110  0.2402
  206MPD1    H3 3137   0.986   3.284  16.389 -1.1156 -1.1309  1.7321
  206MPD1     N 3138   1.111   2.973  16.085 -0.1164  0.9337 -0.6790
  206MPD1    H5 3139   1.057   3.029  16.020 -0.5593  0.0123 -1.1002
  206MPD1    N1 3140   1.307   3.001  16.535  0.4207  0.5720  0.1114
  206MPD1    H6 3141   1.391   2.953  16.502 -0.7240 -1.7386  0.6017
  206MPD1    H7 3142   1.335   3.063  16.611  2.2514 -0.6993  0.4716
  207MPD1     C 3143   3.567   0.536   9.695 -0.3016  0.2466 -0.6762
  207MPD1    C1 3144   3.571   0.466   9.813  0.6236  0.6132  0.3697
  207MPD1    C2 3145   3.690   0.413   9.859 -0.1976  0.1557  0.2305
  207MPD1    C3 3146   3.800   0.468   9.799 -0.7422 -0.4309 -0.0490
  207MPD1    C4 3147   3.801   0.554   9.698  0.2839 -0.1691  0.1064
  207MPD1    C5 3148   3.679   0.586   9.643 -0.8753 -0.1913 -0.7857
  207MPD1     H 3149   3.696   0.351   9.947  0.3307 -0.2824 -0.1151
  207MPD1    H1 3150   3.893   0.586   9.650  1.1203  0.3701  2.0275
  207MPD1    H2 3151   3.473   0.557   9.647 -1.1383 -0.2754  0.7198
  207MPD1    H3 3152   3.671   0.634   9.546  2.3981 -0.2613 -1.0782
  207MPD1     N 3153   3.931   0.439   9.835 -0.9348 -0.4134 -0.0426
  207MPD1    H5 3154   4.014   0.482   9.794 -1.2154  1.8771  1.7777
  207MPD1    N1 3155   3.451   0.419   9.871 -0.5149  0.2287  0.2796
  207MPD1    H6 3156   3.366   0.470   9.850  0.9734  1.7720 -1.9031
  207MPD1    H7 3157   3.456   0.406   9.972  0.1041 -0.8319  0.1103
  208MPD1     C 3158   2.679   0.104  17.316 -0.6044 -0.1110  0.3001
  208MPD1    C1 3159   2.690   0.065  17.447 -0.3386  0.5922 -0.5290
  208MPD1    C2 3160   2.598   4.710  17.506 -0.2882 -0.3791  0.4556
  208MPD1    C3 3161   2.482   4.672  17.439  0.0932  0.4803 -0.4759
  208MPD1    C4 3162   2.457   0.007  17.316  0.1037  0.4915 -0.3058
  208MPD1    C5 3163   2.560   0.081  17.255 -0.3897 -0.2927  0.0719
  208MPD1     H 3164   2.634   4.674  17.602  0.2462  1.7684  1.0627
  208MPD1    H1 3165   2.370   4.707  17.258  0.9721 -2.6980 -0.1142
  208MPD1    H2 3166   2.769   0.137  17.265  0.1257 -2.2765  0.1805
  208MPD1    H3 3167   2.545   0.097  17.149  0.5171 -1.7263 -0.2699
  208MPD1     N 3168   2.415   4.558  17.494  0.4274 -0.0062  0.2190
  208MPD1    H5 3169   2.456   4.513  17.576 -0.6776  2.7675  2.2929
  208MPD1    N1 3170   2.820   0.082  17.505 -0.3298 -0.2667 -0.5075
  208MPD1    H6 3171   2.862   0.167  17.467  0.1414  1.2341  3.3268
  208MPD1    H7 3172   2.813   0.086  17.606 -2.1508  2.0735 -0.7210
  209MPD1     C 3173   4.633   4.401  11.421 -0.3361  0.4946  0.0332
  209MPD1    C1 3174   4.646   4.533  11.412 -0.0580  0.3078 -0.2872
  209MPD1    C2 3175   4.669   4.588  11.286 -1.2618 -0.1859  0.3167
  209MPD1    C3 3176   4.685   4.509  11.171 -0.7938  0.2310 -0.0466
  209MPD1    C4 3177   4.689   4.376  11.193  0.0229  0.7407 -0.2656
  209MPD1    C5 3178   4.665   4.324  11.312 -0.6969  0.3481  0.1115
  209MPD1     H 3179   4.676   4.694  11.266  4.1648 -0.5147  0.3754
  209MPD1    H1 3180   4.710   4.308  11.112 -1.1081  0.1831 -0.0961
  209MPD1    H2 3181   4.615   4.350  11.515  1.7979 -0.7801 -0.2511
  209MPD1    H3 3182   4.656   4.217  11.326 -0.2909  0.1332 -1.3164
  209MPD1     N 3183   4.714   4.563  11.051 -0.4776  0.3700  0.2566
  209MPD1    H5 3184   0.005   4.663  11.052 -1.0849  0.4599  1.9773
  209MPD1    N1 3185   4.623   4.608  11.526  0.4219 -0.2203 -0.0346
  209MPD1    H6 3186   4.656   4.562  11.611  1.2273 -0.4601 -0.4777
  209MPD1    H7 3187   4.648   4.706  11.522 -2.0429  0.4508  0.8226
  210MPD1     C 3188   0.833   4.570  10.470 -0.4115  0.4943 -0.2636
  210MPD1    C1 3189   0.807   4.583  10.607  0.6977  0.2681 -0.4025
  210MPD1    C2 3190   0.668   4.590  10.644 -0.3252  0.0448 -0.4294
  210MPD1    C3 3191   0.565   4.578  10.555  0.0643  0.9113 -1.0192
  210MPD1    C4 3192   0.596   4.546  10.428  0.3431  0.2521  0.9492
  210MPD1    C5 3193   0.730   4.542  10.382 -0.1719 -0.0132  0.1687
  210MPD1     H 3194   0.642   4.600  10.749 -0.0011  1.6367 -0.4934
  210MPD1    H1 3195   0.516   4.527  10.358  0.0014  1.5612  0.9983
  210MPD1    H2 3196   0.932   4.575  10.426 -1.4543 -1.3822 -2.8477
  210MPD1    H3 3197   0.741   4.518  10.277  2.1980 -0.7116  0.5925
  210MPD1     N 3198   0.429   4.571  10.592 -0.0162 -0.1268  0.1728
  210MPD1    H5 3199   0.369   4.530  10.520 -0.0063 -0.9818  0.6626
  210MPD1    N1 3200   0.910   4.623  10.694  0.7806 -0.7463  0.1285
  210MPD1    H6 3201   0.899   4.613  10.795  1.4148  2.7280  0.5210
  210MPD1    H7 3202   0.993   4.571  10.666  0.1338 -0.5296 -2.1829
  211MPD1     C 3203   2.129   0.419  15.478 -0.0719  0.1951 -0.3247
  211MPD1    C1 3204   2.127   0.421  15.614 -0.2361 -0.1831  0.5942
  211MPD1    C2 3205   2.007   0.463  15.679  0.4785 -0.1298  0.3736
  211MPD1    C3 3206   1.901   0.510  15.613  0.0860 -0.1438  0.1973
  211MPD1    C4 3207   1.902   0.510  15.478  0.0614 -0.1036 -0.0320
  211MPD1    C5 3208   2.021   0.466  15.413 -0.3864  0.5545 -0.2024
  211MPD1     H 3209   2.008   0.445  15.786 -0.1350 -2.1579  0.0354
  211MPD1    H1 3210   1.820   0.547  15.417  0.7083  0.6858 -0.4260
  211MPD1    H2 3211   2.222   0.398  15.425 -0.4117 -1.1324 -0.4038
  211MPD1    H3 3212   2.016   0.470  15.305  1.3560  4.4991 -0.1581
  211MPD1     N 3213   1.787   0.566  15.686  0.0536 -0.3700 -0.3785
  211MPD1    H5 3214   1.804   0.591  15.782 -0.4243  0.3814 -0.4916
  211MPD1    N1 3215   2.241   0.395  15.692  0.7202  0.5116  0.3077
  211MPD1    H6 3216   2.281   0.480  15.730 -0.9605  1.4263  0.0551
  211MPD1    H7 3217   2.310   0.342  15.638 -1.7400  0.3125 -2.6554
  212MPD1     C 3218   0.810   3.320  15.844  0.4025 -0.0321 -0.2556
  212MPD1    C1 3219   0.750   3.359  15.959  0.4690  0.9312  0.7325
  212MPD1    C2 3220   0.733   3.266  16.067  0.2999 -0.2189 -0.5075
  212MPD1    C3 3221   0.754   3.129  16.052  0.6754  0.2081 -0.8678
  212MPD1    C4 3222   0.805   3.092  15.934  0.6049 -0.4708  0.0561
  212MPD1    C5 3223   0.834   3.186  15.834  0.4704 -0.3147  0.2753
  212MPD1     H 3224   0.705   3.306  16.164  0.3393  1.9684 -1.4055
  212MPD1    H1 3225   0.814   2.985  15.922  0.3288 -0.5232  0.3079
  212MPD1    H2 3226   0.837   3.389  15.765 -2.0323  0.1174 -0.9329
  212MPD1    H3 3227   0.892   3.162  15.746 -2.1394 -0.9115 -1.2869
  212MPD1     N 3228   0.728   3.037  16.148 -0.2827 -0.1744  0.1990
  212MPD1    H5 3229   0.725   2.938  16.128 -2.9656  0.2743 -1.4886
  212MPD1    N1 3230   0.717   3.498  15.966  0.1500  0.4415 -0.0100
  212MPD1    H6 3231   0.629   3.510  16.016 -0.2111 -2.6395  0.1286
  212MPD1    H7 3232   0.713   3.538  15.873 -1.4979  0.9643  0.2772
  213MPD1     C 3233   4.337   4.052  15.585 -0.5121  0.6265  0.8292
  213MPD1    C1 3234   4.340   4.060  15.448 -0.0721  0.4856  0.0404
  213MPD1    C2 3235   4.218   4.034  15.381  0.1109  0.1095  0.0814
  213MPD1    C3 3236   4.107   3.986  15.445  0.1745  0.0177 -0.3174
  213MPD1    C4 3237   4.116   3.973  15.587  0.4833 -0.4111  0.2091
  213MPD1    C5 3238   4.233   3.996  15.648 -0.0134 -0.0041 -0.3991
  213MPD1     H 3239   4.207   4.071  15.280 -1.2009 -1.9815 -0.5213
  213MPD1    H1 3240   4.032   3.945  15.648 -1.6592  2.1684 -1.5704
  213MPD1    H2 3241   4.428   4.071  15.640 -1.6056  1.3004  2.3825
  213MPD1    H3 3242   4.241   3.992  15.756  0.7500 -1.1303 -0.5064
  213MPD1     N 3243   3.993   3.958  15.363 -0.1638 -0.3126 -0.3294
  213MPD1    H5 3244   4.002   3.961  15.262  0.0682  0.6358 -0.2749
  213MPD1    N1 3245   4.438   4.146  15.403 -0.0206  0.2077 -0.2349
  213MPD1    H6 3246   4.530   4.149  15.446 -0.3646 -0.2263  0.5288
  213MPD1    H7 3247   4.451   4.121  15.305  0.1008  1.1649 -0.4699
  214MPD1     C 3248   3.179   3.448  15.500  0.0530 -0.1850  0.2698
  214MPD1    C1 3249   3.136   3.526  15.398 -0.4597 -0.4457  0.0843
  214MPD1    C2 3250   3.227   3.619  15.339 -0.7617  0.8159 -0.3118
  214MPD1    C3 3251   3.349   3.639  15.394 -0.4760 -0.6359 -0.2210
  214MPD1    C4 3252   3.389   3.557  15.501  0.0293  0.4613  0.4908
  214MPD1    C5 3253   3.304   3.461  15.547  0.3587 -0.2829  0.1667
  214MPD1     H 3254   3.187   3.679  15.258  0.7076  0.8819 -0.9793
  214MPD1    H1 3255   3.484   3.565  15.553  1.1320 -0.3659 -1.3991
  214MPD1    H2 3256   3.112   3.376  15.545  2.5940 -1.7490  1.5584
  214MPD1    H3 3257   3.347   3.391  15.617  2.0416  1.7899  1.2241
  214MPD1     N 3258   3.439   3.730  15.345 -0.3365 -0.6961  0.5475
  214MPD1    H5 3259   3.521   3.729  15.404  0.0191 -0.5398  0.0463
  214MPD1    N1 3260   3.018   3.488  15.333 -0.0382  0.4138 -0.0356
  214MPD1    H6 3261   2.956   3.424  15.381 -0.4092  0.3715 -0.5631
  214MPD1    H7 3262   2.963   3.559  15.286 -2.0104 -1.6005 -0.7806
  215MPD1     C 3263   3.925   4.225  10.255 -0.6038 -0.5226  0.1002
  215MPD1    C1 3264   3.930   4.223  10.395 -0.1954 -0.5536  0.4103
  215MPD1    C2 3265   3.988   4.338  10.453 -0.2883 -0.1036 -0.0076
  215MPD1    C3 3266   4.014   4.454  10.380 -0.0475  0.6014 -0.0242
  215MPD1    C4 3267   3.972   4.459  10.246  0.2833 -0.0493 -0.8822
  215MPD1    C5 3268   3.942   4.341  10.188  0.0628 -0.4328  0.5477
  215MPD1     H 3269   4.028   4.336  10.554  1.5263 -1.7687 -0.7394
  215MPD1    H1 3270   3.981   4.544  10.180 -1.2887  1.7079  1.1622
  215MPD1    H2 3271   3.899   4.140  10.194 -0.6008  1.1039 -2.1597
  215MPD1    H3 3272   3.921   4.335  10.082  0.5182  1.8010  0.3488
  215MPD1     N 3273   4.077   4.569  10.442 -0.6447 -0.3181  0.0610
  215MPD1    H5 3274   4.101   4.567  10.540  3.8243  1.8737 -0.9757
  215MPD1    N1 3275   3.930   4.094  10.451  0.0171 -0.2272 -0.4485
  215MPD1    H6 3276   3.922   4.093  10.553  1.0001  1.2381 -0.3464
  215MPD1    H7 3277   3.870   4.027  10.405  0.6083 -1.5554  0.7272
  216MPD1     C 3278   0.421   2.693   0.684 -0.2090 -0.1097 -0.4595
  216MPD1    C1 3279   0.523   2.676   0.600 -0.8323  0.3371 -0.4501
  216MPD1    C2 3280   0.528   2.557   0.528  0.8275 -0.0793 -0.4427
  216MPD1    C3 3281   0.432   2.453   0.541 -0.3388  0.0668 -0.0847
  216MPD1    C4 3282   0.327   2.479   0.625 -0.3449 -0.5172 -0.2357
  216MPD1    C5 3283   0.323   2.591   0.697 -0.7738 -0.0467  0.8055
  216MPD1     H 3284   0.609   2.537   0.459  2.8469  1.0191  1.6174
  216MPD1    H1 3285   0.279   2.390   0.665 -1.3348 -0.2419 -0.7984
  216MPD1    H2 3286   0.399   2.788   0.732  0.9676  0.4401 -0.9986
  216MPD1    H3 3287   0.245   2.614   0.769 -1.4344  0.9002 -0.2156
  216MPD1     N 3288   0.455   2.325   0.486  0.3708 -0.3132 -0.0084
  216MPD1    H5 3289   0.543   2.308   0.437 -0.0336 -2.0849 -0.1216
  216MPD1    N1 3290   0.623   2.772   0.586  0.4086  0.9277 -0.2593
  216MPD1    H6 3291   0.658   2.800   0.678  0.2963 -0.6063  0.2586
  216MPD1    H7 3292   0.706   2.727   0.549 -0.7214  0.4308 -2.1646
  217MPD1     C 3293   2.642   4.579   8.071  0.0400  0.0404  0.4822
  217MPD1    C1 3294   2.737   4.592   8.173  0.1890 -0.3404  0.1518
  217MPD1    C2 3295   2.744   4.489   8.268 -0.4688 -0.2923 -0.0526
  217MPD1    C3 3296   2.649   4.382   8.257 -0.7470  0.2651 -0.8995
  217MPD1    C4 3297   2.563   4.370   8.145 -0.5418 -0.0481 -0.0070
  217MPD1    C5 3298   2.563   4.472   8.053  0.8228  0.3704 -0.0022
  217MPD1     H 3299   2.820   4.486   8.345 -0.5242 -1.5706 -0.0479
  217MPD1    H1 3300   2.499   4.284   8.125 -1.4420  0.7858 -0.7106
  217MPD1    H2 3301   2.627   4.642   7.985  1.1017  0.8777  0.9152
  217MPD1    H3 3302   2.517   4.459   7.956  2.7323 -2.4690 -0.5355
  217MPD1     N 3303   2.641   4.283   8.356  0.0335  1.1834  0.1344
  217MPD1    H5 3304   2.570   4.212   8.341 -0.6125  1.8412  0.1304
  217MPD1    N1 3305   2.802   4.710   8.198  0.4871 -0.0737 -0.3850
  217MPD1    H6 3306   2.887   4.706   8.254 -0.5280  0.4149  1.1747
  217MPD1    H7 3307   2.820   0.038   8.114 -0.2964  0.4413 -0.2154
  218MPD1     C 3308   3.616   0.513  12.939 -0.6595  0.2139  0.3589
  218MPD1    C1 3309   3.559   0.555  12.826  0.4577 -1.0527  0.4103
  218MPD1    C2 3310   3.607   0.513  12.708 -0.4988  0.0042 -0.1742
  218MPD1    C3 3311   3.718   0.425  12.701  0.2639  0.1019  0.0576
  218MPD1    C4 3312   3.789   0.392  12.819  0.1921  0.6332  0.4242
  218MPD1    C5 3313   3.730   0.434  12.936 -0.0382  0.3229  0.0910
  218MPD1     H 3314   3.552   0.541  12.619  0.4442  0.0561 -0.7327
  218MPD1    H1 3315   3.886   0.343  12.819  0.8550  1.9525 -1.6564
  218MPD1    H2 3316   3.580   0.554  13.033 -0.3404  0.4996  0.3557
  218MPD1    H3 3317   3.774   0.408  13.032 -1.2315 -0.6683  0.3637
  218MPD1     N 3318   3.763   0.380  12.574  0.3135  0.2949  0.2954
  218MPD1    H5 3319   3.722   0.426  12.493  1.0610  0.6677  0.1345
  218MPD1    N1 3320   3.454   0.653  12.838 -0.8681  0.1299  0.1153
  218MPD1    H6 3321   3.398   0.646  12.923 -2.1909 -2.0530 -0.9270
  218MPD1    H7 3322   3.388   0.647  12.760 -1.1670  0.4826  0.3392
  219MPD1     C 3323   4.029   0.466  11.608  0.2637  0.4345  0.3204
  219MPD1    C1 3324   3.942   0.535  11.688 -0.0418 -0.3930 -0.5410
  219MPD1    C2 3325   3.907   0.481  11.817 -0.0854  0.8493 -0.6182
  219MPD1    C3 3326   3.962   0.361  11.865 -0.0114 -0.1322  1.0077
  219MPD1    C4 3327   4.040   0.296  11.772 -0.0831  0.5689  0.1240
  219MPD1    C5 3328   4.070   0.348  11.647  0.1556 -0.2919 -0.1099
  219MPD1     H 3329   3.836   0.544  11.869 -1.9815 -1.0030 -0.9563
  219MPD1    H1 3330   4.076   0.195  11.785  1.7919  0.9156 -2.4482
  219MPD1    H2 3331   4.061   0.508  11.514  1.6186  2.6760  1.7773
  219MPD1    H3 3332   4.141   0.300  11.581 -0.5094  0.0611 -1.0845
  219MPD1     N 3333   3.927   0.302  11.989  0.2259 -0.0647  0.3408
  219MPD1    H5 3334   3.959   0.207  12.004  0.4800  0.0214  0.3479
  219MPD1    N1 3335   3.901   0.660  11.645  1.0577 -0.2723 -0.3924
  219MPD1    H6 3336   3.809   0.690  11.678  1.1108 -1.2347  0.6334
  219MPD1    H7 3337   3.895   0.665  11.544 -2.4009 -1.0130 -0.2431
  220MPD1     C 3338   3.235   1.275   9.385 -0.1129 -0.1620  0.3309
  220MPD1    C1 3339   3.169   1.253   9.507 -0.9519 -0.6278 -0.1634
  220MPD1    C2 3340   3.220   1.161   9.594 -0.1979 -0.0707  0.1127
  220MPD1    C3 3341   3.343   1.098   9.567 -0.3147  0.9909  0.2983
  220MPD1    C4 3342   3.409   1.126   9.453  0.2329 -0.1491  0.3790
  220MPD1    C5 3343   3.353   1.204   9.355  0.3461 -0.1423 -0.0747
  220MPD1     H 3344   3.165   1.128   9.681 -3.0211 -2.3225 -2.5270
  220MPD1    H1 3345   3.489   1.061   9.421 -0.2606 -1.4743  1.8485
  220MPD1    H2 3346   3.189   1.320   9.297  1.2297 -0.4836 -0.5369
  220MPD1    H3 3347   3.396   1.215   9.256  0.5165 -1.5834 -0.1644
  220MPD1     N 3348   3.394   1.019   9.669  0.0817 -0.8504 -0.5482
  220MPD1    H5 3349   3.334   0.999   9.749  1.1288  3.7876  1.3931
  220MPD1    N1 3350   3.036   1.297   9.519 -0.1032 -0.7504  0.3011
  220MPD1    H6 3351   3.020   1.381   9.464 -2.1541 -0.5385  1.2331
  220MPD1    H7 3352   2.998   1.302   9.614 -1.7162 -1.5541 -0.3064
  221MPD1     C 3353   1.805   0.141  15.626  0.1553 -0.3581  0.1703
  221MPD1    C1 3354   1.706   0.054  15.580  0.1108 -0.4416  0.4673
  221MPD1    C2 3355   1.722   4.648  15.588  0.5707  0.5633 -0.0792
  221MPD1    C3 3356   1.833   4.587  15.639 -0.8597  0.2600  0.5258
  221MPD1    C4 3357   1.946   4.675  15.664 -0.2023 -0.3976  0.7222
  221MPD1    C5 3358   1.929   0.085  15.657  0.5452  0.3960 -0.8979
  221MPD1     H 3359   1.644   4.586  15.544  0.2451  2.5574 -2.2674
  221MPD1    H1 3360   2.043   4.632  15.690  0.9042  1.3241 -0.5723
  221MPD1    H2 3361   1.786   0.248  15.617 -1.5674 -1.0512 -4.4534
  221MPD1    H3 3362   2.016   0.145  15.683  2.4450 -2.6458 -0.2827
  221MPD1     N 3363   1.857   4.448  15.662  0.6449  0.2617  0.2444
  221MPD1    H5 3364   1.954   4.421  15.682 -0.1791 -0.1362  3.7981
  221MPD1    N1 3365   1.596   0.107  15.511 -0.2812 -0.0359 -0.0829
  221MPD1    H6 3366   1.562   0.191  15.557  0.3225  0.6897 -0.9805
  221MPD1    H7 3367   1.514   0.046  15.517 -1.1179  1.2825  1.8479
  222MPD1     C 3368   0.846   2.224  16.550  0.0800  0.2914  0.7079
  222MPD1    C1 3369   0.795   2.175  16.665 -0.6962  0.2383  0.1317
  222MPD1    C2 3370   0.770   2.259  16.774  0.1758 -1.0802  0.3232
  222MPD1    C3 3371   0.781   2.393  16.755 -0.0557  0.5515  0.5585
  222MPD1    C4 3372   0.826   2.444  16.639 -0.1421  0.1759 -0.0347
  222MPD1    C5 3373   0.861   2.359  16.538  0.6703  0.9826 -0.7035
  222MPD1     H 3374   0.731   2.219  16.867  2.0258 -0.5242  1.3385
  222MPD1    H1 3375   0.840   2.550  16.627 -1.1444  0.1414 -1.4854
  222MPD1    H2 3376   0.869   2.167  16.460 -2.0036 -0.2003  0.4741
  222MPD1    H3 3377   0.889   2.396  16.439  0.9207 -1.2764 -1.4918
  222MPD1     N 3378   0.755   2.485  16.858  0.2256  0.2339  0.2088
  222MPD1    H5 3379   0.776   2.584  16.842 -0.2142  0.1002 -1.2326
  222MPD1    N1 3380   0.798   2.042  16.686 -0.1939 -0.5048  0.4213
  222MPD1    H6 3381   0.799   1.983  16.603 -0.8249  1.1661 -0.7669
  222MPD1    H7 3382   0.713   2.018  16.737 -0.0271 -2.0030 -0.0121
  223MPD1     C 3383   0.503   2.707   0.209  0.4747  0.2426  0.2947
  223MPD1    C1 3384   0.494   2.826   0.141 -0.0012  0.1584  0.0819
  223MPD1    C2 3385   0.528   2.817   0.008 -0.1293 -0.2844  0.0639
  223MPD1    C3 3386   0.572   2.700  17.660  0.4062  0.1985 -0.3695
  223MPD1    C4 3387   0.569   2.584   0.022  0.2201  0.0466 -0.1558
  223MPD1    C5 3388   0.536   2.589   0.153 -0.1917 -0.0525 -0.2761
  223MPD1     H 3389   0.519   2.905  17.654  1.7009 -1.5339 -1.9573
  223MPD1    H1 3390   0.581   2.486  17.685  1.6912  0.0640  0.2227
  223MPD1    H2 3391   0.481   2.701   0.315  0.8799  2.1424  0.4840
  223MPD1    H3 3392   0.520   2.503   0.217  4.1053  0.7626  1.8639
  223MPD1     N 3393   0.604   2.707  17.523  0.5544 -0.4834  0.3804
  223MPD1    H5 3394   0.589   2.800  17.485  0.5974  0.4717  2.6781
  223MPD1    N1 3395   0.467   2.950   0.217  0.2114  0.2433 -0.5113
  223MPD1    H6 3396   0.409   3.009   0.159  0.9208  2.6690  1.2309
  223MPD1    H7 3397   0.423   2.931   0.307  1.4614  0.2516  0.1147
  224MPD1     C 3398   2.859   0.337   9.699 -0.0727  0.4403  0.1928
  224MPD1    C1 3399   2.965   0.251   9.703 -0.0301  0.1731  0.1415
  224MPD1    C2 3400   2.951   0.118   9.699  0.4217 -0.1897 -0.8661
  224MPD1    C3 3401   2.822   0.073   9.696 -0.0333 -0.4855 -0.7019
  224MPD1    C4 3402   2.716   0.164   9.676 -0.0366 -0.2452 -0.1110
  224MPD1    C5 3403   2.731   0.298   9.687 -0.3415  0.0786  0.1496
  224MPD1     H 3404   3.041   0.057   9.708 -0.9435 -2.2790 -1.5375
  224MPD1    H1 3405   2.616   0.122   9.673 -0.2562  0.2025  0.8815
  224MPD1    H2 3406   2.866   0.445   9.700 -1.1667  0.5261 -1.6794
  224MPD1    H3 3407   2.649   0.367   9.674 -2.1750 -2.0135  0.6271
  224MPD1     N 3408   2.796   4.657   9.713  0.1874 -0.3686  0.6485
  224MPD1    H5 3409   2.702   4.624   9.729 -1.1418  1.6906 -3.0919
  224MPD1    N1 3410   3.094   0.305   9.717  0.1422 -0.2386 -0.6543
  224MPD1    H6 3411   3.095   0.386   9.778 -0.7570 -1.6271  1.1760
  224MPD1    H7 3412   3.158   0.229   9.740  0.6723  1.1181  2.2944
  225MPD1     C 3413   4.109   1.314  12.740 -0.5212 -0.2922 -0.6897
  225MPD1    C1 3414   4.113   1.195  12.665 -0.6139  0.1679  0.1860
  225MPD1    C2 3415   4.024   1.186  12.553  0.1855 -0.4809  0.5776
  225MPD1    C3 3416   3.952   1.292  12.503  1.1343 -0.7821  0.2465
  225MPD1    C4 3417   3.966   1.406  12.574 -0.7891 -0.5833 -0.0255
  225MPD1    C5 3418   4.039   1.417  12.691  0.4764 -0.7844 -0.2948
  225MPD1     H 3419   4.004   1.090  12.507 -0.5869  0.2439 -0.5960
  225MPD1    H1 3420   3.908   1.494  12.550 -0.9645 -0.2231  1.7304
  225MPD1    H2 3421   4.158   1.331  12.835 -4.4968  1.3563  1.0430
  225MPD1    H3 3422   4.038   1.513  12.742 -3.6166 -1.4630  0.9198
  225MPD1     N 3423   3.858   1.288  12.401  0.0982 -0.7415  0.7201
  225MPD1    H5 3424   3.846   1.382  12.364  1.2324 -1.0401 -0.3985
  225MPD1    N1 3425   4.174   1.081  12.723  0.2435  0.3384 -0.2885
  225MPD1    H6 3426   4.263   1.103  12.767 -1.0398 -1.6230  3.2605
  225MPD1    H7 3427   4.195   1.015  12.649 -3.4631 -2.1478  0.9092
  226MPD1     C 3428   1.993   4.710   9.206  0.6353  0.6380  0.0949
  226MPD1    C1 3429   2.082   4.684   9.308  0.1080 -0.7649  0.3211
  226MPD1    C2 3430   2.120   0.070   9.381  0.1586 -0.1424  0.1450
  226MPD1    C3 3431   2.045   0.192   9.373 -0.5721 -0.4656  0.6233
  226MPD1    C4 3432   1.942   0.200   9.277  0.0845  0.7033 -0.4892
  226MPD1    C5 3433   1.919   0.098   9.196 -0.1464  0.1769 -0.0756
  226MPD1     H 3434   2.196   0.052   9.456  0.5678 -0.9339 -0.4557
  226MPD1    H1 3435   1.879   0.287   9.266  0.2736  0.5973 -2.3258
  226MPD1    H2 3436   1.969   4.629   9.138 -1.3758 -0.3231  1.9392
  226MPD1    H3 3437   1.840   0.101   9.123 -0.5746 -2.3792  0.2802
  226MPD1     N 3438   2.071   0.310   9.441 -0.1404 -0.1261 -0.0991
  226MPD1    H5 3439   2.006   0.387   9.436 -0.0912 -0.1391 -0.9373
  226MPD1    N1 3440   2.158   4.572   9.297  0.4795 -0.0216  0.0705
  226MPD1    H6 3441   2.094   4.504   9.257  1.8700 -1.6421  0.5708
  226MPD1    H7 3442   2.189   4.544   9.390  0.4130 -0.8504 -0.1580
  227MPD1     C 3443   1.680   0.880   9.041  0.5015  0.2190 -0.3222
  227MPD1    C1 3444   1.669   0.755   9.092 -0.3988 -0.1623 -0.2817
  227MPD1    C2 3445   1.744   0.716   9.203  0.0490 -1.1190  0.5059
  227MPD1    C3 3446   1.842   0.796   9.256  0.4086  0.0560  0.1834
  227MPD1    C4 3447   1.854   0.922   9.204 -0.5394 -0.0530  0.0051
  227MPD1    C5 3448   1.770   0.962   9.103 -0.3519 -0.1619  0.5017
  227MPD1     H 3449   1.736   0.615   9.240 -2.0772 -0.7795  0.9837
  227MPD1    H1 3450   1.927   0.993   9.240 -0.2011 -0.5173  0.2306
  227MPD1    H2 3451   1.640   0.933   8.955  1.1568 -1.3101 -1.5773
  227MPD1    H3 3452   1.771   1.065   9.070 -2.2632  0.5285  2.5911
  227MPD1     N 3453   1.920   0.740   9.356  0.3604 -0.6153 -0.1761
  227MPD1    H5 3454   1.901   0.644   9.385 -0.9641 -0.6541 -1.1483
  227MPD1    N1 3455   1.559   0.676   9.054  0.1739  0.1722  0.6433
  227MPD1    H6 3456   1.573   0.576   9.070  0.8422  0.4216  1.6237
  227MPD1    H7 3457   1.540   0.688   8.955 -0.0880 -0.9717  0.5483
  228MPD1     C 3458   0.777   2.877  13.012  0.3938 -0.8917 -0.1008
  228MPD1    C1 3459   0.708   2.815  13.120 -0.3035  0.5713  0.5784
  228MPD1    C2 3460   0.569   2.828  13.113  0.1110  0.5001  0.3707
  228MPD1    C3 3461   0.502   2.903  13.010  0.2693 -0.2840  0.0158
  228MPD1    C4 3462   0.578   2.955  12.908  0.4774 -0.0179  0.2921
  228MPD1    C5 3463   0.716   2.932  12.911 -0.3080 -0.0646 -0.2706
  228MPD1     H 3464   0.507   2.770  13.179 -0.0671  1.3701  0.9684
  228MPD1    H1 3465   0.536   3.027  12.838 -1.0300 -0.2747  0.9310
  228MPD1    H2 3466   0.884   2.868  12.999  0.3594  1.6439 -2.1769
  228MPD1    H3 3467   0.783   2.978  12.840  0.3155  0.4628  0.6673
  228MPD1     N 3468   0.362   2.903  13.012 -0.0864  0.3915 -0.4376
  228MPD1    H5 3469   0.321   2.844  13.083  1.9836 -0.5057  0.0031
  228MPD1    N1 3470   0.766   2.719  13.202  0.5581  0.2195 -0.0101
  228MPD1    H6 3471   0.716   2.691  13.286  1.3695  0.1216  0.4408
  228MPD1    H7 3472   0.865   2.742  13.213  0.1747  0.1982  3.4731
  229MPD1     C 3473   4.535   2.251  14.464  0.2803 -0.0345  0.7032
  229MPD1    C1 3474   4.508   2.247  14.602 -0.2141  0.1645  0.5944
  229MPD1    C2 3475   4.537   2.127  14.668  0.0142 -0.1489  0.3149
  229MPD1    C3 3476   4.574   2.009  14.609 -0.2439  0.3780  0.4748
  229MPD1    C4 3477   4.585   2.009  14.475 -0.5469 -0.3004  0.6841
  229MPD1    C5 3478   4.577   2.131  14.412 -0.2010 -0.1750  0.4825
  229MPD1     H 3479   4.534   2.136  14.776 -1.2400  1.7332  0.1118
  229MPD1    H1 3480   4.623   1.921  14.424 -0.9252  1.6972 -3.0392
  229MPD1    H2 3481   4.524   2.337  14.398 -1.2782 -0.0365  0.9559
  229MPD1    H3 3482   4.594   2.142  14.306  1.4687  0.5136  0.8367
  229MPD1     N 3483   4.597   1.883  14.675  0.0518  0.4315  0.2094
  229MPD1    H5 3484   4.630   1.806  14.617 -0.6286 -0.3045  0.8117
  229MPD1    N1 3485   4.480   2.362  14.672  0.1233  0.5026  0.0938
  229MPD1    H6 3486   4.435   2.343  14.761 -0.0952  0.9393  0.0763
  229MPD1    H7 3487   4.414   2.414  14.616  2.5214  0.8404 -2.4444
  230MPD1     C 3488   0.285   1.486  15.559  0.0913 -0.2200 -0.1235
  230MPD1    C1 3489   0.355   1.442  15.451  0.2538  0.1285  0.0398
  230MPD1    C2 3490   0.299   1.468  15.326 -0.4731 -0.3993 -0.3434
  230MPD1    C3 3491   0.168   1.514  15.310  0.2301  0.1553 -0.2230
  230MPD1    C4 3492   0.111   1.574  15.417  1.3221 -0.4413  0.3805
  230MPD1    C5 3493   0.172   1.556  15.541 -0.1494 -0.2702  0.6515
  230MPD1     H 3494   0.356   1.434  15.240 -0.5607  0.4516 -0.7387
  230MPD1    H1 3495   0.020   1.631  15.412  1.5418 -0.0628  0.6927
  230MPD1    H2 3496   0.339   1.497  15.653 -2.0344 -0.3606  1.1183
  230MPD1    H3 3497   0.120   1.597  15.628 -1.6732 -1.2763  0.2200
  230MPD1     N 3498   0.109   1.510  15.178  0.2348  0.6543  0.3745
  230MPD1    H5 3499   0.171   1.479  15.105 -0.9949 -1.2066  0.1067
  230MPD1    N1 3500   0.487   1.400  15.469 -1.0464 -0.1009  0.1221
  230MPD1    H6 3501   0.498   1.340  15.550 -0.3347  0.1896  0.2390
  230MPD1    H7 3502   0.536   1.368  15.386  0.8991  1.2948  0.7360
  231MPD1     C 3503   2.302   3.698  15.601 -0.4088 -0.6174  0.9552
  231MPD1    C1 3504   2.326   3.627  15.486 -0.0202  0.1914  0.1267
  231MPD1    C2 3505   2.436   3.653  15.408  0.0295 -0.0316  0.1872
  231MPD1    C3 3506   2.524   3.750  15.448  0.3035 -0.9010 -0.3934
  231MPD1    C4 3507   2.507   3.816  15.572 -0.3005  0.6205 -0.2648
  231MPD1    C5 3508   2.396   3.788  15.643  0.2844  0.0146 -0.2164
  231MPD1     H 3509   2.460   3.606  15.314  0.9271  1.2663 -0.2302
  231MPD1    H1 3510   2.566   3.894  15.618 -0.4022 -0.1032  1.0958
  231MPD1    H2 3511   2.230   3.663  15.674 -1.4866 -1.2849 -0.4093
  231MPD1    H3 3512   2.379   3.820  15.745 -2.2045 -0.3646 -0.5148
  231MPD1     N 3513   2.634   3.787  15.364 -0.7135  0.2006  0.3427
  231MPD1    H5 3514   2.633   3.746  15.271 -0.8555  1.4720 -0.2145
  231MPD1    N1 3515   2.243   3.521  15.456 -0.1542  0.1288 -0.2591
  231MPD1    H6 3516   2.248   3.504  15.355 -1.3340  0.5841 -0.3953
  231MPD1    H7 3517   2.147   3.532  15.489 -0.1406  0.6251 -0.3904
  232MPD1     C 3518   0.611   2.193   0.946  0.4446  0.7438 -0.0098
  232MPD1    C1 3519   0.486   2.242   0.943 -0.2999 -0.3849  0.3615
  232MPD1    C2 3520   0.392   2.170   0.879 -0.5081 -0.4691 -0.4127
  232MPD1    C3 3521   0.414   2.039   0.846  0.1147 -0.2575  0.4260
  232MPD1    C4 3522   0.545   1.983   0.860 -0.1446 -0.1232  0.5476
  232MPD1    C5 3523   0.642   2.073   0.905  0.3275  0.1279  0.0160
  232MPD1     H 3524   0.290   2.206   0.871  0.1351  1.5749  0.8841
  232MPD1    H1 3525   0.575   1.889   0.815  1.1449 -1.0154  3.2796
  232MPD1    H2 3526   0.680   2.262   0.994  2.5280 -1.2832 -0.1027
  232MPD1    H3 3527   0.746   2.041   0.911  0.2226 -0.3062 -0.4983
  232MPD1     N 3528   0.304   1.974   0.783 -0.3903  0.7394 -0.1541
  232MPD1    H5 3529   0.214   2.021   0.790 -0.9065 -0.3502  0.4628
  232MPD1    N1 3530   0.460   2.373   0.973 -0.3155 -0.1656  0.9275
  232MPD1    H6 3531   0.363   2.365   1.003 -0.6858  0.2693 -0.1510
  232MPD1    H7 3532   0.514   2.387   1.058 -1.2682  2.6239  1.0931
  233MPD1     C 3533   0.809   4.633   0.902 -0.0229 -0.2333 -0.1463
  233MPD1    C1 3534   0.797   4.515   0.978  0.4590 -0.1691 -0.3206
  233MPD1    C2 3535   0.910   4.470   1.049 -0.4154 -0.1588 -0.3077
  233MPD1    C3 3536   1.028   4.540   1.026 -0.1210 -0.3635  0.2736
  233MPD1    C4 3537   1.040   4.655   0.947  0.3647 -0.5022  0.1594
  233MPD1    C5 3538   0.928   4.698   0.889 -0.1026 -0.1961 -0.4038
  233MPD1     H 3539   0.903   4.387   1.118  0.9676 -0.5780 -0.6747
  233MPD1    H1 3540   1.134   4.708   0.931  0.0263  0.0777  0.0837
  233MPD1    H2 3541   0.722   4.678   0.855 -0.2140 -1.2948 -0.8208
  233MPD1    H3 3542   0.920   0.065   0.835 -0.6414 -0.6122 -1.0489
  233MPD1     N 3543   1.152   4.505   1.097  0.0645 -0.1772  0.5213
  233MPD1    H5 3544   1.234   4.546   1.054 -0.5305 -0.2555 -0.6879
  233MPD1    N1 3545   0.670   4.461   1.004 -0.0160  0.5508  0.6151
  233MPD1    H6 3546   0.606   4.452   0.926 -0.1021 -0.2713  0.7803
  233MPD1    H7 3547   0.683   4.367   1.041  0.8707  1.1859  1.9027
  234MPD1     C 3548   3.185   2.643   9.296 -0.2638 -0.5609 -0.3008
  234MPD1    C1 3549   3.221   2.712   9.405  0.2728 -0.0984  0.5437
  234MPD1    C2 3550   3.239   2.850   9.402  1.5550  0.4165 -0.0065
  234MPD1    C3 3551   3.210   2.915   9.278  0.0234  0.1921  0.0298
  234MPD1    C4 3552   3.156   2.840   9.175 -0.0702  0.3430  0.2363
  234MPD1    C5 3553   3.148   2.710   9.185 -0.3095 -0.3529 -0.3084
  234MPD1     H 3554   3.294   2.907   9.477  1.2633 -0.0196  0.5339
  234MPD1    H1 3555   3.128   2.894   9.085 -1.1113 -1.9095 -0.7786
  234MPD1    H2 3556   3.163   2.537   9.290  1.2493 -0.8238 -1.0019
  234MPD1    H3 3557   3.099   2.658   9.103 -0.8992  0.7696 -0.6611
  234MPD1     N 3558   3.213   3.058   9.283 -0.3769  0.1478 -0.0545
  234MPD1    H5 3559   3.261   3.098   9.363  0.2406 -0.4004 -0.1547
  234MPD1    N1 3560   3.275   2.643   9.518  0.6298  0.1532 -0.0920
  234MPD1    H6 3561   3.294   2.693   9.605 -0.1068  0.3710 -0.0644
  234MPD1    H7 3562   3.211   2.569   9.547 -2.3103  2.3265 -1.1007
  235MPD1     C 3563   3.325   2.100   8.656  0.1502  0.4604  0.4281
  235MPD1    C1 3564   3.437   2.033   8.701  0.3318  0.5071  0.1807
  235MPD1    C2 3565   3.552   2.099   8.709  0.1637  0.0052  0.5410
  235MPD1    C3 3566   3.561   2.237   8.694 -0.0775  0.2630  0.3630
  235MPD1    C4 3567   3.443   2.309   8.668 -0.3250 -0.3832 -0.1689
  235MPD1    C5 3568   3.325   2.237   8.648 -0.7538 -0.1650 -0.7201
  235MPD1     H 3569   3.641   2.043   8.735 -0.5709 -1.8007 -0.7798
  235MPD1    H1 3570   3.439   2.417   8.662  0.1910 -0.2519  1.8556
  235MPD1    H2 3571   3.232   2.049   8.633 -0.0401  0.5138  1.0643
  235MPD1    H3 3572   3.233   2.296   8.650 -0.4941  0.2194 -0.1753
  235MPD1     N 3573   3.680   2.307   8.710 -0.3243 -0.0936  0.4828
  235MPD1    H5 3574   3.764   2.250   8.720  1.1309  1.7388 -1.0295
  235MPD1    N1 3575   3.439   1.894   8.703  0.1724  0.5438 -0.2818
  235MPD1    H6 3576   3.349   1.848   8.711  0.9006 -0.8282 -0.0073
  235MPD1    H7 3577   3.515   1.853   8.758 -1.0123  0.8371  1.5995
  236MPD1     C 3578   4.046   2.002   9.777 -0.0645  0.1846 -0.6542
  236MPD1    C1 3579   3.987   1.884   9.784 -0.1508  0.4660  0.3081
  236MPD1    C2 3580   4.032   1.803   9.885  0.3844  0.1183  0.4415
  236MPD1    C3 3581   4.144   1.828   9.964 -0.1243  0.2222  0.2627
  236MPD1    C4 3582   4.204   1.955   9.948 -0.5865 -0.3412  0.1346
  236MPD1    C5 3583   4.154   2.047   9.853  0.3576 -0.1489 -0.4776
  236MPD1     H 3584   3.972   1.714   9.901  1.3903 -0.6493 -0.0579
  236MPD1    H1 3585   4.288   1.989  10.007  0.9874 -0.1019 -2.2398
  236MPD1    H2 3586   4.003   2.068   9.703 -2.9516  2.1831  2.8413
  236MPD1    H3 3587   4.183   2.151   9.851 -1.6131  0.4683  2.4169
  236MPD1     N 3588   4.203   1.742  10.053 -0.0986  0.0697  0.3591
  236MPD1    H5 3589   4.296   1.772  10.081  1.1719 -2.8478 -0.7436
  236MPD1    N1 3590   3.867   1.851   9.721 -0.1818  0.0538 -0.4969
  236MPD1    H6 3591   3.856   1.750   9.725  1.5514 -0.2046 -1.9762
  236MPD1    H7 3592   3.845   1.887   9.629 -2.4244 -0.1660 -0.0421
  237MPD1     C 3593   3.017   4.477  15.970 -0.4455 -0.1454  0.0186
  237MPD1    C1 3594   2.898   4.458  15.899  0.3483 -0.0778 -0.5591
  237MPD1    C2 3595   2.869   4.550  15.802  0.3712 -0.5672  0.2071
  237MPD1    C3 3596   2.960   4.656  15.765 -0.0954  0.1297 -1.1219
  237MPD1    C4 3597   3.079   4.660  15.831  0.0968  0.3664 -0.5737
  237MPD1    C5 3598   3.106   4.572  15.932  0.2862 -0.5535 -0.3161
  237MPD1     H 3599   2.774   4.545  15.749  1.4414  1.0657 -1.8164
  237MPD1    H1 3600   3.149   0.014  15.811  1.0129 -0.7551 -1.9225
  237MPD1    H2 3601   3.048   4.415  16.053  1.2711 -0.0019 -0.5152
  237MPD1    H3 3602   3.196   4.580  15.992  0.6923  1.4636 -1.2002
  237MPD1     N 3603   2.934   0.030  15.671 -0.2119  0.1573  0.2557
  237MPD1    H5 3604   3.008   0.099  15.659  0.5180 -0.9715 -1.7062
  237MPD1    N1 3605   2.803   4.369  15.946  0.3066 -0.3345  0.6197
  237MPD1    H6 3606   2.744   4.335  15.870  3.3158 -1.6835 -1.1276
  237MPD1    H7 3607   2.832   4.299  16.014  0.0270  0.8258  1.9288
  238MPD1     C 3608   0.020   4.536  15.171  0.5236 -0.2671  0.2048
  238MPD1    C1 3609   4.726   4.417  15.227 -0.2182 -0.3628  0.2723
  238MPD1    C2 3610   4.655   4.324  15.164  0.0054 -0.3936  0.4985
  238MPD1    C3 3611   4.615   4.343  15.028  0.1210  0.0883 -0.1158
  238MPD1    C4 3612   4.642   4.464  14.965 -0.1243 -0.2185 -0.1108
  238MPD1    C5 3613   4.708   4.556  15.037 -0.6078 -0.4391  0.0237
  238MPD1     H 3614   4.633   4.226  15.205 -0.5294 -0.9623 -1.1553
  238MPD1    H1 3615   4.611   4.497  14.866  0.3469  1.9243  0.4425
  238MPD1    H2 3616   0.081   4.613  15.216  0.0278  0.0932  0.2558
  238MPD1    H3 3617   0.007   4.651  14.992  2.9106 -1.1075  0.6593
  238MPD1     N 3618   4.541   4.242  14.956  0.2779 -0.2344  0.0856
  238MPD1    H5 3619   4.521   4.267  14.860  1.7660  1.3200  0.1911
  238MPD1    N1 3620   0.041   4.389  15.360  0.3074 -0.3370 -0.5711
  238MPD1    H6 3621   0.011   4.454  15.433 -1.1775 -1.6188 -0.0520
  238MPD1    H7 3622   0.016   4.293  15.384 -1.6124 -0.2459 -2.2765
  239MPD1     C 3623   0.123   4.455  14.668 -0.1528 -0.1464 -0.9324
  239MPD1    C1 3624   0.174   4.384  14.562  0.0226  0.0024  0.1833
  239MPD1    C2 3625   0.167   4.441  14.434  0.0666  0.4494  0.4233
  239MPD1    C3 3626   0.111   4.567  14.411 -0.1879 -0.2122 -0.5165
  239MPD1    C4 3627   0.070   4.644  14.517 -0.0694 -0.1712  0.6150
  239MPD1    C5 3628   0.065   4.585  14.647  0.1841 -0.9469 -0.3677
  239MPD1     H 3629   0.201   4.385  14.348 -2.0454 -4.7316  2.9481
  239MPD1    H1 3630   0.026   0.015  14.503  0.6104  0.2368  1.3726
  239MPD1    H2 3631   0.122   4.415  14.769  0.3040  0.2063 -0.7900
  239MPD1    H3 3632   0.042   4.646  14.734 -2.1303 -1.0648 -0.8892
  239MPD1     N 3633   0.104   4.625  14.276 -0.5342 -0.0514 -0.4321
  239MPD1    H5 3634   0.063   4.718  14.273 -0.0041  0.1351 -1.6445
  239MPD1    N1 3635   0.235   4.261  14.587 -0.3397 -0.1863 -0.5530
  239MPD1    H6 3636   0.277   4.247  14.678 -0.7281 -2.9571 -0.7967
  239MPD1    H7 3637   0.293   4.226  14.510  1.9654 -1.2280  1.6740
  240MPD1     C 3638   4.690   4.509  13.676 -0.0675  0.4206 -0.2842
  240MPD1    C1 3639   0.017   4.389  13.715 -0.2060  0.8325 -0.0664
  240MPD1    C2 3640   0.008   4.346  13.853  0.1808 -0.6577 -0.6016
  240MPD1    C3 3641   4.654   4.415  13.941 -0.7443 -0.0421  0.3601
  240MPD1    C4 3642   4.597   4.532  13.895 -0.3476  0.2689  0.1966
  240MPD1    C5 3643   4.625   4.586  13.769  0.1128  0.3513 -0.1365
  240MPD1     H 3644   0.062   4.259  13.889  0.5989  0.0872  0.5539
  240MPD1    H1 3645   4.539   4.597  13.960  0.9095 -0.3309  1.9191
  240MPD1    H2 3646   4.681   4.532  13.571 -2.7479  0.8076  0.0195
  240MPD1    H3 3647   4.573   4.678  13.742  0.3576  0.6738  0.4971
  240MPD1     N 3648   4.625   4.361  14.066  0.5296 -0.0154  0.3600
  240MPD1    H5 3649   4.673   4.273  14.079  2.2007  1.2600  2.8381
  240MPD1    N1 3650   0.108   4.320  13.624 -0.1209 -0.0452  0.2541
  240MPD1    H6 3651   0.109   4.221  13.650  2.7549  0.0338  0.4584
  240MPD1    H7 3652   0.075   4.329  13.528  2.5499 -3.5629 -1.0030
  241MPD1     C 3653   4.295   0.033  14.964  0.0934  0.5009  0.3848
  241MPD1    C1 3654   4.297   4.622  14.984 -0.2686 -0.1371 -0.3649
  241MPD1    C2 3655   4.329   4.538  14.874 -0.5795 -0.1654 -0.2797
  241MPD1    C3 3656   4.369   4.594  14.752 -0.4285 -0.0387  0.3759
  241MPD1    C4 3657   4.369   0.005  14.740 -0.1157  0.2475 -0.0939
  241MPD1    C5 3658   4.321   0.086  14.835 -0.6149  0.3727 -0.0876
  241MPD1     H 3659   4.325   4.431  14.891  3.9266 -0.5377 -1.5322
  241MPD1    H1 3660   4.388   0.058  14.647 -0.9350 -1.7627 -1.4193
  241MPD1    H2 3661   4.271   0.093  15.051 -2.5264 -1.2602  0.8613
  241MPD1    H3 3662   4.308   0.194  14.826 -1.5065  0.2164 -0.6644
  241MPD1     N 3663   4.404   4.520  14.634  0.2533 -0.0067 -0.3729
  241MPD1    H5 3664   4.433   4.568  14.549 -0.1203  0.3698 -0.2890
  241MPD1    N1 3665   4.242   4.563  15.105 -0.4872  0.6699  0.1729
  241MPD1    H6 3666   4.279   4.470  15.122  2.1967  1.7341  0.0655
  241MPD1    H7 3667   4.254   4.624  15.186  0.3687 -1.5864  1.7407
  242MPD1     C 3668   4.108   2.991  15.673 -0.6418 -0.2178  0.9553
  242MPD1    C1 3669   3.991   2.927  15.630  0.1352 -0.1832 -0.2536
  242MPD1    C2 3670   3.983   2.871  15.511  0.4067  0.0780  0.0344
  242MPD1    C3 3671   4.095   2.870  15.428  0.5204  0.4294 -0.2798
  242MPD1    C4 3672   4.210   2.932  15.469  0.1176  0.1819 -0.5614
  242MPD1    C5 3673   4.216   2.995  15.590  0.2955 -0.3676 -0.5181
  242MPD1     H 3674   3.883   2.835  15.490  0.7385 -2.2995  2.5448
  242MPD1    H1 3675   4.304   2.926  15.416  0.3459  1.2640 -0.2763
  242MPD1    H2 3676   4.117   3.044  15.767 -0.3235 -0.4099  1.0332
  242MPD1    H3 3677   4.308   3.038  15.629 -1.1676  0.4709  1.9702
  242MPD1     N 3678   4.097   2.806  15.304 -0.4244  0.0659 -0.8893
  242MPD1    H5 3679   4.184   2.807  15.251 -0.0622  1.8008 -0.2447
  242MPD1    N1 3680   3.897   2.902  15.731 -0.2570 -0.3730  0.1120
  242MPD1    H6 3681   3.892   2.987  15.787  1.7278 -0.9384  1.1591
  242MPD1    H7 3682   3.806   2.871  15.698 -0.4397 -0.5377  0.7739
  243MPD1     C 3683   0.262   1.242  17.601 -0.4993 -0.3128  0.0026
  243MPD1    C1 3684   0.308   1.281  17.478 -0.8156  0.8339  0.1491
  243MPD1    C2 3685   0.426   1.233  17.434  0.2898  0.1042 -0.2039
  243MPD1    C3 3686   0.487   1.123  17.493  0.4105  0.6008 -0.0182
  243MPD1    C4 3687   0.432   1.086  17.614  0.3002 -0.3469 -0.1546
  243MPD1    C5 3688   0.329   1.150  17.674  0.0078 -0.6805  0.0230
  243MPD1     H 3689   0.467   1.272  17.341  2.1359 -0.0355  0.5551
  243MPD1    H1 3690   0.466   0.996  17.665 -2.6544 -0.5013  1.6127
  243MPD1    H2 3691   0.168   1.285  17.636 -0.7067 -1.3470  0.7137
  243MPD1    H3 3692   0.295   1.111   0.061 -1.6418 -0.2486 -0.3959
  243MPD1     N 3693   0.598   1.059  17.428 -0.3870  0.3199  0.2885
  243MPD1    H5 3694   0.618   1.100  17.338  1.0317 -0.1532  0.3852
  243MPD1    N1 3695   0.249   1.395  17.415  0.2659  0.2474  0.1563
  243MPD1    H6 3696   0.259   1.410  17.315 -1.2008 -3.2117 -0.5221
  243MPD1    H7 3697   0.155   1.424  17.441 -0.2588  0.2391 -1.7721
  244MPD1     C 3698   1.184   0.200  17.630 -0.3262  0.8524 -0.3890
  244MPD1    C1 3699   1.268   0.297  17.590 -0.1467  0.7497  0.3121
  244MPD1    C2 3700   1.223   0.405  17.518  0.0673  0.3526 -0.6148
  244MPD1    C3 3701   1.087   0.406  17.489  0.5797  0.2274  0.1086
  244MPD1    C4 3702   1.006   0.301  17.517 -0.4411  0.3220 -0.0290
  244MPD1    C5 3703   1.055   0.201  17.598 -0.3989 -0.4096  0.1355
  244MPD1     H 3704   1.271   0.499  17.495  2.4590 -0.5023  0.9668
  244MPD1    H1 3705   0.903   0.292  17.484 -0.1828  1.0412 -1.0122
  244MPD1    H2 3706   1.221   0.123  17.697 -2.2317  0.3502  0.0912
  244MPD1    H3 3707   0.991   0.119  17.626 -1.2602  0.4870  0.8095
  244MPD1     N 3708   1.034   0.519  17.424 -0.2149 -0.3917  0.3891
  244MPD1    H5 3709   1.099   0.596  17.410  1.0960 -1.7258 -0.8614
  244MPD1    N1 3710   1.405   0.289  17.634 -0.0844  0.1762 -0.0881
  244MPD1    H6 3711   1.460   0.306  17.551  1.0595  1.3260  0.8990
  244MPD1    H7 3712   1.424   0.199  17.678 -1.3184 -0.5923 -1.1097
  245MPD1     C 3713   4.246   2.194  12.586  0.2772  0.6388 -0.5622
  245MPD1    C1 3714   4.150   2.290  12.571 -0.8401  0.4803  0.0832
  245MPD1    C2 3715   4.058   2.320  12.676  0.4288 -0.4743 -0.4576
  245MPD1    C3 3716   4.053   2.241  12.793 -0.9480 -0.3240  0.3971
  245MPD1    C4 3717   4.154   2.147  12.804 -0.1004 -0.6677  0.0597
  245MPD1    C5 3718   4.240   2.118  12.700  0.2374  0.5723 -0.3229
  245MPD1     H 3719   3.990   2.404  12.672 -0.8593 -1.5674 -1.7645
  245MPD1    H1 3720   4.156   2.095  12.899 -0.7555 -1.1259 -0.1805
  245MPD1    H2 3721   4.333   2.179  12.523  0.1332 -1.1344 -0.3441
  245MPD1    H3 3722   4.321   2.050  12.724  1.9942  1.7262 -3.0030
  245MPD1     N 3723   3.966   2.279  12.894  0.4427  0.7399 -0.0712
  245MPD1    H5 3724   3.929   2.373  12.884 -3.5309 -0.8735 -0.7033
  245MPD1    N1 3725   4.150   2.380  12.463  0.9137 -0.6050 -0.5781
  245MPD1    H6 3726   4.205   2.359  12.380 -0.5330 -1.0035 -1.4389
  245MPD1    H7 3727   4.063   2.430  12.444  0.3614 -0.2408  2.8200
  246MPD1     C 3728   2.713   1.014   9.423  0.4211 -0.3761 -0.3316
  246MPD1    C1 3729   2.614   0.979   9.332  0.5696  0.6275 -0.1355
  246MPD1    C2 3730   2.611   1.057   9.215  0.5457  0.4825 -0.2205
  246MPD1    C3 3731   2.689   1.171   9.193  0.1405  0.0454 -0.7234
  246MPD1    C4 3732   2.789   1.193   9.286 -0.1937  0.3526 -0.7487
  246MPD1    C5 3733   2.807   1.112   9.393  0.6967  0.6855  0.1126
  246MPD1     H 3734   2.536   1.029   9.142 -0.9970  0.7165  1.2789
  246MPD1    H1 3735   2.854   1.280   9.285 -0.3683  0.4874 -0.3661
  246MPD1    H2 3736   2.722   0.950   9.511  1.9407 -0.0366 -0.2307
  246MPD1    H3 3737   2.881   1.131   9.468  0.3338  0.9901  0.3924
  246MPD1     N 3738   2.670   1.248   9.077 -0.1167  0.7377 -0.4966
  246MPD1    H5 3739   2.590   1.222   9.019 -0.3157 -0.2503  0.2144
  246MPD1    N1 3740   2.532   0.865   9.348 -0.0812 -0.6792 -0.1893
  246MPD1    H6 3741   2.499   0.854   9.444  0.9352 -0.5056  0.1866
  246MPD1    H7 3742   2.448   0.873   9.292 -1.3931  2.9806  2.2765
  247MPD1     C 3743   2.387   2.742  16.379  0.0152 -0.0982 -0.4661
  247MPD1    C1 3744   2.455   2.644  16.450 -0.6658 -0.3447 -0.3763
  247MPD1    C2 3745   2.444   2.514  16.414 -0.0318 -0.0700  0.6631
  247MPD1    C3 3746   2.378   2.485  16.299 -0.3561  0.3245 -0.6064
  247MPD1    C4 3747   2.320   2.584  16.225  0.2721 -0.4515  0.4857
  247MPD1    C5 3748   2.319   2.711  16.262 -0.1375  0.0874  0.6547
  247MPD1     H 3749   2.481   2.432  16.475  1.6363  1.2142  1.3607
  247MPD1    H1 3750   2.262   2.566  16.135  1.6792  1.9482 -0.9173
  247MPD1    H2 3751   2.387   2.846  16.411 -0.0964  0.2617 -1.5998
  247MPD1    H3 3752   2.272   2.785  16.198 -0.7746  0.2086  1.2610
  247MPD1     N 3753   2.360   2.353  16.252  0.4469 -0.0287 -0.7397
  247MPD1    H5 3754   2.335   2.346  16.153 -1.1519 -0.7019 -0.2951
  247MPD1    N1 3755   2.504   2.674  16.580 -0.3818 -0.0940 -0.4555
  247MPD1    H6 3756   2.582   2.617  16.611  0.0217  0.8425  0.2474
  247MPD1    H7 3757   2.530   2.772  16.591  2.1110 -0.9290  1.1393
  248MPD1     C 3758   3.118   2.648   0.064  1.2124  0.1887  0.2805
  248MPD1    C1 3759   3.018   2.580   0.126 -0.0881 -0.2462 -0.5339
  248MPD1    C2 3760   2.996   2.453   0.087  0.5092 -0.6234 -0.1970
  248MPD1    C3 3761   3.063   2.397  17.688  0.0645 -0.0154 -0.0887
  248MPD1    C4 3762   3.157   2.473  17.624 -0.4639  0.0004  0.0408
  248MPD1    C5 3763   3.184   2.599  17.667 -0.2509  0.4525  0.0190
  248MPD1     H 3764   2.929   2.394   0.149  0.1655 -1.5074 -1.4019
  248MPD1    H1 3765   3.230   2.443  17.549  1.7049 -1.7408  2.8734
  248MPD1    H2 3766   3.150   2.745   0.099  2.4016 -0.4577  1.0022
  248MPD1    H3 3767   3.256   2.655  17.608 -0.7345 -0.0697 -1.0671
  248MPD1     N 3768   3.050   2.257  17.665 -0.4167 -0.2027  0.0749
  248MPD1    H5 3769   3.011   2.201   0.032  0.2116 -1.6731 -0.7189
  248MPD1    N1 3770   2.971   2.623   0.249 -0.8297  0.0907  0.6455
  248MPD1    H6 3771   2.960   2.724   0.247  0.3866  0.2084 -0.5594
  248MPD1    H7 3772   2.881   2.579   0.259 -2.0223  1.8450 -2.2707
  249MPD1     C 3773   0.032   3.696  10.651 -0.0834 -0.0196  0.2785
  249MPD1    C1 3774   4.675   3.645  10.553  0.2632 -0.3024 -0.5133
  249MPD1    C2 3775   4.693   3.692  10.421 -0.4867  0.4615 -0.2901
  249MPD1    C3 3776   0.062   3.786  10.387 -0.3532 -0.6342 -0.5712
  249MPD1    C4 3777   0.140   3.833  10.491 -0.1162  0.4117 -0.5359
  249MPD1    C5 3778   0.120   3.797  10.620  0.2737 -0.1051 -0.0607
  249MPD1     H 3779   4.636   3.646  10.341  3.0451 -1.7279 -1.5225
  249MPD1    H1 3780   0.214   3.912  10.487  1.2574 -0.9588 -1.8305
  249MPD1    H2 3781   0.021   3.661  10.753 -1.3213  0.1877  0.2120
  249MPD1    H3 3782   0.164   3.851  10.703  1.6631 -2.3418  0.6355
  249MPD1     N 3783   0.066   3.833  10.257  0.1681 -0.4698 -0.0997
  249MPD1    H5 3784   4.718   3.797  10.199  0.7640 -1.4386 -0.2533
  249MPD1    N1 3785   4.603   3.529  10.576 -0.1557  0.0613  0.5538
  249MPD1    H6 3786   4.524   3.509  10.515 -0.1133  0.7183  0.2827
  249MPD1    H7 3787   4.555   3.552  10.663  3.4484  0.6466  2.4218
  250MPD2     C 3788   2.135   0.552  12.778  0.4590 -0.5222  0.0470
  250MPD2    C1 3789   2.013   0.579  12.839 -0.1654  0.6361  0.7961
  250MPD2    C2 3790   1.896   0.500  12.814 -0.1569 -0.7502 -0.0496
  250MPD2    C3 3791   1.908   0.394  12.720 -0.8653  0.7184 -0.1455
  250MPD2    C4 3792   2.033   0.363  12.669 -0.5354 -0.2086  0.4735
  250MPD2    C5 3793   2.141   0.437  12.700 -0.0611  0.0911  0.2744
  250MPD2     H 3794   1.805   0.515  12.871 -0.7325  1.3221 -1.5418
  250MPD2    H1 3795   2.051   0.280  12.602 -0.8521  0.1219 -0.0265
  250MPD2    H2 3796   2.224   0.613  12.791 -0.2384  0.5214 -0.0189
  250MPD2    H3 3797   2.236   0.401  12.660  1.2270  3.7414  0.0859
  250MPD2     N 3798   1.789   0.315  12.682 -0.0864 -0.5822 -0.7351
  250MPD2    H5 3799   1.800   0.239  12.615 -0.1491  0.4185 -1.8852
  250MPD2    N1 3800   2.006   0.690  12.922 -0.1827  0.1695 -0.3336
  250MPD2    H7 3801   2.093   0.738  12.941  0.0578 -0.3542 -0.1234
  251TMC3    C1 3802   1.933   0.885  13.026 -0.0202  0.9862  0.5028
  251TMC3    C2 3803   1.840   0.989  13.043  0.4567  0.1819 -0.0292
  251TMC3    C3 3804   1.878   1.094  13.124 -0.6448  0.2688 -1.0709
  251TMC3    C4 3805   2.062   0.905  13.066  0.1998 -0.5060  0.3592
  251TMC3    C5 3806   2.098   1.026  13.117 -0.3171  0.3325  0.3019
  251TMC3    C6 3807   2.009   1.113  13.162 -0.3622 -0.0096 -0.1386
  251TMC3     C 3808   1.894   0.758  12.974 -0.2458  0.6894 -0.5553
  251TMC3     O 3809   1.776   0.737  12.949  0.0616  0.7993 -0.2229
  251TMC3     H 3810   1.739   0.989  13.003  1.3353  1.5358 -2.2408
  251TMC3    H1 3811   2.135   0.825  13.064  0.3039 -0.4161  0.6340
  251TMC3    H2 3812   2.039   1.204  13.213 -0.2321  0.3969 -0.9312
  251TMC3    C7 3813   2.227   1.037  13.183 -0.8181 -0.9207  0.6638
  251TMC3    C8 3814   1.797   1.213  13.127 -0.2513  0.4689  0.1296
  251TMC3    O1 3815   2.238   1.108  13.283  0.1216 -0.0029  0.0310
  251TMC3    O2 3816   1.680   1.202  13.153  0.8582 -0.1052 -0.8460
  252TMC3    C1 3817   1.630   1.177   9.373 -0.0702 -0.1800 -0.0644
  252TMC3    C2 3818   1.685   1.253   9.278 -0.1628 -0.2336  0.6729
  252TMC3    C3 3819   1.821   1.276   9.292 -0.0491  0.0641  0.1175
  252TMC3    C4 3820   1.692   1.119   9.478 -0.4564 -0.6187 -0.2389
  252TMC3    C5 3821   1.826   1.134   9.483 -0.0474  0.7226  0.5150
  252TMC3    C6 3822   1.896   1.211   9.390  0.4481 -0.4239  1.3484
  252TMC3     C 3823   1.486   1.156   9.382 -0.3586 -0.2201  0.0708
  252TMC3     O 3824   1.415   1.221   9.301  0.1490  1.1236  0.2678
  252TMC3     H 3825   1.623   1.292   9.199  3.0349 -0.5101 -1.9963
  252TMC3    H1 3826   1.652   1.074   9.568  1.1391  0.8312  1.1920
  252TMC3    H2 3827   2.000   1.235   9.406  0.8143 -1.7682  0.9783
  252TMC3    C7 3828   1.899   1.101   9.600 -0.1933 -0.1405  0.1290
  252TMC3    C8 3829   1.900   1.347   9.188 -0.6033 -0.3639 -0.1990
  252TMC3    O1 3830   1.989   1.175   9.625 -0.3087  0.6916  0.5797
  252TMC3    O2 3831   1.845   1.343   9.078 -0.3072  0.1359  0.3875
  253MPD2     C 3832   2.553   0.407  14.662  0.3999 -0.2292 -0.3327
  253MPD2    C1 3833   2.418   0.407  14.680  0.7067 -0.3016 -0.5515
  253MPD2    C2 3834   2.363   0.477  14.788  0.1981  0.2306 -0.6365
  253MPD2    C3 3835   2.444   0.559  14.860 -0.1733  0.6740  0.0260
  253MPD2    C4 3836   2.570   0.570  14.841  0.4828  0.1986 -0.0680
  253MPD2    C5 3837   2.633   0.497  14.740  0.4056 -0.3914  0.4737
  253MPD2     H 3838   2.256   0.474  14.805  0.4136 -1.8396  0.3532
  253MPD2    H1 3839   2.637   0.631  14.901  1.1983 -0.2107 -0.4401
  253MPD2    H2 3840   2.607   0.343  14.593 -0.2422 -0.6981 -0.3930
  253MPD2    H3 3841   2.741   0.503  14.730  0.2922  1.0165  0.0379
  253MPD2     N 3842   2.395   0.647  14.956 -0.1646 -0.3895 -0.4882
  253MPD2    H5 3843   2.462   0.690  15.019 -1.5316 -0.3182  0.9461
  253MPD2    N1 3844   2.336   0.322  14.607 -0.4354  0.3008  0.4541
  253MPD2    H7 3845   2.237   0.315  14.631 -0.2041  2.0980  1.9533
  254TMC3    C1 3846   2.255   0.723  15.124  0.4399 -0.4071  0.2731
  254TMC3    C2 3847   2.138   0.792  15.143 -0.4494 -0.3483  0.9207
  254TMC3    C3 3848   2.097   0.816  15.276 -0.6230 -0.2532  0.1626
  254TMC3    C4 3849   2.327   0.669  15.232  0.1370 -0.6605 -0.3484
  254TMC3    C5 3850   2.272   0.691  15.361 -0.1035  0.2157  0.1672
  254TMC3    C6 3851   2.158   0.761  15.389  0.2919 -0.1033 -0.9544
  254TMC3     C 3852   2.265   0.664  14.994 -0.8666 -0.0120 -0.9227
  254TMC3     O 3853   2.162   0.623  14.940  0.5128 -0.2731 -0.2312
  254TMC3     H 3854   2.078   0.831  15.063 -0.3974 -1.7091  0.2159
  254TMC3    H1 3855   2.415   0.609  15.213  2.0010  3.0484 -3.4663
  254TMC3    H2 3856   2.129   0.784  15.491 -2.4377 -0.7454 -1.5893
  254TMC3    C7 3857   2.356   0.666  15.479  0.5478  0.5224  0.1509
  254TMC3    C8 3858   1.979   0.901  15.289  0.2100 -0.0061 -0.5840
  254TMC3    O1 3859   2.304   0.667  15.592  0.2391 -0.2237 -0.4205
  254TMC3    O2 3860   1.944   0.980  15.203  0.0321 -0.3825 -0.4996
  255MPD2     C 3861   1.292   2.282  10.039  1.0378  0.3971 -0.3589
  255MPD2    C1 3862   1.424   2.317  10.056  0.0908 -0.3690  0.4312
  255MPD2    C2 3863   1.518   2.214  10.090  0.9156 -0.4540  0.0895
  255MPD2    C3 3864   1.483   2.086  10.070  0.6050  0.1259  0.2123
  255MPD2    C4 3865   1.348   2.053  10.052  0.2415  0.5758  0.5363
  255MPD2    C5 3866   1.258   2.152  10.061 -0.3991 -0.1345 -0.0323
  255MPD2     H 3867   1.620   2.243  10.111  0.5402  0.0823  1.1711
  255MPD2    H1 3868   1.323   1.947  10.057 -1.8514  1.0860  0.5453
  255MPD2    H2 3869   1.217   2.357  10.016 -0.9983 -1.7295 -0.7617
  255MPD2    H3 3870   1.151   2.140  10.054 -0.7935  1.1432  4.0052
  255MPD2     N 3871   1.575   1.977  10.079  0.0408  0.0868 -0.2090
  255MPD2    H5 3872   1.523   1.893  10.100  0.8508 -0.1966  0.6773
  255MPD2    N1 3873   1.464   2.451  10.039 -0.4856  0.3167  0.1720
  255MPD2    H7 3874   1.400   2.513   9.989  1.0364  0.8436 -1.1105
  256TMC3    C1 3875   1.597   2.642  10.008 -0.6862 -0.1025  0.1757
  256TMC3    C2 3876   1.722   2.688   9.958 -0.9078  0.1875 -0.2785
  256TMC3    C3 3877   1.721   2.808   9.893  0.1048  0.3820 -0.1891
  256TMC3    C4 3878   1.485   2.721  10.007  0.3001 -0.2425  0.3423
  256TMC3    C5 3879   1.497   2.844   9.947 -0.2383 -0.3644  0.3109
  256TMC3    C6 3880   1.614   2.892   9.880  0.6707  0.3625  0.1347
  256TMC3     C 3881   1.590   2.503  10.054  0.2705  0.8366 -0.5035
  256TMC3     O 3882   1.692   2.457  10.104  0.5855 -0.2283  0.3017
  256TMC3     H 3883   1.818   2.638   9.960  0.4357  2.6972 -1.5379
  256TMC3    H1 3884   1.391   2.691  10.051 -1.6599  1.9781 -2.3239
  256TMC3    H2 3885   1.600   2.979   9.816  1.0870 -0.1362 -0.6402
  256TMC3    C7 3886   1.381   2.929   9.928 -0.5186 -0.1274 -0.3906
  256TMC3    C8 3887   1.841   2.827   9.814 -0.1512  0.4344  0.1614
  256TMC3    O1 3888   1.403   3.041   9.879 -0.2337 -0.1670  0.0532
  256TMC3    O2 3889   1.916   2.735   9.790 -0.1378  0.4119 -0.1507
  257MPD2     C 3890   0.137   0.589  13.001  0.5194 -0.5229 -0.0541
  257MPD2    C1 3891   0.159   0.508  12.886 -1.2181  0.2902 -0.3200
  257MPD2    C2 3892   0.184   0.372  12.898 -0.0743 -0.3156 -0.4134
  257MPD2    C3 3893   0.172   0.306  13.019 -0.2664  0.6818 -0.4043
  257MPD2    C4 3894   0.137   0.378  13.129 -0.0096  0.1806 -0.2453
  257MPD2    C5 3895   0.130   0.514  13.118 -0.1662 -0.0053  0.8590
  257MPD2     H 3896   0.211   0.324  12.804 -3.2973  0.5170 -1.7740
  257MPD2    H1 3897   0.103   0.327  13.218  1.5289 -0.6114 -0.1134
  257MPD2    H2 3898   0.109   0.693  12.995  2.1350 -0.1830 -1.5665
  257MPD2    H3 3899   0.084   0.564  13.202 -1.5092 -0.0069  0.1268
  257MPD2     N 3900   0.194   0.165  13.022  0.5670  0.7796 -0.4986
  257MPD2    H5 3901   0.198   0.121  12.931  0.4700 -0.8805  0.2822
  257MPD2    N1 3902   0.157   0.578  12.765 -0.5731  0.0435  0.5217
  257MPD2    H7 3903   0.160   0.679  12.759 -0.5698  0.0171  0.0786
  258TMC3    C1 3904   0.217   4.676  13.093  0.3967  0.5115  0.8628
  258TMC3    C2 3905   0.140   4.627  12.984 -0.3606  0.2741 -0.4373
  258TMC3    C3 3906   0.122   4.489  12.973  0.1959 -0.1891  0.2928
  258TMC3    C4 3907   0.278   4.587  13.176  0.1299  0.1885 -0.0602
  258TMC3    C5 3908   0.254   4.448  13.162  0.0586  0.1067  0.0799
  258TMC3    C6 3909   0.170   4.401  13.064 -0.0529  0.0097  0.5887
  258TMC3     C 3910   0.193   0.085  13.135  0.1527 -0.0654  0.0674
  258TMC3     O 3911   0.208   0.116  13.251 -0.1704  0.6496 -0.1205
  258TMC3     H 3912   0.093   4.692  12.911  0.0522  0.7748 -0.2616
  258TMC3    H1 3913   0.330   4.622  13.264 -1.2883  0.1906  0.7844
  258TMC3    H2 3914   0.166   4.294  13.044  0.6790  0.3092 -1.2348
  258TMC3    C7 3915   0.367   4.361  13.188 -0.1078 -0.5619  0.0452
  258TMC3    C8 3916   0.070   4.444  12.845 -0.8901  0.5264 -0.8719
  258TMC3    O1 3917   0.394   4.281  13.100  0.3037 -0.1604  0.0118
  258TMC3    O2 3918   0.013   4.522  12.769 -1.0143  0.1307  0.0267
  259MPD2     C 3919   3.285   1.875   0.988  0.0995 -0.2146  0.2068
  259MPD2    C1 3920   3.412   1.892   1.046  0.1789 -0.2495 -0.0994
  259MPD2    C2 3921   3.511   1.933   0.956 -0.0518  0.2414 -0.0461
  259MPD2    C3 3922   3.494   1.951   0.821 -0.3185 -0.4514  0.2989
  259MPD2    C4 3923   3.368   1.939   0.768  1.3130 -0.1150  0.8040
  259MPD2    C5 3924   3.265   1.896   0.854  0.4151 -0.4747 -1.1243
  259MPD2     H 3925   3.612   1.943   0.993 -0.0836  0.9563 -0.1603
  259MPD2    H1 3926   3.344   1.959   0.664  2.7590  0.5524  0.6072
  259MPD2    H2 3927   3.193   1.842   1.035 -0.2133  0.9966  0.4440
  259MPD2    H3 3928   3.173   1.864   0.807 -0.9210 -1.1132  1.9097
  259MPD2     N 3929   3.606   1.958   0.736  0.3131 -0.3824  0.2428
  259MPD2    H5 3930   3.697   1.983   0.774  0.6280 -0.6261 -0.3486
  259MPD2    N1 3931   3.425   1.891   1.190  0.1508 -0.4730 -0.0155
  259MPD2    H7 3932   3.340   1.869   1.241  1.3374  0.1597  2.2463
  260TMC3    C1 3933   3.734   1.935   0.542 -0.7510  0.4128 -0.3204
  260TMC3    C2 3934   3.817   2.033   0.576  0.5085  0.3782 -0.1358
  260TMC3    C3 3935   3.897   2.096   0.478  0.4671 -0.7038 -0.2042
  260TMC3    C4 3936   3.734   1.883   0.414 -0.0338 -0.6790  0.4735
  260TMC3    C5 3937   3.819   1.939   0.327  0.2901  0.3831  0.0786
  260TMC3    C6 3938   3.903   2.039   0.358  0.0752 -0.3950 -0.9093
  260TMC3     C 3939   3.605   1.913   0.607  0.6104  0.2821 -0.2437
  260TMC3     O 3940   3.513   1.853   0.549  0.1689  0.1629  0.9182
  260TMC3     H 3941   3.800   2.089   0.668  1.0541  2.5311 -1.3328
  260TMC3    H1 3942   3.671   1.802   0.380 -0.8726 -1.1070  3.1030
  260TMC3    H2 3943   3.979   2.072   0.288  1.1015 -2.3397 -0.7139
  260TMC3    C7 3944   3.841   1.865   0.200  0.0051  1.2252 -0.4728
  260TMC3    C8 3945   4.005   2.187   0.511 -0.2359  0.4337 -0.1635
  260TMC3    O1 3946   3.813   1.748   0.191  0.1984  0.3505 -0.4767
  260TMC3    O2 3947   3.982   2.296   0.571  0.2957 -0.5041 -0.0676
  261MPD2     C 3948   1.004   0.501  12.395 -0.2849 -0.5696 -0.0016
  261MPD2    C1 3949   1.084   0.417  12.320 -0.3950 -0.2954 -0.8723
  261MPD2    C2 3950   1.061   0.423  12.182 -1.3586  0.1433  0.0538
  261MPD2    C3 3951   0.976   0.513  12.121  0.1926 -0.2053 -0.3017
  261MPD2    C4 3952   0.897   0.588  12.199  0.5453  0.2580  0.1657
  261MPD2    C5 3953   0.908   0.577  12.336 -0.1990  0.0839 -0.2218
  261MPD2     H 3954   1.129   0.368  12.117 -1.7335 -0.7470  0.4093
  261MPD2    H1 3955   0.815   0.653  12.170  0.2817  0.3377  1.1092
  261MPD2    H2 3956   1.015   0.494  12.503  1.4898 -2.6091 -0.3041
  261MPD2    H3 3957   0.845   0.632  12.405 -0.9580 -0.7334 -0.2689
  261MPD2     N 3958   0.976   0.520  11.982 -0.0464  0.3289 -0.0164
  261MPD2    H5 3959   1.045   0.461  11.935  0.3526  0.8245 -0.0516
  261MPD2    N1 3960   1.193   0.338  12.368 -0.0909 -0.1363  0.4225
  261MPD2    H7 3961   1.230   0.274  12.299 -0.4286  0.7918 -0.6209
  262TMC3    C1 3962   0.917   0.617  11.771 -0.6638 -0.7024 -0.2905
  262TMC3    C2 3963   0.816   0.676  11.695  0.5779  0.5908 -0.9008
  262TMC3    C3 3964   0.853   0.731  11.578 -0.3785  0.0063 -0.0078
  262TMC3    C4 3965   1.051   0.624  11.738  0.1955 -0.1082 -0.3945
  262TMC3    C5 3966   1.084   0.698  11.620  0.1138  0.1598 -0.0884
  262TMC3    C6 3967   0.985   0.747  11.544  0.0176 -0.1527 -0.5167
  262TMC3     C 3968   0.881   0.584  11.908  0.3774 -0.3354 -0.3577
  262TMC3     O 3969   0.772   0.630  11.941  0.6645  0.1213  0.3033
  262TMC3     H 3970   0.714   0.661  11.727  0.4498  0.7165 -1.2497
  262TMC3    H1 3971   1.124   0.613  11.817 -0.9372  1.3758  0.8585
  262TMC3    H2 3972   1.006   0.756  11.438  0.2783  0.7770 -0.3816
  262TMC3    C7 3973   1.200   0.790  11.630  0.1544  0.4497  0.2412
  262TMC3    C8 3974   0.786   0.858  11.545 -0.0056 -0.0027 -0.8690
  262TMC3    O1 3975   1.288   0.763  11.709  0.2017 -0.3598  0.0051
  262TMC3    O2 3976   0.827   0.931  11.453 -0.2184  0.2646  0.8999
  263MPD2     C 3977   2.069   4.446  11.746  0.6560 -0.0065 -0.3275
  263MPD2    C1 3978   2.164   4.478  11.655 -0.4637 -0.4752 -0.2734
  263MPD2    C2 3979   2.121   4.529  11.537 -0.7533  0.5629 -0.6164
  263MPD2    C3 3980   1.988   4.531  11.491 -0.2723 -0.4782  0.9593
  263MPD2    C4 3981   1.893   4.491  11.583 -0.0984  0.8658 -0.1588
  263MPD2    C5 3982   1.937   4.448  11.706  0.2190 -0.9872  0.1663
  263MPD2     H 3983   2.198   4.554  11.465 -0.5063  0.3679 -0.4158
  263MPD2    H1 3984   1.793   4.473  11.547  1.3840 -1.6366 -3.0815
  263MPD2    H2 3985   2.092   4.411  11.846 -0.9033  1.9535  0.7115
  263MPD2    H3 3986   1.866   4.406  11.776  0.7074 -2.4006 -0.1797
  263MPD2     N 3987   1.964   4.592  11.360  0.6461  0.2225  0.6389
  263MPD2    H5 3988   2.046   4.622  11.309  1.4969  0.3762  2.1098
  263MPD2    N1 3989   2.304   4.454  11.696  0.6282  0.6032 -1.2684
  263MPD2    H7 3990   2.312   4.425  11.793  1.0804  0.1126 -1.4523
  264TMC3    C1 3991   1.866   4.694  11.189 -0.6038 -0.5796 -0.0105
  264TMC3    C2 3992   1.793   0.084  11.179 -0.4369 -0.4134 -0.4873
  264TMC3    C3 3993   1.825   0.171  11.081  0.2171  0.0853  0.3003
  264TMC3    C4 3994   1.973   4.669  11.111 -0.2765 -0.3685 -0.0264
  264TMC3    C5 3995   1.996   0.027  11.012  1.0131  0.0962 -0.1156
  264TMC3    C6 3996   1.916   0.137  10.990  0.3866 -0.2917  0.0061
  264TMC3     C 3997   1.843   4.628  11.313  0.1580 -0.0387 -0.5878
  264TMC3     O 3998   1.734   4.645  11.367 -0.3917  0.7373 -0.4349
  264TMC3     H 3999   1.711   0.102  11.247 -0.4137 -0.6948 -0.3882
  264TMC3    H1 4000   2.042   4.587  11.128 -0.2179 -0.4981 -0.9185
  264TMC3    H2 4001   1.931   0.201  10.903 -2.8356  0.6724  0.1514
  264TMC3    C7 4002   2.133   0.061  10.979  0.0538  0.1070 -0.2385
  264TMC3    C8 4003   1.808   0.317  11.108 -0.4640 -0.8054  0.9301
  264TMC3    O1 4004   2.218   4.708  10.941  0.6413 -0.0405  0.1545
  264TMC3    O2 4005   1.835   0.387  11.015 -0.1813  0.3655 -0.3208
  265MPD2     C 4006   3.611   0.248  15.233 -0.1061 -0.0974 -0.7674
  265MPD2    C1 4007   3.680   0.357  15.179  0.2853  0.5583 -0.7654
  265MPD2    C2 4008   3.770   0.325  15.080 -0.5131  0.0588 -0.9550
  265MPD2    C3 4009   3.804   0.197  15.044 -0.1727 -0.7159  0.1573
  265MPD2    C4 4010   3.744   0.095  15.112 -0.1434  0.4655 -0.0483
  265MPD2    C5 4011   3.643   0.123  15.197  0.2930  0.0566 -0.1419
  265MPD2     H 4012   3.828   0.406  15.037  3.2757 -2.4220 -0.5503
  265MPD2    H1 4013   3.775   4.721  15.088  1.7226  0.9224  0.4146
  265MPD2    H2 4014   3.537   0.254  15.311 -0.8921  1.1427 -1.6175
  265MPD2    H3 4015   3.589   0.042  15.245  2.9165 -1.5797  0.0501
  265MPD2     N 4016   3.887   0.162  14.940  0.4172  0.6706 -0.5011
  265MPD2    H5 4017   3.909   0.063  14.931  0.6627  0.6510  0.3177
  265MPD2    N1 4018   3.673   0.488  15.218  0.1647  0.0880 -0.7026
  265MPD2    H7 4019   3.737   0.555  15.176 -0.4635 -1.0535 -3.4792
  266TMC3    C1 4020   3.589   0.680  15.346 -0.6000 -1.0635 -0.9519
  266TMC3    C2 4021   3.545   0.705  15.472  0.7326  0.3207 -0.2412
  266TMC3    C3 4022   3.575   0.826  15.525  0.0503  0.2682 -0.1446
  266TMC3    C4 4023   3.654   0.780  15.268 -1.0100  0.4673 -0.5449
  266TMC3    C5 4024   3.661   0.897  15.323  0.7507  0.0786 -0.1226
  266TMC3    C6 4025   3.631   0.923  15.454  0.0245 -0.5219 -0.5459
  266TMC3     C 4026   3.584   0.537  15.312  0.3633 -0.0314 -0.0638
  266TMC3     O 4027   3.497   0.473  15.365  0.2764  0.2150 -0.3742
  266TMC3     H 4028   3.509   0.630  15.541  2.2426 -0.1371  0.0656
  266TMC3    H1 4029   3.694   0.770  15.167  1.9366  0.1943  0.6520
  266TMC3    H2 4030   3.656   1.019  15.500 -1.8336  0.0159 -0.6492
  266TMC3    C7 4031   3.689   1.006  15.221  0.0457 -0.6793 -0.2359
  266TMC3    C8 4032   3.608   0.829  15.663 -0.7595 -0.0286  1.4600
  266TMC3    O1 4033   3.643   0.991  15.109  0.3583 -0.2024  0.5736
  266TMC3    O2 4034   3.601   0.723  15.722  0.7405 -0.1484 -0.2538
  267MPD2     C 4035   1.153   1.611   0.445 -0.1898  0.7457 -0.5359
  267MPD2    C1 4036   1.131   1.745   0.403  0.0861 -1.1965  0.4904
  267MPD2    C2 4037   1.005   1.803   0.421 -0.1391  0.4082 -0.3198
  267MPD2    C3 4038   0.896   1.732   0.460  0.4125  0.0667 -0.5024
  267MPD2    C4 4039   0.913   1.595   0.486  0.0812 -0.5710 -0.1503
  267MPD2    C5 4040   1.042   1.540   0.477 -0.1743 -0.3860  0.6994
  267MPD2     H 4041   0.995   1.908   0.394  1.5906  0.7069  0.1670
  267MPD2    H1 4042   0.837   1.529   0.525 -0.2830  0.4225  0.8078
  267MPD2    H2 4043   1.251   1.565   0.450 -0.8530 -0.7054 -0.8577
  267MPD2    H3 4044   1.043   1.435   0.501  1.7923 -0.6289 -0.4660
  267MPD2     N 4045   0.767   1.787   0.477 -0.6438  0.4811 -0.0733
  267MPD2    H5 4046   0.697   1.724   0.512 -0.0411  0.5920  1.3414
  267MPD2    N1 4047   1.243   1.824   0.360  0.0519 -0.3863 -0.6866
  267MPD2    H7 4048   1.332   1.776   0.361 -0.4167 -1.2579 -0.6940
  268TMC3    C1 4049   1.384   2.011   0.304  0.9634 -0.1070 -0.3864
  268TMC3    C2 4050   1.425   2.090   0.197  0.0357 -0.5756  0.0297
  268TMC3    C3 4051   1.557   2.144   0.199 -0.4244  0.2234 -0.5597
  268TMC3    C4 4052   1.458   1.992   0.415  0.9897 -0.3767  0.3687
  268TMC3    C5 4053   1.579   2.064   0.428 -0.2448 -0.6585 -0.5150
  268TMC3    C6 4054   1.630   2.127   0.317 -0.1052 -0.6023 -0.4590
  268TMC3     C 4055   1.245   1.956   0.320 -0.1166 -0.1078  0.4857
  268TMC3     O 4056   1.154   2.033   0.287 -0.5081  0.0679  0.6199
  268TMC3     H 4057   1.384   2.073   0.098  4.4937 -0.8958 -1.7487
  268TMC3    H1 4058   1.407   1.958   0.504  1.8717 -0.5098  0.8293
  268TMC3    H2 4059   1.733   2.162   0.314  0.0645 -1.0679 -0.0008
  268TMC3    C7 4060   1.682   2.015   0.528 -0.5216 -0.2708 -0.1606
  268TMC3    C8 4061   1.635   2.192   0.082  0.2947 -0.1396  0.6862
  268TMC3    O1 4062   1.663   1.904   0.578 -0.3374 -0.1226 -0.0815
  268TMC3    O2 4063   1.753   2.172   0.091 -0.0847 -0.3335 -0.2525
  269MPD2     C 4064   1.479   0.838  15.250  0.3966 -0.2323 -0.2226
  269MPD2    C1 4065   1.343   0.857  15.275 -0.8300 -1.0044  0.1322
  269MPD2    C2 4066   1.298   0.985  15.277 -0.3105  0.7366 -0.1284
  269MPD2    C3 4067   1.378   1.097  15.267  0.6117 -0.0901 -0.2128
  269MPD2    C4 4068   1.514   1.071  15.235 -0.1185  0.3983 -0.4423
  269MPD2    C5 4069   1.564   0.947  15.232 -0.9635 -0.1515 -0.3426
  269MPD2     H 4070   1.194   0.994  15.305 -0.3609 -0.4387  0.0461
  269MPD2    H1 4071   1.581   1.152  15.211  1.3240 -0.3965  0.9028
  269MPD2    H2 4072   1.524   0.741  15.231  0.0303 -0.4311 -0.0826
  269MPD2    H3 4073   1.671   0.940  15.220 -1.1354 -2.1022 -0.7621
  269MPD2     N 4074   1.326   1.221  15.289 -0.3302 -0.0492 -0.5580
  269MPD2    H5 4075   1.225   1.234  15.290 -0.1515  1.3898 -1.2963
  269MPD2    N1 4076   1.253   0.746  15.268 -0.6818 -0.2526 -0.1064
  269MPD2    H7 4077   1.298   0.655  15.276 -1.7142 -0.7608 -0.0880
  270TMC3    C1 4078   1.062   0.619  15.291 -0.0642 -0.2269  0.3752
  270TMC3    C2 4079   0.934   0.608  15.241 -0.4040  0.1621 -0.2339
  270TMC3    C3 4080   0.871   0.495  15.272 -0.1363 -0.6189 -0.4337
  270TMC3    C4 4081   1.137   0.518  15.358  0.1731 -0.2986 -0.2714
  270TMC3    C5 4082   1.074   0.395  15.368  0.4474 -0.2678 -0.2830
  270TMC3    C6 4083   0.945   0.388  15.325 -0.0732  0.4125 -0.0965
  270TMC3     C 4084   1.118   0.750  15.271  0.8005  0.5120 -0.1110
  270TMC3     O 4085   1.042   0.838  15.236  0.1073  0.4037  0.2799
  270TMC3     H 4086   0.888   0.690  15.188  1.3611  0.6802 -0.9689
  270TMC3    H1 4087   1.225   0.545  15.415  1.4236 -3.1460 -0.8152
  270TMC3    H2 4088   0.892   0.294  15.322 -0.7213  0.8346 -1.8801
  270TMC3    C7 4089   1.158   0.279  15.376  0.0221 -0.2187 -0.7568
  270TMC3    C8 4090   0.809   0.451  15.152 -0.1058 -0.0456  0.1182
  270TMC3    O1 4091   1.272   0.294  15.410  0.5300 -0.2638  0.3654
  270TMC3    O2 4092   0.702   0.506  15.127  0.0487 -0.1495  0.4542
  271MPD2     C 4093   0.693   0.433  13.508 -0.4982  0.2015  0.2188
  271MPD2    C1 4094   0.619   0.372  13.608  0.6472  0.3441  0.3594
  271MPD2    C2 4095   0.490   0.409  13.622 -0.2344 -0.5457 -0.0765
  271MPD2    C3 4096   0.429   0.501  13.538 -0.0618 -0.1034  0.1968
  271MPD2    C4 4097   0.510   0.576  13.453 -0.6177  0.5167 -0.7813
  271MPD2    C5 4098   0.644   0.546  13.442  0.3767  0.0608  0.1216
  271MPD2     H 4099   0.436   0.346  13.691  0.5043  0.6112  1.5667
  271MPD2    H1 4100   0.466   0.661  13.403 -1.4193  0.8795  0.5471
  271MPD2    H2 4101   0.797   0.404  13.495 -0.7089 -0.7721  0.7306
  271MPD2    H3 4102   0.703   0.610  13.377 -0.6363 -0.4694 -1.3195
  271MPD2     N 4103   0.288   0.540  13.532 -0.0807 -0.1833  0.0742
  271MPD2    H5 4104   0.254   0.615  13.471 -0.8553  0.1798  0.9582
  271MPD2    N1 4105   0.683   0.285  13.703  0.4075 -0.4559  0.7745
  271MPD2    H7 4106   0.622   0.257  13.780  0.0078  0.4051  0.7738
  272TMC3    C1 4107   0.827   0.148  13.822 -0.3580 -0.5380  0.4019
  272TMC3    C2 4108   0.951   0.087  13.837 -0.5956  0.1140 -0.2170
  272TMC3    C3 4109   0.990   0.038  13.965  0.4718 -0.2530 -0.5472
  272TMC3    C4 4110   0.750   0.172  13.937 -0.2579  0.0138 -0.2331
  272TMC3    C5 4111   0.798   0.113  14.056  0.3934 -0.2181 -0.4390
  272TMC3    C6 4112   0.905   0.037  14.075 -0.3272  0.3478  0.3211
  272TMC3     C 4113   0.800   0.225  13.706  0.3634 -0.9254  0.4486
  272TMC3     O 4114   0.887   0.223  13.620 -0.6733  0.6017 -0.3156
  272TMC3     H 4115   1.023   0.086  13.757  1.2000  0.7031  1.3870
  272TMC3    H1 4116   0.686   0.259  13.941  0.8700  0.8466 -0.2081
  272TMC3    H2 4117   0.927   0.007  14.177 -2.3748 -0.6004  0.4810
  272TMC3    C7 4118   0.715   0.164  14.168 -0.4238 -0.0779  0.0384
  272TMC3    C8 4119   1.133   0.002  13.986 -0.3124 -0.3983  0.1654
  272TMC3    O1 4120   0.600   0.205  14.140 -0.4228 -0.8734  0.2248
  272TMC3    O2 4121   1.196   0.004  13.885  0.0863  0.5591  0.0018
  273MPD2     C 4122   3.130   3.115  11.763  0.1783 -0.1578 -0.2088
  273MPD2    C1 4123   3.188   3.241  11.756  0.1020 -0.1835 -0.1562
  273MPD2    C2 4124   3.214   3.304  11.632  0.4379 -0.3905 -0.3458
  273MPD2    C3 4125   3.171   3.243  11.517  0.5862 -0.6127  0.3183
  273MPD2    C4 4126   3.110   3.128  11.524 -0.2991 -0.7968  0.3043
  273MPD2    C5 4127   3.095   3.057  11.644  0.9862  0.2409 -0.2753
  273MPD2     H 4128   3.261   3.401  11.638 -0.0142 -0.1952  0.0614
  273MPD2    H1 4129   3.068   3.080  11.436 -0.1820 -0.5208  0.0975
  273MPD2    H2 4130   3.127   3.059  11.855  0.6781  2.7050  1.5430
  273MPD2    H3 4131   3.055   2.956  11.639  0.8796  0.2581  0.2509
  273MPD2     N 4132   3.179   3.307  11.390 -0.4780 -0.1548  0.8740
  273MPD2    H5 4133   3.138   3.251  11.316  0.1982 -1.5737  1.5630
  273MPD2    N1 4134   3.232   3.320  11.869  0.3618  0.3599  0.9545
  273MPD2    H7 4135   3.277   3.409  11.848  0.0066  0.3008 -0.0494
  274TMC3    C1 4136   3.179   3.488  11.245  0.1575 -0.2520  0.3746
  274TMC3    C2 4137   3.041   3.474  11.224  0.3712 -0.0652  0.2987
  274TMC3    C3 4138   2.962   3.578  11.197 -0.0793 -0.0039  0.5575
  274TMC3    C4 4139   3.246   3.607  11.221 -0.5455 -0.4101  0.3008
  274TMC3    C5 4140   3.159   3.711  11.190  0.0715 -0.4730 -0.0265
  274TMC3    C6 4141   3.023   3.700  11.181 -0.5409 -0.2674 -0.3782
  274TMC3     C 4142   3.239   3.421  11.357  0.5164  0.2239  0.0536
  274TMC3     O 4143   3.314   3.491  11.422  0.4868 -0.1126  0.0797
  274TMC3     H 4144   2.999   3.375  11.237  0.9422 -0.2015  1.1419
  274TMC3    H1 4145   3.352   3.626  11.233 -0.8440  0.5142  1.5209
  274TMC3    H2 4146   2.971   3.781  11.131 -0.8674 -0.1569  0.1490
  274TMC3    C7 4147   3.209   3.846  11.218  0.0204  0.5534 -0.3515
  274TMC3    C8 4148   2.869   3.548  11.094  0.6991 -0.1488  0.4343
  274TMC3    O1 4149   3.329   3.855  11.239 -0.3069 -0.0474 -0.0771
  274TMC3    O2 4150   2.872   3.631  11.001 -0.6210 -0.2072 -0.3575
  275MPD2     C 4151   1.957   1.572  14.201 -0.3788 -0.5453  0.8384
  275MPD2    C1 4152   1.946   1.449  14.269 -0.3698  0.0502  0.5333
  275MPD2    C2 4153   1.866   1.353  14.221 -0.0509 -0.2028  0.4957
  275MPD2    C3 4154   1.774   1.376  14.119  0.4307 -0.0857  0.3256
  275MPD2    C4 4155   1.775   1.496  14.062 -0.0889 -0.0229 -0.2852
  275MPD2    C5 4156   1.864   1.591  14.106  0.0878 -1.0731  0.3376
  275MPD2     H 4157   1.857   1.264  14.282  2.6758 -1.0995 -0.4447
  275MPD2    H1 4158   1.705   1.532  13.988  0.3503 -0.6609 -1.0037
  275MPD2    H2 4159   2.017   1.658  14.229 -1.4905 -0.5018  3.1186
  275MPD2    H3 4160   1.871   1.681  14.045 -1.3247 -1.1656  0.0359
  275MPD2     N 4161   1.677   1.284  14.088  0.0770  0.7967 -1.0473
  275MPD2    H5 4162   1.612   1.317  14.018 -0.3756  0.7804 -0.6400
  275MPD2    N1 4163   2.029   1.407  14.373 -0.3244  0.1183  0.1889
  275MPD2    H7 4164   2.018   1.316  14.418  1.0085 -0.3716 -0.4758
  276TMC3    C1 4165   2.222   1.410  14.512  0.7499 -0.4870  0.4154
  276TMC3    C2 4166   2.275   1.292  14.468  0.0074  0.2472  0.6788
  276TMC3    C3 4167   2.399   1.260  14.517  0.9422 -0.3117  0.0379
  276TMC3    C4 4168   2.292   1.491  14.603  0.1237  0.4022 -0.2323
  276TMC3    C5 4169   2.415   1.449  14.647  0.4549 -0.7603  0.5263
  276TMC3    C6 4170   2.474   1.338  14.603  0.5458  0.1158  0.0514
  276TMC3     C 4171   2.133   1.485  14.421  0.3664  0.4478  0.4245
  276TMC3     O 4172   2.175   1.590  14.375  0.1254  0.2876  0.2138
  276TMC3     H 4173   2.232   1.244  14.381  2.0349  0.4655 -0.4606
  276TMC3    H1 4174   2.255   1.588  14.632 -0.5177 -0.5195  2.0304
  276TMC3    H2 4175   2.573   1.312  14.640  0.6837  0.1817 -0.2739
  276TMC3    C7 4176   2.487   1.541  14.721 -0.1680  0.1514  0.0365
  276TMC3    C8 4177   2.475   1.144  14.466 -0.3067  0.3537 -0.0079
  276TMC3    O1 4178   2.431   1.594  14.816  0.5525 -0.0511 -0.1258
  276TMC3    O2 4179   2.598   1.161  14.475  0.6972  0.1375 -0.3333
  277MPD2     C 4180   4.473   0.364  13.327 -0.3144 -0.2783 -0.2583
  277MPD2    C1 4181   4.347   0.400  13.361 -0.0224  1.0559 -0.3703
  277MPD2    C2 4182   4.285   0.343  13.471  0.5996  0.0373 -0.1603
  277MPD2    C3 4183   4.335   0.229  13.531  0.3897  0.0078  1.0967
  277MPD2    C4 4184   4.458   0.183  13.497  0.2621 -0.1063  0.0430
  277MPD2    C5 4185   4.532   0.253  13.395  0.0020 -0.4525 -1.0262
  277MPD2     H 4186   4.186   0.383  13.488  0.5611  0.7254 -1.9248
  277MPD2    H1 4187   4.514   0.106  13.549  2.6730  1.4994 -0.1674
  277MPD2    H2 4188   4.516   0.409  13.238 -0.3096 -3.3955 -1.8395
  277MPD2    H3 4189   4.630   0.222  13.363  0.7240  0.0309  0.6871
  277MPD2     N 4190   4.255   0.162  13.632  0.0017 -0.3684 -0.1456
  277MPD2    H5 4191   4.172   0.212  13.662 -0.7495 -1.4849 -0.3631
  277MPD2    N1 4192   4.292   0.511  13.297  0.2410 -0.4899 -0.0140
  277MPD2    H7 4193   4.347   0.550  13.221 -0.5161  1.0185  0.2295
  278TMC3    C1 4194   4.166   4.694  13.753  0.6552  0.5449  0.2199
  278TMC3    C2 4195   4.169   4.563  13.742  0.2294  0.5150 -0.1788
  278TMC3    C3 4196   4.050   4.500  13.751  0.3319  0.2517  0.8205
  278TMC3    C4 4197   4.047   0.037  13.781 -0.6204 -0.4436  0.0037
  278TMC3    C5 4198   3.924   4.702  13.777 -0.8005 -0.1455  0.1569
  278TMC3    C6 4199   3.928   4.566  13.760  0.2108 -0.0783 -0.6091
  278TMC3     C 4200   4.277   0.034  13.680 -0.2444  0.5430 -0.1564
  278TMC3     O 4201   4.353   4.676  13.634 -1.2519  0.9849  0.9940
  278TMC3     H 4202   4.267   4.517  13.738 -0.1711 -0.4506  1.3509
  278TMC3    H1 4203   4.055   0.144  13.798  2.2165 -0.3812 -1.6531
  278TMC3    H2 4204   3.838   4.506  13.772  0.3743 -0.2706 -0.3388
  278TMC3    C7 4205   3.809   0.046  13.833  0.6661 -0.1233 -0.1238
  278TMC3    C8 4206   4.052   4.361  13.711  0.0965  0.0943 -0.2831
  278TMC3    O1 4207   3.819   0.156  13.893  0.0345  0.0902 -0.6872
  278TMC3    O2 4208   4.150   4.295  13.747 -0.1115 -0.2091  0.7641
  279MPD2     C 4209   3.303   0.446  17.673  0.0919 -0.0828 -0.2039
  279MPD2    C1 4210   3.180   0.435  17.606  1.1093  0.1684 -0.0594
  279MPD2    C2 4211   3.175   0.466  17.469  0.7140  0.5679 -0.2106
  279MPD2    C3 4212   3.289   0.519  17.409  0.4539  0.6303 -0.7027
  279MPD2    C4 4213   3.404   0.528  17.479 -0.4377  0.5758  0.9301
  279MPD2    C5 4214   3.416   0.485  17.608 -0.3463  0.7800 -0.2356
  279MPD2     H 4215   3.082   0.465  17.412  0.7608 -1.6774 -0.2661
  279MPD2    H1 4216   3.487   0.573  17.426  1.6041 -1.6268  2.2740
  279MPD2    H2 4217   3.308   0.436   0.073  0.3055 -0.3185 -0.2348
  279MPD2    H3 4218   3.509   0.500  17.661  0.0493  0.2007 -0.7556
  279MPD2     N 4219   3.292   0.546  17.269 -0.4642 -0.4075 -0.2178
  279MPD2    H5 4220   3.376   0.589  17.231  0.0036  0.6075  1.9770
  279MPD2    N1 4221   3.069   0.393  17.684  0.6083  0.9012 -0.0553
  279MPD2    H7 4222   3.079   0.394   0.077  1.0139 -2.6917 -0.0727
  280TMC3    C1 4223   2.848   0.407   0.043  0.6158 -0.0584 -0.1015
  280TMC3    C2 4224   2.723   0.357   0.028 -0.3416 -0.2415  0.4257
  280TMC3    C3 4225   2.614   0.426   0.076 -0.0425  0.2500  0.7607
  280TMC3    C4 4226   2.872   0.534   0.096  0.1838  0.2899 -0.1267
  280TMC3    C5 4227   2.764   0.599   0.144  0.0557 -0.1286  0.4224
  280TMC3    C6 4228   2.633   0.547   0.132 -0.0030 -0.2506  0.2256
  280TMC3     C 4229   2.938   0.374  17.647  0.2062 -0.7895 -0.8261
  280TMC3     O 4230   2.886   0.363  17.541 -0.2436  0.0395 -0.5652
  280TMC3     H 4231   2.711   0.269  17.675  1.6838  0.2766 -0.7112
  280TMC3    H1 4232   2.974   0.569   0.099  0.5567 -0.6365 -1.8312
  280TMC3    H2 4233   2.550   0.596   0.181 -0.6324 -2.3537  1.2166
  280TMC3    C7 4234   2.779   0.744   0.158  0.3475 -0.2669 -0.1308
  280TMC3    C8 4235   2.503   0.352   0.131  0.0458  0.4102 -0.5440
  280TMC3    O1 4236   2.874   0.781   0.232  0.1763  0.4220  0.4500
  280TMC3    O2 4237   2.462   0.383   0.244  0.2986  0.0075  0.7090
  281TMC3    C1 4238   2.224   0.591  13.650 -0.2644 -0.0126  0.0583
  281TMC3    C2 4239   2.324   0.681  13.680 -0.0929  1.1037  0.3506
  281TMC3    C3 4240   2.447   0.667  13.627 -0.3144  0.7763  0.3115
  281TMC3    C4 4241   2.246   0.475  13.578  0.0232  0.4843 -0.4081
  281TMC3    C5 4242   2.374   0.466  13.538 -0.4491 -0.3757 -0.3559
  281TMC3    C6 4243   2.473   0.559  13.547 -0.1413 -1.1301 -0.2142
  281TMC3     C 4244   2.096   0.649  13.622  0.7162  1.4493 -0.2579
  281TMC3     O 4245   1.997   0.578  13.609  0.1951  0.6257  0.6372
  281TMC3     H 4246   2.306   0.762  13.750  1.8182  0.9637  0.9881
  281TMC3    H1 4247   2.161   0.414  13.547 -0.2631  0.6882 -0.0298
  281TMC3    H2 4248   2.571   0.549  13.501 -0.1740 -0.2446 -0.4654
  281TMC3    C7 4249   2.397   0.361  13.439  0.0722  0.3454  0.6151
  281TMC3    C8 4250   2.487   0.794  13.579  0.5399 -0.4358 -0.7302
  281TMC3    O1 4251   2.499   0.369  13.373  0.0076 -0.7220  0.1972
  281TMC3    O2 4252   2.419   0.892  13.605 -0.0515  0.2710 -0.2977
  282MPD2     C 4253   3.835   2.232  15.082 -0.5613 -0.4303 -0.0239
  282MPD2    C1 4254   3.705   2.233  15.135  0.8792  0.4449 -0.7241
  282MPD2    C2 4255   3.604   2.275  15.046  0.3882 -0.5278  0.8844
  282MPD2    C3 4256   3.632   2.286  14.909 -0.1943 -0.4299 -0.4252
  282MPD2    C4 4257   3.766   2.280  14.860  0.0328 -0.4132  0.4276
  282MPD2    C5 4258   3.867   2.271  14.953 -0.3696 -0.2876  0.2397
  282MPD2     H 4259   3.501   2.271  15.078 -0.0733 -2.6325 -0.8702
  282MPD2    H1 4260   3.790   2.301  14.756  5.5250  1.7649  2.1461
  282MPD2    H2 4261   3.920   2.206  15.145 -2.0638 -2.3135  1.2248
  282MPD2    H3 4262   3.973   2.275  14.929 -0.2305 -3.2076  0.4694
  282MPD2     N 4263   3.518   2.310  14.831 -0.3890 -0.1114 -1.3001
  282MPD2    H5 4264   3.429   2.326  14.877  0.2276  1.1949 -0.5642
  282MPD2    N1 4265   3.667   2.207  15.267  0.5389  0.0125  0.0456
  282MPD2    H7 4266   3.568   2.191  15.278  0.1650  2.4690  0.1558
  283TMC3    C1 4267   3.683   2.172  15.490  0.1235 -0.1682 -0.2673
  283TMC3    C2 4268   3.699   2.271  15.584  0.1056  0.3596 -0.0105
  283TMC3    C3 4269   3.613   2.273  15.693 -0.1553  0.4897  0.2931
  283TMC3    C4 4270   3.582   2.081  15.505 -0.1323  0.3744 -0.0432
  283TMC3    C5 4271   3.501   2.085  15.618  0.8614  0.0007  1.1032
  283TMC3    C6 4272   3.517   2.175  15.717 -0.1229  0.0315 -0.6723
  283TMC3     C 4273   3.762   2.192  15.368  0.5211 -0.6790 -0.0840
  283TMC3     O 4274   3.875   2.239  15.375  0.1813  0.3230 -0.2604
  283TMC3     H 4275   3.776   2.347  15.578  1.4068 -0.8601  1.2057
  283TMC3    H1 4276   3.588   1.995  15.439 -1.2428 -0.7812  1.3543
  283TMC3    H2 4277   3.442   2.176  15.794  1.3648 -1.3132  0.7960
  283TMC3    C7 4278   3.373   2.006  15.625 -0.0610 -0.2815 -0.2770
  283TMC3    C8 4279   3.611   2.399  15.767 -0.1241  0.0105 -0.7345
  283TMC3    O1 4280   3.282   2.037  15.705 -1.0166  0.2514  0.3427
  283TMC3    O2 4281   3.569   2.391  15.882  0.0266 -0.4214 -0.1171
  284MPD2     C 4282   2.595   1.201  12.101  0.3232 -0.4475 -0.4920
  284MPD2    C1 4283   2.474   1.258  12.064  0.1983 -0.2990 -0.6311
  284MPD2    C2 4284   2.364   1.184  12.116 -0.4057  0.1159 -0.5127
  284MPD2    C3 4285   2.370   1.065  12.184 -0.0427  0.7816  0.3612
  284MPD2    C4 4286   2.492   1.007  12.210  0.4816  0.0767  0.6300
  284MPD2    C5 4287   2.604   1.079  12.169  0.6452  0.2927  0.2199
  284MPD2     H 4288   2.270   1.236  12.107  0.9899  2.8538  0.5604
  284MPD2    H1 4289   2.492   0.908  12.255 -0.4465 -0.6828 -1.0474
  284MPD2    H2 4290   2.685   1.252  12.069 -0.8724  0.7874 -1.8602
  284MPD2    H3 4291   2.700   1.029  12.182  0.5848  0.5428  1.6212
  284MPD2     N 4292   2.252   0.991  12.225  0.4463  0.3035 -0.0190
  284MPD2    H5 4293   2.275   0.899  12.259 -1.4099 -1.0091 -2.3561
  284MPD2    N1 4294   2.447   1.374  11.989 -0.2110 -0.3431  0.2411
  284MPD2    H7 4295   2.351   1.387  11.958  0.8171  2.7033 -1.5982
  285TMC3    C1 4296   2.510   1.580  11.870 -0.0672  0.6083  0.3766
  285TMC3    C2 4297   2.420   1.561  11.773  0.6583  0.5122 -0.1386
  285TMC3    C3 4298   2.399   1.662  11.678  0.0566  0.2422 -0.4891
  285TMC3    C4 4299   2.597   1.682  11.860 -0.1877 -0.7602 -0.3227
  285TMC3    C5 4300   2.577   1.788  11.771 -0.3315  0.0157 -0.5057
  285TMC3    C6 4301   2.482   1.772  11.672 -0.9700 -0.6487  0.9452
  285TMC3     C 4302   2.541   1.480  11.977 -0.2601 -0.4876 -0.4413
  285TMC3     O 4303   2.645   1.488  12.038  0.2294  0.3309  0.3807
  285TMC3     H 4304   2.349   1.478  11.774 -0.7578  1.6876 -2.3675
  285TMC3    H1 4305   2.678   1.697  11.930  1.6500  1.0552 -2.8230
  285TMC3    H2 4306   2.482   1.849  11.595  1.5675 -0.4249  1.1584
  285TMC3    C7 4307   2.684   1.884  11.751  0.6260  0.7936 -0.5031
  285TMC3    C8 4308   2.355   1.609  11.554 -0.2334  0.4028 -0.0064
  285TMC3    O1 4309   2.689   1.946  11.649  0.1267  0.1867  0.3595
  285TMC3    O2 4310   2.286   1.516  11.559 -0.9093 -0.1108 -0.6230
  286MPD2     C 4311   2.243   0.221   1.631  0.0509 -0.2436 -0.3831
  286MPD2    C1 4312   2.204   0.180   1.500 -0.0687  0.0280 -0.8107
  286MPD2    C2 4313   2.305   0.138   1.409  0.0307  0.2019  0.0127
  286MPD2    C3 4314   2.432   0.139   1.451  0.0745 -0.4013  0.5492
  286MPD2    C4 4315   2.466   0.185   1.575 -0.2293  0.5780  0.9736
  286MPD2    C5 4316   2.373   0.232   1.660 -0.1353 -0.0805 -0.1525
  286MPD2     H 4317   2.278   0.100   1.311 -0.8429  0.2454  0.2321
  286MPD2    H1 4318   2.569   0.192   1.607 -0.0546  0.7495  0.3670
  286MPD2    H2 4319   2.172   0.239   1.711 -1.4442  0.2241 -1.8220
  286MPD2    H3 4320   2.413   0.267   1.754 -1.8079  1.5635 -0.0543
  286MPD2     N 4321   2.548   0.099   1.375 -0.0345  0.2091 -0.7356
  286MPD2    H5 4322   2.633   0.117   1.426 -0.0853  1.0853 -0.9551
  286MPD2    N1 4323   2.067   0.190   1.457  0.0345 -0.4300  0.2775
  286MPD2    H7 4324   2.056   0.152   1.364 -1.3869 -0.2242  0.3720
  287TMC3    C1 4325   2.670   0.017   1.192 -0.0356  0.0729  0.0047
  287TMC3    C2 4326   2.666   4.721   1.057 -0.1671 -0.2843 -0.2292
  287TMC3    C3 4327   2.769   4.648   1.000 -0.2568 -0.4349  0.3090
  287TMC3    C4 4328   2.771   4.702   1.275 -0.3901  0.1964  0.6555
  287TMC3    C5 4329   2.869   4.625   1.219 -0.0427 -0.1561 -0.0119
  287TMC3    C6 4330   2.871   4.602   1.081  0.3173 -0.0408  0.4885
  287TMC3     C 4331   2.547   0.063   1.241 -0.6317 -0.0383 -0.3948
  287TMC3     O 4332   2.454   0.046   1.174  0.3848  0.0387  0.4186
  287TMC3     H 4333   2.592   0.047   0.997  0.0547 -1.2752 -1.3926
  287TMC3    H1 4334   2.778   0.009   1.377 -1.8518  2.0861  0.1201
  287TMC3    H2 4335   2.941   4.531   1.039 -0.8913 -0.1824 -1.3209
  287TMC3    C7 4336   2.982   4.607   1.312 -0.6035 -0.5035  0.2518
  287TMC3    C8 4337   2.771   4.623   0.859  0.3972 -0.8578 -0.1717
  287TMC3    O1 4338   2.989   4.688   1.399  0.4973  0.1277  0.5115
  287TMC3    O2 4339   2.671   4.647   0.800  0.2908  0.0172  0.7251
  288TMC3    C1 4340   3.682   4.470  14.514  1.0759  0.0516 -0.2011
  288TMC3    C2 4341   3.600   4.438  14.619  0.0992 -0.6108  0.1485
  288TMC3    C3 4342   3.556   4.533  14.706  0.1837  0.2127 -0.0684
  288TMC3    C4 4343   3.705   4.598  14.480 -0.1288  0.2902 -0.1836
  288TMC3    C5 4344   3.670   4.694  14.573 -0.1462  0.2373 -0.1350
  288TMC3    C6 4345   3.607   4.662  14.692 -0.0554  0.4602  0.3251
  288TMC3     C 4346   3.671   4.384  14.399  0.0662 -0.3378  0.1733
  288TMC3     O 4347   3.575   4.301  14.400  0.4449  0.1015 -0.5463
  288TMC3     H 4348   3.581   4.334  14.641 -0.4454 -0.5356  0.0605
  288TMC3    H1 4349   3.740   4.627  14.382 -0.7480 -1.2405 -0.8598
  288TMC3    H2 4350   3.593   0.012  14.766  1.1454 -1.2926  2.3867
  288TMC3    C7 4351   3.693   0.108  14.549 -0.8741 -0.6735  0.2578
  288TMC3    C8 4352   3.536   4.495  14.844  0.1898  0.1235  0.5573
  288TMC3    O1 4353   3.712   0.176  14.645 -0.3766 -0.3015 -0.2142
  288TMC3    O2 4354   3.568   4.574  14.933 -0.6421 -0.1021  0.0299
  289MPD2     C 4355   4.171   3.990  13.967 -0.0076 -0.2046  0.4119
  289MPD2    C1 4356   4.149   4.011  14.102  0.3419 -0.1530 -0.1423
  289MPD2    C2 4357   4.037   3.964  14.155  0.0033 -0.6174  0.1329
  289MPD2    C3 4358   3.940   3.900  14.075 -0.1858 -0.0647  0.3667
  289MPD2    C4 4359   3.966   3.871  13.942  0.1065 -0.7555  0.3400
  289MPD2    C5 4360   4.085   3.916  13.888  0.5111 -0.0275 -0.2870
  289MPD2     H 4361   4.013   3.992  14.257  0.4507 -1.2472  0.4118
  289MPD2    H1 4362   3.901   3.812  13.880 -1.7782  0.1096  1.4975
  289MPD2    H2 4363   4.255   4.038  13.918 -0.1012  1.2446  1.6623
  289MPD2    H3 4364   4.110   3.895  13.785  0.0805  1.9263 -0.7986
  289MPD2     N 4365   3.819   3.854  14.131 -0.5386 -0.2886  0.4730
  289MPD2    H5 4366   3.750   3.817  14.066  1.0065 -1.8639 -0.2502
  289MPD2    N1 4367   4.253   4.088  14.168  0.1973 -0.3434  0.2613
  289MPD2    H7 4368   4.324   4.119  14.102  0.3957  2.2652  1.6911
  290TMC3    C1 4369   3.633   3.872  14.281  0.3942  0.5612  0.9078
  290TMC3    C2 4370   3.560   3.940  14.194  0.0959  0.0811  0.2934
  290TMC3    C3 4371   3.439   3.980  14.237 -0.3472  0.8599 -0.2722
  290TMC3    C4 4372   3.585   3.817  14.396 -0.1713 -0.3443  0.0324
  290TMC3    C5 4373   3.459   3.839  14.426 -0.0721  0.0192  0.5583
  290TMC3    C6 4374   3.378   3.928  14.351 -0.8552 -0.4810 -0.1294
  290TMC3     C 4375   3.777   3.875  14.262 -0.8534 -0.3620 -1.0469
  290TMC3     O 4376   3.842   3.860  14.365  0.5304  0.0973 -0.1162
  290TMC3     H 4377   3.601   3.990  14.108 -0.1537 -2.4546 -1.3140
  290TMC3    H1 4378   3.652   3.757  14.457  0.6953  2.5598  1.8935
  290TMC3    H2 4379   3.276   3.955  14.377  0.0728  2.3607  0.5059
  290TMC3    C7 4380   3.383   3.728  14.475  0.1555 -0.2231 -1.3245
  290TMC3    C8 4381   3.366   4.082  14.155  0.1204 -0.6077  0.9329
  290TMC3    O1 4382   3.260   3.739  14.492  0.2145 -0.2259  0.3831
  290TMC3    O2 4383   3.383   4.071  14.029  0.6181 -0.1468  0.5735
  291MPD2     C 4384   3.598   3.495   0.667 -0.5273 -0.0998 -0.7579
  291MPD2    C1 4385   3.512   3.458   0.569  0.2578 -0.7076 -0.4148
  291MPD2    C2 4386   3.533   3.518   0.445  0.1337  0.6249  0.9116
  291MPD2    C3 4387   3.618   3.627   0.419  0.0999  0.5181 -0.7141
  291MPD2    C4 4388   3.697   3.659   0.530  0.0002 -0.0220  0.4528
  291MPD2    C5 4389   3.682   3.596   0.648 -0.4604 -0.5687  0.1036
  291MPD2     H 4390   3.462   3.490   0.368 -0.0121 -0.5129  1.4741
  291MPD2    H1 4391   3.775   3.733   0.517 -0.2711  0.3717  1.0649
  291MPD2    H2 4392   3.602   3.451   0.766 -0.7815  3.1324  0.6797
  291MPD2    H3 4393   3.758   3.610   0.723  0.1899 -1.9805 -0.2771
  291MPD2     N 4394   3.614   3.704   0.299 -0.2265  0.0292 -0.4262
  291MPD2    H5 4395   3.674   3.786   0.303  1.5884 -1.1979 -2.5562
  291MPD2    N1 4396   3.404   3.372   0.588  0.0658  1.0462 -0.6585
  291MPD2    H7 4397   3.348   3.345   0.508 -0.4321  0.8251 -0.2369
  292TMC3    C1 4398   3.271   3.203   0.678 -0.7511 -0.1718 -0.9025
  292TMC3    C2 4399   3.230   3.139   0.793  0.3613 -0.0272  0.3898
  292TMC3    C3 4400   3.137   3.043   0.776  0.3180 -0.5594 -0.3586
  292TMC3    C4 4401   3.241   3.154   0.554 -0.2448  0.0156  0.3064
  292TMC3    C5 4402   3.143   3.064   0.546 -0.1699  0.0773  0.5836
  292TMC3    C6 4403   3.090   3.003   0.655  0.4699  0.3767 -0.1699
  292TMC3     C 4404   3.375   3.305   0.704  0.8723 -0.1522  0.2293
  292TMC3     O 4405   3.426   3.316   0.819 -0.0793  0.1740  0.4910
  292TMC3     H 4406   3.248   3.192   0.886  0.2345 -0.8171  0.8663
  292TMC3    H1 4407   3.280   3.202   0.465  0.3212 -2.9301 -1.0191
  292TMC3    H2 4408   3.009   2.933   0.640 -0.6134  1.8442 -1.1669
  292TMC3    C7 4409   3.071   3.046   0.424 -0.0111 -0.2348 -0.5777
  292TMC3    C8 4410   3.064   2.989   0.894 -0.5488 -0.3793 -0.1946
  292TMC3    O1 4411   3.134   3.057   0.318 -0.0441  0.4986 -0.3011
  292TMC3    O2 4412   2.958   2.935   0.863 -0.5107 -0.1120 -0.0891
  293MPD2     C 4413   0.479   0.365  12.162 -0.7412  0.3021 -0.1142
  293MPD2    C1 4414   0.380   0.302  12.234  1.0054 -0.0646  0.0914
  293MPD2    C2 4415   0.374   0.307  12.372  0.4241 -1.8087 -0.0798
  293MPD2    C3 4416   0.463   0.393  12.443 -0.6173 -0.7169 -0.8552
  293MPD2    C4 4417   0.565   0.446  12.368  0.7727 -0.3692  0.3006
  293MPD2    C5 4418   0.576   0.431  12.230 -0.2210  0.2562  0.4698
  293MPD2     H 4419   0.298   0.256  12.430 -0.5856 -0.7906 -0.5016
  293MPD2    H1 4420   0.641   0.511  12.409  0.2760  1.9576 -2.4419
  293MPD2    H2 4421   0.485   0.348  12.055 -1.1397  0.6979 -0.1986
  293MPD2    H3 4422   0.662   0.477  12.183 -0.2290  0.3178  0.5167
  293MPD2     N 4423   0.453   0.407  12.584  0.5105  0.2856  0.0107
  293MPD2    H5 4424   0.367   0.367  12.620  0.1553  2.1989  1.2650
  293MPD2    N1 4425   0.283   0.234  12.159  0.1972 -0.0228  0.3012
  293MPD2    H7 4426   0.308   0.216  12.062 -3.0497 -1.3504 -0.3233
  294TMC3    C1 4427   0.087   0.127  12.100 -0.7328  0.1065  0.0081
  294TMC3    C2 4428   4.701   0.052  12.143  0.5190 -0.5953  0.1523
  294TMC3    C3 4429   4.623   0.009  12.043  0.3651  0.1910  0.6762
  294TMC3    C4 4430   0.119   0.144  11.965  0.1485 -0.6945 -0.0620
  294TMC3    C5 4431   0.039   0.085  11.871  0.4333  0.0387  0.7636
  294TMC3    C6 4432   4.655   0.016  11.908  1.1123 -0.3384  0.3871
  294TMC3     C 4433   0.159   0.190  12.204 -0.1283  0.6114  0.5586
  294TMC3     O 4434   0.124   0.174  12.317  0.7423  0.4091 -0.7758
  294TMC3     H 4435   4.688   0.022  12.246 -1.1358  0.6974  0.3147
  294TMC3    H1 4436   0.177   0.230  11.933 -0.9577  0.2348  0.4073
  294TMC3    H2 4437   4.583   0.001  11.829  0.3045 -0.8507  1.2204
  294TMC3    C7 4438   0.056   0.107  11.730  0.4681 -0.0736  0.0939
  294TMC3    C8 4439   4.499   4.667  12.082  0.7125 -0.1123 -0.3634
  294TMC3    O1 4440   4.677   0.120  11.665  0.8449 -0.1693 -0.2385
  294TMC3    O2 4441   4.451   4.701  12.186 -0.1756 -0.0092  0.0992
  295MPD2     C 4442   0.235   4.024  17.475 -0.9393  0.1789  0.1544
  295MPD2    C1 4443   0.344   3.976  17.552 -0.8198  1.5395  0.3488
  295MPD2    C2 4444   0.376   4.041  17.675 -0.0687  0.2176 -0.2123
  295MPD2    C3 4445   0.305   4.142   0.020  0.2553  0.7085  0.2502
  295MPD2    C4 4446   0.200   4.185  17.650  0.5291  0.5562 -0.3088
  295MPD2    C5 4447   0.170   4.131  17.525  0.5217 -0.5325  0.1846
  295MPD2     H 4448   0.458   3.996   0.022  0.3409  1.0677 -0.1280
  295MPD2    H1 4449   0.136   4.267  17.680  0.8056  0.8490 -0.5198
  295MPD2    H2 4450   0.225   3.991  17.373 -1.4415 -0.6872  0.4859
  295MPD2    H3 4451   0.087   4.178  17.473  0.1674 -1.8546 -0.4256
  295MPD2     N 4452   0.323   4.197   0.149 -0.4028  1.0031  0.9117
  295MPD2    H5 4453   0.261   4.272   0.180 -0.4080  0.4307  2.2618
  295MPD2    N1 4454   0.430   3.866  17.508  0.4723  0.3838 -0.3031
  295MPD2    H7 4455   0.512   3.852  17.565 -0.5977 -0.8272  0.9349
  296TMC3    C1 4456   0.400   4.224   0.357  0.3274  0.2494  0.1580
  296TMC3    C2 4457   0.513   4.233   0.428  0.3162  0.1041 -0.5044
  296TMC3    C3 4458   0.514   4.170   0.548  0.2554  0.3878  0.3607
  296TMC3    C4 4459   0.288   4.168   0.406 -0.0913  0.4020  0.0338
  296TMC3    C5 4460   0.288   4.113   0.537 -0.1323  0.0335  0.2035
  296TMC3    C6 4461   0.405   4.107   0.607 -0.3499  0.2492  0.2509
  296TMC3     C 4462   0.430   4.176   0.229  0.0223  0.7939  0.6058
  296TMC3     O 4463   0.528   4.105   0.219 -0.6244 -0.0161 -0.3930
  296TMC3     H 4464   0.609   4.259   0.386  0.2178  0.7104 -0.3663
  296TMC3    H1 4465   0.193   4.169   0.353 -0.5503 -2.4760  0.7750
  296TMC3    H2 4466   0.408   4.059   0.703 -0.8225  0.4138  0.3471
  296TMC3    C7 4467   0.193   4.000   0.557  0.2315  0.4884 -0.4409
  296TMC3    C8 4468   0.636   4.179   0.628 -0.2668  0.3005 -0.0061
  296TMC3    O1 4469   0.117   3.982   0.460 -0.0752  0.3202  0.2260
  296TMC3    O2 4470   0.698   4.283   0.616  0.1581 -0.2859  0.2266
  297MPD2     C 4471   2.781   1.036  16.097 -0.2178 -0.2681 -0.3541
  297MPD2    C1 4472   2.738   1.095  15.977  0.3812 -0.0311  0.4554
  297MPD2    C2 4473   2.794   1.214  15.934  0.1542 -0.1985  0.0615
  297MPD2    C3 4474   2.891   1.271  16.010  0.0139  0.1512  0.4687
  297MPD2    C4 4475   2.936   1.213  16.124 -0.0855 -0.8874 -0.2465
  297MPD2    C5 4476   2.882   1.095  16.169 -0.8143 -0.3933  0.6015
  297MPD2     H 4477   2.750   1.267  15.850  4.9169  0.0534 -2.2338
  297MPD2    H1 4478   2.993   1.253  16.207 -1.4009 -2.2721  1.3208
  297MPD2    H2 4479   2.754   0.937  16.132 -2.2186  0.2824 -0.3296
  297MPD2    H3 4480   2.920   1.035  16.250 -0.3767 -1.2030 -0.2036
  297MPD2     N 4481   2.943   1.394  15.961 -0.1463 -0.3971 -0.2609
  297MPD2    H5 4482   2.917   1.419  15.867 -0.5239 -0.9840 -0.3103
  297MPD2    N1 4483   2.630   1.044  15.903  1.1560  0.0429  0.3415
  297MPD2    H7 4484   2.610   1.100  15.820  0.7059  0.2682  0.6082
  298TMC3    C1 4485   2.420   0.950  15.857  0.3675  0.0051  0.4885
  298TMC3    C2 4486   2.449   0.955  15.723 -0.3001  0.1492  0.5106
  298TMC3    C3 4487   2.353   0.997  15.638  0.0774 -0.3965 -0.0668
  298TMC3    C4 4488   2.300   0.976  15.913  0.2522 -0.5191 -0.5280
  298TMC3    C5 4489   2.208   1.034  15.825  0.2407 -0.0923  0.1658
  298TMC3    C6 4490   2.228   1.026  15.685 -0.3819 -0.4015 -0.0592
  298TMC3     C 4491   2.534   0.965  15.950  0.3100 -0.2532 -0.4363
  298TMC3     O 4492   2.512   0.921  16.063 -0.0969  0.0695  0.1459
  298TMC3     H 4493   2.545   0.930  15.680  0.6327  1.4240  1.8180
  298TMC3    H1 4494   2.299   1.004  16.018  2.6184 -1.5889 -0.2049
  298TMC3    H2 4495   2.145   1.052  15.621  0.4532  0.3950 -0.8132
  298TMC3    C7 4496   2.103   1.110  15.889  0.7091 -0.1142  0.2199
  298TMC3    C8 4497   2.381   1.017  15.496 -0.2037 -0.2157 -0.1248
  298TMC3    O1 4498   2.080   1.094  16.009  0.0750 -0.3331  0.0813
  298TMC3    O2 4499   2.276   1.045  15.432  0.4234 -0.2360  0.2011
  299MPD2     C 4500   3.619   1.297   9.845 -0.1286 -1.1514  0.2290
  299MPD2    C1 4501   3.580   1.212   9.948 -0.4583  0.6181  1.1213
  299MPD2    C2 4502   3.442   1.189   9.965 -0.0880 -0.1114 -0.5665
  299MPD2    C3 4503   3.347   1.245   9.884 -0.0118 -0.2655 -0.4622
  299MPD2    C4 4504   3.389   1.333   9.787  0.1428  0.4278 -0.3615
  299MPD2    C5 4505   3.522   1.360   9.767 -0.4548 -0.0726  0.6479
  299MPD2     H 4506   3.423   1.124  10.050  1.1658  0.7282  0.3627
  299MPD2    H1 4507   3.319   1.389   9.728 -0.7225 -0.1875  0.0760
  299MPD2    H2 4508   3.724   1.320   9.830  0.0600 -0.2888  2.9326
  299MPD2    H3 4509   3.543   1.439   9.696 -2.2642 -1.1711 -1.1525
  299MPD2     N 4510   3.209   1.246   9.920 -0.9186  0.0755 -0.3497
  299MPD2    H5 4511   3.154   1.322   9.882 -1.1043 -0.9462 -2.1009
  299MPD2    N1 4512   3.680   1.171  10.033 -0.0374  0.1756 -0.1578
  299MPD2    H7 4513   3.774   1.205  10.014  0.4369 -1.2268 -0.3585
  300TMC3    C1 4514   3.023   1.176  10.052  1.2426 -0.6300 -0.3411
  300TMC3    C2 4515   3.015   1.300  10.116 -0.2489 -0.5682 -0.1471
  300TMC3    C3 4516   2.931   1.312  10.226  0.7828 -0.1689  0.5297
  300TMC3    C4 4517   2.958   1.069  10.106 -0.2409  0.2835  0.0084
  300TMC3    C5 4518   2.877   1.082  10.219 -0.0520  0.0408  0.1776
  300TMC3    C6 4519   2.866   1.204  10.277  0.5995 -0.5192 -0.6149
  300TMC3     C 4520   3.147   1.144   9.985 -0.6704  0.0580 -0.0943
  300TMC3     O 4521   3.191   1.028   9.985  0.1304 -0.2893 -0.0197
  300TMC3     H 4522   3.081   1.383  10.090  0.0662 -0.5325  0.7574
  300TMC3    H1 4523   2.969   0.971  10.060 -1.9211  0.4484 -0.7126
  300TMC3    H2 4524   2.800   1.228  10.359 -0.3866  0.1390 -1.6029
  300TMC3    C7 4525   2.789   0.975  10.255  0.3357  0.7702  0.8292
  300TMC3    C8 4526   2.952   1.416  10.326  0.4698 -0.3738  0.2928
  300TMC3    O1 4527   2.762   0.894  10.168  0.2368  0.1219  0.3963
  300TMC3    O2 4528   2.925   1.400  10.441 -0.1851 -0.2009  0.3551
  301MPD2     C 4529   0.653   2.434   1.370  0.0995 -0.0604  0.2851
  301MPD2    C1 4530   0.515   2.420   1.356 -0.1667  0.1269 -0.1312
  301MPD2    C2 4531   0.468   2.294   1.324 -0.2432 -0.4590 -0.9538
  301MPD2    C3 4532   0.554   2.185   1.312  0.0443  0.0183 -0.1804
  301MPD2    C4 4533   0.685   2.197   1.343  0.4770  0.2415  1.1336
  301MPD2    C5 4534   0.734   2.326   1.361 -0.3516  0.5200 -0.8174
  301MPD2     H 4535   0.362   2.274   1.312 -0.2041 -0.6846 -0.9154
  301MPD2    H1 4536   0.756   2.117   1.330  0.9876  0.6738  1.2915
  301MPD2    H2 4537   0.697   2.533   1.376 -0.5161  0.1722  0.9481
  301MPD2    H3 4538   0.840   2.347   1.371 -0.3669 -0.3422  1.1082
  301MPD2     N 4539   0.518   2.055   1.286 -0.4665 -0.3274 -0.1308
  301MPD2    H5 4540   0.588   1.983   1.305  0.2723  0.6515  0.8286
  301MPD2    N1 4541   0.425   2.526   1.371  0.1589 -0.9474  0.1024
  301MPD2    H7 4542   0.329   2.515   1.340 -0.0822 -2.4362  1.3975
  302TMC3    C1 4543   0.384   1.872   1.202  0.0717 -0.1878 -0.0855
  302TMC3    C2 4544   0.486   1.794   1.149 -0.1505  0.2110  0.8252
  302TMC3    C3 4545   0.459   1.678   1.079  0.5501  0.8581  0.2853
  302TMC3    C4 4546   0.254   1.834   1.183 -0.8411 -0.2659  0.4833
  302TMC3    C5 4547   0.237   1.720   1.109  0.4086 -0.0525  0.7898
  302TMC3    C6 4548   0.332   1.644   1.055  0.9641  0.2952  0.7870
  302TMC3     C 4549   0.398   2.014   1.239  0.2452  0.5618  0.4070
  302TMC3     O 4550   0.291   2.074   1.243 -0.8364 -0.3099  0.0343
  302TMC3     H 4551   0.591   1.820   1.162  0.6314 -0.7758 -3.4639
  302TMC3    H1 4552   0.167   1.878   1.230  0.9729  2.1159  1.6326
  302TMC3    H2 4553   0.302   1.553   1.004 -0.6279  1.7244 -0.8055
  302TMC3    C7 4554   0.107   1.684   1.056 -0.0665 -0.0329  0.0508
  302TMC3    C8 4555   0.578   1.597   1.037  0.3616  0.0900 -0.1565
  302TMC3    O1 4556   0.090   1.573   1.008 -0.1918  0.4982  0.0567
  302TMC3    O2 4557   0.689   1.641   1.058  0.1414  0.0176 -0.2717
  303MPD2     C 4558   1.377   4.350  10.355 -0.3472 -0.2790 -0.0576
  303MPD2    C1 4559   1.337   4.242  10.288 -0.1374  0.6492  0.2013
  303MPD2    C2 4560   1.291   4.255  10.164  0.7662 -0.0804  0.2100
  303MPD2    C3 4561   1.283   4.382  10.109 -0.6841  0.5743 -0.6957
  303MPD2    C4 4562   1.341   4.494  10.163 -0.9086  0.2025 -0.0126
  303MPD2    C5 4563   1.368   4.479  10.295  0.1401 -0.7393 -0.1493
  303MPD2     H 4564   1.268   4.173  10.097 -0.7772  1.9373 -1.7172
  303MPD2    H1 4565   1.348   4.593  10.122  0.0740  0.9200  1.8823
  303MPD2    H2 4566   1.414   4.350  10.456  0.2454 -0.9549 -0.2785
  303MPD2    H3 4567   1.400   4.562  10.357 -0.5946 -0.2171 -0.4677
  303MPD2     N 4568   1.229   4.389   9.977 -0.1282 -0.5159 -0.4423
  303MPD2    H5 4569   1.247   4.479   9.934 -1.4147 -0.0326  0.0294
  303MPD2    N1 4570   1.336   4.122  10.352 -0.2340 -0.3666 -0.0392
  303MPD2    H7 4571   1.355   4.132  10.452  0.0711  2.8511 -0.4311
  304TMC3    C1 4572   1.281   3.906  10.394  0.3056  0.3121 -0.3397
  304TMC3    C2 4573   1.174   3.937  10.480 -0.1816 -0.3341  0.0970
  304TMC3    C3 4574   1.114   3.838  10.546 -0.0262 -0.3705 -0.8073
  304TMC3    C4 4575   1.315   3.777  10.367  0.0257 -0.3861 -0.3068
  304TMC3    C5 4576   1.255   3.679  10.443  0.1274  0.2199 -0.6914
  304TMC3    C6 4577   1.166   3.711  10.542  0.4447 -0.5235  0.1846
  304TMC3     C 4578   1.310   4.001  10.295 -0.1319  0.4434  0.0720
  304TMC3     O 4579   1.305   3.959  10.180 -0.1904  0.3312 -0.3868
  304TMC3     H 4580   1.138   4.038  10.474  2.5850  0.5557 -1.3952
  304TMC3    H1 4581   1.387   3.759  10.288  0.9943 -1.7024  0.8744
  304TMC3    H2 4582   1.119   3.643  10.612 -0.3751  0.8865  0.9960
  304TMC3    C7 4583   1.218   3.562  10.360  0.3165  0.6241  0.1339
  304TMC3    C8 4584   0.970   3.840  10.525  0.4532  0.0962  0.5386
  304TMC3    O1 4585   1.286   3.528  10.264  0.3470  0.3935 -0.3947
  304TMC3    O2 4586   0.922   3.730  10.500  0.0685 -0.4199  0.0921
  305MPD2     C 4587   3.447   2.232  13.590  0.1203 -0.2034  0.1639
  305MPD2    C1 4588   3.555   2.169  13.649 -0.3261 -0.5297 -0.1134
  305MPD2    C2 4589   3.658   2.110  13.574  0.0623 -0.8937 -0.1680
  305MPD2    C3 4590   3.632   2.093  13.439 -0.1275 -0.0324 -0.4122
  305MPD2    C4 4591   3.511   2.140  13.380 -0.0955 -0.3167 -0.3281
  305MPD2    C5 4592   3.425   2.217  13.457  0.9146 -0.3225  0.1278
  305MPD2     H 4593   3.752   2.088  13.623  0.3834  1.1233  0.1152
  305MPD2    H1 4594   3.491   2.121  13.275 -2.3524 -0.5311  0.1487
  305MPD2    H2 4595   3.377   2.288  13.651  1.2360  1.5566 -0.1960
  305MPD2    H3 4596   3.342   2.271  13.413 -0.5715 -2.3926  0.3858
  305MPD2     N 4597   3.713   2.013  13.356 -0.6233 -0.4129  0.1479
  305MPD2    H5 4598   3.668   1.998  13.266 -1.0780  1.6093  0.0431
  305MPD2    N1 4599   3.574   2.182  13.789 -0.2697 -0.4320 -0.1476
  305MPD2    H7 4600   3.495   2.226  13.834 -0.6344 -1.0936 -0.1415
  306TMC3    C1 4601   3.662   2.156  14.004  0.6909  0.3145 -0.3912
  306TMC3    C2 4602   3.733   2.066  14.079 -0.2716 -0.5424  1.1318
  306TMC3    C3 4603   3.754   2.103  14.210  0.0665  0.2992  0.1654
  306TMC3    C4 4604   3.619   2.277  14.053 -0.2954 -0.6997 -0.9388
  306TMC3    C5 4605   3.639   2.304  14.187  0.2336 -0.1672  0.1107
  306TMC3    C6 4606   3.693   2.212  14.268  0.4523  0.1928  0.1473
  306TMC3     C 4607   3.665   2.121  13.867  0.0960  0.3935  0.1083
  306TMC3     O 4608   3.738   2.024  13.832 -0.4922  0.1999 -0.5645
  306TMC3     H 4609   3.799   1.991  14.036 -0.0232  0.8535 -0.8839
  306TMC3    H1 4610   3.574   2.356  13.994 -1.2562 -0.7535 -0.2600
  306TMC3    H2 4611   3.687   2.216  14.376 -1.5320  2.3439 -0.0614
  306TMC3    C7 4612   3.587   2.425  14.251 -0.2123 -0.1716  0.4098
  306TMC3    C8 4613   3.859   2.033  14.281  0.4085  0.4232  0.2927
  306TMC3    O1 4614   3.490   2.485  14.203  0.5680 -0.3029  0.1458
  306TMC3    O2 4615   3.902   1.934  14.229  0.1898  0.0838 -0.4468
  307MPD2     C 4616   1.482   4.299  17.212 -0.1547 -0.4360  0.3376
  307MPD2    C1 4617   1.491   4.410  17.299  0.4181 -0.5551  0.0471
  307MPD2    C2 4618   1.420   4.408  17.417 -0.2928 -0.2597  0.0934
  307MPD2    C3 4619   1.338   4.302  17.454 -0.8383  0.7085 -0.3669
  307MPD2    C4 4620   1.323   4.190  17.365 -0.1591  0.1344  0.2442
  307MPD2    C5 4621   1.396   4.191  17.248 -0.7561 -0.2087  0.0116
  307MPD2     H 4622   1.433   4.483  17.494  0.4217  0.0998 -0.3687
  307MPD2    H1 4623   1.263   4.102  17.386 -0.5282  0.0385 -1.2246
  307MPD2    H2 4624   1.534   4.293  17.117  2.1756 -0.1778  1.5786
  307MPD2    H3 4625   1.387   4.103  17.184 -0.7560 -1.0136  1.1247
  307MPD2     N 4626   1.267   4.308  17.576  0.2839 -0.4981 -0.6591
  307MPD2    H5 4627   1.295   4.386  17.635  0.4592 -0.5437 -0.6832
  307MPD2    N1 4628   1.574   4.529  17.280 -0.7925 -0.2577 -0.0189
  307MPD2    H7 4629   1.553   4.609  17.339  2.6387  1.1550 -0.7224
  308TMC3    C1 4630   0.970   4.353   0.202 -0.0345  0.0152  0.2673
  308TMC3    C2 4631   1.067   4.389   0.292 -0.0545 -0.2733 -0.2781
  308TMC3    C3 4632   1.195   4.343   0.267 -0.0643 -0.2397  0.2821
  308TMC3    C4 4633   1.010   4.303   0.082 -0.4552 -0.2275 -0.3531
  308TMC3    C5 4634   1.130   4.259   0.056  0.5227 -0.2101  0.4878
  308TMC3    C6 4635   1.227   4.275   0.155 -0.1464 -0.2851 -0.0512
  308TMC3     C 4636   0.856   4.432   0.203 -0.2298  0.3530  0.0221
  308TMC3     O 4637   0.865   4.536   0.271 -0.2008  0.0708  0.4381
  308TMC3     H 4638   1.037   4.430   0.388 -1.9263 -0.9387 -0.5745
  308TMC3    H1 4639   0.947   4.301  17.701  1.2498 -0.5595 -1.5546
  308TMC3    H2 4640   1.332   4.258   0.133  0.0605 -0.7894  1.3123
  308TMC3    C7 4641   1.161   4.232  17.623  0.1218  0.1559 -0.3658
  308TMC3    C8 4642   1.305   4.428   0.314 -0.7513 -1.1402  0.0883
  308TMC3    O1 4643   1.090   4.151  17.562  0.2778 -0.3386  0.0747
  308TMC3    O2 4644   1.416   4.372   0.304 -0.1497 -0.4619 -0.4008
  309MPD2     C 4645   0.585   0.586  17.078 -0.4739  0.2240 -0.3742
  309MPD2    C1 4646   0.572   0.715  17.050  0.1441  0.0850  0.4228
  309MPD2    C2 4647   0.467   0.779  17.112 -0.6029 -0.1644  0.2775
  309MPD2    C3 4648   0.377   0.729  17.202  0.5353 -0.0599  0.3953
  309MPD2    C4 4649   0.399   0.605  17.242 -0.1814  0.7443  0.1023
  309MPD2    C5 4650   0.496   0.526  17.173 -0.8901  0.2073 -0.7441
  309MPD2     H 4651   0.462   0.886  17.092  0.4966  0.1529  1.6857
  309MPD2    H1 4652   0.337   0.553  17.315 -0.5719 -0.3965 -1.0475
  309MPD2    H2 4653   0.657   0.517  17.035 -2.8387 -2.5940  0.1992
  309MPD2    H3 4654   0.509   0.421  17.197 -2.1827  0.5115  1.2351
  309MPD2     N 4655   0.266   0.795  17.254 -0.4850 -0.5651  0.0780
  309MPD2    H5 4656   0.218   0.747  17.329  0.7651  0.6530  1.6657
  309MPD2    N1 4657   0.640   0.786  16.953  0.3403  0.8220  0.5049
  309MPD2    H7 4658   0.598   0.876  16.930  1.1014  0.2281 -3.2697
  310TMC3    C1 4659   0.790   0.841  16.778 -0.4094 -0.7338  0.4610
  310TMC3    C2 4660   0.694   0.917  16.715 -1.2399  0.3744 -0.6251
  310TMC3    C3 4661   0.734   0.973  16.600 -0.5094 -0.2283  0.5625
  310TMC3    C4 4662   0.908   0.805  16.715  0.0999  0.2239  0.4707
  310TMC3    C5 4663   0.944   0.874  16.602  0.7216 -0.1548 -0.1516
  310TMC3    C6 4664   0.858   0.968  16.542 -0.4777  0.1491  0.0034
  310TMC3     C 4665   0.756   0.746  16.889 -0.4672 -0.6551  0.0553
  310TMC3     O 4666   0.816   0.640  16.895  0.3261 -0.5700  0.0926
  310TMC3     H 4667   0.602   0.939  16.767 -0.7479  3.2551 -1.0075
  310TMC3    H1 4668   0.978   0.735  16.759 -0.8777 -1.7213 -1.0859
  310TMC3    H2 4669   0.893   1.042  16.471 -0.4358  0.1727  0.0489
  310TMC3    C7 4670   1.067   0.857  16.527 -0.3253 -0.0332  0.1096
  310TMC3    C8 4671   0.644   1.058  16.525  0.0158  0.5297  0.2446
  310TMC3    O1 4672   1.074   0.915  16.417 -0.1114 -0.6166  0.1029
  310TMC3    O2 4673   0.679   1.080  16.409 -0.5857  0.0693 -0.2742
  311MPD2     C 4674   3.363   1.917  13.086 -0.4788  0.4858  0.0944
  311MPD2    C1 4675   3.366   2.005  12.976 -0.2376 -0.1283 -0.0271
  311MPD2    C2 4676   3.244   2.030  12.918 -0.2320  0.3742 -0.1716
  311MPD2    C3 4677   3.124   1.982  12.969  0.2743  0.5172 -0.3173
  311MPD2    C4 4678   3.129   1.910  13.086 -0.7441  0.0391  0.3918
  311MPD2    C5 4679   3.244   1.877  13.145  0.1855 -0.3660 -0.5539
  311MPD2     H 4680   3.240   2.091  12.829  0.0542  2.1544  1.0326
  311MPD2    H1 4681   3.038   1.876  13.134 -0.1042 -1.5317  0.4819
  311MPD2    H2 4682   3.456   1.886  13.132 -0.1571 -0.9929 -1.5269
  311MPD2    H3 4683   3.244   1.809  13.230 -1.2058 -0.5139 -0.6569
  311MPD2     N 4684   3.004   2.021  12.909 -1.1113  0.4688  0.1894
  311MPD2    H5 4685   3.001   2.086  12.830 -1.9219 -0.6541 -0.7048
  311MPD2    N1 4686   3.481   2.063  12.917 -0.3847  0.1408  0.2712
  311MPD2    H7 4687   3.456   2.125  12.840  1.5737 -0.2837 -0.6993
  312TMC3    C1 4688   2.790   2.054  12.879 -0.2253  0.1700 -0.0236
  312TMC3    C2 4689   2.702   1.997  12.795  0.7605 -0.7739 -0.1244
  312TMC3    C3 4690   2.619   2.073  12.711 -0.0929  0.3162 -1.0199
  312TMC3    C4 4691   2.814   2.187  12.865  0.4121  1.0433  0.3307
  312TMC3    C5 4692   2.737   2.263  12.781  0.4488  0.5806 -0.7246
  312TMC3    C6 4693   2.650   2.210  12.694 -0.3665  0.7396 -0.1105
  312TMC3     C 4694   2.887   1.967  12.946  0.1193 -0.7016  0.4385
  312TMC3     O 4695   2.862   1.853  12.987  0.3230  0.0172  0.4337
  312TMC3     H 4696   2.677   1.893  12.814  1.6747 -0.8725  0.5265
  312TMC3    H1 4697   2.894   2.230  12.924 -1.0258  0.2793  2.8049
  312TMC3    H2 4698   2.598   2.278  12.627 -2.6801 -1.7815 -0.8523
  312TMC3    C7 4699   2.746   2.411  12.788  0.4366  0.0700  0.0635
  312TMC3    C8 4700   2.518   2.004  12.629  0.6431  0.5404 -0.1399
  312TMC3    O1 4701   2.747   2.467  12.682 -0.5659 -0.2052 -0.6159
  312TMC3    O2 4702   2.499   1.884  12.654 -0.0183  0.2742 -0.3582
  313MPD2     C 4703   2.109   1.089  10.724 -0.4711 -0.3117  0.5186
  313MPD2    C1 4704   2.213   1.087  10.638  0.4555 -0.4212  0.1720
  313MPD2    C2 4705   2.234   0.978  10.560 -0.1336 -0.1000  0.5343
  313MPD2    C3 4706   2.148   0.874  10.562 -0.4866  0.1568  0.0542
  313MPD2    C4 4707   2.040   0.869  10.653  0.5337 -0.4937 -0.4174
  313MPD2    C5 4708   2.021   0.978  10.730 -0.3637  0.0805 -0.1122
  313MPD2     H 4709   2.321   0.986  10.496 -1.0953  0.2791 -0.7062
  313MPD2    H1 4710   1.969   0.787  10.664  0.9821 -0.8614 -0.2943
  313MPD2    H2 4711   2.100   1.184  10.776  0.2143 -0.4362  0.8677
  313MPD2    H3 4712   1.935   0.971  10.796 -0.5300 -1.0912 -0.4572
  313MPD2     N 4713   2.167   0.770  10.467 -0.0438 -0.6640  0.0448
  313MPD2    H5 4714   2.246   0.782  10.405 -0.2164  0.3846  0.0190
  313MPD2    N1 4715   2.314   1.190  10.626  0.1949  0.0006  0.1854
  313MPD2    H7 4716   2.372   1.180  10.543  1.0332 -1.8354  1.0044
  314TMC3    C1 4717   2.397   1.400  10.624 -0.3047 -0.4840  0.5525
  314TMC3    C2 4718   2.496   1.460  10.699  0.4094  0.1820  0.7606
  314TMC3    C3 4719   2.597   1.510  10.619  0.0193  0.3247  0.2580
  314TMC3    C4 4720   2.386   1.400  10.495 -0.0188 -0.3226  0.5775
  314TMC3    C5 4721   2.496   1.450  10.421 -0.1461 -0.3857  0.1479
  314TMC3    C6 4722   2.607   1.499  10.481  0.6902 -0.1939  0.1415
  314TMC3     C 4723   2.327   1.304  10.701  0.2451  0.2721  0.7210
  314TMC3     O 4724   2.299   1.316  10.818 -0.7168 -0.3112 -0.0800
  314TMC3     H 4725   2.489   1.469  10.807 -0.3104 -0.3507  0.7614
  314TMC3    H1 4726   2.297   1.362  10.445 -0.7753  2.9570 -0.5359
  314TMC3    H2 4727   2.689   1.547  10.428 -0.2279  1.3772  0.1497
  314TMC3    C7 4728   2.531   1.359  10.317 -0.0918 -0.2189  1.0048
  314TMC3    C8 4729   2.700   1.593  10.685 -0.4071 -0.2012  0.3334
  314TMC3    O1 4730   2.494   1.244  10.339  0.0326  0.7268  0.0721
  314TMC3    O2 4731   2.770   1.665  10.615 -0.1808 -0.2141  0.4341
  315MPD2     C 4732   1.711   0.918   0.054 -0.8073  0.0686 -0.6709
  315MPD2    C1 4733   1.819   0.833   0.010 -0.2049  0.2819  0.0352
  315MPD2    C2 4734   1.907   0.881  17.627  0.7518  0.0762  0.5924
  315MPD2    C3 4735   1.891   1.013  17.580 -0.0554 -0.1261  0.0220
  315MPD2    C4 4736   1.782   1.089  17.612 -1.0920 -0.1763 -0.2235
  315MPD2    C5 4737   1.693   1.036  17.708  0.4517  0.0276  0.1921
  315MPD2     H 4738   1.997   0.826  17.605 -0.3812 -1.8738  0.7992
  315MPD2    H1 4739   1.760   1.192  17.587  0.8247 -0.1514 -1.7254
  315MPD2    H2 4740   1.638   0.888   0.129 -0.3365 -2.9779 -1.4099
  315MPD2    H3 4741   1.615   1.105   0.031 -1.9740 -3.0909  1.0518
  315MPD2     N 4742   1.996   1.072  17.501 -0.6073 -0.4333 -0.0931
  315MPD2    H5 4743   2.082   1.019  17.496 -0.7955 -0.6445 -1.1077
  315MPD2    N1 4744   1.856   0.704   0.056 -0.0405 -0.0406  0.7598
  315MPD2    H7 4745   1.939   0.660   0.019  0.8744  2.8481 -0.6436
  316TMC3    C1 4746   2.109   1.248  17.390  0.5412 -0.6826 -0.2718
  316TMC3    C2 4747   2.220   1.232  17.471 -0.1579  0.2912 -0.0652
  316TMC3    C3 4748   2.333   1.306  17.435  0.6969  0.3880 -0.2553
  316TMC3    C4 4749   2.113   1.302  17.259 -0.2139 -0.3942  0.6681
  316TMC3    C5 4750   2.228   1.369  17.228  0.1390 -0.1673 -0.2638
  316TMC3    C6 4751   2.334   1.371  17.314 -0.3631 -0.0898 -0.3293
  316TMC3     C 4752   1.978   1.188  17.425 -0.8570 -0.5039 -0.3664
  316TMC3     O 4753   1.875   1.225  17.365 -0.4632  0.2734 -0.6117
  316TMC3     H 4754   2.224   1.182  17.566  2.0212 -2.7842 -1.7852
  316TMC3    H1 4755   2.026   1.304  17.194 -0.4345  0.3984  0.9890
  316TMC3    H2 4756   2.427   1.408  17.272  0.4666  0.0723  1.6266
  316TMC3    C7 4757   2.259   1.408  17.084  0.1098 -0.9309 -0.0802
  316TMC3    C8 4758   2.461   1.296  17.505  1.2422 -0.1957  0.5236
  316TMC3    O1 4759   2.375   1.437  17.056 -0.3764  0.0020  0.5739
  316TMC3    O2 4760   2.546   1.379  17.483 -0.0162 -1.0350 -0.2697
  317MPD2     C 4761   4.096   3.865  12.956 -0.1683 -0.1329 -0.4597
  317MPD2    C1 4762   4.187   3.776  12.896 -0.0410  0.3438 -0.6707
  317MPD2    C2 4763   4.282   3.714  12.977 -0.1514 -0.3092 -0.3238
  317MPD2    C3 4764   4.286   3.738  13.109  0.6341 -0.4550 -0.4113
  317MPD2    C4 4765   4.199   3.835  13.165  0.2350 -0.4644  0.0910
  317MPD2    C5 4766   4.108   3.898  13.083  0.7620 -0.1577  0.0281
  317MPD2     H 4767   4.363   3.650  12.944  0.2905  0.8705 -1.4812
  317MPD2    H1 4768   4.208   3.871  13.267  0.0025 -1.0271  0.3161
  317MPD2    H2 4769   4.016   3.912  12.900 -1.5172 -0.4898  1.1426
  317MPD2    H3 4770   4.053   3.983  13.121  1.4180  0.3576 -0.1672
  317MPD2     N 4771   4.383   3.664  13.186 -0.1976 -0.4564 -0.1607
  317MPD2    H5 4772   4.455   3.607  13.142  1.5224 -0.0240  2.1068
  317MPD2    N1 4773   4.174   3.745  12.758 -0.0147  0.2760  0.4414
  317MPD2    H7 4774   4.236   3.671  12.726 -1.8453 -1.5721  1.1364
  318TMC3    C1 4775   4.474   3.561  13.379 -0.4745 -0.1596  0.1549
  318TMC3    C2 4776   4.444   3.440  13.338  0.1775  0.4656 -0.2574
  318TMC3    C3 4777   4.492   3.330  13.405  0.5667 -0.2649 -0.7623
  318TMC3    C4 4778   4.551   3.584  13.492  0.0002 -0.0349  0.7600
  318TMC3    C5 4779   4.587   3.474  13.561 -0.3828 -0.0043  0.5442
  318TMC3    C6 4780   4.563   3.343  13.524 -0.2853  0.3374  0.9516
  318TMC3     C 4781   4.400   3.670  13.322  0.7449 -0.3226 -0.0848
  318TMC3     O 4782   4.363   3.757  13.402 -0.3080  0.5146  0.4227
  318TMC3     H 4783   4.355   3.442  13.276  0.7449 -0.7117 -1.1015
  318TMC3    H1 4784   4.584   3.678  13.536  2.5473 -0.3138 -0.5247
  318TMC3    H2 4785   4.586   3.269  13.599 -0.9382  0.1719  0.9957
  318TMC3    C7 4786   4.668   3.505  13.677  0.3189 -0.8523 -0.6512
  318TMC3    C8 4787   4.435   3.201  13.368  0.0121 -0.0814  0.2283
  318TMC3    O1 4788   4.657   3.614  13.736 -0.5185 -0.1281 -0.1796
  318TMC3    O2 4789   4.438   3.107  13.452 -0.3682  0.6883  0.2791
  319MPD2     C 4790   0.305   0.267  16.100  0.3370 -0.3313 -0.5705
  319MPD2    C1 4791   0.223   0.303  16.201 -0.3011  0.1944 -0.1378
  319MPD2    C2 4792   0.096   0.265  16.184  0.1256  0.2200  0.3885
  319MPD2    C3 4793   0.038   0.222  16.060  0.3872  0.0401  0.8707
  319MPD2    C4 4794   0.120   0.200  15.958 -0.4517  0.2219  0.4867
  319MPD2    C5 4795   0.252   0.220  15.988 -0.0782  0.1625 -0.1156
  319MPD2     H 4796   0.024   0.275  16.265 -1.0069 -0.6573 -0.5110
  319MPD2    H1 4797   0.078   0.155  15.868 -0.7653  1.1594  0.1631
  319MPD2    H2 4798   0.413   0.272  16.098  0.3434 -0.2931 -0.1875
  319MPD2    H3 4799   0.319   0.202  15.904 -0.5383 -0.6796 -0.2940
  319MPD2     N 4800   4.627   0.206  16.041 -0.1010  0.6531 -0.0875
  319MPD2    H5 4801   4.601   0.188  15.945  1.2602 -2.3123  0.1084
  319MPD2    N1 4802   0.260   0.377  16.316 -0.0482 -0.0551  0.5269
  319MPD2    H7 4803   0.190   0.384  16.389  0.3847 -0.3802  0.9729
  320TMC3    C1 4804   4.401   0.223  16.081  0.1493 -0.5339  0.3610
  320TMC3    C2 4805   4.390   0.328  15.991 -0.0707 -0.1843  0.3726
  320TMC3    C3 4806   4.258   0.352  15.947  0.4187 -0.3512  0.1144
  320TMC3    C4 4807   4.292   0.161  16.137 -0.3602  0.5740  0.4885
  320TMC3    C5 4808   4.165   0.191  16.096  0.2287 -0.8263 -0.0963
  320TMC3    C6 4809   4.151   0.287  16.006 -0.1869  0.5010 -0.6143
  320TMC3     C 4810   4.529   0.200  16.137  0.4984  0.5937 -0.0011
  320TMC3     O 4811   4.535   0.174  16.258  0.0503 -0.1121 -0.3621
  320TMC3     H 4812   4.479   0.373  15.949  2.0719 -2.3045  2.6841
  320TMC3    H1 4813   4.315   0.072  16.195 -2.2548  0.7834  1.5399
  320TMC3    H2 4814   4.049   0.315  15.979 -0.3294  0.4898 -0.0818
  320TMC3    C7 4815   4.052   0.108  16.136 -0.1668 -0.7055 -0.0629
  320TMC3    C8 4816   4.235   0.468  15.863  0.1737 -0.4639  0.4018
  320TMC3    O1 4817   3.950   0.168  16.143 -0.9321 -0.4573 -0.2771
  320TMC3    O2 4818   4.317   0.559  15.873 -0.1053  0.3286 -0.0441
  321TMC3    C1 4819   0.397   0.515  16.453  0.9566 -0.9767  0.2739
  321TMC3    C2 4820   0.369   0.443  16.568 -0.0353  0.6206  0.6715
  321TMC3    C3 4821   0.437   0.487  16.681 -0.5812  0.4015 -0.2183
  321TMC3    C4 4822   0.505   0.602  16.446  0.5864 -0.5963  0.0187
  321TMC3    C5 4823   0.578   0.641  16.550 -0.4927  0.4738 -1.0639
  321TMC3    C6 4824   0.532   0.587  16.667 -0.0387 -0.2548  0.2066
  321TMC3     C 4825   0.386   0.441  16.328 -0.2964  0.2891  0.2630
  321TMC3     O 4826   0.471   0.455  16.237 -0.2225  0.3370 -0.1320
  321TMC3     H 4827   0.291   0.367  16.575 -1.2023  1.8609  1.0928
  321TMC3    H1 4828   0.534   0.641  16.349  2.2266  1.8162  1.4791
  321TMC3    H2 4829   0.584   0.616  16.758 -2.5604  0.5591  1.4003
  321TMC3    C7 4830   0.713   0.607  16.531  0.1714 -0.5231  0.0253
  321TMC3    C8 4831   0.462   0.396  16.795  0.4681  0.4746 -0.1640
  321TMC3    O1 4832   0.761   0.661  16.430  0.4901 -0.3327  0.0913
  321TMC3    O2 4833   0.578   0.386  16.832 -0.0153  0.2179 -0.4686
  322MPD2     C 4834   3.541   1.791  13.593 -0.4744 -0.9913 -0.1245
  322MPD2    C1 4835   3.652   1.711  13.630  0.1152 -0.0086 -0.6836
  322MPD2    C2 4836   3.681   1.597  13.555 -0.2541 -0.5734  0.3168
  322MPD2    C3 4837   3.616   1.563  13.439  0.2925  1.2669 -0.1449
  322MPD2    C4 4838   3.503   1.644  13.406 -0.5713  0.5127 -0.2937
  322MPD2    C5 4839   3.469   1.759  13.481  0.0634  0.3823  0.5820
  322MPD2     H 4840   3.777   1.551  13.577  0.4987  0.2799 -1.1944
  322MPD2    H1 4841   3.457   1.625  13.310 -1.7170  1.3299  0.1069
  322MPD2    H2 4842   3.505   1.879  13.644  1.2693 -1.4104  1.8083
  322MPD2    H3 4843   3.384   1.822  13.460  0.4727  1.5922  2.5572
  322MPD2     N 4844   3.659   1.453  13.355 -0.1191  0.0768 -0.2402
  322MPD2    H5 4845   3.745   1.411  13.390  0.6261  0.7776 -1.2056
  322MPD2    N1 4846   3.726   1.745  13.748  0.0813 -0.8273  0.2321
  322MPD2    H7 4847   3.711   1.837  13.787  1.6457  0.1003 -1.3284
  323TMC3    C1 4848   3.900   1.735  13.902  0.2549 -0.2240  0.0447
  323TMC3    C2 4849   3.981   1.832  13.845 -0.9097 -0.3221 -0.6936
  323TMC3    C3 4850   4.115   1.814  13.865 -0.4952  0.2153 -0.1184
  323TMC3    C4 4851   3.944   1.635  13.987 -1.0547 -0.2278  0.3342
  323TMC3    C5 4852   4.081   1.622  14.003 -0.6602  0.5602  0.3572
  323TMC3    C6 4853   4.164   1.709  13.942  0.0460  0.0786  1.1865
  323TMC3     C 4854   3.824   1.666  13.806 -0.1347  0.8053  0.1089
  323TMC3     O 4855   3.857   1.547  13.791  0.2232  0.3918  0.0292
  323TMC3     H 4856   3.937   1.899  13.771  3.6181  0.5459 -2.5736
  323TMC3    H1 4857   3.875   1.559  14.023 -0.5916 -0.4323  0.7933
  323TMC3    H2 4858   4.270   1.694  13.958  0.2172 -2.5782 -2.2682
  323TMC3    C7 4859   4.121   1.501  14.072 -0.8537  0.0978 -0.1657
  323TMC3    C8 4860   4.213   1.881  13.780 -0.1458  0.7269  0.0151
  323TMC3    O1 4861   4.034   1.445  14.142  0.2097 -0.8899  0.2659
  323TMC3    O2 4862   4.328   1.879  13.819 -0.2577  0.1932  0.3059
  324MPD2     C 4863   1.211   3.259  14.103  0.0883 -0.2995 -0.0767
  324MPD2    C1 4864   1.178   3.136  14.147 -0.5186 -0.4191 -0.0315
  324MPD2    C2 4865   1.048   3.113  14.186  0.7548  0.0290 -0.0893
  324MPD2    C3 4866   0.956   3.212  14.192  0.1691  0.8133 -0.7948
  324MPD2    C4 4867   0.992   3.342  14.149 -0.6332  0.4602 -0.1485
  324MPD2    C5 4868   1.119   3.363  14.111  0.3385 -0.4208 -0.4002
  324MPD2     H 4869   1.019   3.023  14.239 -0.1888  0.8443  0.7795
  324MPD2    H1 4870   0.925   3.426  14.138 -0.5866  0.5558  0.2874
  324MPD2    H2 4871   1.310   3.273  14.059 -0.2809  0.6206 -0.6130
  324MPD2    H3 4872   1.150   3.457  14.068 -0.7889 -0.6554 -1.7507
  324MPD2     N 4873   0.820   3.187  14.209  0.1200  1.0123  0.2887
  324MPD2    H5 4874   0.761   3.268  14.223 -0.0851  0.9144 -0.0059
  324MPD2    N1 4875   1.271   3.032  14.137  0.5474  0.0686  0.3436
  324MPD2    H7 4876   1.363   3.064  14.111  1.0271 -2.4804 -1.0505
  325TMC3    C1 4877   0.617   3.082  14.255  0.2839 -0.5604  0.1664
  325TMC3    C2 4878   0.546   2.967  14.249  0.1481 -0.0528  0.5424
  325TMC3    C3 4879   0.411   2.984  14.246 -0.4413  0.2359 -0.1263
  325TMC3    C4 4880   0.567   3.205  14.279 -0.3136  0.0433  0.2132
  325TMC3    C5 4881   0.432   3.208  14.297  0.2975 -0.3644 -0.1051
  325TMC3    C6 4882   0.348   3.099  14.276  0.4849 -0.3640  0.6709
  325TMC3     C 4883   0.759   3.068  14.224 -0.0752 -0.2039 -0.1091
  325TMC3     O 4884   0.807   2.957  14.214 -0.7744 -0.3178 -0.5454
  325TMC3     H 4885   0.598   2.874  14.231  1.1559  0.8791 -1.3613
  325TMC3    H1 4886   0.622   3.297  14.298  1.0551 -0.7778  0.2254
  325TMC3    H2 4887   0.241   3.111  14.269  0.3099 -1.5283  1.4614
  325TMC3    C7 4888   0.367   3.339  14.318  0.2172 -0.1314 -0.6392
  325TMC3    C8 4889   0.341   2.863  14.197 -0.0453  0.3628 -0.7144
  325TMC3    O1 4890   0.440   3.434  14.328 -0.4134  0.1048  0.7057
  325TMC3    O2 4891   0.408   2.767  14.154 -0.2519  0.2400 -0.1767
  326MPD2     C 4892   2.904   3.861  10.358  0.0204 -0.3559 -0.0677
  326MPD2    C1 4893   2.823   3.838  10.464  0.5608 -0.2691  0.5839
  326MPD2    C2 4894   2.851   3.887  10.587 -0.1010 -0.6842  0.3192
  326MPD2    C3 4895   2.964   3.970  10.605  0.5464  0.3499  0.1268
  326MPD2    C4 4896   3.051   3.981  10.502 -1.2628  0.0245 -0.5994
  326MPD2    C5 4897   3.020   3.928  10.382 -0.1791 -0.6636 -0.3137
  326MPD2     H 4898   2.775   3.884  10.665 -0.7947  0.9636 -0.2748
  326MPD2    H1 4899   3.140   4.042  10.511 -1.6349  0.5976 -0.7958
  326MPD2    H2 4900   2.883   3.834  10.255 -1.0937  1.1732 -0.2452
  326MPD2    H3 4901   3.089   3.958  10.304  2.3697 -1.9685  1.4298
  326MPD2     N 4902   2.997   4.043  10.722 -0.4287 -0.5006 -0.1307
  326MPD2    H5 4903   3.064   4.118  10.711  1.3860 -1.9937  0.7563
  326MPD2    N1 4904   2.709   3.759  10.450  0.1620 -0.2803  0.5971
  326MPD2    H7 4905   2.659   3.731  10.533 -2.2105  0.7062 -0.4873
  327TMC3    C1 4906   2.550   3.617  10.367  0.0911 -0.1146  0.3635
  327TMC3    C2 4907   2.453   3.612  10.273 -0.0951  0.6027 -0.0831
  327TMC3    C3 4908   2.358   3.511  10.294 -0.2391  0.2349  0.1223
  327TMC3    C4 4909   2.574   3.527  10.475  0.3647 -0.4656 -0.6424
  327TMC3    C5 4910   2.487   3.421  10.487 -0.6615  0.3976  0.0062
  327TMC3    C6 4911   2.380   3.413  10.397 -0.7275 -0.1026  0.3443
  327TMC3     C 4912   2.662   3.705  10.333  0.2250 -0.2509 -0.1375
  327TMC3     O 4913   2.679   3.735  10.214  0.0287  0.1064 -0.5598
  327TMC3     H 4914   2.438   3.690  10.200 -0.2479  1.8408  1.2777
  327TMC3    H1 4915   2.671   3.523  10.523 -0.6773 -2.5758  1.3088
  327TMC3    H2 4916   2.309   3.332  10.398 -0.3945 -0.3904  0.5879
  327TMC3    C7 4917   2.486   3.338  10.603 -0.0755  0.0703 -0.7589
  327TMC3    C8 4918   2.227   3.560  10.263 -0.3609 -0.8662  0.0689
  327TMC3    O1 4919   2.408   3.243  10.611  0.0609 -0.4506 -0.3285
  327TMC3    O2 4920   2.218   3.643  10.178 -0.0970 -0.4487  0.3453
  328MPD2     C 4921   4.165   3.647  16.984  0.3938  0.3184  0.9902
  328MPD2    C1 4922   4.061   3.627  16.900 -0.5415  0.4124  0.3712
  328MPD2    C2 4923   4.007   3.732  16.833 -0.1577 -0.5649  0.1489
  328MPD2    C3 4924   4.049   3.863  16.872 -0.0722  0.2269 -0.6506
  328MPD2    C4 4925   4.157   3.878  16.956 -0.0469 -0.1564 -0.0157
  328MPD2    C5 4926   4.212   3.771  17.016  0.0435  0.2465 -0.0516
  328MPD2     H 4927   3.925   3.719  16.763 -0.0810 -1.7199  0.2701
  328MPD2    H1 4928   4.190   3.971  17.003  1.0051 -1.6445  2.2240
  328MPD2    H2 4929   4.213   3.565  17.035  0.1044 -0.4257  0.0637
  328MPD2    H3 4930   4.307   3.774  17.069  0.2933 -1.9986 -0.3714
  328MPD2     N 4931   3.986   3.982  16.831  0.8099 -0.4094 -0.9345
  328MPD2    H5 4932   4.037   4.066  16.855  2.1688 -1.1590 -1.1492
  328MPD2    N1 4933   4.020   3.493  16.885 -0.2620  1.1729  0.3026
  328MPD2    H7 4934   4.044   3.425  16.957  0.6002 -0.2815 -1.3402
  329TMC3    C1 4935   3.910   3.315  16.790  0.7526  0.5021  0.5899
  329TMC3    C2 4936   3.843   3.282  16.914 -0.6977  0.4437  0.3030
  329TMC3    C3 4937   3.746   3.181  16.908  0.0017 -0.6848 -0.1176
  329TMC3    C4 4938   3.892   3.246  16.679  0.0386  0.1614  0.2068
  329TMC3    C5 4939   3.802   3.142  16.684  0.0182  0.6434 -0.0126
  329TMC3    C6 4940   3.730   3.102  16.799  0.4281  0.1871  0.3112
  329TMC3     C 4941   3.946   3.454  16.776 -0.2290  0.5468 -0.4966
  329TMC3     O 4942   3.911   3.510  16.674 -0.9440  0.2570  0.1722
  329TMC3     H 4943   3.861   3.330  17.009  0.6963  0.4205  0.0503
  329TMC3    H1 4944   3.936   3.273  16.583  0.1557  0.2904  0.2980
  329TMC3    H2 4945   3.644   3.037  16.790  0.0403  0.9703 -1.7030
  329TMC3    C7 4946   3.733   3.108  16.559 -0.2475  0.2364 -0.3120
  329TMC3    C8 4947   3.622   3.221  16.954  0.3448 -0.6124  0.3054
  329TMC3    O1 4948   3.729   3.198  16.477  0.2684  0.1649 -0.0446
  329TMC3    O2 4949   3.542   3.231  16.861  0.7355 -0.7414 -0.6386
  330TMC3    C1 4950   2.837   3.112   9.331 -0.0830 -0.4477 -0.4477
  330TMC3    C2 4951   2.813   3.015   9.243 -0.4429 -0.3369  0.1310
  330TMC3    C3 4952   2.823   2.880   9.284  0.1708 -1.1750 -0.2265
  330TMC3    C4 4953   2.894   3.083   9.455  0.0077  0.3348  0.0495
  330TMC3    C5 4954   2.909   2.951   9.495  0.2849  0.5458 -0.1527
  330TMC3    C6 4955   2.879   2.847   9.410  0.0244  0.4777  0.3727
  330TMC3     C 4956   2.814   3.251   9.302 -0.5086 -0.0597  0.0168
  330TMC3     O 4957   2.870   3.340   9.369 -0.3734 -0.2188 -0.0232
  330TMC3     H 4958   2.789   3.039   9.140  0.3370 -0.4983 -0.0864
  330TMC3    H1 4959   2.908   3.166   9.523  0.6171  1.2651 -1.2109
  330TMC3    H2 4960   2.896   2.742   9.430  0.0549  0.0941 -1.5773
  330TMC3    C7 4961   2.961   2.925   9.626  0.2845 -0.0573  0.2898
  330TMC3    C8 4962   2.798   2.774   9.187 -0.6200 -0.7806 -0.2330
  330TMC3    O1 4963   2.996   3.022   9.693 -0.0777 -0.1487 -0.5533
  330TMC3    O2 4964   2.807   2.804   9.067  0.1434  0.4520 -0.3130
  331MPD2     C 4965   0.144   1.607  12.419 -0.4818 -1.1065 -0.0338
  331MPD2    C1 4966   0.266   1.644  12.469 -0.0484 -0.3788  0.0830
  331MPD2    C2 4967   0.376   1.571  12.434 -0.1235 -0.1161  0.1972
  331MPD2    C3 4968   0.363   1.458  12.357 -0.0233 -0.8129  0.2577
  331MPD2    C4 4969   0.238   1.426  12.307  0.2462 -0.4308 -0.4062
  331MPD2    C5 4970   0.134   1.492  12.353 -0.0908 -0.0327 -0.2730
  331MPD2     H 4971   0.476   1.606  12.458 -0.3809  0.6513  0.1522
  331MPD2    H1 4972   0.230   1.346  12.233 -0.0630 -0.3796 -0.4280
  331MPD2    H2 4973   0.058   1.661  12.457 -0.3713  0.9220 -2.7025
  331MPD2    H3 4974   0.034   1.454  12.333  0.2469 -1.2426  0.3183
  331MPD2     N 4975   0.478   1.397  12.311  0.2957  0.1703  0.0450
  331MPD2    H5 4976   0.568   1.424  12.351  0.0593  0.4636  0.3792
  331MPD2    N1 4977   0.272   1.764  12.540  0.0015  0.9176  0.5080
  331MPD2    H7 4978   0.192   1.825  12.528 -1.3542 -1.6880 -4.0287
  332TMC3    C1 4979   0.633   1.287  12.178  0.9402 -0.5341 -0.5201
  332TMC3    C2 4980   0.674   1.325  12.049  0.1561  0.1316 -0.0661
  332TMC3    C3 4981   0.806   1.348  12.039 -0.7162 -0.2414  0.5498
  332TMC3    C4 4982   0.718   1.281  12.280 -0.6544 -0.4502  0.6578
  332TMC3    C5 4983   0.849   1.312  12.261  0.0515 -0.5077  0.0843
  332TMC3    C6 4984   0.898   1.344  12.141 -0.5554 -0.0762 -0.3438
  332TMC3     C 4985   0.491   1.320  12.201 -0.0929 -0.2423 -0.2523
  332TMC3     O 4986   0.409   1.292  12.116  0.0037 -0.2223  0.5768
  332TMC3     H 4987   0.600   1.349  11.974 -1.4817 -0.4093  1.4000
  332TMC3    H1 4988   0.673   1.249  12.374 -2.3509  0.8654  0.2930
  332TMC3    H2 4989   1.003   1.357  12.117 -0.1658 -0.2340  1.2306
  332TMC3    C7 4990   0.934   1.304  12.372  0.1102  0.1891  0.1261
  332TMC3    C8 4991   0.851   1.442  11.933  0.7514 -0.0043 -0.4133
  332TMC3    O1 4992   0.877   1.253  12.468  0.3466 -0.0039  0.0826
  332TMC3    O2 4993   0.964   1.446  11.889  0.5429 -0.1046  0.2200
  333MPD2     C 4994   0.722   2.077  10.902 -0.5774  0.0352  0.0965
  333MPD2    C1 4995   0.766   1.974  10.817 -0.4638  0.0053  0.1725
  333MPD2    C2 4996   0.727   1.845  10.846  0.3601 -0.6045  0.4986
  333MPD2    C3 4997   0.656   1.810  10.962 -0.5643  0.0523  0.0308
  333MPD2    C4 4998   0.605   1.916  11.035 -0.1226  0.0967  0.1572
  333MPD2    C5 4999   0.633   2.049  10.998  0.0057  0.0372 -0.0991
  333MPD2     H 5000   0.756   1.775  10.768 -1.4455 -0.8664  0.0615
  333MPD2    H1 5001   0.541   1.904  11.122  0.8471 -3.6926  0.3438
  333MPD2    H2 5002   0.753   2.180  10.894  0.8340 -0.3823  0.0317
  333MPD2    H3 5003   0.607   2.133  11.061  0.5968  1.1133 -1.3129
  333MPD2     N 5004   0.639   1.669  10.988  0.3100 -0.8600 -0.6841
  333MPD2    H5 5005   0.671   1.604  10.917  2.0917 -0.7181 -0.0190
  333MPD2    N1 5006   0.848   2.010  10.702 -0.6232  0.6883  0.5211
  333MPD2    H7 5007   0.855   2.108  10.679 -1.1442  0.4637 -0.5689
  334TMC3    C1 5008   0.991   1.978  10.513  0.6220 -0.6207  0.0751
  334TMC3    C2 5009   1.110   1.915  10.495 -0.0776  1.0014  0.0234
  334TMC3    C3 5010   1.199   1.993  10.433  0.4829 -0.2411  0.1581
  334TMC3    C4 5011   0.954   2.094  10.462  0.6673  0.5478  0.4350
  334TMC3    C5 5012   1.050   2.168  10.401 -0.2574  0.2253 -0.6047
  334TMC3    C6 5013   1.176   2.116  10.387 -0.1575  0.0457 -0.7244
  334TMC3     C 5014   0.903   1.917  10.613  0.2812 -0.1051 -0.6233
  334TMC3     O 5015   0.922   1.800  10.628  0.0094 -0.0318 -0.0747
  334TMC3     H 5016   1.128   1.811  10.520  1.3526  0.9091 -1.4252
  334TMC3    H1 5017   0.855   2.134  10.479  0.1340 -0.6738  0.2296
  334TMC3    H2 5018   1.252   2.168  10.328 -0.7222  0.2757 -1.2550
  334TMC3    C7 5019   1.031   2.308  10.360 -0.4562  0.0161 -0.6267
  334TMC3    C8 5020   1.325   1.926  10.409 -0.1403 -0.7419  0.0879
  334TMC3    O1 5021   1.128   2.376  10.334  0.1886  0.2928  0.1834
  334TMC3    O2 5022   1.310   1.803  10.408  0.1961 -0.2835  0.5227
  335TMC3    C1 5023   4.717   3.619  17.148 -0.0361  0.4890 -0.6377
  335TMC3    C2 5024   4.631   3.600  17.054  0.6164  0.6344  0.1189
  335TMC3    C3 5025   4.669   3.590  16.921  0.5563 -0.3504 -0.0506
  335TMC3    C4 5026   0.125   3.642  17.119  0.2631  0.4907 -0.0704
  335TMC3    C5 5027   0.166   3.648  16.984  0.2575  0.3029  0.0431
  335TMC3    C6 5028   0.072   3.631  16.884  0.3009 -0.8675  0.2563
  335TMC3     C 5029   4.671   3.593  17.280 -0.1338 -0.2078 -0.2125
  335TMC3     O 5030   4.565   3.535  17.286 -0.3392 -0.0297  0.0957
  335TMC3     H 5031   4.526   3.589  17.080  1.2233 -2.1833  1.3424
  335TMC3    H1 5032   0.210   3.612  17.179 -0.4120  1.0512  1.1552
  335TMC3    H2 5033   0.107   3.649  16.783  0.1489 -1.8420  0.0327
  335TMC3    C7 5034   0.292   3.696  16.947 -0.1727 -0.1055  0.1948
  335TMC3    C8 5035   4.581   3.544  16.812 -0.0727 -0.7768  1.2070
  335TMC3    O1 5036   0.339   3.666  16.841 -0.2290 -0.1831 -0.3652
  335TMC3    O2 5037   4.590   3.598  16.701  0.3621 -0.0603 -0.1609
  336MPD2     C 5038   4.521   1.520  16.218  0.5572  0.2690 -0.3730
  336MPD2    C1 5039   4.572   1.462  16.103 -0.0739 -0.1124 -0.0032
  336MPD2    C2 5040   4.593   1.321  16.106 -0.3694 -0.2791  0.7583
  336MPD2    C3 5041   4.554   1.235  16.208  0.1006 -1.0059  0.2005
  336MPD2    C4 5042   4.507   1.300  16.324  0.5801 -0.5357  0.0688
  336MPD2    C5 5043   4.490   1.436  16.322  0.0269 -0.6537  0.9930
  336MPD2     H 5044   4.634   1.282  16.013 -1.1693  1.1191 -0.1772
  336MPD2    H1 5045   4.492   1.235  16.410 -0.9956 -1.5108 -0.9455
  336MPD2    H2 5046   4.494   1.625  16.228 -1.1532 -0.2874  0.9426
  336MPD2    H3 5047   4.446   1.481  16.410  2.0652 -1.3294  2.3425
  336MPD2     N 5048   4.580   1.095  16.215 -0.0938 -0.9415  0.1921
  336MPD2    H5 5049   4.553   1.047  16.300 -0.0135 -3.7697 -1.3733
  336MPD2    N1 5050   4.602   1.530  15.988 -0.3391 -0.1268  0.6812
  336MPD2    H7 5051   4.643   1.474  15.914  0.0376  1.2690 -0.1574
  337TMC3    C1 5052   4.657   1.699  15.837  0.0712 -0.5347 -0.6253
  337TMC3    C2 5053   4.548   1.669  15.759 -0.2512 -0.0612 -0.7585
  337TMC3    C3 5054   4.507   1.755  15.662  0.0750  0.2666 -0.0018
  337TMC3    C4 5055   4.713   1.819  15.816 -0.4169  0.2936  0.5277
  337TMC3    C5 5056   4.658   1.910  15.731  0.5503  0.4686 -0.1868
  337TMC3    C6 5057   4.562   1.878  15.643  0.1283 -0.0180 -0.5827
  337TMC3     C 5058   4.639   1.665  15.974  0.5561  0.4340 -0.3099
  337TMC3     O 5059   4.646   1.752  16.057  0.5233  0.0450  0.1874
  337TMC3     H 5060   4.503   1.572  15.772 -2.2851  0.9233 -0.5586
  337TMC3    H1 5061   0.069   1.845  15.881 -0.2676  0.2895  0.3392
  337TMC3    H2 5062   4.511   1.949  15.579 -0.5315 -1.2485 -1.4095
  337TMC3    C7 5063   4.624   2.037  15.790  0.4228 -0.4600 -0.0801
  337TMC3    C8 5064   4.363   1.742  15.634 -0.4540  0.2185 -0.0010
  337TMC3    O1 5065   4.584   2.129  15.715  0.1716  0.2696  0.0790
  337TMC3    O2 5066   4.289   1.686  15.717 -0.4966  0.6981  0.1558
  338MPD2     C 5067   0.870   0.581   0.570  0.0689  0.1339 -0.2318
  338MPD2    C1 5068   0.737   0.613   0.569  0.2584  0.1187 -0.4793
  338MPD2    C2 5069   0.705   0.714   0.656 -0.3945  0.3138 -0.0534
  338MPD2    C3 5070   0.797   0.765   0.745 -0.1773  0.2035 -0.4479
  338MPD2    C4 5071   0.927   0.728   0.743 -0.2751 -0.3472  0.3171
  338MPD2    C5 5072   0.963   0.634   0.648 -0.7474 -0.7378  0.7127
  338MPD2     H 5073   0.600   0.742   0.656 -1.0164 -1.8862  4.3565
  338MPD2    H1 5074   1.011   0.768   0.799  1.1112 -0.2097 -1.8487
  338MPD2    H2 5075   0.913   0.499   0.513 -2.7224 -1.7047  0.3261
  338MPD2    H3 5076   1.061   0.589   0.645 -0.2603  0.4643 -1.6951
  338MPD2     N 5077   0.745   0.853   0.841  0.2551 -0.2869  0.6648
  338MPD2    H5 5078   0.648   0.885   0.837  0.5541  0.7222  1.5843
  338MPD2    N1 5079   0.635   0.558   0.491  0.4744  0.2207  0.1162
  338MPD2    H7 5080   0.536   0.579   0.501  0.6485  1.6574 -1.2705
  339TMC3    C1 5081   0.731   0.977   1.045  0.3079  0.6775  0.0209
  339TMC3    C2 5082   0.769   0.988   1.170  0.5591  0.3301 -0.7822
  339TMC3    C3 5083   0.689   1.058   1.258 -0.7823 -0.4242  0.0131
  339TMC3    C4 5084   0.613   1.039   0.999  1.1049  0.3587  0.1302
  339TMC3    C5 5085   0.539   1.105   1.093  0.2449  0.4656  0.0707
  339TMC3    C6 5086   0.572   1.111   1.227 -0.1455  0.5610 -0.5835
  339TMC3     C 5087   0.814   0.896   0.957  0.8323 -0.4145  0.7402
  339TMC3     O 5088   0.917   0.864   1.010  0.0099  0.4094 -0.8513
  339TMC3     H 5089   0.859   0.939   1.205  0.4753  0.6891 -0.0533
  339TMC3    H1 5090   0.565   1.028   0.902  2.2056  0.5958 -0.4416
  339TMC3    H2 5091   0.502   1.160   1.294  1.6272 -0.6829  2.1648
  339TMC3    C7 5092   0.414   1.171   1.059 -0.6052  0.1585 -0.2465
  339TMC3    C8 5093   0.698   0.994   1.391 -0.4496 -0.0025 -0.2648
  339TMC3    O1 5094   0.385   1.281   1.104  0.1781 -0.1063 -0.4192
  339TMC3    O2 5095   0.805   0.936   1.412 -0.3457  0.2446 -0.0757
  340MPD2     C 5096   0.877   3.039   9.945  0.1619  0.7112  0.3980
  340MPD2    C1 5097   0.978   3.097   9.874 -0.6745 -0.1303 -0.6284
  340MPD2    C2 5098   1.107   3.041   9.891 -0.1413  0.2332  0.2212
  340MPD2    C3 5099   1.137   2.940   9.981 -0.6984  0.7425  0.4269
  340MPD2    C4 5100   1.030   2.892  10.057 -0.0367 -0.3735  0.4681
  340MPD2    C5 5101   0.900   2.940  10.033  0.3671 -0.1675  0.2815
  340MPD2     H 5102   1.186   3.085   9.831 -0.1713  0.7355  0.5517
  340MPD2    H1 5103   1.038   2.809  10.126 -1.0255  0.1844  1.2390
  340MPD2    H2 5104   0.772   3.065   9.939 -0.1118 -0.2497  1.1896
  340MPD2    H3 5105   0.813   2.904  10.086  0.4902 -1.9007 -0.6830
  340MPD2     N 5106   1.267   2.886   9.997 -0.6232  0.1097  0.2172
  340MPD2    H5 5107   1.281   2.807  10.059 -1.1199 -0.3223 -0.2188
  340MPD2    N1 5108   0.941   3.201   9.784  0.3096  0.1654 -0.0495
  340MPD2    H7 5109   0.841   3.219   9.771  0.5460  1.2006 -0.4321
  341TMC3    C1 5110   1.000   3.348   9.603 -0.0924  0.3601  0.0720
  341TMC3    C2 5111   0.871   3.333   9.551 -0.9260  0.2607  0.1093
  341TMC3    C3 5112   0.851   3.325   9.409  0.0919 -0.1992  0.9818
  341TMC3    C4 5113   1.104   3.345   9.512  0.8908  0.3862  0.9016
  341TMC3    C5 5114   1.073   3.318   9.381  0.6519 -0.0694 -0.1730
  341TMC3    C6 5115   0.952   3.300   9.324 -0.4319 -0.1412  0.3382
  341TMC3     C 5116   1.038   3.281   9.722 -0.4139  0.4195  0.6103
  341TMC3     O 5117   1.157   3.298   9.753 -0.1899 -0.6099  0.3842
  341TMC3     H 5118   0.786   3.325   9.617 -1.9745 -0.2719 -1.3075
  341TMC3    H1 5119   1.198   3.367   9.560  0.7238  1.8037  0.5730
  341TMC3    H2 5120   0.944   3.291   9.216  1.2073 -0.1690  0.2169
  341TMC3    C7 5121   1.183   3.277   9.298  0.1443 -0.7271 -0.2838
  341TMC3    C8 5122   0.718   3.291   9.369 -0.3085 -0.2964  0.4708
  341TMC3    O1 5123   1.284   3.240   9.353  0.6020 -0.4184  0.2845
  341TMC3    O2 5124   0.622   3.340   9.431  0.5146 -0.1926 -0.1834
  342MPD2     C 5125   2.678   1.874  17.387  0.9987 -0.3968 -0.3140
  342MPD2    C1 5126   2.796   1.921  17.329 -0.2908 -0.1332 -0.3720
  342MPD2    C2 5127   2.829   2.051  17.348  0.1222 -0.2821  0.4698
  342MPD2    C3 5128   2.757   2.142  17.427  0.0674  0.5918 -0.4142
  342MPD2    C4 5129   2.651   2.085  17.494  0.4418 -0.1130  0.3345
  342MPD2    C5 5130   2.612   1.961  17.477  0.8604  0.5347 -0.7407
  342MPD2     H 5131   2.918   2.094  17.303 -0.5969  0.4410 -0.2502
  342MPD2    H1 5132   2.587   2.141  17.561 -1.3083 -1.8690  0.1666
  342MPD2    H2 5133   2.642   1.772  17.379 -1.2163  0.4196 -0.8111
  342MPD2    H3 5134   2.527   1.921  17.530 -0.2055 -0.4081 -3.1486
  342MPD2     N 5135   2.804   2.276  17.452 -0.4456 -0.6859  0.1289
  342MPD2    H5 5136   2.770   2.321  17.536  2.4276 -0.7189  1.3095
  342MPD2    N1 5137   2.887   1.843  17.255  0.3897  0.6715 -0.5706
  342MPD2    H7 5138   2.953   1.885  17.191  3.1448 -2.5538  0.2100
  343TMC3    C1 5139   2.951   1.659  17.134  0.0919 -0.6713 -0.0152
  343TMC3    C2 5140   2.995   1.730  17.024 -0.1097 -0.3830  0.3265
  343TMC3    C3 5141   3.049   1.662  16.911 -0.3049  0.1333 -0.8217
  343TMC3    C4 5142   2.946   1.517  17.130  0.2923 -0.4851 -0.3431
  343TMC3    C5 5143   2.994   1.456  17.019 -0.1620 -0.1464  0.1444
  343TMC3    C6 5144   3.048   1.526  16.911 -0.5258  0.4996 -0.3345
  343TMC3     C 5145   2.881   1.708  17.247 -0.7944 -0.7151 -0.4278
  343TMC3     O 5146   2.817   1.629  17.316 -0.0755  0.6246 -0.2139
  343TMC3     H 5147   2.988   1.837  17.014  1.4661 -0.3200 -0.1511
  343TMC3    H1 5148   2.918   1.459  17.217 -1.4664 -2.2203 -2.0657
  343TMC3    H2 5149   3.097   1.460  16.840  2.7788  1.1351  1.3428
  343TMC3    C7 5150   2.986   1.309  17.009 -0.7055 -0.5989  0.7012
  343TMC3    C8 5151   3.165   1.720  16.850 -0.5665  0.4547 -0.3597
  343TMC3    O1 5152   2.959   1.255  16.903 -0.2181 -0.0092 -0.0560
  343TMC3    O2 5153   3.226   1.801  16.918 -0.4807 -0.6025  0.4282
  344MPD2     C 5154   4.383   1.102  10.019  0.0902 -0.5046 -0.5319
  344MPD2    C1 5155   4.269   1.183  10.009 -0.6430  0.0726  0.2827
  344MPD2    C2 5156   4.272   1.301   9.935  0.0397  0.2856  0.3948
  344MPD2    C3 5157   4.399   1.342   9.890 -0.1624  0.3576  0.9340
  344MPD2    C4 5158   4.509   1.259   9.908  0.1338  0.0441  0.0813
  344MPD2    C5 5159   4.504   1.134   9.968  0.3135  0.7682 -0.0465
  344MPD2     H 5160   4.185   1.367   9.928 -0.6166 -0.4460  1.6214
  344MPD2    H1 5161   4.602   1.298   9.869 -0.3660  0.4285 -0.7284
  344MPD2    H2 5162   4.384   1.007  10.070 -0.0844  1.0748  2.4491
  344MPD2    H3 5163   4.596   1.076   9.966 -0.3436 -0.2896  0.0145
  344MPD2     N 5164   4.421   1.464   9.825 -0.0949  0.6274  0.3666
  344MPD2    H5 5165   4.518   1.493   9.820  0.3671 -0.7030  1.7143
  344MPD2    N1 5166   4.157   1.156  10.090 -0.2795  0.6484  0.8056
  344MPD2    H7 5167   4.083   1.225  10.086 -0.8435  0.1138  2.0400
  345TMC3    C1 5168   4.368   1.680   9.736  0.3116 -0.0294 -0.0131
  345TMC3    C2 5169   4.492   1.714   9.783 -0.3765  0.1719  0.2087
  345TMC3    C3 5170   4.553   1.823   9.727 -0.4194  0.3190 -1.0359
  345TMC3    C4 5171   4.307   1.747   9.627  0.1302 -0.0024  0.3653
  345TMC3    C5 5172   4.374   1.859   9.577  0.1239  0.5333  0.1854
  345TMC3    C6 5173   4.503   1.887   9.617  0.3008 -0.1368  0.0045
  345TMC3     C 5174   4.318   1.545   9.771  0.4068  0.3726  0.9091
  345TMC3     O 5175   4.199   1.522   9.755  0.3875  0.2528  0.0043
  345TMC3     H 5176   4.539   1.664   9.867 -0.3360 -1.2820 -0.6729
  345TMC3    H1 5177   4.208   1.718   9.594 -0.2923  1.3936  0.4056
  345TMC3    H2 5178   4.561   1.969   9.575 -1.8422  2.1194  1.4412
  345TMC3    C7 5179   4.309   1.945   9.475  0.4647  0.0985  0.0230
  345TMC3    C8 5180   4.690   1.851   9.774 -0.3860  0.1987  0.3098
  345TMC3    O1 5181   4.339   2.064   9.475  0.3891  0.3231  0.1581
  345TMC3    O2 5182   0.021   1.763   9.841 -0.7597 -0.1342 -0.3660
  346MPD2     C 5183   3.757   3.140  14.024  0.1051 -0.4178 -0.0707
  346MPD2    C1 5184   3.863   3.051  14.041 -0.1173  0.2404 -0.0335
  346MPD2    C2 5185   3.938   3.059  14.157 -0.1807  0.4812  0.2062
  346MPD2    C3 5186   3.917   3.158  14.255 -0.3624 -0.3947  0.3731
  346MPD2    C4 5187   3.809   3.242  14.234  0.4658  0.2674  0.4113
  346MPD2    C5 5188   3.737   3.235  14.118  0.3664  0.3208  0.7160
  346MPD2     H 5189   4.024   2.994  14.161 -0.7488 -0.4600 -2.4445
  346MPD2    H1 5190   3.785   3.324  14.301  1.6553  1.1414 -0.2166
  346MPD2    H2 5191   3.712   3.145  13.926 -1.3222 -1.3291  0.5181
  346MPD2    H3 5192   3.654   3.305  14.107 -0.5568 -1.1273 -1.6120
  346MPD2     N 5193   4.009   3.174  14.366  0.0049  0.1171 -0.8433
  346MPD2    H5 5194   4.098   3.126  14.357 -0.0928 -1.0485  4.1360
  346MPD2    N1 5195   3.890   2.971  13.931 -0.1958 -0.0633  0.3612
  346MPD2    H7 5196   3.815   2.986  13.864 -1.0214 -1.7439  0.9007
  347TMC3    C1 5197   4.106   3.286  14.542 -0.0343 -0.1652 -0.1125
  347TMC3    C2 5198   4.231   3.268  14.494 -0.1241  0.4122 -0.4678
  347TMC3    C3 5199   4.339   3.309  14.574 -0.3466  0.0178  0.6666
  347TMC3    C4 5200   4.087   3.347  14.661 -0.3083  0.3458 -0.2263
  347TMC3    C5 5201   4.196   3.387  14.736  0.5901 -0.0401  0.3217
  347TMC3    C6 5202   4.321   3.360  14.697 -0.2262  0.0405 -1.0102
  347TMC3     C 5203   3.986   3.256  14.470  1.1006 -0.1724  0.9924
  347TMC3     O 5204   3.885   3.309  14.507  0.2361  0.1263  0.6215
  347TMC3     H 5205   4.253   3.224  14.397  1.1290  1.6546 -0.7548
  347TMC3    H1 5206   3.988   3.366  14.700 -1.0469 -2.0493 -0.8861
  347TMC3    H2 5207   4.401   3.383  14.767 -0.1761 -0.6287 -0.8492
  347TMC3    C7 5208   4.171   3.439  14.872 -0.8540 -0.0889 -0.1296
  347TMC3    C8 5209   4.468   3.313  14.511  0.2246 -0.3020  0.1330
  347TMC3    O1 5210   4.078   3.385  14.930 -0.1205  0.3952  0.0889
  347TMC3    O2 5211   4.491   3.229  14.426  0.1800 -0.1683 -0.4272
  348MPD2     C 5212   3.041   2.546  12.015 -0.3059 -0.9802  0.1716
  348MPD2    C1 5213   3.154   2.634  11.996 -0.9713  0.2358 -0.0398
  348MPD2    C2 5214   3.184   2.669  11.864 -0.0378 -0.0743 -0.4343
  348MPD2    C3 5215   3.122   2.615  11.755 -0.1240  0.3873  0.4906
  348MPD2    C4 5216   3.016   2.529  11.779 -0.5959 -0.1687  0.2055
  348MPD2    C5 5217   2.977   2.495  11.906  0.0305  0.9264 -0.6286
  348MPD2     H 5218   3.270   2.734  11.850 -0.0281  0.0052 -0.0016
  348MPD2    H1 5219   2.962   2.485  11.696  0.3798  1.1710 -1.1372
  348MPD2    H2 5220   3.021   2.512  12.115  2.3321 -1.4287  0.5604
  348MPD2    H3 5221   2.897   2.422  11.914  0.0585  0.7335 -2.1869
  348MPD2     N 5222   3.176   2.653  11.629 -0.0797 -0.2718  0.1629
  348MPD2    H5 5223   3.263   2.706  11.632  0.1433 -0.6840  0.8321
  348MPD2    N1 5224   3.236   2.680  12.100 -0.4005 -0.0889 -0.5441
  348MPD2    H7 5225   3.309   2.744  12.072  0.5129 -0.5088  0.8798
  349TMC3    C1 5226   3.353   2.633  12.290 -0.0526  0.0645  0.1427
  349TMC3    C2 5227   3.357   2.548  12.393  0.7186 -1.0494  0.2640
  349TMC3    C3 5228   3.426   2.430  12.386 -0.1174  0.4026 -0.2208
  349TMC3    C4 5229   3.461   2.623  12.200  0.0856  0.4639 -0.7521
  349TMC3    C5 5230   3.530   2.504  12.199 -0.3430  0.2307 -0.1382
  349TMC3    C6 5231   3.516   2.407  12.290  0.1794 -0.1311  0.0729
  349TMC3     C 5232   3.228   2.637  12.231  0.4326 -0.3124  0.2809
  349TMC3     O 5233   3.145   2.562  12.284  0.0196 -0.1865  0.4607
  349TMC3     H 5234   3.284   2.560  12.473  0.2248 -0.2663 -0.3070
  349TMC3    H1 5235   3.472   2.691  12.116  2.0745  0.1782 -0.7320
  349TMC3    H2 5236   3.573   2.316  12.277  0.7950  0.1979  0.4953
  349TMC3    C7 5237   3.565   2.441  12.073 -0.6730  0.3528  0.0482
  349TMC3    C8 5238   3.361   2.311  12.423  0.2758 -0.3873 -0.3919
  349TMC3    O1 5239   3.531   2.325  12.056 -0.6591 -0.1837  0.3064
  349TMC3    O2 5240   3.428   2.210  12.432  0.5118  0.0445  0.6565
  350MPD2     C 5241   1.516   0.074   9.971 -0.1966 -0.1871 -0.5306
  350MPD2    C1 5242   1.644   0.024   9.957  0.1456  0.3901 -0.4647
  350MPD2    C2 5243   1.749   0.082  10.016 -0.8857  0.9510 -0.0459
  350MPD2    C3 5244   1.733   0.203  10.081 -0.2561  0.1590 -0.4371
  350MPD2    C4 5245   1.603   0.255  10.099 -0.3720  0.5600 -0.1992
  350MPD2    C5 5246   1.497   0.188  10.047  0.1441 -0.3788  0.1533
  350MPD2     H 5247   1.852   0.053   9.998 -1.0372  1.0278 -1.0649
  350MPD2    H1 5248   1.594   0.346  10.157 -1.9047 -0.4210  1.0907
  350MPD2    H2 5249   1.433   0.024   9.923 -0.3029 -1.1532  0.6535
  350MPD2    H3 5250   1.393   0.218  10.059  0.8227  1.1071  2.4062
  350MPD2     N 5251   1.857   0.260  10.130  0.3683 -0.4934 -0.3136
  350MPD2    H5 5252   1.944   0.208  10.134  0.2824 -0.6661 -0.7969
  350MPD2    N1 5253   1.674   4.627   9.902  0.0652 -0.6014  0.3204
  350MPD2    H7 5254   1.765   4.586   9.919  0.1342 -0.6895 -0.2932
  351TMC3    C1 5255   1.654   4.424   9.793 -0.0948 -0.6748  0.1149
  351TMC3    C2 5256   1.783   4.416   9.747 -0.4283  0.2693 -0.6405
  351TMC3    C3 5257   1.815   4.316   9.658 -0.0594  0.2460  0.7604
  351TMC3    C4 5258   1.564   4.329   9.753  0.2549  0.0358  0.3239
  351TMC3    C5 5259   1.603   4.233   9.666 -0.6091 -0.8937  0.1188
  351TMC3    C6 5260   1.726   4.226   9.611  0.3327  0.0541  0.0120
  351TMC3     C 5261   1.591   4.543   9.837 -0.1223  0.2855  0.1947
  351TMC3     O 5262   1.472   4.551   9.817 -0.0979 -0.3889  0.1140
  351TMC3     H 5263   1.853   4.491   9.781 -1.3449 -0.1304  2.2115
  351TMC3    H1 5264   1.463   4.335   9.791  0.0775  0.3883 -0.2088
  351TMC3    H2 5265   1.749   4.150   9.538  1.4746 -0.8274  1.2997
  351TMC3    C7 5266   1.496   4.163   9.598 -0.3187  0.6475 -0.2310
  351TMC3    C8 5267   1.960   4.303   9.633  0.1131  0.5151  0.0413
  351TMC3    O1 5268   1.510   4.136   9.482  0.1799  0.1271  0.3709
  351TMC3    O2 5269   2.035   4.370   9.702  0.1143 -0.0062 -0.0172
  352MPD2     C 5270   0.400   3.431   0.993 -0.0847 -0.0484 -0.3190
  352MPD2    C1 5271   0.282   3.359   0.978  0.2511  0.1622  0.2318
  352MPD2    C2 5272   0.262   3.255   1.068 -0.5867 -0.8897 -0.2802
  352MPD2    C3 5273   0.364   3.210   1.153 -0.6013 -0.6282 -0.5364
  352MPD2    C4 5274   0.483   3.282   1.163 -0.6280  0.5283 -0.6033
  352MPD2    C5 5275   0.497   3.388   1.082 -0.1038 -0.1933  0.7307
  352MPD2     H 5276   0.163   3.211   1.070 -1.6410  1.5933  1.9229
  352MPD2    H1 5277   0.554   3.267   1.243  0.7834  0.2097 -1.9313
  352MPD2    H2 5278   0.427   3.518   0.933  1.4511 -0.3084 -0.0070
  352MPD2    H3 5279   0.592   3.439   1.089 -0.9766  1.5393 -0.0978
  352MPD2     N 5280   0.337   3.112   1.254  0.6138 -0.2003 -0.2327
  352MPD2    H5 5281   0.411   3.095   1.321 -1.0701 -0.4949  1.5587
  352MPD2    N1 5282   0.197   3.392   0.871 -0.5173 -0.0940 -0.7027
  352MPD2    H7 5283   0.205   3.486   0.832 -2.4615  1.1929  1.9268
  353TMC3    C1 5284   0.227   2.922   1.353 -0.6502  0.3791 -0.3971
  353TMC3    C2 5285   0.346   2.854   1.370 -0.1415  0.2023  0.3483
  353TMC3    C3 5286   0.329   2.727   1.420 -0.2691  0.3776 -0.0220
  353TMC3    C4 5287   0.099   2.877   1.378  1.0700  0.0230  0.1382
  353TMC3    C5 5288   0.093   2.753   1.439 -0.2369  0.3343  0.0233
  353TMC3    C6 5289   0.203   2.674   1.461  0.3281  0.1651  0.4999
  353TMC3     C 5290   0.227   3.028   1.254  0.0059  0.0796  0.6937
  353TMC3     O 5291   0.122   3.038   1.190 -0.2249  0.4026 -0.0543
  353TMC3     H 5292   0.442   2.885   1.329  0.3676 -0.0013  1.3737
  353TMC3    H1 5293   0.006   2.933   1.368  0.7387 -0.1263  2.4296
  353TMC3    H2 5294   0.193   2.573   1.500 -0.4523  0.4385  1.0060
  353TMC3    C7 5295   4.700   2.685   1.416 -0.0461  0.0781  0.1463
  353TMC3    C8 5296   0.451   2.650   1.417  0.0620 -0.4454  0.3526
  353TMC3    O1 5297   4.638   2.699   1.307 -0.1982  0.1328  0.5310
  353TMC3    O2 5298   0.553   2.714   1.446 -0.1164  0.0260  0.4736
  354TMC3    C1 5299   2.314   3.850  13.262 -0.5157  0.5837 -0.2927
  354TMC3    C2 5300   2.424   3.901  13.316  0.2990  0.0815 -0.2998
  354TMC3    C3 5301   2.486   4.009  13.258  0.6543  0.4770 -0.7693
  354TMC3    C4 5302   2.255   3.909  13.149 -1.8675 -0.5393  0.2876
  354TMC3    C5 5303   2.320   4.012  13.095  0.6533 -0.8874 -0.2792
  354TMC3    C6 5304   2.427   4.070  13.149  0.4347 -0.1432  0.5582
  354TMC3     C 5305   2.246   3.739  13.330  0.1104  0.5373 -0.3686
  354TMC3     O 5306   2.143   3.713  13.273  0.0404  0.4967  0.2858
  354TMC3     H 5307   2.466   3.870  13.411 -1.7178 -2.6266 -0.3087
  354TMC3    H1 5308   2.176   3.858  13.094 -1.1864 -1.0356 -0.2181
  354TMC3    H2 5309   2.467   4.163  13.111 -0.3438  0.2831  0.7818
  354TMC3    C7 5310   2.308   4.043  12.957  0.6951 -0.4283  0.6334
  354TMC3    C8 5311   2.621   4.038  13.315 -0.3080 -0.1501  0.5263
  354TMC3    O1 5312   2.199   4.061  12.903 -0.1181 -0.3664  0.7320
  354TMC3    O2 5313   2.671   3.950  13.378 -0.5409  0.9269 -0.0412
  355MPD2     C 5314   2.200   0.169  11.762  0.2154 -0.2697  0.2626
  355MPD2    C1 5315   2.271   0.154  11.645 -0.0898  0.2623 -0.3374
  355MPD2    C2 5316   2.404   0.191  11.640 -0.3237  0.6519 -0.0296
  355MPD2    C3 5317   2.461   0.253  11.751 -0.3699 -0.6721  0.8325
  355MPD2    C4 5318   2.391   0.257  11.869  0.0950  1.0438 -0.2640
  355MPD2    C5 5319   2.265   0.205  11.876  0.0357 -0.4665 -0.5601
  355MPD2     H 5320   2.467   0.183  11.552 -0.3490  1.0145 -0.0774
  355MPD2    H1 5321   2.417   0.316  11.956 -0.8021 -0.1060  0.7944
  355MPD2    H2 5322   2.097   0.135  11.768 -0.9271  3.2897  0.5947
  355MPD2    H3 5323   2.208   0.212  11.967 -1.4201 -0.3246 -1.4780
  355MPD2     N 5324   2.580   0.331  11.747 -0.5600  0.2947 -0.1227
  355MPD2    H5 5325   2.598   0.394  11.824  0.4456  1.0209 -0.9586
  355MPD2    N1 5326   2.189   0.101  11.538  0.1954 -0.2164  0.6858
  355MPD2    H7 5327   2.108   0.057  11.581  0.3536 -0.7637  0.4177
  356TMC3    C1 5328   2.771   0.435  11.648 -0.0637 -0.5801  0.0433
  356TMC3    C2 5329   2.819   0.491  11.534 -0.2340  0.2618 -0.0808
  356TMC3    C3 5330   2.891   0.613  11.551  0.5053 -0.7915 -0.0201
  356TMC3    C4 5331   2.810   0.477  11.771 -0.3599  0.2120 -0.9723
  356TMC3    C5 5332   2.878   0.597  11.790  0.0714  0.8168  0.2273
  356TMC3    C6 5333   2.919   0.665  11.676 -0.9839  0.7082  0.5749
  356TMC3     C 5334   2.669   0.338  11.644 -0.2424  1.2768  0.1225
  356TMC3     O 5335   2.676   0.266  11.543 -0.2592 -0.3642 -0.0201
  356TMC3     H 5336   2.780   0.450  11.442 -0.6421 -0.7482  0.5347
  356TMC3    H1 5337   2.780   0.414  11.854  2.0574 -1.1968 -1.1895
  356TMC3    H2 5338   2.979   0.755  11.691 -1.4977  0.9254  1.3121
  356TMC3    C7 5339   2.937   0.616  11.918  0.0701 -0.4225 -0.5676
  356TMC3    C8 5340   2.917   0.682  11.428  0.3739  0.5372  0.3409
  356TMC3    O1 5341   2.906   0.530  12.001  0.4578 -0.3536 -0.3324
  356TMC3    O2 5342   2.839   0.652  11.337 -0.8823  0.3579 -0.0353
  357MPD2     C 5343   1.838   0.093   0.860  1.0303  0.4687 -0.0753
  357MPD2    C1 5344   1.884   4.710   0.921  0.1762 -0.6387 -0.0517
  357MPD2    C2 5345   1.806   4.654   1.015  0.5336 -0.5040 -0.0570
  357MPD2    C3 5346   1.681   4.703   1.052 -0.7909  0.4190 -0.0511
  357MPD2    C4 5347   1.642   0.084   0.988  0.2166 -0.7060 -0.5512
  357MPD2    C5 5348   1.716   0.139   0.886 -0.2135  0.3403 -0.4733
  357MPD2     H 5349   1.828   4.553   1.047  0.0355 -1.2517 -2.0172
  357MPD2    H1 5350   1.536   0.107   1.000 -0.2205 -3.1861  0.3141
  357MPD2    H2 5351   1.906   0.142   0.792  0.6468 -0.8818 -1.4321
  357MPD2    H3 5352   1.675   0.226   0.838  2.2248  0.9573 -1.4053
  357MPD2     N 5353   1.594   4.641   1.147 -0.2986 -0.4797 -0.7508
  357MPD2    H5 5354   1.498   4.675   1.144 -0.1299 -0.0308 -1.2345
  357MPD2    N1 5355   2.021   4.668   0.896  0.0311 -0.2520 -0.3053
  357MPD2    H7 5356   2.063   4.710   0.814 -0.7410 -0.9338 -1.0584
  358TMC3    C1 5357   2.246   4.569   0.926  0.1665  0.6186  0.1978
  358TMC3    C2 5358   2.255   4.516   0.800 -0.0625 -0.1254  0.1698
  358TMC3    C3 5359   2.360   4.441   0.762 -0.3117  0.0331  0.0151
  358TMC3    C4 5360   2.350   4.540   1.015 -0.6968  0.4736 -1.3394
  358TMC3    C5 5361   2.460   4.463   0.973  0.1654  0.1153  0.0701
  358TMC3    C6 5362   2.468   4.420   0.842 -0.7149  0.3398 -0.2731
  358TMC3     C 5363   2.108   4.596   0.977 -0.2172  0.2605 -0.6517
  358TMC3     O 5364   2.091   4.566   1.094  0.6891 -0.3199 -0.0204
  358TMC3     H 5365   2.171   4.523   0.732 -0.5951 -0.2900  0.8123
  358TMC3    H1 5366   2.346   4.588   1.112 -2.4468 -0.9733 -0.6879
  358TMC3    H2 5367   2.541   4.345   0.813 -0.8996 -0.1840  0.6161
  358TMC3    C7 5368   2.551   4.399   1.071 -0.0057 -0.4833  0.0512
  358TMC3    C8 5369   2.348   4.355   0.651 -0.0323 -0.3885  0.6773
  358TMC3    O1 5370   2.635   4.319   1.035 -0.3429  0.6885  0.3581
  358TMC3    O2 5371   2.433   4.353   0.562 -0.5979 -0.0424  0.1177
  359MPD2     C 5372   2.864   3.795  12.334  0.1767 -0.5597  1.0410
  359MPD2    C1 5373   2.898   3.668  12.390  0.5785 -0.0943 -0.3681
  359MPD2    C2 5374   2.792   3.587  12.438  0.7907  0.1936  0.0510
  359MPD2    C3 5375   2.664   3.642  12.449  0.6423 -0.1218  0.0975
  359MPD2    C4 5376   2.639   3.772  12.408 -0.2297 -0.6304 -0.0920
  359MPD2    C5 5377   2.741   3.848  12.358  1.0180  0.5085  0.3610
  359MPD2     H 5378   2.815   3.488  12.475 -0.5932  0.2545  1.0640
  359MPD2    H1 5379   2.540   3.814  12.423  0.0959 -0.0250  0.4033
  359MPD2    H2 5380   2.927   3.853  12.267 -2.3990 -1.1063 -1.8654
  359MPD2    H3 5381   2.727   3.947  12.314  0.2839 -0.7372 -2.2089
  359MPD2     N 5382   2.549   3.577  12.501 -0.5142  0.0954  0.1392
  359MPD2    H5 5383   2.470   3.637  12.522  2.1872  3.3680  0.8852
  359MPD2    N1 5384   3.017   3.597  12.358  0.9294 -0.1038 -0.0350
  359MPD2    H7 5385   3.037   3.507  12.401 -2.8168 -0.5780  0.7017
  360TMC3    C1 5386   3.224   3.551  12.249 -0.5348  0.3613  0.1582
  360TMC3    C2 5387   3.343   3.611  12.215  0.2587 -0.1091 -0.5307
  360TMC3    C3 5388   3.418   3.563  12.114 -0.3518  0.2189 -0.3817
  360TMC3    C4 5389   3.191   3.432  12.186 -0.0717  0.0975  0.3255
  360TMC3    C5 5390   3.273   3.387  12.084  0.3472 -0.1237  0.1595
  360TMC3    C6 5391   3.386   3.446  12.042  0.0122 -0.2441  0.3634
  360TMC3     C 5392   3.116   3.642  12.274 -0.2911 -0.6289  0.0308
  360TMC3     O 5393   3.129   3.757  12.234  0.0399 -0.6396 -0.1182
  360TMC3     H 5394   3.364   3.707  12.260 -1.3532 -0.4112  0.8510
  360TMC3    H1 5395   3.092   3.391  12.201 -0.9353  1.6594 -1.0592
  360TMC3    H2 5396   3.456   3.407  11.969 -1.1381  1.3542 -1.5760
  360TMC3    C7 5397   3.212   3.294  11.996 -0.2966  0.0432  0.5741
  360TMC3    C8 5398   3.499   3.661  12.037  0.4820 -0.3234  0.1052
  360TMC3    O1 5399   3.170   3.197  12.060  0.3404  0.1406  0.1741
  360TMC3    O2 5400   3.447   3.773  12.027 -0.0014  0.5895  0.2299
  361MPD2     C 5401   3.856   2.531  16.735 -0.0537  0.1359  0.3339
  361MPD2    C1 5402   3.823   2.526  16.867 -0.2935 -0.7006  0.3142
  361MPD2    C2 5403   3.870   2.426  16.944 -0.5014  1.4595  0.7305
  361MPD2    C3 5404   3.948   2.321  16.896  0.3852 -0.2592  0.3823
  361MPD2    C4 5405   3.972   2.321  16.761  0.4685 -0.1685  0.3717
  361MPD2    C5 5406   3.929   2.429  16.688 -1.2235  0.7212  0.5577
  361MPD2     H 5407   3.857   2.429  17.051 -0.0844 -2.1720  0.8943
  361MPD2    H1 5408   4.034   2.249  16.709 -1.0893 -0.8453 -0.5407
  361MPD2    H2 5409   3.827   2.605  16.661 -0.4510  0.9033  1.2508
  361MPD2    H3 5410   3.968   2.447  16.589 -3.9579 -0.1459 -0.7000
  361MPD2     N 5411   4.011   2.221  16.968 -0.3749 -0.3147 -0.2922
  361MPD2    H5 5412   4.054   2.150  16.909  1.9054  2.5532 -2.0215
  361MPD2    N1 5413   3.738   2.621  16.937  0.1920 -0.0262 -0.4978
  361MPD2    H7 5414   3.702   2.602  17.030  0.1567 -0.5328 -0.6161
  362TMC3    C1 5415   3.601   2.796  16.968  0.7883  0.4357  0.2831
  362TMC3    C2 5416   3.639   2.863  17.079 -0.6798 -0.2601 -0.1424
  362TMC3    C3 5417   3.546   2.944  17.136 -0.5513 -0.8706  0.1744
  362TMC3    C4 5418   3.480   2.827  16.905  0.0832  0.0162  0.3099
  362TMC3    C5 5419   3.393   2.911  16.968  0.6371  0.4178  0.8767
  362TMC3    C6 5420   3.421   2.967  17.088 -0.2827  0.7849 -0.2396
  362TMC3     C 5421   3.700   2.742  16.880  0.5019 -0.9259 -0.3591
  362TMC3     O 5422   3.686   2.766  16.758 -0.1467 -0.0665  0.8913
  362TMC3     H 5423   3.743   2.850  17.106 -0.6124  1.9740  0.6674
  362TMC3    H1 5424   3.454   2.777  16.813  1.3832 -0.4399  0.1830
  362TMC3    H2 5425   3.352   3.035  17.136 -2.7855 -1.3261 -0.8351
  362TMC3    C7 5426   3.279   2.964  16.895 -0.3629 -0.2770 -0.5852
  362TMC3    C8 5427   3.591   3.002  17.260  0.3798 -0.4519  0.7234
  362TMC3    O1 5428   3.241   3.080  16.920  0.0172  0.1787 -0.3884
  362TMC3    O2 5429   3.708   2.988  17.286 -0.4921  0.3694  0.2840
  363TMC3    C1 5430   3.186   0.236  10.147 -0.0051  1.0263 -0.4603
  363TMC3    C2 5431   3.151   0.104  10.151 -0.6316  0.2352 -0.5750
  363TMC3    C3 5432   3.027   0.072  10.110  0.4979 -0.0929  1.0891
  363TMC3    C4 5433   3.102   0.332  10.101 -0.0052  0.0211  0.2073
  363TMC3    C5 5434   2.969   0.290  10.071 -0.1082 -0.0455  0.0712
  363TMC3    C6 5435   2.926   0.158  10.083  0.1424 -0.3568  0.0495
  363TMC3     C 5436   3.317   0.277  10.184  0.1158 -0.3018 -0.0270
  363TMC3     O 5437   3.400   0.189  10.189 -0.3114 -0.7566  0.2418
  363TMC3     H 5438   3.223   0.026  10.175  0.7713  1.4767 -0.7361
  363TMC3    H1 5439   3.136   0.434  10.090  2.1536 -0.9779 -2.4172
  363TMC3    H2 5440   2.833   0.117  10.045  0.8698 -0.7124 -1.3487
  363TMC3    C7 5441   2.873   0.400  10.046 -0.4010  0.3565 -0.0418
  363TMC3    C8 5442   2.984   4.663  10.139 -0.4784 -0.2859  0.6852
  363TMC3    O1 5443   2.757   0.379  10.078  0.2048  0.0778 -0.6794
  363TMC3    O2 5444   2.896   4.653  10.228 -0.0118  0.1633  0.3241
  364MPD2     C 5445   1.758   3.689  10.413 -0.6195 -0.1607  0.3746
  364MPD2    C1 5446   1.819   3.699  10.291 -0.8781 -0.3543  0.0513
  364MPD2    C2 5447   1.942   3.644  10.273 -0.5797  0.6044 -0.1501
  364MPD2    C3 5448   2.002   3.584  10.381  0.1188  0.0997 -0.5008
  364MPD2    C4 5449   1.933   3.553  10.497 -0.2630 -0.6040  0.1872
  364MPD2    C5 5450   1.813   3.610  10.519  0.1130  0.1246 -0.2176
  364MPD2     H 5451   1.996   3.663  10.181  0.6194 -2.8171 -0.1357
  364MPD2    H1 5452   1.979   3.511  10.585 -2.5106 -1.5939  0.8907
  364MPD2    H2 5453   1.665   3.740  10.434 -1.1482 -2.1481  2.7582
  364MPD2    H3 5454   1.767   3.606  10.617  1.9851 -0.1638  0.6487
  364MPD2     N 5455   2.133   3.535  10.362  0.1275  0.5397 -0.6478
  364MPD2    H5 5456   2.164   3.481  10.442 -2.2528  0.9849  0.5765
  364MPD2    N1 5457   1.776   3.786  10.186 -0.4284 -0.8150  0.0924
  364MPD2    H7 5458   1.835   3.781  10.103 -0.3383  0.3880  0.0846
  365TMC3    C1 5459   1.695   3.973  10.080  0.6867 -0.3460  0.2974
  365TMC3    C2 5460   1.777   3.944   9.977 -0.0437 -0.1900  0.0013
  365TMC3    C3 5461   1.857   4.040   9.931 -0.5944 -0.7568 -0.3847
  365TMC3    C4 5462   1.692   4.096  10.133 -0.0015  0.5012  0.1790
  365TMC3    C5 5463   1.783   4.191  10.090  0.4992  0.3356  0.2261
  365TMC3    C6 5464   1.857   4.166   9.985 -0.3407  0.3274 -0.5060
  365TMC3     C 5465   1.678   3.878  10.187  0.6847 -0.3626 -0.4162
  365TMC3     O 5466   1.593   3.902  10.276  0.0741 -0.2275  0.6313
  365TMC3     H 5467   1.776   3.845   9.933  2.3021 -0.4685  0.5836
  365TMC3    H1 5468   1.619   4.121  10.209  0.1754  1.4106  0.0465
  365TMC3    H2 5469   1.918   4.243   9.942 -0.4063 -0.3696 -1.8352
  365TMC3    C7 5470   1.776   4.322  10.148  0.5381  0.1244 -0.3334
  365TMC3    C8 5471   1.992   4.011   9.889  0.1404 -0.3313  0.7504
  365TMC3    O1 5472   1.833   4.404  10.077 -0.5131  0.2156 -0.0500
  365TMC3    O2 5473   2.073   4.102   9.873 -0.2025  0.3924  0.3552
  366MPD2     C 5474   4.037   0.388  15.266 -0.0688  0.0408 -0.9046
  366MPD2    C1 5475   4.149   0.460  15.230  0.1883 -0.0253 -0.0266
  366MPD2    C2 5476   4.273   0.401  15.229  0.1573  0.3216  0.4369
  366MPD2    C3 5477   4.285   0.263  15.254  0.6913 -0.8035  0.9864
  366MPD2    C4 5478   4.173   0.185  15.291  0.3011 -0.1368 -0.5698
  366MPD2    C5 5479   4.053   0.257  15.300 -0.2363  0.0252  0.2843
  366MPD2     H 5480   4.356   0.462  15.195 -0.6702 -0.1408 -2.4343
  366MPD2    H1 5481   4.177   0.080  15.316 -2.2570  0.2346  1.3694
  366MPD2    H2 5482   3.938   0.432  15.278 -0.6895 -1.0955 -1.9150
  366MPD2    H3 5483   3.959   0.211  15.330 -1.3805  1.1845 -1.5513
  366MPD2     N 5484   4.416   0.216  15.254  0.3849 -0.0451  0.1630
  366MPD2    H5 5485   4.487   0.283  15.225  1.7313 -1.5274 -0.0029
  366MPD2    N1 5486   4.142   0.595  15.188  0.7904  0.3238 -0.6866
  366MPD2    H7 5487   4.233   0.638  15.172  0.9001  0.3672  0.0695
  367TMC3    C1 5488   4.070   0.807  15.181 -0.0673 -1.0636  0.3029
  367TMC3    C2 5489   4.181   0.836  15.256  0.0739  0.6448  0.0204
  367TMC3    C3 5490   4.240   0.955  15.221  0.5825  0.2428 -0.2728
  367TMC3    C4 5491   4.004   0.887  15.092  0.1780  0.3784 -0.0803
  367TMC3    C5 5492   4.077   0.996  15.057 -0.1077 -0.1009  0.2250
  367TMC3    C6 5493   4.192   1.031  15.120  0.3534  0.4494  0.4516
  367TMC3     C 5494   4.032   0.669  15.187  0.1778  0.2100 -0.0505
  367TMC3     O 5495   3.915   0.644  15.177 -0.2461 -0.4367  0.4806
  367TMC3     H 5496   4.225   0.780  15.337 -0.0767 -0.7135 -0.8363
  367TMC3    H1 5497   3.910   0.850  15.052  0.0874 -0.2394  0.7108
  367TMC3    H2 5498   4.246   1.120  15.089 -1.0065  2.1146  2.8599
  367TMC3    C7 5499   4.042   1.093  14.951  0.1418  0.0078 -0.2011
  367TMC3    C8 5500   4.343   1.008  15.306 -0.3717 -0.4933  0.3934
  367TMC3    O1 5501   4.107   1.196  14.946  0.0140  0.3304 -0.1612
  367TMC3    O2 5502   4.370   0.939  15.402  0.1733 -0.3503 -0.8960
  368MPD2     C 5503   1.094   2.223  12.859  0.1237 -0.2216 -0.3133
  368MPD2    C1 5504   1.073   2.342  12.797 -0.4472  0.3009  0.2735
  368MPD2    C2 5505   1.189   2.403  12.745 -0.2188 -0.1650  1.0238
  368MPD2    C3 5506   1.309   2.332  12.736 -0.2591  0.3369  0.3050
  368MPD2    C4 5507   1.320   2.213  12.802 -0.3728 -0.0416 -0.1706
  368MPD2    C5 5508   1.219   2.159  12.864 -0.7205 -0.0585  0.2661
  368MPD2     H 5509   1.178   2.503  12.704 -0.2781 -0.3430  0.5963
  368MPD2    H1 5510   1.415   2.162  12.803 -0.8662 -0.8375  3.8793
  368MPD2    H2 5511   1.013   2.176  12.912  0.8796 -0.0263  1.0149
  368MPD2    H3 5512   1.236   2.061  12.908 -1.2229  1.3272  3.5043
  368MPD2     N 5513   1.419   2.389  12.676 -0.3638  0.2432 -0.0627
  368MPD2    H5 5514   1.507   2.339  12.686  0.8588  2.2526 -0.7545
  368MPD2    N1 5515   0.948   2.403  12.791  0.5675 -0.4576  0.0677
  368MPD2    H7 5516   0.868   2.360  12.835 -0.9491  0.7840 -1.4612
  369TMC3    C1 5517   0.788   2.557  12.715 -0.2405 -0.1733 -0.2414
  369TMC3    C2 5518   0.753   2.638  12.609 -0.1080  0.3071 -0.3776
  369TMC3    C3 5519   0.634   2.708  12.613 -0.2177  0.0172  0.8781
  369TMC3    C4 5520   0.704   2.540  12.821 -0.4941  0.4935  0.3556
  369TMC3    C5 5521   0.584   2.609  12.816 -0.1086 -0.0838  0.0485
  369TMC3    C6 5522   0.549   2.691  12.716  0.0046 -0.3076  0.2839
  369TMC3     C 5523   0.921   2.527  12.737  0.2847  0.3566  0.3336
  369TMC3     O 5524   0.997   2.605  12.682 -0.1153 -0.4615 -0.2610
  369TMC3     H 5525   0.821   2.639  12.525 -0.7543  0.2904 -0.8984
  369TMC3    H1 5526   0.730   2.485  12.911  1.4413  2.1020  0.7804
  369TMC3    H2 5527   0.452   2.739  12.716  0.8855  1.4704 -0.6637
  369TMC3    C7 5528   0.486   2.570  12.917  0.0248  0.5870 -0.0837
  369TMC3    C8 5529   0.604   2.812  12.518  0.4567 -0.0806 -0.5959
  369TMC3    O1 5530   0.531   2.506  13.015  0.4618  0.0038 -0.9170
  369TMC3    O2 5531   0.484   2.842  12.502  0.1925 -0.1054 -0.9690
  370TMC3    C1 5532   0.176   3.303  16.116 -0.0501  0.0429 -0.0205
  370TMC3    C2 5533   0.100   3.220  16.196  0.8740 -0.7099 -0.2082
  370TMC3    C3 5534   0.023   3.130  16.132 -0.4228 -0.4173 -1.0648
  370TMC3    C4 5535   0.182   3.294  15.981 -0.2170 -0.4361  0.2871
  370TMC3    C5 5536   0.100   3.207  15.920  0.6917 -0.3147 -0.2752
  370TMC3    C6 5537   0.019   3.122  15.993 -0.6241 -0.5763 -0.7797
  370TMC3     C 5538   0.267   3.398  16.182 -0.0423 -0.0702 -0.4419
  370TMC3     O 5539   0.318   3.364  16.287  0.3637  0.0672 -0.7393
  370TMC3     H 5540   0.119   3.229  16.302  2.8061  2.0701 -0.7694
  370TMC3    H1 5541   0.257   3.352  15.928  0.9682 -3.1311 -1.0077
  370TMC3    H2 5542   4.686   3.042  15.951  0.4327 -1.3651 -0.7878
  370TMC3    C7 5543   0.117   3.172  15.784  0.0111 -0.4678  0.7952
  370TMC3    C8 5544   4.707   3.012  16.210  0.0878 -0.4220 -0.1649
  370TMC3    O1 5545   0.160   3.263  15.714 -0.7620  0.8058 -0.3404
  370TMC3    O2 5546   4.726   2.898  16.170 -0.0187 -0.1994 -0.4061
  371TMC3    C1 5547   1.327   1.451  15.308 -0.1400  1.2142  0.2555
  371TMC3    C2 5548   1.188   1.447  15.291  0.5140  0.0267  0.5672
  371TMC3    C3 5549   1.124   1.565  15.280  0.1072  0.4487  0.5501
  371TMC3    C4 5550   1.389   1.572  15.326 -0.0802 -0.5514  0.9273
  371TMC3    C5 5551   1.316   1.687  15.305 -1.8347 -0.0925 -0.2028
  371TMC3    C6 5552   1.187   1.683  15.263  0.0666 -0.5390 -0.9702
  371TMC3     C 5553   1.408   1.332  15.318 -0.7265 -0.3500  0.2883
  371TMC3     O 5554   1.527   1.340  15.346  0.5553 -0.1818 -0.0094
  371TMC3     H 5555   1.128   1.357  15.290  1.6219 -0.7016 -1.9575
  371TMC3    H1 5556   1.496   1.588  15.335  0.3317 -1.6160 -2.1278
  371TMC3    H2 5557   1.137   1.779  15.267 -1.9377 -1.5985 -0.6131
  371TMC3    C7 5558   1.380   1.817  15.314 -0.9570  0.1355 -0.0845
  371TMC3    C8 5559   0.980   1.563  15.299  0.0883  0.0304 -0.0422
  371TMC3    O1 5560   1.348   1.905  15.230  0.6628 -0.0741  0.2986
  371TMC3    O2 5561   0.913   1.468  15.267 -0.7060  0.3283  0.2795
  372MPD2     C 5562   1.446   2.855  12.780 -0.4997 -0.7060 -0.0249
  372MPD2    C1 5563   1.535   2.832  12.883 -0.5026  0.3177  0.0816
  372MPD2    C2 5564   1.511   2.746  12.980  0.3936  0.5717  0.5595
  372MPD2    C3 5565   1.386   2.682  12.979  0.1695 -0.4474 -0.7188
  372MPD2    C4 5566   1.290   2.723  12.880 -0.7109 -1.1218  0.0786
  372MPD2    C5 5567   1.323   2.805  12.781  0.9427  0.0817 -0.2760
  372MPD2     H 5568   1.585   2.719  13.055 -1.8447 -2.1505  1.7693
  372MPD2    H1 5569   1.197   2.669  12.867 -1.0364 -0.8070  1.1181
  372MPD2    H2 5570   1.457   2.926  12.699  0.2344 -0.7371  0.0551
  372MPD2    H3 5571   1.258   2.828  12.697 -0.4358 -0.0999  0.7412
  372MPD2     N 5572   1.376   2.564  13.052  0.1468 -0.0761 -0.0602
  372MPD2    H5 5573   1.464   2.526  13.083 -0.2166  0.7187  1.9744
  372MPD2    N1 5574   1.655   2.906  12.891  0.5080  0.2876  0.1060
  372MPD2    H7 5575   1.702   2.895  12.980  0.4118 -5.7621 -0.5766
  373TMC3    C1 5576   1.265   2.359  13.132  0.4396 -0.1564  0.2247
  373TMC3    C2 5577   1.150   2.308  13.177 -0.5667  0.0680 -0.6198
  373TMC3    C3 5578   1.155   2.186  13.231  0.0140  0.1235 -0.3697
  373TMC3    C4 5579   1.387   2.301  13.147  0.5324 -0.7370 -0.2768
  373TMC3    C5 5580   1.387   2.173  13.203  0.1837 -0.2139  0.0516
  373TMC3    C6 5581   1.268   2.111  13.237 -0.0378 -0.2074  0.5751
  373TMC3     C 5582   1.259   2.498  13.076  0.0196  0.3183 -0.2456
  373TMC3     O 5583   1.146   2.539  13.066  0.2462  0.4558  0.2557
  373TMC3     H 5584   1.052   2.354  13.172 -0.0093  1.4350  0.6979
  373TMC3    H1 5585   1.475   2.344  13.100  1.5411  0.0555  2.3538
  373TMC3    H2 5586   1.274   2.009  13.274  0.1950  0.5985  2.7787
  373TMC3    C7 5587   1.513   2.105  13.239 -0.3085  0.3505  0.3367
  373TMC3    C8 5588   1.023   2.137  13.271 -0.3863 -0.5411 -0.1411
  373TMC3    O1 5589   1.508   1.990  13.276  0.0642 -0.1155 -0.1137
  373TMC3    O2 5590   0.945   2.131  13.174 -0.0203 -0.7198  0.7031
  374TMC3    C1 5591   2.280   2.390   9.509 -0.2652 -0.9508  0.2585
  374TMC3    C2 5592   2.355   2.499   9.528  0.4915  0.1755  0.0085
  374TMC3    C3 5593   2.353   2.588   9.429 -0.1222  0.3923  0.1203
  374TMC3    C4 5594   2.211   2.358   9.400  0.5930 -0.2685 -0.0955
  374TMC3    C5 5595   2.217   2.450   9.299 -0.1879  0.0500  0.0050
  374TMC3    C6 5596   2.291   2.571   9.310  0.1494  0.5807 -0.1153
  374TMC3     C 5597   2.284   2.278   9.605 -0.3607  0.1086 -0.1625
  374TMC3     O 5598   2.200   2.188   9.584  0.4676  0.4201  0.0711
  374TMC3     H 5599   2.419   2.512   9.615  1.3581 -0.3079 -0.5562
  374TMC3    H1 5600   2.144   2.273   9.392 -0.3685  0.4534  0.2511
  374TMC3    H2 5601   2.271   2.651   9.239  0.6485 -0.4469 -1.4049
  374TMC3    C7 5602   2.212   2.390   9.171  0.3866  0.0998 -0.2988
  374TMC3    C8 5603   2.408   2.719   9.455 -0.0631 -0.3151 -0.2130
  374TMC3    O1 5604   2.145   2.290   9.155  0.0479 -0.0084 -0.5174
  374TMC3    O2 5605   2.413   2.796   9.359 -0.2936 -0.3328 -0.2521
  375MPD2     C 5606   1.450   3.291  16.848 -0.5432 -0.1587 -0.6412
  375MPD2    C1 5607   1.405   3.322  16.721  0.3016 -0.4510 -0.3613
  375MPD2    C2 5608   1.470   3.273  16.612  0.2336 -0.2151 -0.5504
  375MPD2    C3 5609   1.587   3.193  16.623 -0.2869  0.0457 -0.0225
  375MPD2    C4 5610   1.623   3.153  16.752  0.7150 -0.0587 -0.4028
  375MPD2    C5 5611   1.559   3.203  16.862 -0.6941 -0.1372  0.6002
  375MPD2     H 5612   1.437   3.307  16.514  0.0337 -1.0595 -0.7763
  375MPD2    H1 5613   1.714   3.095  16.765  0.9087  0.1196 -0.9641
  375MPD2    H2 5614   1.402   3.329  16.938 -0.7855  0.4274 -1.0202
  375MPD2    H3 5615   1.599   3.178  16.960  1.8063  1.1624 -0.0801
  375MPD2     N 5616   1.672   3.155  16.515  0.3516 -0.1359  0.1162
  375MPD2    H5 5617   1.753   3.097  16.535  0.2495 -0.9258 -1.7663
  375MPD2    N1 5618   1.310   3.424  16.704  0.4203 -0.3380 -0.0534
  375MPD2    H7 5619   1.312   3.467  16.613  0.6631  0.0536  0.1348
  376TMC3    C1 5620   1.753   3.118  16.296  0.5324 -0.3541 -0.1292
  376TMC3    C2 5621   1.883   3.110  16.347 -0.8064 -0.1830 -0.1159
  376TMC3    C3 5622   1.974   3.039  16.273  0.3173  0.0886 -0.2911
  376TMC3    C4 5623   1.711   3.067  16.177 -0.0780 -0.2988  0.0164
  376TMC3    C5 5624   1.812   3.013  16.106  0.3672  0.2446 -0.4351
  376TMC3    C6 5625   1.932   2.992  16.152  0.1543  0.1509 -0.1423
  376TMC3     C 5626   1.658   3.183  16.386  0.1241 -0.2932 -0.3862
  376TMC3     O 5627   1.561   3.232  16.320 -0.1752 -0.3645 -0.0766
  376TMC3     H 5628   1.916   3.150  16.442  0.5469  2.4501 -1.7001
  376TMC3    H1 5629   1.613   3.081  16.133  0.4210  1.5697 -0.5020
  376TMC3    H2 5630   2.010   2.959  16.084 -0.6163 -1.7398 -0.1179
  376TMC3    C7 5631   1.800   3.027  15.960  0.0395  0.2948 -0.6598
  376TMC3    C8 5632   2.107   3.101  16.277 -0.2081 -0.4530  0.2500
  376TMC3    O1 5633   1.744   3.127  15.922 -0.2986  0.1502 -0.1815
  376TMC3    O2 5634   2.178   3.097  16.178  0.0084  0.3514 -0.1938
  377MPD2     C 5635   4.518   2.665  12.139 -0.6275 -0.1247  0.5336
  377MPD2    C1 5636   4.607   2.671  12.245  0.0222  0.3387 -0.3980
  377MPD2    C2 5637   4.552   2.665  12.375  0.3796 -0.4804 -0.2635
  377MPD2    C3 5638   4.424   2.619  12.395  0.3154 -0.6319 -0.3069
  377MPD2    C4 5639   4.343   2.603  12.285 -0.3427  0.2121 -0.2121
  377MPD2    C5 5640   4.383   2.639  12.160  0.2376  0.1525  0.1261
  377MPD2     H 5641   4.616   2.677  12.461 -0.0885 -1.1443  0.1849
  377MPD2    H1 5642   4.241   2.567  12.296 -0.1093 -0.1783  0.6952
  377MPD2    H2 5643   4.555   2.670  12.038 -2.4783 -0.6670 -0.1845
  377MPD2    H3 5644   4.308   2.626  12.082  1.2366 -3.1953 -0.2785
  377MPD2     N 5645   4.374   2.585  12.526 -0.8824  0.2100 -0.7935
  377MPD2    H5 5646   4.280   2.547  12.524 -1.2473  1.0106  1.6852
  377MPD2    N1 5647   0.012   2.706  12.209  0.0101 -0.3180  0.1462
  377MPD2    H7 5648   0.034   2.726  12.112 -1.9861  1.9337  0.1639
  378TMC3    C1 5649   0.384   2.752  12.051 -0.0974 -0.6184  0.2205
  378TMC3    C2 5650   0.257   2.752  12.104 -0.6057  0.1808  0.5065
  378TMC3    C3 5651   0.248   2.701  12.233  0.5264 -0.2088 -0.3258
  378TMC3    C4 5652   0.494   2.696  12.116  0.0748  1.0673  0.9950
  378TMC3    C5 5653   0.472   2.627  12.232  0.0798 -0.8159  0.4134
  378TMC3    C6 5654   0.354   2.638  12.291  0.2712  0.2021  0.0606
  378TMC3     C 5655   0.405   2.825  11.927  0.2494 -0.7337 -0.2270
  378TMC3     O 5656   0.314   2.846  11.847  0.1873 -0.7116 -0.4992
  378TMC3     H 5657   0.198   2.837  12.072  0.4213  0.5215 -0.4761
  378TMC3    H1 5658   0.587   2.684  12.064 -1.0355 -3.2298  0.0129
  378TMC3    H2 5659   0.341   2.589  12.387 -1.0225  1.3400  0.4723
  378TMC3    C7 5660   0.591   2.575  12.304  0.3945  0.5132  0.5422
  378TMC3    C8 5661   0.114   2.686  12.297 -0.0108 -0.4263 -0.3214
  378TMC3    O1 5662   0.573   2.509  12.406 -0.1359  0.2007  0.3253
  378TMC3    O2 5663   0.102   2.661  12.414  0.6769 -0.3916 -0.4212
  379MPD2     C 5664   0.168   1.205  16.421 -0.2234  0.1844 -0.0319
  379MPD2    C1 5665   0.275   1.193  16.334 -0.5286  0.1343 -0.3662
  379MPD2    C2 5666   0.396   1.149  16.391  0.4020 -0.3754  0.3591
  379MPD2    C3 5667   0.408   1.123  16.527  0.6965  0.4370  0.0595
  379MPD2    C4 5668   0.294   1.131  16.602  0.4598 -0.0334 -0.6726
  379MPD2    C5 5669   0.177   1.174  16.550  0.4776 -0.5604  0.0035
  379MPD2     H 5670   0.482   1.156  16.326 -0.3622  0.4794 -0.5540
  379MPD2    H1 5671   0.294   1.099  16.706  0.5872  1.9138 -0.0759
  379MPD2    H2 5672   0.073   1.244  16.388 -1.5018 -4.2657 -1.7052
  379MPD2    H3 5673   0.097   1.197  16.620 -1.1642  2.1447 -2.7576
  379MPD2     N 5674   0.525   1.085  16.592  0.4749 -0.2060  0.2687
  379MPD2    H5 5675   0.504   1.064  16.689  0.0631 -1.0977 -0.0225
  379MPD2    N1 5676   0.253   1.204  16.191  0.1218 -0.1101 -0.4442
  379MPD2    H7 5677   0.160   1.221  16.154  1.3575  2.6026 -2.3165
  380TMC3    C1 5678   0.289   1.186  15.961 -0.0089 -0.5606 -0.0804
  380TMC3    C2 5679   0.355   1.090  15.880  0.0735  0.2724  1.1680
  380TMC3    C3 5680   0.310   1.055  15.757 -0.0950  0.1692  0.4536
  380TMC3    C4 5681   0.172   1.241  15.919  0.0580 -0.0102 -0.2775
  380TMC3    C5 5682   0.139   1.211  15.790 -0.0241  0.0386  0.3101
  380TMC3    C6 5683   0.202   1.130  15.702  0.2984  0.1016 -0.2881
  380TMC3     C 5684   0.347   1.191  16.096 -0.4440 -0.2584  0.7332
  380TMC3     O 5685   0.465   1.169  16.118  0.6665  0.0602  0.5895
  380TMC3     H 5686   0.439   1.042  15.929  0.8642  0.1988 -0.2413
  380TMC3    H1 5687   0.111   1.300  15.985  0.1722  0.0228 -0.2011
  380TMC3    H2 5688   0.168   1.116  15.600  0.0699  0.6949 -0.2923
  380TMC3    C7 5689   0.030   1.285  15.739 -0.6839 -0.3174 -0.1286
  380TMC3    C8 5690   0.400   0.996  15.659  0.4221  0.2192 -0.6472
  380TMC3    O1 5691   0.008   1.399  15.781 -0.2917  0.2359  0.1883
  380TMC3    O2 5692   0.368   1.007  15.544  0.0488 -0.0426  0.1284
  381TMC3    C1 5693   0.208   2.215  16.079 -0.3520 -0.6840 -0.1899
  381TMC3    C2 5694   0.190   2.332  16.013  0.4786 -0.6452 -0.5775
  381TMC3    C3 5695   0.137   2.440  16.079 -0.1677  0.1699  0.4267
  381TMC3    C4 5696   0.167   2.208  16.213 -0.8393  0.1781 -0.5008
  381TMC3    C5 5697   0.114   2.318  16.270  0.1886  0.2832  0.6745
  381TMC3    C6 5698   0.097   2.435  16.210  0.0048  1.0006  0.0933
  381TMC3     C 5699   0.247   2.100  16.009 -0.3421 -0.4309 -0.5947
  381TMC3     O 5700   0.287   2.010  16.077 -0.0306 -0.6795  0.4956
  381TMC3     H 5701   0.221   2.355  15.912  0.2002  0.3031 -0.4484
  381TMC3    H1 5702   0.193   2.118  16.268  0.7670  1.1650  0.3240
  381TMC3    H2 5703   0.062   2.527  16.255  0.6638  0.6487  1.3134
  381TMC3    C7 5704   0.080   2.300  16.413 -0.5002  0.0352 -0.0628
  381TMC3    C8 5705   0.174   2.566  16.017  0.2980 -0.1857  0.1794
  381TMC3    O1 5706   0.143   2.216  16.470  0.4624  0.1493  0.3805
  381TMC3    O2 5707   0.178   2.576  15.896  0.2204 -0.0106  0.3118
  382MPD2     C 5708   4.309   0.146   0.454 -0.5841 -0.3420 -0.0039
  382MPD2    C1 5709   4.352   0.183   0.328 -0.1792 -0.6814  0.0367
  382MPD2    C2 5710   4.308   0.106   0.221  0.0470  0.6942  0.3834
  382MPD2    C3 5711   4.230   4.722   0.241  0.2803  0.0438  0.4654
  382MPD2    C4 5712   4.187   4.695   0.365 -0.6010  0.2250  0.0991
  382MPD2    C5 5713   4.227   0.040   0.476 -0.0310  0.3505  0.2432
  382MPD2     H 5714   4.332   0.133   0.119 -1.3004  0.1821 -0.0761
  382MPD2    H1 5715   4.125   4.608   0.381 -0.6680 -0.0647 -1.7937
  382MPD2    H2 5716   4.329   0.206   0.542 -1.1908  0.9616 -0.7589
  382MPD2    H3 5717   4.187   0.015   0.573 -0.8899 -2.3617 -0.8358
  382MPD2     N 5718   4.190   4.634   0.139  0.1783 -0.4050 -0.1553
  382MPD2    H5 5719   4.130   4.554   0.156 -0.4381  0.4378  1.5689
  382MPD2    N1 5720   4.428   0.303   0.298  0.2673 -0.7336  0.1435
  382MPD2    H7 5721   4.438   0.330   0.201 -2.0135 -0.7342 -0.1075
  383TMC3    C1 5722   4.193   4.535  17.646 -0.1059  0.2730 -0.8986
  383TMC3    C2 5723   4.137   4.545  17.525  0.9666 -0.2733 -0.2203
  383TMC3    C3 5724   4.084   4.443  17.462 -0.3413  0.5893  0.2203
  383TMC3    C4 5725   4.183   4.415   0.009  0.2845 -0.3368 -0.0527
  383TMC3    C5 5726   4.124   4.315  17.652 -0.5169  0.7267  0.9132
  383TMC3    C6 5727   4.069   4.321  17.527 -0.0759 -0.0727  0.1594
  383TMC3     C 5728   4.225   4.653   0.008 -0.6089  0.5726 -0.7257
  383TMC3     O 5729   4.264   0.026  17.654  0.1467  0.6796 -0.3441
  383TMC3     H 5730   4.142   4.643  17.479  0.8054  0.2339  0.8416
  383TMC3    H1 5731   4.224   4.402   0.109 -2.2809  2.6441  1.4083
  383TMC3    H2 5732   4.026   4.237  17.473 -1.2147  1.0133 -0.6186
  383TMC3    C7 5733   4.103   4.194   0.024  0.1180  0.1228  0.5794
  383TMC3    C8 5734   4.018   4.466  17.326  0.4521 -0.3469 -0.5728
  383TMC3    O1 5735   4.120   4.212   0.144 -0.1622 -0.1190  0.1740
  383TMC3    O2 5736   3.958   4.571  17.313 -0.4172 -0.1000 -0.4347
  384MPD2     C 5737   1.652   1.209  12.149 -0.6626  0.8403 -0.2022
  384MPD2    C1 5738   1.551   1.122  12.174 -0.3305  0.2779 -0.7427
  384MPD2    C2 5739   1.537   1.017  12.085 -0.6661 -0.1244 -0.2042
  384MPD2    C3 5740   1.621   1.000  11.975  0.4991  0.1493 -0.1561
  384MPD2    C4 5741   1.710   1.102  11.941 -0.3740 -0.1153  0.4576
  384MPD2    C5 5742   1.721   1.205  12.029  1.1761 -0.2698 -0.2415
  384MPD2     H 5743   1.466   0.938  12.107  1.1919 -1.7921 -0.1901
  384MPD2    H1 5744   1.777   1.095  11.857 -1.9258  0.2861 -0.8221
  384MPD2    H2 5745   1.680   1.283  12.224 -1.2205  0.9389 -0.0901
  384MPD2    H3 5746   1.798   1.277  12.004  0.9714  0.2309  0.5761
  384MPD2     N 5747   1.617   0.880  11.903  0.4028 -0.6361  0.1169
  384MPD2    H5 5748   1.534   0.823  11.920  0.2424 -0.2559  0.6218
  384MPD2    N1 5749   1.482   1.118  12.300  0.9000  0.4348  0.3337
  384MPD2    H7 5750   1.532   1.149  12.383  1.1353  1.4384 -0.1889
  385TMC3    C1 5751   1.634   0.722  11.740  0.2668 -0.1228  0.7024
  385TMC3    C2 5752   1.592   0.699  11.613  0.0136  0.3370  0.2535
  385TMC3    C3 5753   1.528   0.580  11.585  0.1531  0.8435 -0.4291
  385TMC3    C4 5754   1.627   0.629  11.833 -0.0960  0.0365 -0.1849
  385TMC3    C5 5755   1.571   0.505  11.806  0.3399  0.6680 -0.0081
  385TMC3    C6 5756   1.517   0.483  11.685 -0.7008  0.2808  0.1375
  385TMC3     C 5757   1.677   0.851  11.782 -0.0615  0.3207 -0.3474
  385TMC3     O 5758   1.740   0.922  11.707  0.6659  0.0596 -0.1858
  385TMC3     H 5759   1.589   0.786  11.548 -2.1781 -1.2462 -1.7603
  385TMC3    H1 5760   1.659   0.653  11.934  1.7654 -0.7863 -0.5892
  385TMC3    H2 5761   1.454   0.396  11.669 -0.1396  0.5651 -3.5458
  385TMC3    C7 5762   1.528   0.433  11.927 -0.1228  0.1400 -0.3700
  385TMC3    C8 5763   1.472   0.566  11.453  0.5250  0.2545  0.3762
  385TMC3    O1 5764   1.408   0.431  11.950 -0.3985 -0.6580  0.1398
  385TMC3    O2 5765   1.464   0.670  11.387 -0.2474 -0.5225  0.5044
  386TMC3    C1 5766   1.332   3.129  11.660  0.4856  0.9487  0.1507
  386TMC3    C2 5767   1.352   3.099  11.531  0.2141 -0.2284 -0.1674
  386TMC3    C3 5768   1.281   3.173  11.435  0.3670 -0.7460 -0.0127
  386TMC3    C4 5769   1.228   3.210  11.699  0.2502 -0.1574  0.2583
  386TMC3    C5 5770   1.160   3.274  11.604 -0.3391 -0.3800  0.5914
  386TMC3    C6 5771   1.190   3.265  11.472  0.2302 -0.1623  0.6054
  386TMC3     C 5772   1.410   3.065  11.766  0.1037 -0.8036 -0.1098
  386TMC3     O 5773   1.368   3.077  11.880  0.1195  0.3105 -0.2144
  386TMC3     H 5774   1.360   2.993  11.513 -2.2534 -0.3574 -0.5825
  386TMC3    H1 5775   1.192   3.223  11.801 -0.1613 -2.4500  0.4123
  386TMC3    H2 5776   1.163   3.337  11.396  1.4782  0.5039  0.7968
  386TMC3    C7 5777   1.029   3.332  11.635 -0.8014 -0.2626  0.7952
  386TMC3    C8 5778   1.267   3.124  11.300  0.3592 -0.1414 -0.0469
  386TMC3    O1 5779   1.004   3.351  11.754  0.4941  0.4216 -0.3408
  386TMC3    O2 5780   1.159   3.165  11.252  0.0007  0.3494  0.4115
  387MPD2     C 5781   3.545   3.248   9.240 -0.1152 -0.3102 -0.7285
  387MPD2    C1 5782   3.609   3.191   9.349 -0.3903 -0.0275  0.2823
  387MPD2    C2 5783   3.632   3.054   9.353  0.5032  0.0434  0.3467
  387MPD2    C3 5784   3.602   2.976   9.245 -0.1876  0.5215 -0.5536
  387MPD2    C4 5785   3.541   3.029   9.138 -0.4251 -0.2802  0.2530
  387MPD2    C5 5786   3.505   3.159   9.143 -0.5299 -0.3664 -0.0964
  387MPD2     H 5787   3.681   3.016   9.441  3.6196  1.9236 -0.5684
  387MPD2    H1 5788   3.515   2.976   9.047  1.0591  2.6847 -1.8804
  387MPD2    H2 5789   3.531   3.353   9.219 -0.4711  0.1090  1.6232
  387MPD2    H3 5790   3.461   3.190   9.049 -0.5053  0.1644  0.0702
  387MPD2     N 5791   3.663   2.850   9.248 -0.5214  0.0568  0.3856
  387MPD2    H5 5792   3.693   2.827   9.342 -1.0060 -0.8919  0.3057
  387MPD2    N1 5793   3.663   3.273   9.448 -0.6657  0.0698 -0.5978
  387MPD2    H7 5794   3.693   3.226   9.533  1.1676 -0.4367 -1.5189
  388TMC3    C1 5795   3.769   3.443   9.549  0.3559 -0.8988  0.3692
  388TMC3    C2 5796   3.775   3.573   9.596 -0.4600  0.6659  0.1780
  388TMC3    C3 5797   3.874   3.603   9.689 -0.0006 -0.3457 -0.4302
  388TMC3    C4 5798   3.861   3.350   9.586  0.0175  0.3449  0.1043
  388TMC3    C5 5799   3.951   3.387   9.676  0.0741 -0.5318 -0.6884
  388TMC3    C6 5800   3.954   3.508   9.743  0.2829 -0.4342 -0.0026
  388TMC3     C 5801   3.672   3.409   9.451 -0.3282  0.7404  0.1036
  388TMC3     O 5802   3.615   3.497   9.390  0.3814  0.0896 -0.7749
  388TMC3     H 5803   3.701   3.647   9.566 -1.2537 -0.7986 -1.4917
  388TMC3    H1 5804   3.871   3.254   9.536  0.1987  0.0310  0.7443
  388TMC3    H2 5805   4.034   3.511   9.816 -0.5622  1.3191  0.8487
  388TMC3    C7 5806   4.055   3.294   9.715  0.5727  0.2998 -0.5409
  388TMC3    C8 5807   3.875   3.740   9.738 -0.2577 -0.1813  1.0631
  388TMC3    O1 5808   4.078   3.288   9.833  0.5870  0.3778  0.8341
  388TMC3    O2 5809   3.785   3.810   9.692 -0.7814  0.7828 -0.2219
  389MPD2     C 5810   3.248   1.740  11.393 -0.0021  0.7499  0.6624
  389MPD2    C1 5811   3.220   1.647  11.291 -0.6440 -0.7454 -1.0658
  389MPD2    C2 5812   3.133   1.539  11.323  0.4155 -0.4345  0.5305
  389MPD2    C3 5813   3.071   1.534  11.444  0.2684 -0.7149  0.0829
  389MPD2    C4 5814   3.098   1.626  11.542  0.2583  0.4124 -0.1902
  389MPD2    C5 5815   3.185   1.727  11.516 -0.2050  0.2531 -0.1183
  389MPD2     H 5816   3.096   1.468  11.249 -1.2510  0.0567  0.8750
  389MPD2    H1 5817   3.046   1.626  11.637  2.6512  0.4661  1.1380
  389MPD2    H2 5818   3.316   1.823  11.384 -0.9547  1.3953 -0.5851
  389MPD2    H3 5819   3.210   1.790  11.601  1.7722 -0.3665 -0.2483
  389MPD2     N 5820   2.983   1.431  11.480 -0.1120 -0.7627 -0.5146
  389MPD2    H5 5821   2.943   1.434  11.573  2.4958  0.5966  0.5657
  389MPD2    N1 5822   3.292   1.651  11.172 -0.2802  0.1041 -0.6909
  389MPD2    H7 5823   3.324   1.740  11.136 -2.0727  1.0235 -0.0087
  390TMC3    C1 5824   2.833   1.270  11.467  0.9972 -1.0514 -0.3951
  390TMC3    C2 5825   2.885   1.196  11.568 -0.8652  0.5903  0.8621
  390TMC3    C3 5826   2.808   1.162  11.673  0.3269 -0.0018  1.0043
  390TMC3    C4 5827   2.709   1.330  11.479 -0.0555  0.2362  0.6682
  390TMC3    C5 5828   2.629   1.305  11.584  0.4997 -0.3302 -0.4655
  390TMC3    C6 5829   2.686   1.225  11.683  0.1565 -0.2259 -0.2579
  390TMC3     C 5830   2.928   1.339  11.395  0.1231  0.2998 -0.8139
  390TMC3     O 5831   2.931   1.318  11.275  0.6390  0.0093  0.1129
  390TMC3     H 5832   2.983   1.154  11.545 -1.4441 -0.1742 -0.2020
  390TMC3    H1 5833   2.684   1.406  11.406 -0.3567  0.0715  0.5996
  390TMC3    H2 5834   2.638   1.208  11.778  1.6703 -0.8432  0.3995
  390TMC3    C7 5835   2.515   1.241  11.528 -1.0162 -0.3037  0.0205
  390TMC3    C8 5836   2.780   1.021  11.664 -0.3336  0.5188 -0.2439
  390TMC3    O1 5837   2.510   1.229  11.409 -0.2376 -0.0505  0.0892
  390TMC3    O2 5838   2.813   0.960  11.563  0.3290 -0.1808 -0.3719
  391MPD2     C 5839   2.810   2.522  10.934  0.7235  0.0992 -0.6964
  391MPD2    C1 5840   2.916   2.614  10.921  1.0857 -0.2830 -0.5378
  391MPD2    C2 5841   2.933   2.679  10.798  0.4182 -0.0268 -0.6778
  391MPD2    C3 5842   2.838   2.662  10.696 -0.6030 -0.4284 -0.2968
  391MPD2    C4 5843   2.735   2.566  10.715  0.3394  0.6200  0.0059
  391MPD2    C5 5844   2.725   2.488  10.827 -0.2550  0.0953 -0.3580
  391MPD2     H 5845   3.010   2.754  10.781  1.9904 -1.4155  0.3284
  391MPD2    H1 5846   2.659   2.548  10.640 -0.1565 -0.7650  0.8533
  391MPD2    H2 5847   2.787   2.478  11.031  1.8450 -1.0028 -0.9424
  391MPD2    H3 5848   2.643   2.423  10.853 -0.4854  0.2452 -0.7174
  391MPD2     N 5849   2.851   2.745  10.580  0.8028 -0.0977  0.1788
  391MPD2    H5 5850   2.937   2.798  10.568  1.1822 -0.4612  1.3447
  391MPD2    N1 5851   2.982   2.654  11.041  0.0798 -0.7170  0.0447
  391MPD2    H7 5852   2.966   2.613  11.133  1.6971  2.7760  1.8880
  392TMC3    C1 5853   2.793   2.826  10.364  0.2773 -0.4678  0.5858
  392TMC3    C2 5854   2.749   2.795  10.238 -0.3467 -0.1676  0.2332
  392TMC3    C3 5855   2.808   2.863  10.133 -0.4476  0.8909  0.0573
  392TMC3    C4 5856   2.895   2.917  10.382  0.3117 -0.3781 -0.0747
  392TMC3    C5 5857   2.944   2.993  10.279  0.0637 -0.5565  0.1236
  392TMC3    C6 5858   2.896   2.967  10.149  0.1628 -0.0846  0.3672
  392TMC3     C 5859   2.755   2.744  10.478 -0.0957  0.2282  0.0325
  392TMC3     O 5860   2.637   2.718  10.477  0.1436  0.2539 -0.6154
  392TMC3     H 5861   2.687   2.707  10.225 -1.2485  0.7652 -1.6610
  392TMC3    H1 5862   2.936   2.947  10.478  0.3421  0.3536 -0.3190
  392TMC3    H2 5863   2.942   3.001  10.057  0.6928  2.2216  1.4948
  392TMC3    C7 5864   3.067   3.070  10.299 -0.3235  0.1560  0.3098
  392TMC3    C8 5865   2.742   2.838  10.008  0.3010 -0.9878  0.0358
  392TMC3    O1 5866   3.133   3.074  10.404  0.2345  0.3203  0.6652
  392TMC3    O2 5867   2.699   2.722  10.001 -0.2424  1.3852  0.0194
  393TMC3    C1 5868   1.575   0.661  10.385  0.0064  0.9058 -0.1535
  393TMC3    C2 5869   1.448   0.679  10.432 -0.1631  0.8100  0.2256
  393TMC3    C3 5870   1.410   0.618  10.546  0.0029  0.1764  0.1524
  393TMC3    C4 5871   1.660   0.572  10.442  0.2087  0.1441 -0.6878
  393TMC3    C5 5872   1.619   0.500  10.549  0.1100  0.3218  0.2507
  393TMC3    C6 5873   1.498   0.525  10.609  0.4271  0.1842  0.7155
  393TMC3     C 5874   1.619   0.753  10.273  0.4970 -0.3622 -0.2412
  393TMC3     O 5875   1.535   0.817  10.217  0.2264  0.0186  0.3855
  393TMC3     H 5876   1.385   0.756  10.388  0.0949  0.2155 -1.1727
  393TMC3    H1 5877   1.757   0.554  10.397  0.8078  0.4759  0.4669
  393TMC3    H2 5878   1.476   0.477  10.704  0.4241  0.4091  0.8270
  393TMC3    C7 5879   1.699   0.396  10.604 -0.5007 -0.0522 -0.9866
  393TMC3    C8 5880   1.291   0.666  10.607  0.7600  0.0253 -0.2943
  393TMC3    O1 5881   1.633   0.314  10.667 -0.1805  0.2953 -0.2269
  393TMC3    O2 5882   1.256   0.774  10.568  0.1105  0.0396  0.1774
  394TMC3    C1 5883   3.365   1.580  10.968 -0.7437  0.3648 -0.6690
  394TMC3    C2 5884   3.315   1.695  10.912  0.6204  0.1033  0.5284
  394TMC3    C3 5885   3.379   1.749  10.803 -0.4072 -0.4752 -0.2548
  394TMC3    C4 5886   3.465   1.508  10.915  0.1919 -0.1956  0.2541
  394TMC3    C5 5887   3.515   1.562  10.798 -0.2637  0.1133 -0.5346
  394TMC3    C6 5888   3.483   1.680  10.743  0.1520 -0.3444 -0.5223
  394TMC3     C 5889   3.296   1.542  11.094 -0.0435 -0.0212 -0.0624
  394TMC3     O 5890   3.295   1.423  11.126  0.1369 -0.2101 -0.1666
  394TMC3     H 5891   3.238   1.759  10.954 -1.7258 -2.1234 -0.3890
  394TMC3    H1 5892   3.491   1.421  10.975  2.8270 -0.9867 -2.0137
  394TMC3    H2 5893   3.523   1.716  10.650 -0.6401 -1.2222 -1.2091
  394TMC3    C7 5894   3.618   1.489  10.720  0.4510  0.2284  0.1679
  394TMC3    C8 5895   3.298   1.832  10.721 -0.0474  0.0022 -0.5692
  394TMC3    O1 5896   3.619   1.508  10.600  0.5700  0.4443 -0.0442
  394TMC3    O2 5897   3.329   1.939  10.676  0.0030  0.3710  0.4038
  395TMC3    C1 5898   2.316   3.474  14.283 -0.4801  0.2012 -0.0273
  395TMC3    C2 5899   2.215   3.416  14.349 -0.0811  0.2408  0.2252
  395TMC3    C3 5900   2.179   3.475  14.470 -0.0644  0.3675  0.5971
  395TMC3    C4 5901   2.370   3.594  14.327 -0.0193  0.3108 -0.4135
  395TMC3    C5 5902   2.332   3.658  14.451  0.3052  0.1361  0.5564
  395TMC3    C6 5903   2.234   3.594  14.518  0.3482  0.8777 -0.1373
  395TMC3     C 5904   2.429   3.383  14.262 -0.3490  0.0667 -0.1818
  395TMC3     O 5905   2.538   3.423  14.301 -0.2250 -0.5177 -0.0103
  395TMC3     H 5906   2.166   3.331  14.304 -1.6108  0.0856  2.1620
  395TMC3    H1 5907   2.452   3.636  14.270  2.8032 -2.7707  1.3670
  395TMC3    H2 5908   2.210   3.622  14.620 -0.9301 -0.0190 -0.2019
  395TMC3    C7 5909   2.441   3.693  14.541  0.5009  0.5125 -0.9242
  395TMC3    C8 5910   2.160   3.378  14.576  0.9616 -0.3331 -0.2356
  395TMC3    O1 5911   2.416   3.782  14.620  0.2114 -0.0772 -0.3286
  395TMC3    O2 5912   2.148   3.417  14.694 -0.4444 -0.0039  0.0602
  396MPD2     C 5913   2.263   4.507  16.531 -0.2745 -0.0450  0.1801
  396MPD2    C1 5914   2.333   4.597  16.609  0.3703  0.0828 -0.3131
  396MPD2    C2 5915   2.374   4.716  16.549 -0.4280  0.6622 -0.1268
  396MPD2    C3 5916   2.340   0.013  16.417  0.3919  0.0167 -0.3543
  396MPD2    C4 5917   2.254   4.655  16.340 -0.6612 -0.0922 -0.5398
  396MPD2    C5 5918   2.220   4.539  16.402  0.0615  0.1785  0.5447
  396MPD2     H 5919   2.441   0.057  16.601  2.3661 -2.7276  0.7166
  396MPD2    H1 5920   2.231   4.689  16.240 -1.8524  1.3150  0.2202
  396MPD2    H2 5921   2.234   4.414  16.579  0.3245  0.2667  1.1440
  396MPD2    H3 5922   2.160   4.468  16.345 -0.3144 -0.9294  2.3295
  396MPD2     N 5923   2.408   0.129  16.365  0.3020  0.5612  0.2628
  396MPD2    H5 5924   2.470   0.180  16.428 -1.6379  0.0098  2.6244
  396MPD2    N1 5925   2.374   4.551  16.738  0.3358 -0.2263 -0.5021
  396MPD2    H7 5926   2.370   4.453  16.764 -1.3032 -0.2093 -0.6706
  397TMC3    C1 5927   2.467   4.560  16.960  0.7407 -0.2837  0.6045
  397TMC3    C2 5928   2.587   4.599  17.018  0.0145  0.3037  0.4720
  397TMC3    C3 5929   2.669   4.507  17.071 -0.7727  0.6640  0.4585
  397TMC3    C4 5930   2.422   4.431  16.980  0.7576 -0.4609 -1.0322
  397TMC3    C5 5931   2.490   4.352  17.065  0.1582 -0.0100  0.8817
  397TMC3    C6 5932   2.621   4.384  17.104  0.2466 -0.4136 -1.1853
  397TMC3     C 5933   2.440   4.622  16.828  0.6435 -0.4554 -0.7861
  397TMC3     O 5934   2.483   0.006  16.809 -0.2709  0.1574  0.3947
  397TMC3     H 5935   2.626   4.697  16.994 -1.8874  1.0603  0.5315
  397TMC3    H1 5936   2.323   4.394  16.953 -0.1647 -0.7173  2.6139
  397TMC3    H2 5937   2.691   4.335  17.171 -0.5975  0.6824  0.5015
  397TMC3    C7 5938   2.425   4.237  17.127 -0.4346 -0.3398 -0.0310
  397TMC3    C8 5939   2.785   4.554  17.151  0.0320 -0.1059  0.2969
  397TMC3    O1 5940   2.312   4.212  17.084 -0.2520  0.5714 -0.3157
  397TMC3    O2 5941   2.787   4.505  17.262  0.3308  0.0329  0.9087
  398MPD2     C 5942   0.473   0.616   0.007 -0.3071  0.4927  0.1109
  398MPD2    C1 5943   0.551   0.503  17.690  0.3186 -0.3024 -0.2133
  398MPD2    C2 5944   0.683   0.507   0.024  0.2152 -0.7960 -0.3218
  398MPD2    C3 5945   0.738   0.618   0.093  0.0571 -0.4344 -0.5649
  398MPD2    C4 5946   0.650   0.727   0.124 -0.1984 -0.1106 -0.0968
  398MPD2    C5 5947   0.525   0.725   0.074 -0.2015 -0.2762 -0.1429
  398MPD2     H 5948   0.756   0.430   0.002 -0.0907 -0.4087 -2.6739
  398MPD2    H1 5949   0.677   0.807   0.192 -2.0440 -0.9679  1.6524
  398MPD2    H2 5950   0.366   0.616  17.694 -0.5808 -0.7958  1.4616
  398MPD2    H3 5951   0.464   0.813   0.088 -0.6925 -0.8478  1.3490
  398MPD2     N 5952   0.877   0.617   0.122 -0.0964 -0.1375  0.3438
  398MPD2    H5 5953   0.920   0.527   0.104  0.8931  0.9830 -2.7929
  398MPD2    N1 5954   0.501   0.383  17.634 -0.0519  0.3180 -0.1083
  398MPD2    H7 5955   0.570   0.310  17.620  1.5391  1.8470 -0.3087
  399TMC3    C1 5956   0.370   0.228  17.511 -0.0770 -0.8964  0.4929
  399TMC3    C2 5957   0.480   0.184  17.437 -0.5680  0.3154  0.2100
  399TMC3    C3 5958   0.460   0.065  17.365 -0.3801 -0.6583 -0.2591
  399TMC3    C4 5959   0.250   0.160  17.513 -0.1227  0.1610  0.6668
  399TMC3    C5 5960   0.231   0.048  17.433 -0.2168 -0.2285 -0.3310
  399TMC3    C6 5961   0.342   4.724  17.360  0.4441  0.0551  0.4440
  399TMC3     C 5962   0.373   0.362  17.572 -0.1153  0.3062  0.4447
  399TMC3     O 5963   0.270   0.429  17.575  0.2242 -0.0492  0.2549
  399TMC3     H 5964   0.573   0.238  17.446  0.8032 -1.8219 -1.0266
  399TMC3    H1 5965   0.175   0.196  17.583 -0.9849 -0.2881 -0.0264
  399TMC3    H2 5966   0.335   4.626  17.314  1.2383  0.0749  0.2899
  399TMC3    C7 5967   0.140   4.661  17.471 -0.2388  0.2913  0.2075
  399TMC3    C8 5968   0.579   4.712  17.338 -0.2618  0.3842  0.0927
  399TMC3    O1 5969   0.167   4.547  17.437 -0.1759 -0.3743 -0.3997
  399TMC3    O2 5970   0.683   0.052  17.340 -0.2401 -0.7290 -0.0622
  400TMC3    C1 5971   3.822   4.122  16.733 -0.2221 -0.2191 -0.2737
  400TMC3    C2 5972   3.691   4.133  16.706 -0.3490 -0.8071  0.2054
  400TMC3    C3 5973   3.656   4.253  16.646  0.3244 -0.2146  0.0295
  400TMC3    C4 5974   3.915   4.218  16.691  0.2223  0.3202 -0.3135
  400TMC3    C5 5975   3.874   4.332  16.637 -0.0430  0.2791  0.6771
  400TMC3    C6 5976   3.739   4.360  16.624 -0.4428 -0.4175 -0.6872
  400TMC3     C 5977   3.867   3.987  16.766 -0.1451 -0.3779  0.8856
  400TMC3     O 5978   3.793   3.893  16.739  0.1976 -0.3730 -0.2922
  400TMC3     H 5979   3.621   4.061  16.748 -1.7334  0.0063 -0.6855
  400TMC3    H1 5980   4.023   4.202  16.690 -0.1715 -2.4193 -0.1594
  400TMC3    H2 5981   3.691   4.454  16.598 -0.1077  0.1931  0.9272
  400TMC3    C7 5982   3.968   4.424  16.587  1.1171 -0.3387  0.2586
  400TMC3    C8 5983   3.520   4.262  16.608  0.7131  0.2436 -0.3177
  400TMC3    O1 5984   4.069   4.371  16.541  0.2480 -0.1187 -0.2077
  400TMC3    O2 5985   3.461   4.371  16.606 -0.0544 -0.0111 -0.4969
  401MPD2     C 5986   2.243   2.605   0.912 -0.5420  0.6599  0.1053
  401MPD2    C1 5987   2.312   2.557   1.016  0.1415  0.1403  0.5987
  401MPD2    C2 5988   2.371   2.435   1.003 -0.7529 -1.0737  0.1310
  401MPD2    C3 5989   2.360   2.358   0.891 -0.8724 -0.3353  1.1086
  401MPD2    C4 5990   2.302   2.418   0.782  0.0313  0.3766 -0.0369
  401MPD2    C5 5991   2.245   2.539   0.793  0.0696  0.5865 -0.1047
  401MPD2     H 5992   2.421   2.393   1.089  0.6134  2.5851  1.0833
  401MPD2    H1 5993   2.297   2.376   0.682 -0.4376 -2.9074  1.3481
  401MPD2    H2 5994   2.194   2.701   0.914  1.2491  1.5436  0.9607
  401MPD2    H3 5995   2.183   2.573   0.711 -1.5512 -0.8597  0.5331
  401MPD2     N 5996   2.430   2.237   0.897 -0.3621  0.0057  0.3328
  401MPD2    H5 5997   2.473   2.219   0.987 -0.2572  0.6674  0.4168
  401MPD2    N1 5998   2.324   2.625   1.139 -0.0469  1.0257  0.1118
  401MPD2    H7 5999   2.381   2.572   1.204 -0.9252 -1.9619 -1.5678
  402TMC3    C1 6000   2.497   2.031   0.827  0.5824 -0.4678  0.0729
  402TMC3    C2 6001   2.491   1.977   0.957 -0.4660  0.3448  0.6891
  402TMC3    C3 6002   2.530   1.848   0.979  0.0626 -0.3705 -0.3683
  402TMC3    C4 6003   2.523   1.952   0.724  0.3091  0.7702 -0.7248
  402TMC3    C5 6004   2.551   1.816   0.751 -0.4076  0.2230 -0.1490
  402TMC3    C6 6005   2.542   1.758   0.878 -0.1845  0.1070  0.2682
  402TMC3     C 6006   2.432   2.153   0.791 -0.4511  0.0040  0.1389
  402TMC3     O 6007   2.384   2.158   0.680  0.5968 -0.3983 -0.6712
  402TMC3     H 6008   2.492   2.047   1.040 -0.2847 -0.3503  1.2784
  402TMC3    H1 6009   2.509   1.987   0.622  0.7135  2.3686 -0.2307
  402TMC3    H2 6010   2.565   1.654   0.899 -0.6511  0.2311  1.4029
  402TMC3    C7 6011   2.533   1.725   0.639 -0.1650 -0.4964  0.4296
  402TMC3    C8 6012   2.510   1.797   1.113  0.3147  0.0398  0.0321
  402TMC3    O1 6013   2.495   1.617   0.679 -0.0884 -0.2513 -0.1576
  402TMC3    O2 6014   2.546   1.682   1.137  0.0464 -0.1858 -0.6791
  403MPD2     C 6015   0.557   1.083  12.963 -0.2478  0.6701  0.6167
  403MPD2    C1 6016   0.606   0.970  13.030  0.5394 -0.6686  0.0092
  403MPD2    C2 6017   0.695   0.995  13.131 -0.0491  0.3107  0.7757
  403MPD2    C3 6018   0.740   1.118  13.172 -0.6706  0.6907 -0.2059
  403MPD2    C4 6019   0.703   1.225  13.090  0.7045  0.2602 -0.0215
  403MPD2    C5 6020   0.615   1.206  12.988  0.2612  0.0828  0.7348
  403MPD2     H 6021   0.728   0.911  13.192 -1.9557 -1.0684 -0.1079
  403MPD2    H1 6022   0.723   1.330  13.109 -0.8078  0.2872  1.4439
  403MPD2    H2 6023   0.471   1.086  12.897  0.0692  0.0507  0.1772
  403MPD2    H3 6024   0.593   1.291  12.924  0.2010 -1.3271 -1.1312
  403MPD2     N 6025   0.827   1.126  13.288 -0.6133  0.6298  0.1194
  403MPD2    H5 6026   0.843   1.033  13.327  2.3448  1.3326  0.5969
  403MPD2    N1 6027   0.544   0.845  13.002 -0.2164 -0.2867  0.1899
  403MPD2    H7 6028   0.472   0.850  12.930 -0.1526  0.7620  0.2004
  404TMC3    C1 6029   0.518   0.606  13.004  0.7599  0.1158 -0.3227
  404TMC3    C2 6030   0.536   0.490  13.074  0.2110 -0.0456 -0.2774
  404TMC3    C3 6031   0.536   0.372  13.005  0.1754 -0.3392 -0.7198
  404TMC3    C4 6032   0.501   0.600  12.868 -0.1263  0.8907 -0.2777
  404TMC3    C5 6033   0.491   0.479  12.805 -0.4701  0.5226  0.5157
  404TMC3    C6 6034   0.514   0.361  12.870 -0.7158 -0.0547  0.0825
  404TMC3     C 6035   0.578   0.727  13.062  0.4278  0.4495  0.4029
  404TMC3     O 6036   0.655   0.708  13.154  0.1424 -0.2851  0.6462
  404TMC3     H 6037   0.581   0.487  13.172  0.4942  2.2230 -0.3582
  404TMC3    H1 6038   0.462   0.685  12.812 -0.9341 -0.4012 -1.6777
  404TMC3    H2 6039   0.511   0.271  12.810 -3.5623 -1.8008  2.8700
  404TMC3    C7 6040   0.527   0.477  12.666 -1.1301 -0.0444  0.0461
  404TMC3    C8 6041   0.544   0.250  13.079 -0.2216 -0.0445 -0.4906
  404TMC3    O1 6042   0.639   0.526  12.650 -0.0456 -0.4434 -0.4939
  404TMC3    O2 6043   0.596   0.158  13.016 -0.3751  1.0128  0.0743
  405MPD2     C 6044   0.951   1.446  14.590  0.2317 -0.0736  0.1542
  405MPD2    C1 6045   0.984   1.579  14.564  0.0172 -0.3657 -0.1339
  405MPD2    C2 6046   0.916   1.654  14.473  0.4834  0.2086 -0.6015
  405MPD2    C3 6047   0.824   1.592  14.390 -0.2699 -0.5931 -0.2606
  405MPD2    C4 6048   0.794   1.460  14.423 -0.0214 -1.1005 -0.3665
  405MPD2    C5 6049   0.848   1.395  14.522  0.7322  0.1632 -0.4791
  405MPD2     H 6050   0.935   1.760  14.455  0.6756  0.2310 -0.2686
  405MPD2    H1 6051   0.717   1.403  14.374  0.5770  0.0728 -2.6628
  405MPD2    H2 6052   1.005   1.392  14.666  0.3983 -2.1794 -1.4748
  405MPD2    H3 6053   0.837   1.289  14.537  0.7983  0.2568  0.2324
  405MPD2     N 6054   0.768   1.667  14.286  0.7847  0.4216  0.0678
  405MPD2    H5 6055   0.785   1.767  14.294  3.3302 -0.1227  1.2457
  405MPD2    N1 6056   1.095   1.639  14.632 -0.3234  0.6486 -0.1951
  405MPD2    H7 6057   1.143   1.582  14.701  0.4446 -0.8778 -1.9923
  406TMC3    C1 6058   0.507   1.865  13.968 -0.1199  0.6119  0.1789
  406TMC3    C2 6059   0.603   1.961  13.942 -0.7458  0.0111 -0.2835
  406TMC3    C3 6060   0.730   1.938  13.996 -0.0427  0.3027 -0.3329
  406TMC3    C4 6061   0.523   1.757  14.051  0.4200 -0.2203 -0.7917
  406TMC3    C5 6062   0.648   1.747  14.105 -0.3894 -0.8647 -0.5644
  406TMC3    C6 6063   0.744   1.837  14.086 -0.4830 -0.4911 -0.4078
  406TMC3     C 6064   0.372   1.908  13.932 -1.0048 -0.8233  0.5746
  406TMC3     O 6065   0.355   1.997  13.849 -0.3335  0.0987 -0.4014
  406TMC3     H 6066   0.589   2.042  13.871  0.0982 -1.2553 -1.9090
  406TMC3    H1 6067   0.457   1.672  14.066 -1.0918  0.6534 -2.5035
  406TMC3    H2 6068   0.846   1.804  14.100  0.2585  1.4624 -1.2239
  406TMC3    C7 6069   0.673   1.634  14.196  0.0358 -0.7256 -0.2527
  406TMC3    C8 6070   0.825   2.047  14.002 -0.2926  0.1720 -0.4451
  406TMC3    O1 6071   0.628   1.523  14.182  0.0102 -0.3909 -0.0332
  406TMC3    O2 6072   0.832   2.120  13.905  0.0337  0.1260  0.5770
  407MPD2     C 6073   3.614   2.283   9.373  0.2656 -0.5315  0.2711
  407MPD2    C1 6074   3.560   2.414   9.357 -0.2589  0.9842 -0.1007
  407MPD2    C2 6075   3.604   2.519   9.437 -0.1473 -0.8211  0.7098
  407MPD2    C3 6076   3.707   2.496   9.533 -0.1648  0.4637 -0.1790
  407MPD2    C4 6077   3.767   2.374   9.540 -0.0318 -0.3093  0.1021
  407MPD2    C5 6078   3.715   2.269   9.465 -0.5480  0.6905  0.0171
  407MPD2     H 6079   3.552   2.614   9.444  3.1974  1.0164  0.8609
  407MPD2    H1 6080   3.851   2.363   9.608 -0.1696 -0.6578  0.2163
  407MPD2    H2 6081   3.589   2.192   9.320  0.5577 -0.4741  0.0346
  407MPD2    H3 6082   3.767   2.175   9.479 -2.0202 -0.3009 -1.0960
  407MPD2     N 6083   3.745   2.592   9.621 -0.0748  0.0581  0.0819
  407MPD2    H5 6084   3.788   2.553   9.704 -0.2658  2.5099  1.3444
  407MPD2    N1 6085   3.455   2.441   9.265  0.3186 -0.6321  0.1798
  407MPD2    H7 6086   3.444   2.537   9.235  0.1160 -1.3632 -2.0803
  408TMC3    C1 6087   3.298   2.382   9.080  0.1312 -0.1204 -0.4852
  408TMC3    C2 6088   3.328   2.491   8.997 -0.2377  0.6322 -0.0027
  408TMC3    C3 6089   3.261   2.513   8.877 -0.1018 -0.3969  0.6291
  408TMC3    C4 6090   3.193   2.299   9.041 -0.0354 -0.0363 -0.4184
  408TMC3    C5 6091   3.121   2.324   8.927  0.5139 -0.1552 -0.3890
  408TMC3    C6 6092   3.156   2.433   8.847 -0.3908  0.0731 -0.5826
  408TMC3     C 6093   3.391   2.341   9.190 -0.5397  0.0690 -0.1177
  408TMC3     O 6094   3.389   2.220   9.200  0.2098 -0.1671 -0.2734
  408TMC3     H 6095   3.416   2.550   9.020  1.8350 -1.9620 -1.2973
  408TMC3    H1 6096   3.164   2.214   9.102 -0.4546 -1.2917 -2.3584
  408TMC3    H2 6097   3.108   2.449   8.752 -0.7162  1.9255 -0.1056
  408TMC3    C7 6098   3.022   2.226   8.895 -0.7194  0.4645  0.4119
  408TMC3    C8 6099   3.271   2.646   8.821 -0.3693  0.1346 -0.2318
  408TMC3    O1 6100   3.001   2.136   8.976 -0.2917  0.3670  0.0582
  408TMC3    O2 6101   3.171   2.684   8.762 -0.2530  0.1084 -0.1403
  409MPD2     C 6102   2.795   3.923  17.237  0.0273 -0.3374  0.3773
  409MPD2    C1 6103   2.904   3.958  17.312  0.4855  0.3801 -0.4199
  409MPD2    C2 6104   2.978   4.070  17.273  0.1690 -0.1207  0.6083
  409MPD2    C3 6105   2.942   4.150  17.165 -0.0635  0.2840  0.4283
  409MPD2    C4 6106   2.830   4.111  17.095 -0.2395 -0.3519  0.4810
  409MPD2    C5 6107   2.756   4.003  17.136 -0.4521 -0.9786  0.3212
  409MPD2     H 6108   3.066   4.106  17.325  0.7674 -0.2790 -0.2932
  409MPD2    H1 6109   2.789   4.158  17.007  0.2498  2.2536  1.6419
  409MPD2    H2 6110   2.747   3.827  17.249 -1.9314  0.7752  1.5051
  409MPD2    H3 6111   2.663   3.982  17.084 -0.0483 -2.8535  0.3801
  409MPD2     N 6112   3.001   4.267  17.114 -0.0467  0.3106 -0.0727
  409MPD2    H5 6113   2.975   4.301  17.022  0.3312 -2.5131 -1.2373
  409MPD2    N1 6114   2.961   3.877  17.412 -0.0349 -0.7488  0.1612
  409MPD2    H7 6115   3.047   3.912  17.453  0.2551  0.4141 -1.4518
  410TMC3    C1 6116   3.175   4.427  17.085  0.2480  0.2216 -0.4277
  410TMC3    C2 6117   3.303   4.454  17.134 -0.0551 -0.4500 -0.4982
  410TMC3    C3 6118   3.393   4.525  17.053 -0.0219 -0.2094 -0.6775
  410TMC3    C4 6119   3.137   4.454  16.956 -0.4521  0.0081 -0.0546
  410TMC3    C5 6120   3.224   4.526  16.882 -0.7609  0.0396  0.6244
  410TMC3    C6 6121   3.356   4.554  16.920  0.0891 -0.3173  0.3586
  410TMC3     C 6122   3.102   4.333  17.176 -0.7203  0.4912 -0.2557
  410TMC3     O 6123   3.149   4.321  17.284  0.2101  0.0009 -0.5065
  410TMC3     H 6124   3.330   4.429  17.236 -2.0016  0.5222  0.2562
  410TMC3    H1 6125   3.037   4.446  16.917  0.0041 -0.6480 -1.0896
  410TMC3    H2 6126   3.426   4.606  16.856 -1.2608  1.6381  0.4356
  410TMC3    C7 6127   3.186   4.522  16.739  0.1520 -0.2873  0.0626
  410TMC3    C8 6128   3.535   4.493  17.067 -0.1264  0.0480 -0.2951
  410TMC3    O1 6129   3.090   4.455  16.709 -0.6518 -0.5965 -0.1550
  410TMC3    O2 6130   3.620   4.581  17.039  0.0137  0.2096 -0.0473
  411MPD2     C 6131   3.182   4.201  14.627 -0.3022 -0.0969 -0.0564
  411MPD2    C1 6132   3.078   4.229  14.540 -0.3299  0.2062  0.2066
  411MPD2    C2 6133   2.998   4.125  14.488  0.1894 -0.3016 -0.2843
  411MPD2    C3 6134   3.022   3.994  14.525  0.4566 -0.3599 -1.0065
  411MPD2    C4 6135   3.115   3.972  14.627  0.2171  0.2672  0.1764
  411MPD2    C5 6136   3.186   4.078  14.679 -0.1920  0.4360  0.5324
  411MPD2     H 6137   2.923   4.154  14.415 -0.2662 -2.0489 -0.4982
  411MPD2    H1 6138   3.150   3.873  14.653  1.9296  0.3044 -2.0005
  411MPD2    H2 6139   3.241   4.283  14.665  0.7299 -0.7876 -0.1724
  411MPD2    H3 6140   3.263   4.045  14.748  1.2540  0.4532 -1.0841
  411MPD2     N 6141   2.968   3.875  14.472 -0.3278  0.1166  0.9659
  411MPD2    H5 6142   3.000   3.790  14.516 -1.1719 -0.9764 -0.5491
  411MPD2    N1 6143   3.072   4.368  14.490 -0.2377 -0.4964  0.4492
  411MPD2    H7 6144   3.140   4.438  14.518 -0.1525 -0.4081  0.0226
  412TMC3    C1 6145   2.869   3.730  14.323  0.2897 -0.4039 -0.6597
  412TMC3    C2 6146   2.762   3.707  14.241 -0.1703  0.1617 -0.0434
  412TMC3    C3 6147   2.765   3.594  14.167 -0.6154 -0.4025 -0.0241
  412TMC3    C4 6148   2.988   3.662  14.325  0.0321 -0.3483 -0.4891
  412TMC3    C5 6149   2.985   3.559  14.241 -0.0174  0.1934  0.1495
  412TMC3    C6 6150   2.877   3.520  14.165  0.9190  0.6454 -0.6037
  412TMC3     C 6151   2.891   3.867  14.358 -0.0384  0.2650 -0.7523
  412TMC3     O 6152   2.879   3.953  14.273  0.5439  0.6086  0.3091
  412TMC3     H 6153   2.685   3.784  14.233 -1.5715 -0.8799  3.4155
  412TMC3    H1 6154   3.082   3.715  14.340  0.3598 -0.9329 -0.4636
  412TMC3    H2 6155   2.885   3.434  14.099  1.2949 -0.8390  1.3775
  412TMC3    C7 6156   3.106   3.552  14.166  0.5799 -0.0535 -0.1761
  412TMC3    C8 6157   2.723   3.619  14.031  0.8748  0.2125  0.4790
  412TMC3    O1 6158   3.125   3.656  14.103  0.3283  0.1527  0.1856
  412TMC3    O2 6159   2.607   3.600  14.001  0.5274  0.5837 -0.4880
  413MPD2     C 6160   4.496   2.326  15.354  0.3380 -0.1810 -0.2534
  413MPD2    C1 6161   4.463   2.332  15.222  0.1532 -0.9395  0.3797
  413MPD2    C2 6162   4.537   2.249  15.140  0.0830 -0.4268  0.2168
  413MPD2    C3 6163   4.628   2.157  15.184 -0.6355  0.4959 -0.4741
  413MPD2    C4 6164   4.643   2.140  15.323 -0.6578  0.2497  0.1472
  413MPD2    C5 6165   4.580   2.227  15.402  0.1811 -0.1284 -0.7497
  413MPD2     H 6166   4.522   2.259  15.034  1.6913  0.6236  0.0839
  413MPD2    H1 6167   4.714   2.067  15.361 -2.1300 -0.5072  1.4263
  413MPD2    H2 6168   4.457   2.398  15.425 -2.4047 -3.4800  1.5935
  413MPD2    H3 6169   4.605   2.235  15.507  1.4164 -0.2380 -1.0410
  413MPD2     N 6170   4.704   2.076  15.095  0.3551 -0.3654  0.3488
  413MPD2    H5 6171   4.690   2.115  15.002  0.7512 -0.7913  0.1114
  413MPD2    N1 6172   4.362   2.423  15.188 -0.7098 -0.3476 -0.3070
  413MPD2    H7 6173   4.306   2.475  15.255  0.2485  0.7706 -0.3694
  414TMC3    C1 6174   0.147   1.932  15.019 -0.3274  0.1274  0.5149
  414TMC3    C2 6175   0.213   1.812  15.014  0.0709  0.1807 -0.2309
  414TMC3    C3 6176   0.290   1.778  14.911  0.1269  0.0650 -0.1858
  414TMC3    C4 6177   0.150   2.017  14.913  0.6133 -0.4095  0.5682
  414TMC3    C5 6178   0.212   1.972  14.795  0.0704 -0.6996 -0.5179
  414TMC3    C6 6179   0.281   1.855  14.800  0.3672 -0.0848  0.1769
  414TMC3     C 6180   0.061   1.973  15.128 -0.6053  0.5319 -0.2785
  414TMC3     O 6181   0.062   1.892  15.220  0.3663  0.1141  0.1129
  414TMC3     H 6182   0.231   1.759  15.107  2.5064  0.8619 -0.3239
  414TMC3    H1 6183   0.133   2.123  14.925 -0.3843 -0.4448 -0.5629
  414TMC3    H2 6184   0.336   1.831  14.709 -1.4017  0.7222 -1.1149
  414TMC3    C7 6185   0.260   2.077  14.702 -0.3278 -0.3162 -0.7132
  414TMC3    C8 6186   0.391   1.676  14.930  0.0586  0.2743  0.4955
  414TMC3    O1 6187   0.282   2.191  14.744  0.0883  0.2112  0.4680
  414TMC3    O2 6188   0.355   1.576  14.989  0.4226  0.3446  0.2768
  415TMC3    C1 6189   1.063   4.361   9.813  0.0796  0.0961  0.4455
  415TMC3    C2 6190   1.145   4.431   9.727 -0.4240  0.4149  0.1704
  415TMC3    C3 6191   1.102   4.447   9.601 -0.7117 -0.9918 -0.1117
  415TMC3    C4 6192   0.943   4.315   9.776 -0.5942 -0.5494 -0.1409
  415TMC3    C5 6193   0.894   4.343   9.648 -0.3108  0.0765 -1.0338
  415TMC3    C6 6194   0.976   4.408   9.564 -0.7550  0.7006  0.5175
  415TMC3     C 6195   1.126   4.306   9.932 -0.5587 -0.3198  0.2329
  415TMC3     O 6196   1.073   4.212   9.989 -0.2791  0.1964 -0.1869
  415TMC3     H 6197   1.247   4.457   9.751  0.2017 -0.5858 -1.4402
  415TMC3    H1 6198   0.900   4.229   9.827  0.4665 -0.4724  0.9004
  415TMC3    H2 6199   0.948   4.415   9.460 -0.2667  0.2206  0.3506
  415TMC3    C7 6200   0.786   4.267   9.588 -0.9260  0.0787 -0.1739
  415TMC3    C8 6201   1.204   4.484   9.501  0.2080 -0.1885  1.0032
  415TMC3    O1 6202   0.762   4.275   9.469 -0.5791  0.2282 -0.6488
  415TMC3    O2 6203   1.211   4.426   9.390 -0.5265 -0.1373  0.8238
  416MPD2     C 6204   3.170   4.304  11.432  0.3103 -0.6289  0.0391
  416MPD2    C1 6205   3.050   4.231  11.449  0.2754 -0.4939 -0.4158
  416MPD2    C2 6206   3.033   4.109  11.386  0.7087  0.7869  0.1137
  416MPD2    C3 6207   3.138   4.062  11.310 -0.3044  0.1219  0.1391
  416MPD2    C4 6208   3.257   4.123  11.290 -0.1282 -0.5625 -0.0109
  416MPD2    C5 6209   3.269   4.240  11.356  0.2332  0.4003 -0.4576
  416MPD2     H 6210   2.937   4.060  11.379  0.2537  1.6157  0.5864
  416MPD2    H1 6211   3.340   4.078  11.237  0.3563  1.8475 -1.2940
  416MPD2    H2 6212   3.184   4.401  11.480 -1.2842  0.7982 -2.3671
  416MPD2    H3 6213   3.366   4.287  11.347  0.2417  0.2638 -1.1069
  416MPD2     N 6214   3.112   3.932  11.256 -0.7993  0.1395  0.5147
  416MPD2    H5 6215   3.016   3.900  11.264 -0.0172 -2.5734 -0.8246
  416MPD2    N1 6216   2.954   4.287  11.535  0.7275 -0.3530  0.0982
  416MPD2    H7 6217   2.968   4.382  11.568 -0.5236 -0.1717  0.0839
  417TMC3    C1 6218   2.747   4.342  11.628  0.2928 -1.0488 -0.0592
  417TMC3    C2 6219   2.793   4.383  11.745 -0.0814 -0.4909  0.0249
  417TMC3    C3 6220   2.703   4.440  11.832  0.3103 -0.1643  0.5372
  417TMC3    C4 6221   2.618   4.347  11.593 -0.0036 -0.0021  0.0158
  417TMC3    C5 6222   2.531   4.419  11.675 -0.5479 -0.1073  0.3364
  417TMC3    C6 6223   2.575   4.476  11.790  0.1683  0.1036  0.4193
  417TMC3     C 6224   2.826   4.240  11.561 -0.0653 -0.0780 -0.0617
  417TMC3     O 6225   2.768   4.155  11.500  0.2515 -0.1521  0.6662
  417TMC3     H 6226   2.899   4.377  11.768  0.8416  0.9557 -3.9302
  417TMC3    H1 6227   2.576   4.303  11.503 -1.6573  0.5639  0.5217
  417TMC3    H2 6228   2.509   4.532  11.856 -1.3388 -1.2025  0.0290
  417TMC3    C7 6229   2.415   4.469  11.616 -0.4892 -0.2305 -0.3469
  417TMC3    C8 6230   2.744   4.441  11.975  0.1368  0.1717 -0.2214
  417TMC3    O1 6231   2.428   4.485  11.495  0.4632  0.1537 -0.1733
  417TMC3    O2 6232   2.851   4.403  12.013  0.2537  0.0903 -0.5680
  418TMC3    C1 6233   1.298   0.661   0.102 -0.1362  0.0974  1.0324
  418TMC3    C2 6234   1.189   0.734   0.131  0.0567  0.0346 -0.0477
  418TMC3    C3 6235   1.082   0.679   0.200  0.2297 -0.0748  0.0532
  418TMC3    C4 6236   1.314   0.535   0.162  0.2534  0.4949 -0.1101
  418TMC3    C5 6237   1.202   0.482   0.225 -0.0211 -0.1652 -0.0751
  418TMC3    C6 6238   1.087   0.545   0.238  0.0656 -0.0364 -0.4816
  418TMC3     C 6239   1.388   0.721   0.006 -0.2418  0.6484 -0.6074
  418TMC3     O 6240   1.389   0.842  17.696  0.0191  0.4300 -1.2246
  418TMC3     H 6241   1.171   0.831   0.086  2.1857  0.1742 -0.6246
  418TMC3    H1 6242   1.405   0.483   0.134 -0.0333  0.2714 -0.6373
  418TMC3    H2 6243   1.014   0.491   0.298 -1.6367  2.8836  0.1154
  418TMC3    C7 6244   1.217   0.342   0.259  0.4071  0.0754  0.1492
  418TMC3    C8 6245   0.959   0.725   0.158  0.3340 -0.6551 -0.0882
  418TMC3    O1 6246   1.118   0.277   0.248 -0.3636 -0.1363  0.4494
  418TMC3    O2 6247   0.940   0.848   0.156 -0.2811  0.3718 -0.0061
  419MPD2     C 6248   4.530   3.623  12.173 -0.1392  0.1545 -0.0119
  419MPD2    C1 6249   4.457   3.745  12.150  0.0462 -0.9546 -0.2645
  419MPD2    C2 6250   4.420   3.822  12.260 -0.1800 -0.2878 -0.1573
  419MPD2    C3 6251   4.464   3.794  12.385  0.5944 -0.0846  0.1998
  419MPD2    C4 6252   4.539   3.679  12.401  0.1616  0.1439 -0.1603
  419MPD2    C5 6253   4.578   3.597  12.298 -0.0137 -0.5212 -0.8698
  419MPD2     H 6254   4.378   3.920  12.239 -1.0747 -0.6461 -0.0507
  419MPD2    H1 6255   4.583   3.652  12.496 -1.7473 -1.0175  0.4090
  419MPD2    H2 6256   4.549   3.558  12.088  1.1340 -1.4476  1.5010
  419MPD2    H3 6257   4.633   3.506  12.317  1.3399  0.8512  1.8957
  419MPD2     N 6258   4.425   3.879  12.490 -0.3238 -0.7155  1.4057
  419MPD2    H5 6259   4.380   3.967  12.467  0.2467 -0.7278  0.1964
  419MPD2    N1 6260   4.427   3.791  12.019  0.3297  0.4988  0.3123
  419MPD2    H7 6261   4.402   3.889  12.014  2.0669  0.9456  0.3524
  420TMC3    C1 6262   4.410   3.970  12.701 -0.7878  0.3052  0.0242
  420TMC3    C2 6263   4.310   4.053  12.652  0.3488 -0.9012 -0.6058
  420TMC3    C3 6264   4.252   4.138  12.735 -0.9769  1.0710  0.4049
  420TMC3    C4 6265   4.454   3.992  12.829 -0.5853 -0.4966  0.1956
  420TMC3    C5 6266   4.401   4.096  12.900  0.0992 -0.6705  0.5940
  420TMC3    C6 6267   4.291   4.169  12.861 -0.1661  0.0731  0.6117
  420TMC3     C 6268   4.467   3.874  12.618 -0.2759  1.3803  0.2331
  420TMC3     O 6269   4.523   3.777  12.673  0.4117 -0.5441 -0.5913
  420TMC3     H 6270   4.261   4.032  12.558 -2.9856  0.5981  0.7933
  420TMC3    H1 6271   4.535   3.934  12.872 -0.9608 -1.1413  0.0249
  420TMC3    H2 6272   4.240   4.240  12.924 -0.3092  0.5850 -0.0803
  420TMC3    C7 6273   4.437   4.104  13.038  0.9569  0.1444 -0.4148
  420TMC3    C8 6274   4.153   4.233  12.684 -0.6200 -0.0991 -0.0113
  420TMC3    O1 6275   4.485   4.003  13.085 -0.2953 -0.0007  0.1162
  420TMC3    O2 6276   4.159   4.348  12.726  0.2714 -0.4103 -0.0207
  421TMC3    C1 6277   0.942   1.213  13.479  0.8058 -0.3853 -0.7524
  421TMC3    C2 6278   0.949   1.313  13.570  0.0477 -0.1457 -0.2721
  421TMC3    C3 6279   0.983   1.287  13.697  0.7560 -0.7754  0.3534
  421TMC3    C4 6280   0.972   1.087  13.519 -0.5915 -0.7706 -0.7543
  421TMC3    C5 6281   1.019   1.065  13.646 -0.0409 -0.2446 -0.6746
  421TMC3    C6 6282   1.013   1.163  13.742  0.6118  0.1501  0.4115
  421TMC3     C 6283   0.851   1.244  13.362 -0.8895  0.1845  0.0978
  421TMC3     O 6284   0.840   1.362  13.324  0.0386 -0.1151  0.1466
  421TMC3     H 6285   0.931   1.415  13.538  1.8305 -0.1800 -1.3623
  421TMC3    H1 6286   0.998   1.011  13.445  0.6400 -0.0257 -1.0694
  421TMC3    H2 6287   1.079   1.146  13.826  0.6536  0.3275  0.4138
  421TMC3    C7 6288   1.086   0.942  13.675 -0.5911  0.6881  0.0333
  421TMC3    C8 6289   1.055   1.389  13.768 -0.2108 -0.2765 -0.0935
  421TMC3    O1 6290   1.161   0.930  13.772  0.0893  0.2345 -0.0902
  421TMC3    O2 6291   1.119   1.480  13.712 -0.3880  0.5872 -0.4599
  422TMC3    C1 6292   3.815   1.980  12.695  0.6435  0.9938  0.0891
  422TMC3    C2 6293   3.776   2.068  12.596 -0.4054  0.5371  0.0116
  422TMC3    C3 6294   3.692   2.166  12.634 -0.3611 -0.2138  0.5608
  422TMC3    C4 6295   3.776   1.981  12.829 -0.3632  0.1170 -0.4579
  422TMC3    C5 6296   3.698   2.088  12.860  0.3073  0.3259  0.8669
  422TMC3    C6 6297   3.653   2.174  12.765 -0.5399 -0.7240 -0.2614
  422TMC3     C 6298   3.920   1.897  12.650  0.2427 -0.2204 -1.0329
  422TMC3     O 6299   3.922   1.862  12.533  0.0831 -0.3373 -0.4923
  422TMC3     H 6300   3.823   2.055  12.499  0.3844  0.0656  0.4619
  422TMC3    H1 6301   3.793   1.892  12.889 -1.4993  0.4660  0.3698
  422TMC3    H2 6302   3.600   2.262  12.800 -0.1863 -0.7247  0.2727
  422TMC3    C7 6303   3.612   2.060  12.969  1.0971  0.3845 -0.1351
  422TMC3    C8 6304   3.728   2.299  12.584 -0.4099  0.6769  0.4423
  422TMC3    O1 6305   3.657   2.027  13.080 -0.1722 -0.6303  0.4887
  422TMC3    O2 6306   3.711   2.394  12.656  0.7388 -0.7302 -0.0314
  423MPD2     C 6307   0.252   3.485   0.102 -0.3630  0.1379  0.5255
  423MPD2    C1 6308   0.189   3.376   0.155 -0.2031 -0.1939 -0.0365
  423MPD2    C2 6309   0.199   3.262   0.078  0.3633  0.7961  0.1496
  423MPD2    C3 6310   0.268   3.253  17.668 -0.2226  0.0822 -0.0155
  423MPD2    C4 6311   0.345   3.355  17.626 -0.2838 -0.0154 -0.7250
  423MPD2    C5 6312   0.339   3.473  17.701  0.3036  0.2181 -0.0168
  423MPD2     H 6313   0.132   3.182   0.108  0.6498  0.2415 -0.6706
  423MPD2    H1 6314   0.412   3.359  17.541  1.9176  0.6346  1.0458
  423MPD2    H2 6315   0.240   3.588   0.135  4.2799  0.6398  0.6258
  423MPD2    H3 6316   0.395   3.556  17.659  1.5085 -0.1188  0.9261
  423MPD2     N 6317   0.276   3.135  17.590  0.6709  0.5594  0.3320
  423MPD2    H5 6318   0.297   3.139  17.491 -1.7808 -0.4526 -0.2113
  423MPD2    N1 6319   0.099   3.379   0.260  0.1228  0.1511 -0.6455
  423MPD2    H7 6320   0.052   3.290   0.273  1.2222 -0.5213 -1.2281
  424TMC3    C1 6321   0.056   3.394   0.482 -0.0307  0.5156 -0.9175
  424TMC3    C2 6322   0.100   3.422   0.608  0.1525 -0.8232  0.5361
  424TMC3    C3 6323   0.032   3.363   0.713 -0.6767  0.9481 -0.1497
  424TMC3    C4 6324   4.654   3.344   0.464 -0.6065  0.5741  0.1764
  424TMC3    C5 6325   4.587   3.293   0.574  0.0412  0.2293  0.6604
  424TMC3    C6 6326   4.645   3.301   0.699 -0.0859  0.0148 -0.2354
  424TMC3     C 6327   0.123   3.460   0.364 -0.3503  0.2495 -0.5250
  424TMC3     O 6328   0.184   3.565   0.377  0.2062  0.1877 -0.2369
  424TMC3     H 6329   0.198   3.469   0.615 -0.9320  1.5861 -0.4896
  424TMC3    H1 6330   4.601   3.347   0.369 -1.1428 -2.5122  0.3759
  424TMC3    H2 6331   4.598   3.247   0.781  1.7146 -1.4995 -0.2175
  424TMC3    C7 6332   4.460   3.233   0.565 -0.9335  0.3401 -0.1894
  424TMC3    C8 6333   0.106   3.308   0.824  0.1763  0.5242 -0.8557
  424TMC3    O1 6334   4.426   3.191   0.455  0.5067  0.0886 -0.2870
  424TMC3    O2 6335   0.081   3.191   0.853  0.2720 -0.0224  0.1179
  425MPD2     C 6336   3.576   2.587  17.296 -0.1605  0.0604 -0.3784
  425MPD2    C1 6337   3.490   2.538  17.201 -0.4827 -0.4877  0.3426
  425MPD2    C2 6338   3.362   2.589  17.181  0.3977 -0.6375 -0.6943
  425MPD2    C3 6339   3.312   2.676  17.273  0.0934  0.1710  0.2820
  425MPD2    C4 6340   3.393   2.727  17.367  0.1289 -1.1055  0.7675
  425MPD2    C5 6341   3.520   2.680  17.383  0.0159  0.1191 -0.2087
  425MPD2     H 6342   3.299   2.532  17.114  0.7990 -0.1209 -1.5142
  425MPD2    H1 6343   3.358   2.792  17.446  3.5298  0.7061  0.7848
  425MPD2    H2 6344   3.679   2.556  17.310 -0.6706 -0.7441  1.6031
  425MPD2    H3 6345   3.576   2.711  17.470  0.6043  0.7938 -0.8232
  425MPD2     N 6346   3.171   2.691  17.273 -0.0841 -0.3270 -1.1766
  425MPD2    H5 6347   3.123   2.646  17.196 -1.6842  0.1146 -0.4402
  425MPD2    N1 6348   3.539   2.430  17.119 -0.0214  0.0985  0.1773
  425MPD2    H7 6349   3.622   2.389  17.160 -1.8562 -1.9274  1.8910
  426TMC3    C1 6350   3.536   2.263  16.978  0.1743 -1.0697 -0.1778
  426TMC3    C2 6351   3.551   2.242  16.845 -0.2028 -0.3390  0.0367
  426TMC3    C3 6352   3.635   2.135  16.810 -0.2362 -0.2482 -0.5599
  426TMC3    C4 6353   3.584   2.180  17.074  0.1882 -0.1428 -0.8545
  426TMC3    C5 6354   3.652   2.064  17.034 -0.5646  1.2939  0.0672
  426TMC3    C6 6355   3.683   2.044  16.895  0.7180  0.0234 -0.3572
  426TMC3     C 6356   3.474   2.378  17.014 -0.4590 -0.0646  0.5701
  426TMC3     O 6357   3.376   2.413  16.949 -0.0377  0.3927 -0.5318
  426TMC3     H 6358   3.498   2.304  16.773 -0.4196 -0.7498 -0.1570
  426TMC3    H1 6359   3.561   2.205  17.177 -0.5474 -0.0683 -1.0340
  426TMC3    H2 6360   3.730   1.955  16.855 -1.6109 -0.9583 -0.8790
  426TMC3    C7 6361   3.649   1.950  17.127 -0.3674  0.2839 -0.3116
  426TMC3    C8 6362   3.629   2.090  16.672  0.2544  0.5632  1.0246
  426TMC3    O1 6363   3.705   1.852  17.071 -0.4408 -0.7343  0.4610
  426TMC3    O2 6364   3.726   2.023  16.635  0.1180 -0.1921  0.3139
  427MPD2     C 6365   2.194   4.617  14.861  0.2507 -0.9022  0.3122
  427MPD2    C1 6366   2.163   4.480  14.871  0.2328 -0.1059  0.1717
  427MPD2    C2 6367   2.023   4.448  14.876  0.2548 -0.1821 -0.1988
  427MPD2    C3 6368   1.928   4.543  14.867  0.4185  0.3639 -0.0367
  427MPD2    C4 6369   1.962   4.675  14.873  0.7136  0.3604 -0.7481
  427MPD2    C5 6370   2.091   4.712  14.863  0.4324  0.0945 -0.6253
  427MPD2     H 6371   1.993   4.344  14.871 -2.9243  0.8104 -1.8239
  427MPD2    H1 6372   1.889   0.026  14.853  0.4776 -0.0737 -1.5621
  427MPD2    H2 6373   2.298   4.650  14.856  0.7674 -2.3671  1.3721
  427MPD2    H3 6374   2.125   0.087  14.854  0.2711  0.0795 -1.3585
  427MPD2     N 6375   1.790   4.507  14.859 -0.6792  0.0910  0.6131
  427MPD2    H5 6376   1.727   4.586  14.860 -0.0791  0.6297 -2.9459
  427MPD2    N1 6377   2.270   4.385  14.878 -0.0751  0.2208  0.3909
  427MPD2    H7 6378   2.362   4.423  14.898  0.7957 -1.3783 -0.5854
  428TMC3    C1 6379   2.368   4.178  14.937  0.3316  0.0218 -0.3920
  428TMC3    C2 6380   2.351   4.045  14.957 -0.1704 -0.7068 -0.0942
  428TMC3    C3 6381   2.462   3.982  15.011  0.7827  0.5831  0.0650
  428TMC3    C4 6382   2.484   4.249  14.961  0.4315  0.6682 -0.1801
  428TMC3    C5 6383   2.585   4.185  15.024  0.0388  0.5250 -0.2234
  428TMC3    C6 6384   2.569   4.054  15.053 -0.9279 -0.2312 -0.5482
  428TMC3     C 6385   2.252   4.253  14.887 -0.2001 -0.5001 -1.0526
  428TMC3     O 6386   2.153   4.189  14.855  0.0982  0.1281  0.5201
  428TMC3     H 6387   2.270   3.984  14.920 -1.1858  1.0372 -0.7572
  428TMC3    H1 6388   2.489   4.357  14.956  1.0059  0.6584  0.1992
  428TMC3    H2 6389   2.647   4.000  15.105 -0.1299  2.0636  0.6541
  428TMC3    C7 6390   2.702   4.246  15.076  0.4896 -0.2307  0.4760
  428TMC3    C8 6391   2.461   3.835  15.033 -0.1136  0.5482  0.3697
  428TMC3    O1 6392   2.741   4.202  15.186  0.0488 -0.0659  0.1338
  428TMC3    O2 6393   2.571   3.781  15.043 -0.0213 -0.1136 -0.2984
  429MPD2     C 6394   3.735   0.351  17.590  0.3714 -0.4307  0.0282
  429MPD2    C1 6395   3.678   0.317  17.477 -0.0853 -0.6188 -0.0878
  429MPD2    C2 6396   3.721   0.378  17.356 -0.0486 -0.1179  0.7242
  429MPD2    C3 6397   3.820   0.475  17.360 -0.1320  0.3216 -0.6274
  429MPD2    C4 6398   3.876   0.509  17.479  0.8238  0.2658 -0.5175
  429MPD2    C5 6399   3.829   0.454  17.598 -0.5016 -1.1217  0.2499
  429MPD2     H 6400   3.676   0.346  17.263 -2.1927 -1.0741  2.1074
  429MPD2    H1 6401   3.951   0.587  17.488  2.4478 -1.0954 -2.0937
  429MPD2    H2 6402   3.699   0.310  17.684  1.5719 -0.8240  0.3152
  429MPD2    H3 6403   3.868   0.482  17.696 -0.9319  1.2852 -0.2553
  429MPD2     N 6404   3.874   0.527  17.241 -0.1583  0.2121  0.2021
  429MPD2    H5 6405   3.964   0.574  17.249  0.0897 -0.2766  0.3281
  429MPD2    N1 6406   3.581   0.213  17.477 -0.2175 -0.4779  0.5121
  429MPD2    H7 6407   3.535   0.188  17.390  0.5815  0.3167 -0.1425
  430TMC3    C1 6408   3.905   0.564  17.009  0.8111 -0.3161 -0.2309
  430TMC3    C2 6409   3.864   0.666  16.928 -0.2927  0.7698  0.5436
  430TMC3    C3 6410   3.886   0.654  16.796 -0.2555  0.1335 -0.0307
  430TMC3    C4 6411   3.970   0.458  16.954  0.0489  0.9027  0.1262
  430TMC3    C5 6412   3.986   0.445  16.824  0.1213 -0.0795  0.2984
  430TMC3    C6 6413   3.941   0.540  16.737  1.1957 -0.3634  0.3621
  430TMC3     C 6414   3.812   0.530  17.120  0.1148 -0.2914  0.3725
  430TMC3     O 6415   3.695   0.526  17.093 -0.4243  0.5330 -0.0801
  430TMC3     H 6416   3.805   0.744  16.973  1.9785  2.2705  0.8649
  430TMC3    H1 6417   4.015   0.381  17.016 -0.0088  0.2401 -0.6498
  430TMC3    H2 6418   3.948   0.532  16.629  0.0118  0.7404  0.2021
  430TMC3    C7 6419   3.984   0.308  16.779  0.1300  0.6717 -0.0246
  430TMC3    C8 6420   3.804   0.739  16.702  0.5921 -0.5176  0.1853
  430TMC3    O1 6421   3.942   0.216  16.849 -0.3523 -0.1035 -0.0137
  430TMC3    O2 6422   3.794   0.693  16.591 -0.0468 -0.7676  0.4692
  431MPD2     C 6423   4.234   4.526  12.076  0.0685  0.5553  0.2236
  431MPD2    C1 6424   4.332   4.507  11.985  0.1812  0.3827  0.7847
  431MPD2    C2 6425   4.329   4.414  11.887 -0.3065 -0.3854  0.5895
  431MPD2    C3 6426   4.239   4.319  11.889  0.2538  0.3517 -0.0433
  431MPD2    C4 6427   4.127   4.339  11.971  0.0408  0.3077 -0.1933
  431MPD2    C5 6428   4.124   4.441  12.065 -0.6739  0.3487  0.1271
  431MPD2     H 6429   4.420   4.403  11.829 -1.6504 -0.6422 -1.4868
  431MPD2    H1 6430   4.047   4.267  11.981  0.5088 -0.0433  0.9255
  431MPD2    H2 6431   4.238   4.598  12.158 -0.4919  0.3247  0.4572
  431MPD2    H3 6432   4.037   4.441  12.129 -0.4193 -2.7258  0.4701
  431MPD2     N 6433   4.247   4.203  11.810 -0.1706 -0.0065 -0.9116
  431MPD2    H5 6434   4.169   4.138  11.821  1.0528 -1.3129  0.1116
  431MPD2    N1 6435   4.449   4.588  11.980  0.0334  0.2259  0.2948
  431MPD2    H7 6436   4.497   4.584  11.891 -0.1767  3.3670  0.0458
  432TMC3    C1 6437   4.350   4.022  11.700  0.2680 -0.3129  0.2327
  432TMC3    C2 6438   4.400   3.984  11.584 -0.7186 -0.8649  0.7893
  432TMC3    C3 6439   4.440   3.853  11.572 -0.1195  0.3581  0.2425
  432TMC3    C4 6440   4.343   3.940  11.810  0.5849  0.0441  0.2090
  432TMC3    C5 6441   4.398   3.812  11.796  0.0203 -0.3506 -0.1087
  432TMC3    C6 6442   4.430   3.759  11.671  0.3436  0.7604 -0.7196
  432TMC3     C 6443   4.355   4.164  11.728  0.2841 -0.9834  0.3583
  432TMC3     O 6444   4.447   4.226  11.683  0.6304  0.0978 -0.7517
  432TMC3     H 6445   4.405   4.055  11.502 -2.3030 -0.8083  0.7471
  432TMC3    H1 6446   4.327   3.978  11.910  0.1592  1.0230 -0.2376
  432TMC3    H2 6447   4.457   3.656  11.653  0.0649  0.3504  1.2354
  432TMC3    C7 6448   4.439   3.723  11.902  0.2622  1.2010 -0.2612
  432TMC3    C8 6449   4.493   3.801  11.447  0.0212  0.1850  0.7593
  432TMC3    O1 6450   4.454   3.605  11.872 -0.1671  0.1195 -0.0856
  432TMC3    O2 6451   4.476   3.687  11.416  0.3092  0.0510 -0.4408
  433MPD2     C 6452   3.698   3.375  10.622 -0.5125  0.5428  0.6819
  433MPD2    C1 6453   3.712   3.249  10.679  0.6135  0.7533  0.0140
  433MPD2    C2 6454   3.789   3.231  10.792  0.1146 -0.6697  0.7575
  433MPD2    C3 6455   3.824   3.350  10.864 -0.0972 -0.4647  0.0865
  433MPD2    C4 6456   3.804   3.473  10.814 -0.4058 -0.4019 -0.4411
  433MPD2    C5 6457   3.739   3.483  10.694  0.2011  0.4484 -0.0654
  433MPD2     H 6458   3.815   3.131  10.823  2.6413 -0.8216 -1.8757
  433MPD2    H1 6459   3.830   3.569  10.858 -2.7933 -0.9686  2.2009
  433MPD2    H2 6460   3.641   3.388  10.530 -1.1148 -2.2059  0.6484
  433MPD2    H3 6461   3.711   3.574  10.643  0.1210  0.7366  0.4899
  433MPD2     N 6462   3.879   3.333  10.991  0.0565  0.2688  0.5378
  433MPD2    H5 6463   3.875   3.239  11.031  1.0421 -0.6185 -1.5023
  433MPD2    N1 6464   3.667   3.131  10.611 -0.3888  0.0105 -0.0383
  433MPD2    H7 6465   3.618   3.147  10.523 -0.3783 -1.7916 -0.3723
  434TMC3    C1 6466   3.641   2.905  10.546 -0.4296 -0.5212 -0.5547
  434TMC3    C2 6467   3.665   2.778  10.594  0.1889 -0.2765  0.0501
  434TMC3    C3 6468   3.727   2.682  10.522 -0.2517 -0.0232 -0.1946
  434TMC3    C4 6469   3.684   2.938  10.416 -0.0497 -0.4088  0.1426
  434TMC3    C5 6470   3.738   2.834  10.342  0.0164 -0.1150  0.0569
  434TMC3    C6 6471   3.774   2.711  10.394  1.3065  0.0060  0.1517
  434TMC3     C 6472   3.663   3.000  10.656 -0.2195 -0.1163  0.3512
  434TMC3     O 6473   3.664   2.962  10.773 -0.2309  0.5707 -0.1103
  434TMC3     H 6474   3.639   2.750  10.696 -0.0819 -2.3457 -0.5890
  434TMC3    H1 6475   3.676   3.039  10.378 -0.9825 -0.0941  1.1606
  434TMC3    H2 6476   3.855   2.657  10.346 -0.8280  0.2612 -3.7116
  434TMC3    C7 6477   3.717   2.832  10.202 -0.1975  0.6772 -0.3076
  434TMC3    C8 6478   3.809   2.594  10.606 -0.6049 -0.2208 -0.3838
  434TMC3    O1 6479   3.722   2.942  10.146  0.3463  0.1535  0.0454
  434TMC3    O2 6480   3.784   2.577  10.727  0.0923  0.5346 -0.1909
  435MPD2     C 6481   0.290   3.471  15.255 -0.8521 -0.0644 -0.6884
  435MPD2    C1 6482   0.267   3.430  15.387 -0.0896  0.0070 -0.0667
  435MPD2    C2 6483   0.353   3.335  15.446  0.7490 -1.3065  0.3239
  435MPD2    C3 6484   0.441   3.265  15.362 -0.8629 -0.0286 -0.3047
  435MPD2    C4 6485   0.444   3.296  15.229  0.4416 -0.6807  0.0822
  435MPD2    C5 6486   0.372   3.396  15.175 -0.3897 -0.5258  0.7469
  435MPD2     H 6487   0.348   3.304  15.550  0.9624 -0.8676  0.4644
  435MPD2    H1 6488   0.506   3.248  15.154 -0.1012  0.3897 -1.0451
  435MPD2    H2 6489   0.245   3.553  15.201 -1.6479  0.1211  0.2567
  435MPD2    H3 6490   0.392   3.427  15.073 -1.3423  0.6588  0.9269
  435MPD2     N 6491   0.520   3.159  15.413  0.5089 -0.3806  0.2994
  435MPD2    H5 6492   0.506   3.144  15.513 -1.8330 -0.2652 -0.0079
  435MPD2    N1 6493   0.168   3.479  15.473  0.0206 -0.9472 -0.3728
  435MPD2    H7 6494   0.169   3.442  15.567 -0.0007  0.7869  0.3082
  436TMC3    C1 6495   4.646   3.546  15.761 -0.1553  0.3023 -0.8625
  436TMC3    C2 6496   0.013   3.579  15.666  0.7464  0.2167  0.4994
  436TMC3    C3 6497   4.700   3.577  15.534 -0.2015 -0.2544 -0.4701
  436TMC3    C4 6498   4.514   3.531  15.731 -0.2306 -0.5134 -0.2883
  436TMC3    C5 6499   4.473   3.536  15.597 -0.6623 -0.5072 -0.1456
  436TMC3    C6 6500   4.567   3.552  15.499  0.6522 -0.5714 -0.7327
  436TMC3     C 6501   4.691   3.576  15.896  0.1854  0.2863  0.4772
  436TMC3     O 6502   0.080   3.562  15.931  0.2397 -0.2733 -0.0447
  436TMC3     H 6503   0.118   3.591  15.693  0.4806  0.1557  1.5626
  436TMC3    H1 6504   4.444   3.513  15.812  2.1918 -0.1228  1.8860
  436TMC3    H2 6505   4.546   3.526  15.396  1.7694 -0.2635 -1.0477
  436TMC3    C7 6506   4.359   3.454  15.560 -0.6477 -0.5280  0.5786
  436TMC3    C8 6507   0.071   3.554  15.432 -0.7255  0.1780 -0.3516
  436TMC3    O1 6508   4.376   3.380  15.465 -0.1299 -0.1290 -0.0184
  436TMC3    O2 6509   0.041   3.593  15.321  0.8179 -0.5287  0.1470
  437TMC3    C1 6510   4.177   0.785  11.784 -0.2852  0.2410  0.0214
  437TMC3    C2 6511   4.147   0.883  11.693  0.2134 -0.2566 -0.5225
  437TMC3    C3 6512   4.222   0.889  11.581 -0.5446  0.4661 -0.0068
  437TMC3    C4 6513   4.263   0.684  11.762 -0.0558  0.6970 -0.4864
  437TMC3    C5 6514   4.339   0.691  11.648  0.7504 -0.0724 -0.0102
  437TMC3    C6 6515   4.325   0.800  11.559 -0.9924  0.0995 -0.6702
  437TMC3     C 6516   4.110   0.802  11.913  0.0791  0.3887  0.0394
  437TMC3     O 6517   4.071   0.913  11.930  0.4690 -0.4911  0.0612
  437TMC3     H 6518   4.073   0.958  11.718 -0.6182 -0.5001 -2.3247
  437TMC3    H1 6519   4.273   0.605  11.836  0.8330  1.3001  0.0367
  437TMC3    H2 6520   4.372   0.793  11.462  0.0433 -2.3094 -0.0034
  437TMC3    C7 6521   4.455   0.612  11.628  0.1412  0.0841  0.0070
  437TMC3    C8 6522   4.251   1.022  11.537  0.2786  0.0884  0.0556
  437TMC3    O1 6523   4.489   0.578  11.515  0.1921  0.2923  0.6685
  437TMC3    O2 6524   4.158   1.098  11.549  0.2990 -0.5873  0.2355
  438MPD2     C 6525   1.534   1.225  16.565 -0.8059 -0.4049  0.0797
  438MPD2    C1 6526   1.579   1.097  16.567  0.2712  1.2000  0.1967
  438MPD2    C2 6527   1.553   1.027  16.676  0.0215  0.0717 -0.5742
  438MPD2    C3 6528   1.496   1.075  16.794  0.6165  0.4972 -0.5398
  438MPD2    C4 6529   1.445   1.203  16.790 -0.0986 -0.3725 -0.4849
  438MPD2    C5 6530   1.466   1.274  16.675 -0.6394  0.1613  0.1794
  438MPD2     H 6531   1.578   0.922  16.665  2.0463  0.4762  0.1526
  438MPD2    H1 6532   1.388   1.234  16.877  0.3243  0.5011 -0.5270
  438MPD2    H2 6533   1.551   1.294  16.484  1.0048 -1.2151 -0.2359
  438MPD2    H3 6534   1.417   1.371  16.671 -1.3117 -0.2138 -0.5871
  438MPD2     N 6535   1.478   0.994  16.911 -0.1184  0.0445  0.2095
  438MPD2    H5 6536   1.409   1.028  16.977  0.6145  0.6565  0.6573
  438MPD2    N1 6537   1.646   1.034  16.461 -0.0931  0.2168 -0.2092
  438MPD2    H7 6538   1.680   0.939  16.472 -1.8356 -0.1968  1.6537
  439TMC3    C1 6539   1.773   1.015  16.262  0.1302  0.2554 -0.3350
  439TMC3    C2 6540   1.763   1.011  16.125  0.0079 -0.3621 -0.3019
  439TMC3    C3 6541   1.840   0.910  16.066 -0.0898 -0.2259  0.3440
  439TMC3    C4 6542   1.853   0.923  16.328 -0.3188 -0.1898 -0.5140
  439TMC3    C5 6543   1.929   0.831  16.263 -0.2924 -0.1349  0.0833
  439TMC3    C6 6544   1.921   0.816  16.129 -0.0398 -0.7046 -0.0746
  439TMC3     C 6545   1.680   1.093  16.341 -0.9150  0.1304 -0.5041
  439TMC3     O 6546   1.648   1.193  16.279 -0.2056 -0.1707 -0.0357
  439TMC3     H 6547   1.691   1.078  16.079  0.3765  1.5407  1.9047
  439TMC3    H1 6548   1.864   0.927  16.435  1.7975 -1.0728 -0.7063
  439TMC3    H2 6549   2.003   0.767  16.078  0.4194  1.4139 -1.3682
  439TMC3    C7 6550   2.040   0.766  16.338 -0.5500 -0.3043  0.3986
  439TMC3    C8 6551   1.844   0.896  15.922 -0.1106 -0.2515  0.0901
  439TMC3    O1 6552   2.111   0.839  16.409 -0.3139 -0.5010 -0.6261
  439TMC3    O2 6553   1.893   0.797  15.873 -0.0186  0.0831 -0.0996
  440MPD2     C 6554   0.336   1.345  14.515  0.2765 -0.9019 -0.3045
  440MPD2    C1 6555   0.327   1.332  14.655  0.1355  0.0336  0.0040
  440MPD2    C2 6556   0.425   1.253  14.717  0.2616  0.0725 -0.1604
  440MPD2    C3 6557   0.529   1.197  14.649 -0.6375  0.3539  0.2974
  440MPD2    C4 6558   0.533   1.205  14.511 -0.1054  0.5033  0.2814
  440MPD2    C5 6559   0.435   1.273  14.438  0.0159 -0.3963 -0.5350
  440MPD2     H 6560   0.416   1.253  14.825  1.8805  0.3247 -0.0373
  440MPD2    H1 6561   0.602   1.149  14.449 -2.6013 -1.0979 -1.0537
  440MPD2    H2 6562   0.258   1.402  14.467  1.7978  0.9383 -0.5707
  440MPD2    H3 6563   0.431   1.278  14.330  1.0902 -2.0510 -0.6467
  440MPD2     N 6564   0.629   1.119  14.706  0.4215 -0.1394  0.1401
  440MPD2    H5 6565   0.708   1.095  14.647  0.7246 -1.8625  1.2387
  440MPD2    N1 6566   0.227   1.385  14.735 -0.6085 -0.3015 -0.5489
  440MPD2    H7 6567   0.213   1.358  14.832  3.2361  0.2767  0.1702
  441TMC3    C1 6568   0.738   1.004  14.877 -0.6762  0.3726  0.1324
  441TMC3    C2 6569   0.830   1.109  14.878 -0.0161  0.6420  0.2357
  441TMC3    C3 6570   0.909   1.135  14.985 -0.8798 -0.7601 -0.6362
  441TMC3    C4 6571   0.714   0.944  15.001  0.1235 -0.0448 -0.0349
  441TMC3    C5 6572   0.800   0.972  15.101  0.8843 -0.0564  0.3558
  441TMC3    C6 6573   0.898   1.066  15.102 -0.2494  0.3155 -0.7969
  441TMC3     C 6574   0.612   1.046  14.817  0.0209  0.0690 -0.4333
  441TMC3     O 6575   0.509   1.035  14.888 -0.8000  0.1489 -0.1198
  441TMC3     H 6576   0.851   1.176  14.796  1.7992 -1.8714 -1.3565
  441TMC3    H1 6577   0.630   0.876  15.007  0.7843 -0.8014  0.6547
  441TMC3    H2 6578   0.942   1.110  15.190 -0.0410 -0.0922 -0.6976
  441TMC3    C7 6579   0.731   0.955  15.231  0.3855 -0.0127 -0.0598
  441TMC3    C8 6580   0.926   1.279  15.001  0.0353 -0.0136  0.3052
  441TMC3    O1 6581   0.608   0.970  15.233 -0.1772  0.8346  0.8197
  441TMC3    O2 6582   1.039   1.324  15.007  0.0080  0.3260  0.4037
  442MPD2     C 6583   3.262   2.327  16.277  0.2321 -0.5545  0.1118
  442MPD2    C1 6584   3.180   2.227  16.327 -0.2446  0.4153  0.2403
  442MPD2    C2 6585   3.136   2.130  16.238 -1.1762 -0.4782 -0.1743
  442MPD2    C3 6586   3.167   2.132  16.101 -0.2006  0.2949 -0.0470
  442MPD2    C4 6587   3.245   2.242  16.058  0.2876  0.4185 -0.3054
  442MPD2    C5 6588   3.297   2.329  16.145  0.1453 -0.7478  0.3425
  442MPD2     H 6589   3.069   2.054  16.274 -0.2857 -1.0314  0.3189
  442MPD2    H1 6590   3.278   2.258  15.956 -0.4065 -0.4956 -0.6748
  442MPD2    H2 6591   3.306   2.400  16.343  0.4260  0.4108 -1.0767
  442MPD2    H3 6592   3.377   2.394  16.111 -1.3568  0.4366 -0.8909
  442MPD2     N 6593   3.124   2.034  16.009  0.1395  0.4743  0.4187
  442MPD2    H5 6594   3.143   2.056  15.911  1.5977  3.5975  1.4226
  442MPD2    N1 6595   3.134   2.213  16.459  0.1976  0.3875  0.2570
  442MPD2    H7 6596   3.077   2.132  16.478  0.4166  0.2016  0.1163
  443TMC3    C1 6597   3.085   2.269  16.690 -0.5001  0.9213  0.2737
  443TMC3    C2 6598   3.004   2.374  16.718  0.1647  0.5390  0.3536
  443TMC3    C3 6599   2.871   2.357  16.739 -0.1773  0.4857  0.5844
  443TMC3    C4 6600   3.035   2.143  16.712 -0.2364 -0.3615  0.2650
  443TMC3    C5 6601   2.911   2.132  16.765  0.4409  0.1930  0.2396
  443TMC3    C6 6602   2.823   2.237  16.768 -0.2480 -0.4582  0.1369
  443TMC3     C 6603   3.156   2.300  16.566 -0.0869 -0.3631  0.3633
  443TMC3     O 6604   3.222   2.403  16.570  0.2934 -0.3152  0.1420
  443TMC3     H 6605   3.040   2.468  16.676 -0.4967  1.7812  2.5386
  443TMC3    H1 6606   3.098   2.055  16.711 -0.3456 -0.4035 -2.0248
  443TMC3    H2 6607   2.719   2.216  16.788 -0.4880  0.5971 -0.0074
  443TMC3    C7 6608   2.859   2.005  16.808  0.4945  0.5060  0.0928
  443TMC3    C8 6609   2.803   2.426  16.622 -0.4819  0.0693  0.3102
  443TMC3    O1 6610   2.925   1.903  16.783  0.0831 -0.2089  0.1787
  443TMC3    O2 6611   2.783   2.546  16.622 -0.0483  0.3177 -0.0798
  444MPD2     C 6612   3.456   1.716  16.741  0.0248 -0.3492  0.0964
  444MPD2    C1 6613   3.351   1.642  16.693 -0.0465  0.7939 -0.4823
  444MPD2    C2 6614   3.384   1.543  16.599 -0.0451  0.1355  0.2362
  444MPD2    C3 6615   3.520   1.508  16.577 -0.2476 -0.1190 -0.3015
  444MPD2    C4 6616   3.624   1.587  16.625 -0.2974 -0.0560 -0.3706
  444MPD2    C5 6617   3.590   1.694  16.703  0.1899  0.5628 -0.2819
  444MPD2     H 6618   3.307   1.483  16.553 -0.0002 -0.0071  0.3501
  444MPD2    H1 6619   3.729   1.561  16.620 -1.1127 -3.2316 -0.7947
  444MPD2    H2 6620   3.439   1.794  16.814  0.4369  0.8078 -1.0504
  444MPD2    H3 6621   3.661   1.759  16.753 -0.9679  3.0960 -1.9306
  444MPD2     N 6622   3.551   1.390  16.501 -0.5450  0.2967  0.0645
  444MPD2    H5 6623   3.475   1.354  16.443  0.1152  3.5302 -2.8466
  444MPD2    N1 6624   3.223   1.647  16.744 -0.1787 -0.3573 -0.1017
  444MPD2    H7 6625   3.157   1.582  16.704 -1.0197  0.8494 -0.6583
  445TMC3    C1 6626   3.673   1.204  16.406  0.7247 -0.2909  0.0011
  445TMC3    C2 6627   3.568   1.186  16.316 -0.7320  0.1526  0.3010
  445TMC3    C3 6628   3.552   1.061  16.262 -0.7965 -1.2160 -0.1180
  445TMC3    C4 6629   3.773   1.111  16.423  0.3507 -0.4967 -0.3600
  445TMC3    C5 6630   3.759   0.987  16.367  0.2575  0.1892 -0.0270
  445TMC3    C6 6631   3.648   0.962  16.285 -0.1517  0.2205 -0.5552
  445TMC3     C 6632   3.674   1.319  16.495  0.0861  1.1307 -0.2769
  445TMC3     O 6633   3.777   1.343  16.555  0.7106 -0.2060  0.1447
  445TMC3     H 6634   3.498   1.264  16.289 -0.9172 -0.5750 -1.3108
  445TMC3    H1 6635   3.859   1.134  16.484  0.8648 -2.2560 -0.4336
  445TMC3    H2 6636   3.633   0.867  16.234 -0.9577 -0.0274  0.1480
  445TMC3    C7 6637   3.883   0.911  16.352 -0.1826 -0.3550 -0.5291
  445TMC3    C8 6638   3.425   1.040  16.188  0.1521  0.3238 -0.0810
  445TMC3    O1 6639   3.991   0.959  16.381 -0.3778  0.1114  0.0374
  445TMC3    O2 6640   3.346   1.131  16.195 -0.0779 -0.3593 -0.1883
  446MPD2     C 6641   3.432   2.523  11.195 -0.5592  0.9250  0.2827
  446MPD2    C1 6642   3.448   2.515  11.054 -0.2390  0.4731  0.2804
  446MPD2    C2 6643   3.561   2.572  10.996  0.1054 -0.3869 -0.9964
  446MPD2    C3 6644   3.661   2.633  11.070 -0.1394 -0.0733  0.1917
  446MPD2    C4 6645   3.648   2.635  11.207 -0.7966 -0.1489 -0.2688
  446MPD2    C5 6646   3.537   2.583  11.267  0.6172 -0.3298  0.6010
  446MPD2     H 6647   3.576   2.565  10.889 -1.7156  0.1190 -1.2857
  446MPD2    H1 6648   3.720   2.682  11.274 -1.6898 -0.8457  1.1852
  446MPD2    H2 6649   3.347   2.490  11.254 -0.4506  0.7560  0.3460
  446MPD2    H3 6650   3.525   2.590  11.375 -0.0039 -4.5168  0.7875
  446MPD2     N 6651   3.768   2.700  10.999  0.0990 -0.2788  0.2654
  446MPD2    H5 6652   3.769   2.703  10.898 -1.4562  1.8332  0.3183
  446MPD2    N1 6653   3.356   2.459  10.963  0.0580 -0.2570  0.0012
  446MPD2    H7 6654   3.376   2.465  10.863 -1.9787 -1.9128 -0.4932
  447TMC3    C1 6655   3.994   2.788  10.992 -0.0533  0.3960  0.0872
  447TMC3    C2 6656   3.984   2.840  10.866 -0.0017  0.4722  0.4041
  447TMC3    C3 6657   4.097   2.836  10.785  0.3416  0.0130  0.3493
  447TMC3    C4 6658   4.120   2.770  11.047 -0.2133 -0.3152 -0.6212
  447TMC3    C5 6659   4.225   2.780  10.962 -0.5374  0.3119 -0.4469
  447TMC3    C6 6660   4.221   2.800  10.825 -0.5672 -0.2851 -0.1200
  447TMC3     C 6661   3.886   2.728  11.065  0.4672 -0.8591  0.3267
  447TMC3     O 6662   3.923   2.660  11.162  0.1379  0.7948  0.2475
  447TMC3     H 6663   3.887   2.861  10.821 -0.2006 -3.0894 -0.8058
  447TMC3    H1 6664   4.128   2.756  11.154 -1.9486  0.1796 -0.4273
  447TMC3    H2 6665   4.309   2.829  10.768 -0.4018  0.7293  0.6578
  447TMC3    C7 6666   4.356   2.735  11.009  0.2566 -0.7269  0.1114
  447TMC3    C8 6667   4.078   2.854  10.642 -0.0031 -0.2822 -0.6386
  447TMC3    O1 6668   4.449   2.717  10.922  0.3917 -0.3175  0.0028
  447TMC3    O2 6669   3.976   2.899  10.591  0.1428 -0.0258 -0.1330
  448TMC3    C1 6670   1.200   2.479  16.950 -0.7224 -0.8891 -0.1099
  448TMC3    C2 6671   1.219   2.428  16.825 -0.1730  0.0027  0.5972
  448TMC3    C3 6672   1.330   2.347  16.800 -0.1861  0.0119 -0.8545
  448TMC3    C4 6673   1.291   2.464  17.052  0.6253 -0.2454  0.5544
  448TMC3    C5 6674   1.400   2.390  17.022  0.0601  0.9064 -0.0661
  448TMC3    C6 6675   1.422   2.328  16.896 -0.1794 -0.2878 -0.0619
  448TMC3     C 6676   1.119   2.592  16.953  0.0468 -0.0889  0.1598
  448TMC3     O 6677   1.097   2.662  16.854 -0.4057  0.0640  0.1660
  448TMC3     H 6678   1.141   2.426  16.749  1.7978  0.3955 -1.4250
  448TMC3    H1 6679   1.286   2.514  17.148  1.8268 -1.3626  1.2062
  448TMC3    H2 6680   1.511   2.269  16.878  0.0663  0.6191 -1.8093
  448TMC3    C7 6681   1.516   2.400  17.108 -0.3553  0.4155  0.0092
  448TMC3    C8 6682   1.309   2.227  16.722 -0.5550  0.0455 -0.2189
  448TMC3    O1 6683   1.617   2.358  17.053 -0.0629 -0.5201  0.2718
  448TMC3    O2 6684   1.352   2.132  16.774 -0.0772  0.0984  0.2131
  449MPD2     C 6685   2.805   1.344  13.840  0.3725  0.5011 -0.1224
  449MPD2    C1 6686   2.904   1.258  13.871 -0.1646 -0.1199 -0.5137
  449MPD2    C2 6687   2.988   1.290  13.974  0.5032  0.1700  0.0369
  449MPD2    C3 6688   2.970   1.403  14.048  0.6508  0.3451  0.0693
  449MPD2    C4 6689   2.867   1.491  14.017  0.6972 -0.5060  0.4135
  449MPD2    C5 6690   2.787   1.459  13.914 -0.6815 -0.1146  0.5763
  449MPD2     H 6691   3.066   1.222  14.006 -0.5372 -0.1925  1.7675
  449MPD2    H1 6692   2.861   1.587  14.066 -2.5113 -0.3729 -0.2697
  449MPD2    H2 6693   2.739   1.321  13.757 -0.6046  0.8500  0.5588
  449MPD2    H3 6694   2.708   1.525  13.879  0.1027  1.0059  0.9124
  449MPD2     N 6695   3.078   1.427  14.137  0.4801  1.1380  0.1935
  449MPD2    H5 6696   3.166   1.380  14.117 -0.6572 -1.6896  1.7892
  449MPD2    N1 6697   2.935   1.146  13.799 -0.4830 -0.7749  0.4768
  449MPD2    H7 6698   3.014   1.092  13.832 -1.1319 -1.3986  1.0195
  450TMC3    C1 6699   2.943   0.984  13.630 -0.5096  0.1536  0.2183
  450TMC3    C2 6700   2.999   1.011  13.502  0.3062 -0.6146 -0.0164
  450TMC3    C3 6701   3.130   0.973  13.489  0.0140  0.1098 -0.4280
  450TMC3    C4 6702   3.021   0.920  13.730 -0.1231 -0.2077  0.2732
  450TMC3    C5 6703   3.152   0.892  13.704  0.0506  1.0344  0.3341
  450TMC3    C6 6704   3.211   0.922  13.588 -0.7136  0.4715  0.6584
  450TMC3     C 6705   2.870   1.099  13.687 -0.1323  0.8359  0.2244
  450TMC3     O 6706   2.787   1.150  13.617  0.2133 -0.5479  0.4531
  450TMC3     H 6707   2.946   1.054  13.418  1.7168  0.0312 -0.5788
  450TMC3    H1 6708   2.982   0.896  13.828 -1.0665 -0.5204 -0.1793
  450TMC3    H2 6709   3.308   0.885  13.557  0.3851  1.3739  2.9869
  450TMC3    C7 6710   3.231   0.932  13.816  0.1173 -0.3460  0.3366
  450TMC3    C8 6711   3.186   1.000  13.361  0.5526  0.0745 -0.4592
  450TMC3    O1 6712   3.170   0.999  13.898 -0.2635 -0.4937 -0.1827
  450TMC3    O2 6713   3.121   1.076  13.290 -0.2452  0.2269  1.1648
  451MPD2     C 6714   4.479   0.069   0.909  0.5361  0.0424  0.1123
  451MPD2    C1 6715   4.410   0.017   1.018 -0.0270 -0.0102  0.9089
  451MPD2    C2 6716   4.395   4.609   1.011 -0.2497  0.1875 -0.3405
  451MPD2    C3 6717   4.449   4.527   0.908  0.5238  0.9665  0.6599
  451MPD2    C4 6718   4.524   4.585   0.811 -0.1731  0.3932  0.3532
  451MPD2    C5 6719   4.535   4.725   0.805 -0.0054  0.2316 -0.9938
  451MPD2     H 6720   4.355   4.564   1.101 -3.4929 -1.1156 -2.4055
  451MPD2    H1 6721   4.567   4.528   0.729 -2.6627 -0.5056 -0.3263
  451MPD2    H2 6722   4.496   0.176   0.902 -0.4898  0.2955  1.5171
  451MPD2    H3 6723   4.568   0.039   0.711  1.0922 -0.7625 -1.0401
  451MPD2     N 6724   4.433   4.387   0.906  0.5116 -1.2985  0.2873
  451MPD2    H5 6725   4.483   4.336   0.834  0.8700  0.9468 -1.0863
  451MPD2    N1 6726   4.365   0.104   1.124  0.1852 -0.1692 -0.1560
  451MPD2    H7 6727   4.391   0.201   1.115  1.2112 -0.5582 -1.3827
  452TMC3    C1 6728   4.415   4.173   0.996  1.3502 -1.1136  0.5515
  452TMC3    C2 6729   4.420   4.087   1.102  0.4045  0.4871 -0.0564
  452TMC3    C3 6730   4.425   3.954   1.090 -0.0483  0.0764 -0.2425
  452TMC3    C4 6731   4.387   4.122   0.875 -0.4668  0.0148  0.1670
  452TMC3    C5 6732   4.384   3.983   0.861 -1.5984 -0.2294  0.4385
  452TMC3    C6 6733   4.417   3.895   0.964 -0.1132  0.3587  0.4121
  452TMC3     C 6734   4.383   4.316   1.013 -0.1370  0.1373 -0.0379
  452TMC3     O 6735   4.352   4.347   1.130 -0.1301 -0.1169  0.2735
  452TMC3     H 6736   4.430   4.127   1.203  0.4128 -1.5404  0.7510
  452TMC3    H1 6737   4.378   4.189   0.790  0.3860 -2.2592 -1.7101
  452TMC3    H2 6738   4.445   3.794   0.939 -0.5540  0.5337 -0.7928
  452TMC3    C7 6739   4.379   3.940   0.724  0.0214 -0.4973  0.5889
  452TMC3    C8 6740   4.495   3.874   1.191  0.4543  0.0989 -0.4386
  452TMC3    O1 6741   4.393   4.028   0.640 -0.1435 -0.2737  0.9204
  452TMC3    O2 6742   4.457   3.759   1.216  0.0567 -0.5447  0.0803
  453TMC3    C1 6743   1.002   1.625  11.472  0.8950  0.3567  0.5561
  453TMC3    C2 6744   0.899   1.545  11.516 -0.0509 -0.4511 -0.6411
  453TMC3    C3 6745   0.773   1.582  11.483  0.6029  0.2964  0.4219
  453TMC3    C4 6746   0.971   1.743  11.414 -0.3405  0.0458  0.3751
  453TMC3    C5 6747   0.845   1.780  11.386  0.3662  0.7160 -0.1735
  453TMC3    C6 6748   0.739   1.703  11.425 -0.0775 -0.0578 -0.1586
  453TMC3     C 6749   1.138   1.602  11.518  0.4224 -0.2667  0.0506
  453TMC3     O 6750   1.223   1.675  11.471  0.2163 -0.3693  0.2859
  453TMC3     H 6751   0.907   1.449  11.566 -0.1910  0.3292  0.8669
  453TMC3    H1 6752   1.046   1.820  11.406 -1.2801  1.0643  1.3298
  453TMC3    H2 6753   0.636   1.732  11.409  0.3357  0.8227 -1.1952
  453TMC3    C7 6754   0.825   1.924  11.332  0.7246  0.0202  0.3623
  453TMC3    C8 6755   0.659   1.507  11.537  0.0763  0.7608 -0.2740
  453TMC3    O1 6756   0.922   1.966  11.266 -0.1051  0.2665  0.0239
  453TMC3    O2 6757   0.552   1.561  11.559 -0.6062  0.0860  0.0418
  454MPD2     C 6758   4.223   1.135  16.139 -0.5254 -0.2458 -0.0738
  454MPD2    C1 6759   4.208   1.264  16.089 -0.9193  0.4464 -0.1476
  454MPD2    C2 6760   4.165   1.366  16.173  0.4875 -0.3934 -0.1331
  454MPD2    C3 6761   4.143   1.342  16.309 -0.5552 -0.0227 -0.1185
  454MPD2    C4 6762   4.157   1.215  16.354 -0.2217 -0.0059  0.2587
  454MPD2    C5 6763   4.198   1.108  16.274 -0.1452 -0.3966 -0.1068
  454MPD2     H 6764   4.152   1.467  16.134 -2.4351 -0.7931 -0.1710
  454MPD2    H1 6765   4.135   1.189  16.456 -2.3530  0.1384 -0.1507
  454MPD2    H2 6766   4.257   1.049  16.083  1.2558  0.7818 -0.5980
  454MPD2    H3 6767   4.217   1.007  16.310 -0.3779 -0.8383 -1.2176
  454MPD2     N 6768   4.104   1.439  16.408 -0.1002  0.2358  0.4624
  454MPD2    H5 6769   4.139   1.415  16.501  2.8568  0.8408 -0.4991
  454MPD2    N1 6770   4.224   1.298  15.950  0.0655 -0.2781 -0.1628
  454MPD2    H7 6771   4.219   1.397  15.926 -1.2809 -0.9255 -2.5340
  455TMC3    C1 6772   3.934   1.555  16.282  0.2129  0.3884  0.0639
  455TMC3    C2 6773   3.882   1.676  16.246  0.0338 -0.1209  0.7143
  455TMC3    C3 6774   3.768   1.682  16.172  0.7910  0.2143  0.7200
  455TMC3    C4 6775   3.865   1.437  16.241  0.1950  0.4352  0.4605
  455TMC3    C5 6776   3.758   1.454  16.155 -0.6580 -0.3388 -0.3183
  455TMC3    C6 6777   3.706   1.571  16.127 -0.0011  0.1195 -0.1356
  455TMC3     C 6778   4.032   1.553  16.390 -0.8279 -0.5012 -0.6514
  455TMC3     O 6779   4.023   1.644  16.467  0.4631  0.1605 -0.6692
  455TMC3     H 6780   3.937   1.764  16.275  0.7419  0.0748 -1.2202
  455TMC3    H1 6781   3.887   1.340  16.284  2.1031  0.3059 -0.8020
  455TMC3    H2 6782   3.628   1.577  16.052 -0.3760  0.2869  0.2711
  455TMC3    C7 6783   3.713   1.335  16.074  0.1626 -0.5040  0.1270
  455TMC3    C8 6784   3.687   1.798  16.222 -0.0571 -0.2683  0.2202
  455TMC3    O1 6785   3.608   1.334  16.014 -0.1305 -0.2202  0.3868
  455TMC3    O2 6786   3.757   1.901  16.239 -0.3544 -1.0462  0.1836
  456MPD2     C 6787   1.915   1.381  15.734 -0.1006 -0.4306 -0.2427
  456MPD2    C1 6788   1.959   1.301  15.831  0.2736 -0.0092  0.8568
  456MPD2    C2 6789   1.908   1.325  15.955 -0.3227 -0.0029 -0.5377
  456MPD2    C3 6790   1.813   1.421  15.981 -0.4279  0.4108  0.3566
  456MPD2    C4 6791   1.772   1.497  15.876  0.0019  0.1182  0.4558
  456MPD2    C5 6792   1.822   1.481  15.748 -0.4024 -0.1060 -0.1275
  456MPD2     H 6793   1.931   1.257  16.036  0.3027 -0.5577 -1.1848
  456MPD2    H1 6794   1.687   1.564  15.880 -0.3982 -0.4368  1.1384
  456MPD2    H2 6795   1.955   1.367  15.634  0.0105 -2.3014  0.0681
  456MPD2    H3 6796   1.791   1.539  15.662  2.8767  1.5282 -0.2099
  456MPD2     N 6797   1.751   1.427  16.108  0.0723 -0.5588 -0.0753
  456MPD2    H5 6798   1.777   1.364  16.183 -0.6351 -0.3911  0.3142
  456MPD2    N1 6799   2.044   1.194  15.801 -0.2173 -0.0894 -0.1548
  456MPD2    H7 6800   2.073   1.177  15.706 -0.1806  1.4614 -0.4205
  457TMC3    C1 6801   1.623   1.514  16.287 -0.0600 -0.1748 -0.8043
  457TMC3    C2 6802   1.519   1.601  16.321 -0.2754 -0.2049  0.0384
  457TMC3    C3 6803   1.491   1.626  16.453 -0.6696 -0.5260 -0.4616
  457TMC3    C4 6804   1.713   1.466  16.378 -0.2455  0.9063 -0.6276
  457TMC3    C5 6805   1.692   1.505  16.504 -0.4266  0.1699  0.3196
  457TMC3    C6 6806   1.583   1.576  16.546 -0.1307 -0.2441 -0.4918
  457TMC3     C 6807   1.669   1.527  16.150 -0.4197 -0.0032  0.0006
  457TMC3     O 6808   1.614   1.615  16.084  0.0435 -0.4008  0.6289
  457TMC3     H 6809   1.458   1.639  16.240  0.2832 -1.9863 -1.2202
  457TMC3    H1 6810   1.803   1.409  16.358 -1.2081 -0.8515  0.0273
  457TMC3    H2 6811   1.554   1.601  16.647 -0.9286  0.7898 -0.9651
  457TMC3    C7 6812   1.790   1.471  16.607  0.9250 -1.0691 -0.4901
  457TMC3    C8 6813   1.426   1.753  16.499  0.2574 -0.8756  0.5706
  457TMC3    O1 6814   1.740   1.455  16.716 -0.0663 -0.4112 -0.2011
  457TMC3    O2 6815   1.464   1.805  16.604  0.1740  0.1670 -0.2238
  458MPD2     C 6816   0.183   0.486  11.815 -0.2448 -0.9104 -0.4937
  458MPD2    C1 6817   0.108   0.523  11.922  0.4294  0.2567 -0.1616
  458MPD2    C2 6818   4.704   0.549  11.898 -0.2069 -1.0001 -0.2371
  458MPD2    C3 6819   4.646   0.537  11.776 -0.3377 -0.5033  0.1557
  458MPD2    C4 6820   4.724   0.498  11.667  0.3195  0.4727  0.5061
  458MPD2    C5 6821   0.126   0.464  11.687 -0.8032  0.5483 -0.1874
  458MPD2     H 6822   4.634   0.590  11.970 -0.4402  1.9995 -2.1348
  458MPD2    H1 6823   4.694   0.482  11.564 -2.0172  1.6212  1.0051
  458MPD2    H2 6824   0.288   0.463  11.828 -0.1541 -0.2447 -0.0720
  458MPD2    H3 6825   0.197   0.446  11.608 -2.7097 -3.3507 -1.0310
  458MPD2     N 6826   4.514   0.579  11.748 -0.1573 -0.1944  0.0291
  458MPD2    H5 6827   4.464   0.609  11.832 -0.6391  1.3104 -0.7929
  458MPD2    N1 6828   0.162   0.547  12.052 -0.3422  0.0702 -0.2374
  458MPD2    H7 6829   0.263   0.551  12.057 -0.4273  0.0848  1.6128
  459TMC3    C1 6830   0.174   0.596  12.285  0.5169  0.5327 -0.6382
  459TMC3    C2 6831   0.271   0.687  12.276 -0.4037 -0.6500  0.2953
  459TMC3    C3 6832   0.318   0.740  12.401  0.2373  0.4372 -1.1059
  459TMC3    C4 6833   0.121   0.562  12.407  0.0702  0.1035  0.2140
  459TMC3    C5 6834   0.163   0.617  12.529  0.4336 -0.2945 -1.3310
  459TMC3    C6 6835   0.269   0.703  12.520 -0.0507 -0.7964 -0.1707
  459TMC3     C 6836   0.094   0.562  12.171  0.5893 -0.0265  1.0338
  459TMC3     O 6837   4.701   0.534  12.195  0.1521 -0.0837 -0.5448
  459TMC3     H 6838   0.297   0.728  12.179 -1.0024 -2.5845 -0.6784
  459TMC3    H1 6839   0.048   0.483  12.416  0.1938  0.1759  1.8484
  459TMC3    H2 6840   0.319   0.731  12.612  1.2918  0.0868 -1.1852
  459TMC3    C7 6841   0.151   0.522  12.637  0.1029  0.4949  0.0104
  459TMC3    C8 6842   0.454   0.786  12.406  0.3501  0.9638 -0.5274
  459TMC3    O1 6843   0.147   0.402  12.611  0.3086  0.2598  0.3439
  459TMC3    O2 6844   0.518   0.776  12.510  0.5675 -0.0851 -0.4865
  460MPD2     C 6845   4.309   2.697  10.409 -0.1958  0.3244 -0.2138
  460MPD2    C1 6846   4.199   2.775  10.437  0.8631  0.1315 -0.4099
  460MPD2    C2 6847   4.124   2.828  10.329 -0.5712  0.1029 -0.4298
  460MPD2    C3 6848   4.142   2.777  10.197  0.6458  0.4625  0.2161
  460MPD2    C4 6849   4.244   2.691  10.177 -0.2297  0.8501  0.3841
  460MPD2    C5 6850   4.329   2.656  10.280 -0.6005 -0.4260 -0.7276
  460MPD2     H 6851   4.034   2.884  10.351 -1.0341  0.0931 -2.3006
  460MPD2    H1 6852   4.269   2.659  10.077 -1.0235 -1.1059  0.8167
  460MPD2    H2 6853   4.371   2.652  10.486 -2.4144 -0.8771  0.8437
  460MPD2    H3 6854   4.414   2.597  10.249  0.9172  1.3873 -0.0318
  460MPD2     N 6855   4.051   2.816  10.100  0.0549  0.0453  0.1424
  460MPD2    H5 6856   3.996   2.895  10.133  3.0671  1.6890  1.2470
  460MPD2    N1 6857   4.184   2.802  10.578  0.1101 -0.3156 -0.8804
  460MPD2    H7 6858   4.251   2.759  10.641  0.2276  1.3336  0.1167
  461TMC3    C1 6859   3.941   2.817   9.898  0.4107  0.3002 -0.1342
  461TMC3    C2 6860   3.885   2.743   9.801 -0.6631  0.5986 -0.2370
  461TMC3    C3 6861   3.780   2.799   9.727 -0.4898 -0.5610  0.1364
  461TMC3    C4 6862   3.901   2.945   9.931 -0.3008  0.0820 -0.4522
  461TMC3    C5 6863   3.803   3.001   9.855  0.9492  0.1327 -0.1529
  461TMC3    C6 6864   3.744   2.935   9.745 -0.2126 -0.4183  0.1707
  461TMC3     C 6865   4.027   2.750   9.984 -0.5464 -0.0538 -0.0660
  461TMC3     O 6866   4.078   2.643   9.947 -0.4480 -0.1401  0.4110
  461TMC3     H 6867   3.919   2.642   9.781 -0.9117  0.6200 -0.7797
  461TMC3    H1 6868   3.949   3.011  10.002  0.0256 -2.4203  1.6538
  461TMC3    H2 6869   3.678   2.985   9.674  0.2192  2.1975  1.6169
  461TMC3    C7 6870   3.748   3.131   9.876 -0.8329 -0.3684 -0.9447
  461TMC3    C8 6871   3.736   2.728   9.612 -0.7175  0.6478 -0.0967
  461TMC3    O1 6872   3.678   3.179   9.786 -0.0777  0.3275 -0.1070
  461TMC3    O2 6873   3.703   2.793   9.510  0.3269 -0.0497  0.4319
  462TMC3    C1 6874   3.616   3.962  17.698 -0.1153 -0.1066  0.5393
  462TMC3    C2 6875   3.585   3.927  17.571  0.0240  0.0209  0.3288
  462TMC3    C3 6876   3.553   3.793  17.559 -0.5111  0.2138 -0.6749
  462TMC3    C4 6877   3.610   3.886   0.096  0.1513 -0.6118 -0.1192
  462TMC3    C5 6878   3.579   3.754   0.073  0.8238  0.0052  0.6682
  462TMC3    C6 6879   3.554   3.699  17.657 -0.6532 -0.4857  0.2577
  462TMC3     C 6880   3.650   4.100   0.020  0.8637 -1.2718 -0.1864
  462TMC3     O 6881   3.701   4.116   0.130 -0.2243  0.2426  0.0038
  462TMC3     H 6882   3.586   3.985  17.479 -1.9134 -1.2420 -0.4947
  462TMC3    H1 6883   3.634   3.920   0.196 -0.6575  0.4378 -0.2775
  462TMC3    H2 6884   3.510   3.601  17.641  1.0850 -1.3829  1.0915
  462TMC3    C7 6885   3.551   3.667   0.185 -0.2374  0.6086  0.1714
  462TMC3    C8 6886   3.487   3.743  17.440 -0.5927  0.4279  0.6508
  462TMC3    O1 6887   3.498   3.558   0.161  0.5636  0.1339 -0.2436
  462TMC3    O2 6888   3.391   3.796  17.389  0.5296  0.1165 -0.1633
  463MPD2     C 6889   0.047   2.862   1.800 -0.5606 -0.1278  0.2878
  463MPD2    C1 6890   4.668   2.916   1.724  0.3523 -0.1343  0.4673
  463MPD2    C2 6891   4.703   3.023   1.642  0.6376  0.4283 -0.5410
  463MPD2    C3 6892   0.100   3.080   1.643  0.2194  0.5382  0.0917
  463MPD2    C4 6893   0.197   3.020   1.719 -0.3947  0.2662 -0.9974
  463MPD2    C5 6894   0.172   2.910   1.798  0.2841 -0.6070  0.3976
  463MPD2     H 6895   4.624   3.076   1.590 -2.5539  0.4602  4.4546
  463MPD2    H1 6896   0.298   3.058   1.729  0.0975 -0.7989 -1.9134
  463MPD2    H2 6897   0.021   2.784   1.871 -0.5673 -2.1481 -1.9297
  463MPD2    H3 6898   0.251   2.867   1.857  0.7227  0.3450  0.5058
  463MPD2     N 6899   0.140   3.198   1.572 -0.9104 -0.4158 -0.5697
  463MPD2    H5 6900   0.237   3.226   1.585 -0.5020 -1.5861 -1.1371
  463MPD2    N1 6901   4.541   2.862   1.728  0.5200 -0.1398 -0.4430
  463MPD2    H7 6902   4.475   2.896   1.658 -0.0775  0.6770  0.5046
  464TMC3    C1 6903   4.354   2.728   1.790  0.3276  0.6244 -0.2588
  464TMC3    C2 6904   4.292   2.755   1.669 -0.0026 -0.3962 -0.0618
  464TMC3    C3 6905   4.162   2.721   1.650  0.3582 -0.1596  0.0615
  464TMC3    C4 6906   4.289   2.658   1.890  0.2504 -0.7665  0.0190
  464TMC3    C5 6907   4.162   2.613   1.863  0.5180 -0.0886 -0.6344
  464TMC3    C6 6908   4.097   2.653   1.747  0.0887 -0.2060  0.6522
  464TMC3     C 6909   4.488   2.779   1.821 -0.1447  0.1202 -0.2649
  464TMC3     O 6910   4.534   2.748   1.931 -0.0753 -0.0746  0.3021
  464TMC3     H 6911   4.355   2.803   1.595  1.1365 -0.0443  1.1290
  464TMC3    H1 6912   4.343   2.638   1.982 -1.2250 -2.1762  0.5702
  464TMC3    H2 6913   3.997   2.615   1.730 -0.0424  0.6804 -0.5581
  464TMC3    C7 6914   4.112   2.515   1.955 -0.1566  0.9186  0.4596
  464TMC3    C8 6915   4.095   2.740   1.526 -0.1808 -0.4749  0.6362
  464TMC3    O1 6916   4.180   2.510   2.055  0.1495  0.7920 -0.3333
  464TMC3    O2 6917   3.974   2.761   1.531 -0.4506 -0.1451  0.4104
  465MPD2     C 6918   1.071   1.063  16.872  0.2828 -0.0636 -0.6241
  465MPD2    C1 6919   0.947   1.088  16.933  0.9374 -0.8049 -0.0415
  465MPD2    C2 6920   0.859   1.184  16.874  0.3432 -0.2871  0.3816
  465MPD2    C3 6921   0.887   1.256  16.761  0.3496 -0.2624 -0.0146
  465MPD2    C4 6922   1.017   1.240  16.707  0.1544 -0.0409  0.0720
  465MPD2    C5 6923   1.101   1.142  16.761  0.1028  0.4921  0.3284
  465MPD2     H 6924   0.760   1.211  16.911  0.1742  2.2330 -1.9010
  465MPD2    H1 6925   1.058   1.284  16.617  0.1642 -0.0707  0.0620
  465MPD2    H2 6926   1.149   0.995  16.905 -1.2753 -1.6594 -0.2646
  465MPD2    H3 6927   1.200   1.128  16.718 -0.7801  0.9238 -1.8434
  465MPD2     N 6928   0.786   1.336  16.710  0.9207  0.1039 -0.0186
  465MPD2    H5 6929   0.710   1.364  16.771  1.6329  0.7447  0.5786
  465MPD2    N1 6930   0.902   1.011  17.042 -0.1687  0.6376 -0.5617
  465MPD2    H7 6931   0.809   1.031  17.077 -0.0876  1.3358 -0.7411
  466TMC3    C1 6932   0.440   1.492  16.524  0.2041  0.2605 -0.1300
  466TMC3    C2 6933   0.457   1.563  16.408 -0.1272 -0.0847  0.0601
  466TMC3    C3 6934   0.576   1.557  16.351  0.4573  0.2181 -0.1640
  466TMC3    C4 6935   0.548   1.437  16.586  0.0630  0.0673 -0.9384
  466TMC3    C5 6936   0.674   1.451  16.529 -0.2214 -0.1055  0.5880
  466TMC3    C6 6937   0.686   1.495  16.403  0.2019 -0.3986  0.2632
  466TMC3     C 6938   0.313   1.507  16.597  0.1329 -0.8632  0.2908
  466TMC3     O 6939   0.306   1.479  16.721  0.8304  0.7049  0.2938
  466TMC3     H 6940   0.387   1.627  16.356 -0.8927 -0.8079  0.1911
  466TMC3    H1 6941   0.544   1.374  16.674  1.5369  2.5327  0.8596
  466TMC3    H2 6942   0.786   1.511  16.366  0.1747 -0.5900  0.1110
  466TMC3    C7 6943   0.792   1.391  16.586  0.5110 -0.1621 -0.3780
  466TMC3    C8 6944   0.621   1.682  16.296 -1.0504  0.2973 -0.2645
  466TMC3    O1 6945   0.880   1.368  16.504 -0.1550 -0.7907  0.0404
  466TMC3    O2 6946   0.708   1.678  16.211 -0.8161  0.4285 -0.3359
  467TMC3    C1 6947   2.044   4.222  13.481 -0.3095 -0.3257  0.2126
  467TMC3    C2 6948   2.008   4.333  13.408  0.0915 -1.4378  0.3618
  467TMC3    C3 6949   1.951   4.438  13.480  0.1978  0.0420 -0.1111
  467TMC3    C4 6950   2.001   4.200  13.607 -0.1491  0.5288 -0.5971
  467TMC3    C5 6951   1.912   4.297  13.654  0.0592  0.1415  0.1769
  467TMC3    C6 6952   1.896   4.418  13.606 -0.9015 -0.6794  0.8579
  467TMC3     C 6953   2.186   4.222  13.473 -0.0825 -0.0054  0.3568
  467TMC3     O 6954   2.235   4.308  13.399 -0.4639  0.1404  0.3621
  467TMC3     H 6955   2.024   4.330  13.300  0.4916 -0.1636  0.3907
  467TMC3    H1 6956   2.024   4.105  13.654 -2.5829  0.2578  0.0315
  467TMC3    H2 6957   1.845   4.494  13.663  0.4745 -0.4512  1.7813
  467TMC3    C7 6958   1.854   4.269  13.783 -0.5527 -0.2217 -0.3939
  467TMC3    C8 6959   1.992   4.576  13.447 -0.3209  0.2698 -0.6029
  467TMC3    O1 6960   1.928   4.198  13.856  0.2357 -0.3341 -0.0281
  467TMC3    O2 6961   1.952   4.674  13.504  0.0241 -0.1876  1.0305
  468MPD2     C 6962   0.748   2.717  10.273 -0.3192 -0.5649  0.0397
  468MPD2    C1 6963   0.867   2.707  10.345 -0.2812  0.4730  0.0223
  468MPD2    C2 6964   0.927   2.579  10.361 -0.9796  0.5823 -0.0873
  468MPD2    C3 6965   0.855   2.467  10.315  0.8384  0.8937  0.2436
  468MPD2    C4 6966   0.728   2.482  10.263  0.0807 -0.4104  0.0088
  468MPD2    C5 6967   0.680   2.603  10.241 -0.5744  0.5109 -0.3105
  468MPD2     H 6968   1.015   2.572  10.424 -1.1285 -1.5227 -0.1228
  468MPD2    H1 6969   0.665   2.402  10.227 -1.5935  1.0139 -0.2016
  468MPD2    H2 6970   0.700   2.810  10.243 -0.5767  0.0936  2.4792
  468MPD2    H3 6971   0.577   2.602  10.209 -0.9580 -3.1009  1.0679
  468MPD2     N 6972   0.901   2.334  10.328  0.1436  0.0688 -0.1940
  468MPD2    H5 6973   0.831   2.262  10.318  0.1199  0.1187 -0.3782
  468MPD2    N1 6974   0.920   2.821  10.403 -0.0254  0.6142 -0.0089
  468MPD2    H7 6975   1.010   2.816  10.449 -0.1545 -0.9457  0.0963
  469TMC3    C1 6976   0.947   3.058  10.462 -0.1369  0.1478  0.1057
  469TMC3    C2 6977   1.077   3.031  10.504  0.2982 -0.2718 -0.6805
  469TMC3    C3 6978   1.140   3.113  10.590  0.7768 -0.0588 -0.2213
  469TMC3    C4 6979   0.888   3.172  10.498 -0.4021 -0.9416 -0.0521
  469TMC3    C5 6980   0.944   3.247  10.603  0.0595 -0.1659  0.4621
  469TMC3    C6 6981   1.075   3.218  10.644  0.0609 -0.7992  0.4112
  469TMC3     C 6982   0.867   2.951  10.407  0.4632  0.2423 -0.5095
  469TMC3     O 6983   0.756   2.994  10.371 -0.5084 -0.2580  0.1643
  469TMC3     H 6984   1.127   2.952  10.450 -0.0191 -0.8828 -0.0939
  469TMC3    H1 6985   0.783   3.186  10.478 -0.2331 -0.7679 -0.8061
  469TMC3    H2 6986   1.123   3.291  10.709  1.1809 -1.2886  0.1177
  469TMC3    C7 6987   0.864   3.354  10.672 -0.1774 -0.2168 -1.3363
  469TMC3    C8 6988   1.260   3.067  10.654 -0.1764  0.0918  0.2852
  469TMC3    O1 6989   0.762   3.387  10.618 -0.4440  0.4044  0.4117
  469TMC3    O2 6990   1.354   3.037  10.577 -0.6729 -0.0649  0.7173
  470TMC3    C1 6991   3.068   3.970   0.506  0.5069  0.5257 -0.6567
  470TMC3    C2 6992   3.048   4.070   0.596 -0.5269  0.1651  0.5781
  470TMC3    C3 6993   3.083   4.041   0.724 -0.3675 -1.0343 -0.2267
  470TMC3    C4 6994   3.134   3.848   0.534  0.2695 -0.3233  0.3182
  470TMC3    C5 6995   3.170   3.825   0.663 -0.2374 -0.4739  0.4711
  470TMC3    C6 6996   3.141   3.923   0.757 -0.0954  0.4365 -0.0500
  470TMC3     C 6997   3.001   3.975   0.383  0.5241 -0.1478  0.1386
  470TMC3     O 6998   3.003   4.083   0.326 -0.2700  0.1754 -0.1780
  470TMC3     H 6999   3.009   4.168   0.570  0.8718  0.0884 -1.8242
  470TMC3    H1 7000   3.146   3.768   0.462 -0.0579  0.0118 -0.1071
  470TMC3    H2 7001   3.165   3.912   0.862  1.0151 -0.4051 -0.3947
  470TMC3    C7 7002   3.156   3.691   0.714 -0.1960 -0.1867  0.6384
  470TMC3    C8 7003   3.134   4.160   0.801 -0.8135 -0.2283  0.2513
  470TMC3    O1 7004   3.093   3.614   0.636  0.6392  0.1145  0.6375
  470TMC3    O2 7005   3.061   4.255   0.822  0.3456 -0.1812  0.2584
  471MPD2     C 7006   3.393   1.019  16.603 -0.2573  0.0373  0.3106
  471MPD2    C1 7007   3.430   0.895  16.571  0.4184  0.9317  0.1325
  471MPD2    C2 7008   3.551   0.842  16.603 -0.2634  0.0744 -0.8802
  471MPD2    C3 7009   3.643   0.914  16.681  0.4226 -0.2838  0.0872
  471MPD2    C4 7010   3.609   1.047  16.707  0.2178 -1.0234  0.5875
  471MPD2    C5 7011   3.488   1.101  16.665 -0.9840  0.4814 -0.1771
  471MPD2     H 7012   3.573   0.741  16.571  0.0284 -0.2388  0.2931
  471MPD2    H1 7013   3.680   1.109  16.760  0.4580 -1.8133  1.1871
  471MPD2    H2 7014   3.296   1.065  16.584 -0.3628 -0.0249  0.6939
  471MPD2    H3 7015   3.471   1.205  16.691 -0.9057  0.4121  0.1517
  471MPD2     N 7016   3.757   0.859  16.742 -0.1647  0.8261  0.2033
  471MPD2    H5 7017   3.810   0.898  16.819  0.3295 -0.6739  0.6206
  471MPD2    N1 7018   3.353   0.800  16.495  0.2218 -0.1825  0.0060
  471MPD2    H7 7019   3.393   0.708  16.482  0.8393  0.1059 -0.1167
  472TMC3    C1 7020   3.173   0.694  16.403  0.7757 -0.2536  0.7000
  472TMC3    C2 7021   3.101   0.708  16.293 -0.4674 -0.2805 -0.0342
  472TMC3    C3 7022   3.086   0.598  16.210  0.0408 -0.5972 -0.7332
  472TMC3    C4 7023   3.250   0.584  16.434 -0.4401  0.5194  0.9609
  472TMC3    C5 7024   3.225   0.471  16.363  0.0894  0.0796  0.4049
  472TMC3    C6 7025   3.154   0.484  16.248  1.3525  0.3190 -0.0346
  472TMC3     C 7026   3.228   0.822  16.446  0.7486 -0.0645 -0.0552
  472TMC3     O 7027   3.151   0.919  16.439 -0.0338 -0.7972  0.2706
  472TMC3     H 7028   3.040   0.797  16.280 -2.0583 -1.2514  0.7110
  472TMC3    H1 7029   3.295   0.567  16.531 -0.0695  1.7447  1.0050
  472TMC3    H2 7030   3.134   0.398  16.185 -3.2931 -0.3417  2.3595
  472TMC3    C7 7031   3.262   0.338  16.421  0.5316 -0.5899  0.1762
  472TMC3    C8 7032   2.957   0.572  16.152  0.3225 -0.3588 -0.3684
  472TMC3    O1 7033   3.297   0.332  16.538 -0.7860 -0.2263  0.2326
  472TMC3    O2 7034   2.905   0.657  16.079 -0.0321 -0.6324 -0.2477
  473MPD2     C 7035   3.961   2.360  13.744  0.4906 -0.1822 -0.0203
  473MPD2    C1 7036   3.853   2.435  13.701 -0.0311 -0.2662 -0.2056
  473MPD2    C2 7037   3.787   2.508  13.803  0.4202 -0.9021 -0.0682
  473MPD2    C3 7038   3.854   2.527  13.926  0.2958 -0.3891  0.6482
  473MPD2    C4 7039   3.963   2.450  13.959  1.0042  0.0154 -0.6619
  473MPD2    C5 7040   4.019   2.369  13.871 -0.3044  0.2196 -0.5748
  473MPD2     H 7041   3.697   2.562  13.775  0.6208 -1.2171 -1.3010
  473MPD2    H1 7042   4.011   2.461  14.056  0.7152 -0.4984 -0.4617
  473MPD2    H2 7043   4.019   2.300  13.675 -0.6124  0.5461 -1.6076
  473MPD2    H3 7044   4.101   2.307  13.907  0.2753  0.7282 -1.0048
  473MPD2     N 7045   3.810   2.611  14.031 -0.2316  0.0451  0.0253
  473MPD2    H5 7046   3.866   2.605  14.115  0.5934  2.3568 -0.3623
  473MPD2    N1 7047   3.810   2.432  13.564 -0.6675 -0.7671 -0.6895
  473MPD2    H7 7048   3.713   2.459  13.551 -0.9233  0.2363  3.1894
  474TMC3    C1 7049   3.675   2.755  14.163 -0.1378 -0.7017  0.5569
  474TMC3    C2 7050   3.576   2.849  14.165 -0.1685 -0.0876  0.7938
  474TMC3    C3 7051   3.589   2.943  14.267 -1.0768  0.5162  0.9991
  474TMC3    C4 7052   3.777   2.751  14.259  0.3947 -0.0182 -0.1052
  474TMC3    C5 7053   3.786   2.853  14.343 -0.2855  0.7117  0.4866
  474TMC3    C6 7054   3.697   2.956  14.348  0.1239  0.1429 -0.1937
  474TMC3     C 7055   3.698   2.686  14.039  0.2179  0.7752  0.1923
  474TMC3     O 7056   3.606   2.701  13.960  0.5649  0.2704 -0.1333
  474TMC3     H 7057   3.494   2.865  14.096 -1.2844 -0.2603  2.0659
  474TMC3    H1 7058   3.854   2.675  14.258 -0.6932 -1.1176  0.6825
  474TMC3    H2 7059   3.707   3.045  14.409  1.7465 -0.1328 -0.0479
  474TMC3    C7 7060   3.890   2.845  14.444 -0.3964  0.1418  0.1697
  474TMC3    C8 7061   3.474   3.026  14.296  0.5111  0.3539  0.2772
  474TMC3    O1 7062   4.002   2.806  14.409 -0.0986 -0.5333 -0.7563
  474TMC3    O2 7063   3.362   2.979  14.289  0.3191  0.4037  0.4316
  475MPD2     C 7064   2.112   0.102  10.608  1.0766 -0.1076 -0.1611
  475MPD2    C1 7065   2.148   0.227  10.556 -0.5803  0.8619  0.3371
  475MPD2    C2 7066   2.055   0.330  10.565 -0.5373 -0.5798  0.4912
  475MPD2    C3 7067   1.924   0.305  10.600  0.3321 -0.0711  0.4516
  475MPD2    C4 7068   1.891   0.176  10.639 -0.0046 -0.3387 -0.1815
  475MPD2    C5 7069   1.984   0.079  10.644 -0.6947  0.3687  0.3197
  475MPD2     H 7070   2.088   0.433  10.550  0.1931 -0.9855 -0.7127
  475MPD2    H1 7071   1.786   0.149  10.649 -0.7201  2.7179  0.5804
  475MPD2    H2 7072   2.176   0.016  10.598 -0.2012 -0.8584 -1.8446
  475MPD2    H3 7073   1.962   4.700  10.659  1.0827 -0.0665 -0.1143
  475MPD2     N 7074   1.832   0.406  10.574  0.5391  0.3138  0.5261
  475MPD2    H5 7075   1.871   0.494  10.541  1.8787 -0.2202  0.6772
  475MPD2    N1 7076   2.274   0.238  10.493 -0.5084  0.1068 -0.2255
  475MPD2    H7 7077   2.341   0.169  10.526  0.1514  1.4618  1.3029
  476TMC3    C1 7078   2.208   0.398  10.326  0.3667 -0.6309  0.1431
  476TMC3    C2 7079   2.094   0.342  10.267  0.5503  0.0230  0.1368
  476TMC3    C3 7080   1.999   0.431  10.210  0.5425 -0.2010  0.7977
  476TMC3    C4 7081   2.224   0.531  10.344  0.9510 -0.5610  0.1557
  476TMC3    C5 7082   2.116   0.604  10.311  0.2387 -0.6442 -0.2439
  476TMC3    C6 7083   2.022   0.568  10.217 -0.3788 -0.4893 -0.6043
  476TMC3     C 7084   2.305   0.317  10.390 -0.2152 -0.4902  0.4553
  476TMC3     O 7085   2.423   0.340  10.349  0.1526 -0.2638  0.1816
  476TMC3     H 7086   2.085   0.235  10.256 -1.1774  0.2075 -0.3183
  476TMC3    H1 7087   2.282   0.569  10.427  0.2218 -1.2615  0.9916
  476TMC3    H2 7088   1.941   0.638  10.203  2.3451  2.1538 -3.1580
  476TMC3    C7 7089   2.069   0.692  10.422  0.0231 -0.5766 -0.1874
  476TMC3    C8 7090   1.863   0.390  10.182 -0.5434 -1.0461 -0.3527
  476TMC3    O1 7091   1.958   0.666  10.467  0.3498 -0.4048 -0.2476
  476TMC3    O2 7092   1.787   0.482  10.161  0.1152  0.9534  0.2009
  477MPD2     C 7093   4.708   2.072  11.330 -0.6854  0.3710 -0.7044
  477MPD2    C1 7094   4.589   2.051  11.397 -0.9388  0.2205  0.3174
  477MPD2    C2 7095   4.586   2.022  11.534  0.7683  0.3146 -0.2755
  477MPD2    C3 7096   4.709   2.009  11.603 -0.2891  0.3572  0.3922
  477MPD2    C4 7097   0.101   2.006  11.536 -0.0605 -0.5525  0.0240
  477MPD2    C5 7098   0.097   2.037  11.403 -0.1265 -0.4313  0.0639
  477MPD2     H 7099   4.493   2.038  11.587  1.0560  0.2567  0.2547
  477MPD2    H1 7100   0.195   1.981  11.584  0.3582  0.2500 -0.3622
  477MPD2    H2 7101   4.716   2.099  11.225  0.2650  1.2191 -0.4104
  477MPD2    H3 7102   0.192   2.044  11.350  0.1389 -0.2225  0.5644
  477MPD2     N 7103   4.708   1.988  11.741  0.3677 -0.0492  0.3116
  477MPD2    H5 7104   4.636   1.927  11.777 -0.3846  0.6083 -0.0801
  477MPD2    N1 7105   4.470   2.074  11.316  0.2515 -0.5465 -0.0990
  477MPD2    H7 7106   4.480   2.084  11.215 -0.3306 -0.0057 -0.1012
  478TMC3    C1 7107   4.246   2.131  11.264 -0.8017  0.1476  0.1847
  478TMC3    C2 7108   4.145   2.197  11.328 -0.8859 -0.1741 -0.0385
  478TMC3    C3 7109   4.122   2.327  11.292 -0.0340 -0.1605  0.1064
  478TMC3    C4 7110   4.307   2.178  11.150 -0.0494 -0.0922 -0.3326
  478TMC3    C5 7111   4.268   2.303  11.115 -0.7393  0.7252 -0.3277
  478TMC3    C6 7112   4.178   2.387  11.185  0.4016  0.4328 -1.0224
  478TMC3     C 7113   4.343   2.081  11.367 -0.0574  0.2574  0.0833
  478TMC3     O 7114   4.296   2.071  11.479 -0.2072  0.7258 -0.1497
  478TMC3     H 7115   4.093   2.146  11.409  1.9031  2.0741  3.1969
  478TMC3    H1 7116   4.363   2.107  11.090 -0.8188 -0.8397 -0.1547
  478TMC3    H2 7117   4.150   2.485  11.148 -1.0446  0.2009 -0.5376
  478TMC3    C7 7118   4.290   2.316  10.976 -0.3412 -0.3857  0.6689
  478TMC3    C8 7119   4.083   2.410  11.405  0.2518  0.2671 -0.3961
  478TMC3    O1 7120   4.398   2.281  10.929  1.0549 -0.2272 -0.1154
  478TMC3    O2 7121   4.086   2.353  11.515 -0.0634 -0.4664  0.4861
  479MPD2     C 7122   2.942   4.403  14.838  0.5985 -0.4644 -0.6684
  479MPD2    C1 7123   2.898   4.352  14.962  0.7393  0.2993  0.4304
  479MPD2    C2 7124   2.984   4.364  15.071 -0.0387  0.1714  0.2443
  479MPD2    C3 7125   3.103   4.433  15.059 -0.2750 -0.5617 -0.0840
  479MPD2    C4 7126   3.144   4.474  14.933 -0.5739 -0.3615 -0.2255
  479MPD2    C5 7127   3.065   4.464  14.825 -0.8006 -0.1185 -0.5139
  479MPD2     H 7128   2.951   4.324  15.166  0.7540  0.2392  0.5536
  479MPD2    H1 7129   3.234   4.535  14.931 -1.9277  1.6225 -0.4668
  479MPD2    H2 7130   2.871   4.410  14.755 -2.1658 -3.2478  1.4361
  479MPD2    H3 7131   3.103   4.496  14.729  0.7859  4.7765  1.7379
  479MPD2     N 7132   3.182   4.473  15.172  0.5472 -0.8969 -0.0962
  479MPD2    H5 7133   3.274   4.509  15.149  1.0925 -2.1862  0.0937
  479MPD2    N1 7134   2.768   4.295  14.967  0.2020 -0.7739 -0.3840
  479MPD2    H7 7135   2.720   4.291  14.877  0.5128  0.1860 -0.5967
  480TMC3    C1 7136   2.858   4.386  15.489  0.7695  0.2553 -0.4874
  480TMC3    C2 7137   2.763   4.465  15.426  1.0069 -0.4198 -0.6392
  480TMC3    C3 7138   2.805   4.546  15.329  0.0464 -0.0139  0.0234
  480TMC3    C4 7139   2.984   4.378  15.447  0.4346 -0.2933 -0.3662
  480TMC3    C5 7140   3.024   4.462  15.347  0.2339  0.6015  0.1335
  480TMC3    C6 7141   2.941   4.560  15.297 -0.6975 -0.1405 -0.0758
  480TMC3     C 7142   2.823   4.277  15.573 -0.1740  0.1117  0.0479
  480TMC3     O 7143   2.918   4.226  15.625 -0.3208  0.1341 -0.1670
  480TMC3     H 7144   2.657   4.444  15.434  0.7358  1.1720 -0.0240
  480TMC3    H1 7145   3.061   4.318  15.495  1.2133  0.2388 -0.9624
  480TMC3    H2 7146   2.985   4.636  15.235 -2.0361  0.1780 -0.6339
  480TMC3    C7 7147   3.158   4.444  15.309  0.1907 -0.0637  0.1741
  480TMC3    C8 7148   2.696   4.616  15.256  0.0713  0.0720 -0.2302
  480TMC3    O1 7149   3.245   4.461  15.393  0.3580 -0.2068 -0.1559
  480TMC3    O2 7150   2.589   4.626  15.316 -0.1397  0.2941  0.2089
  481MPD2     C 7151   0.047   3.960  14.209 -0.3558  0.2631 -0.8722
  481MPD2    C1 7152   4.656   3.882  14.215 -0.6877 -0.2770 -0.1989
  481MPD2    C2 7153   4.586   3.880  14.334  0.3052 -0.7787 -0.0304
  481MPD2    C3 7154   4.621   3.947  14.449  0.2744  0.0463  0.3933
  481MPD2    C4 7155   0.010   4.018  14.445  0.2651 -0.2190 -0.2380
  481MPD2    C5 7156   0.083   4.013  14.326  0.1454  0.1181 -0.5156
  481MPD2     H 7157   4.495   3.824  14.345 -0.6613  0.5267 -1.3163
  481MPD2    H1 7158   0.053   4.066  14.532  0.9237 -2.0873  0.4637
  481MPD2    H2 7159   0.101   3.982  14.118 -1.8763  2.9067 -1.1115
  481MPD2    H3 7160   0.175   4.069  14.318 -0.1693  0.2116 -3.5515
  481MPD2     N 7161   4.556   3.944  14.573  0.1789 -0.3786 -0.3471
  481MPD2    H5 7162   4.598   4.004  14.644 -2.0529 -1.7356  2.1292
  481MPD2    N1 7163   4.615   3.831  14.087  0.0448  0.5725  0.0591
  481MPD2    H7 7164   4.679   3.849  14.010 -0.2185  2.9428  0.3732
  482TMC3    C1 7165   4.476   3.756  13.922  0.1170 -0.6481 -0.4388
  482TMC3    C2 7166   4.380   3.668  13.888  0.3716 -0.6224  0.5483
  482TMC3    C3 7167   4.315   3.688  13.773 -0.3003 -0.1041  1.2683
  482TMC3    C4 7168   4.495   3.875  13.853 -0.0869  0.2602  0.0961
  482TMC3    C5 7169   4.425   3.894  13.737 -0.0272  0.4178 -0.1096
  482TMC3    C6 7170   4.333   3.801  13.694  0.0630  0.2566  0.1487
  482TMC3     C 7171   4.498   3.764  14.064 -0.8474  0.4328 -0.7718
  482TMC3     O 7172   4.421   3.722  14.150 -0.4576  0.4310  0.5072
  482TMC3     H 7173   4.370   3.578  13.947 -1.9926 -1.2988 -0.8958
  482TMC3    H1 7174   4.567   3.949  13.886  0.7872 -1.1064  1.3007
  482TMC3    H2 7175   4.273   3.820  13.606 -0.3454  2.0233  0.8178
  482TMC3    C7 7176   4.441   4.022  13.670  0.1166  0.6086  0.5342
  482TMC3    C8 7177   4.255   3.569  13.713  0.0141 -0.0562 -0.3286
  482TMC3    O1 7178   4.497   4.110  13.737 -0.4114  0.4057  0.1606
  482TMC3    O2 7179   4.239   3.479  13.797  0.1402 -0.0788 -0.8725
  483TMC3    C1 7180   2.339   2.784   1.303 -0.6885  0.3208  0.2298
  483TMC3    C2 7181   2.442   2.881   1.301 -0.2799 -0.0585  0.3506
  483TMC3    C3 7182   2.561   2.845   1.354  0.1756 -0.1345 -0.7492
  483TMC3    C4 7183   2.356   2.673   1.376  0.2543  0.0283 -0.5189
  483TMC3    C5 7184   2.470   2.655   1.449  0.2319  0.7737  0.2675
  483TMC3    C6 7185   2.578   2.735   1.432 -0.4387  0.7327 -0.2027
  483TMC3     C 7186   2.292   2.753   1.172 -0.5105  0.2567 -0.0558
  483TMC3     O 7187   2.256   2.849   1.102 -0.4507 -0.0944 -0.0431
  483TMC3     H 7188   2.441   2.969   1.239  1.3730 -1.5175 -1.7405
  483TMC3    H1 7189   2.275   2.601   1.389  0.5077  0.0980  1.4199
  483TMC3    H2 7190   2.676   2.714   1.474 -1.1814 -1.8920  0.2452
  483TMC3    C7 7191   2.507   2.515   1.457  0.0897 -0.2246 -0.2178
  483TMC3    C8 7192   2.683   2.909   1.301  0.3055 -0.1692  0.0936
  483TMC3    O1 7193   2.461   2.436   1.379  0.7778  0.8800  0.4287
  483TMC3    O2 7194   2.667   2.966   1.189 -0.3589  0.5639  0.1321
  484MPD2     C 7195   0.621   0.933  12.115  0.2891 -0.9291  0.4437
  484MPD2    C1 7196   0.609   0.882  12.244  0.3504  0.0371 -0.0195
  484MPD2    C2 7197   0.725   0.876  12.327  0.2628  0.7967  0.4028
  484MPD2    C3 7198   0.855   0.907  12.271 -0.3803 -0.1420  0.7542
  484MPD2    C4 7199   0.861   0.957  12.145 -0.1311 -0.7323  0.0184
  484MPD2    C5 7200   0.743   0.968  12.078 -0.3575  0.2137  0.3479
  484MPD2     H 7201   0.730   0.858  12.434 -2.6204  0.1838  0.4282
  484MPD2    H1 7202   0.958   0.971  12.097  0.2995 -2.3515  0.3974
  484MPD2    H2 7203   0.537   0.950  12.049  0.0012 -1.7403  0.6012
  484MPD2    H3 7204   0.735   0.996  11.974 -0.5439 -1.6336 -0.1305
  484MPD2     N 7205   0.978   0.906  12.341 -0.2056 -0.0040  0.4327
  484MPD2    H5 7206   1.063   0.935  12.295  0.0237 -1.1704  0.1129
  484MPD2    N1 7207   0.488   0.834  12.280  0.1448 -0.0333 -0.5759
  484MPD2    H7 7208   0.423   0.839  12.202 -2.6891  1.5426  1.8762
  485TMC3    C1 7209   1.134   0.880  12.504 -0.0585 -0.8295 -1.0026
  485TMC3    C2 7210   1.210   0.762  12.512 -0.2980 -0.5664 -0.1028
  485TMC3    C3 7211   1.345   0.769  12.493 -0.7302  0.0858  0.2446
  485TMC3    C4 7212   1.196   0.994  12.460  0.2262 -0.0558  0.0317
  485TMC3    C5 7213   1.331   1.007  12.450  0.3110 -0.8355 -0.0904
  485TMC3    C6 7214   1.402   0.896  12.470  0.1436 -0.7526  0.6279
  485TMC3     C 7215   0.996   0.871  12.469  0.4773  0.7568  0.2688
  485TMC3     O 7216   0.915   0.832  12.552 -0.0816  0.4372  0.7205
  485TMC3     H 7217   1.168   0.663  12.525 -0.0280 -0.3842  2.1122
  485TMC3    H1 7218   1.134   1.080  12.439  0.3697 -0.0010 -0.1646
  485TMC3    H2 7219   1.502   0.891  12.428  1.0894 -4.2900  3.2571
  485TMC3    C7 7220   1.365   1.053  12.318 -0.0784  0.5930  0.1044
  485TMC3    C8 7221   1.387   0.675  12.400  0.5381 -0.7987  0.4077
  485TMC3    O1 7222   1.275   1.029  12.237 -0.3916 -0.3783 -0.5150
  485TMC3    O2 7223   1.325   0.672  12.296  0.4936 -0.2977 -0.0616
  486MPD2     C 7224   3.437   4.502  12.275 -0.2237  0.5136  0.2183
  486MPD2    C1 7225   3.304   4.467  12.271  0.6164 -0.1218  0.4821
  486MPD2    C2 7226   3.212   4.573  12.248 -0.1525 -0.7129 -0.6150
  486MPD2    C3 7227   3.248   4.711  12.255 -0.0019 -0.0686  0.4336
  486MPD2    C4 7228   3.383   0.011  12.267  0.2027  0.4292 -0.0110
  486MPD2    C5 7229   3.476   4.633  12.277 -0.2513 -0.2046 -0.9194
  486MPD2     H 7230   3.106   4.554  12.236 -0.0487 -0.1786 -2.4519
  486MPD2    H1 7231   3.420   0.111  12.248 -2.0726  1.5669  1.5357
  486MPD2    H2 7232   3.513   4.425  12.283  1.5703  2.1245 -1.3118
  486MPD2    H3 7233   3.579   4.666  12.287 -0.1980 -1.1912  1.7007
  486MPD2     N 7234   3.139   0.075  12.270 -0.2981 -0.7445 -0.9481
  486MPD2    H5 7235   3.048   0.030  12.274 -0.2606 -0.5647  2.6705
  486MPD2    N1 7236   3.267   4.328  12.286  0.2985 -0.5591 -0.3767
  486MPD2    H7 7237   3.341   4.265  12.313  0.9957  0.0738 -0.8117
  487TMC3    C1 7238   3.108   4.176  12.362 -0.4866 -0.5059  0.8811
  487TMC3    C2 7239   2.988   4.163  12.424 -0.1582  0.3414 -0.3915
  487TMC3    C3 7240   2.978   4.063  12.511  0.7054  0.0170  0.2757
  487TMC3    C4 7241   3.217   4.095  12.387 -0.8810 -0.1507  0.2964
  487TMC3    C5 7242   3.194   3.992  12.477 -0.0811  1.0258 -1.2448
  487TMC3    C6 7243   3.075   3.981  12.544 -0.5520 -0.5472  0.4037
  487TMC3     C 7244   3.137   4.292  12.286 -0.4424 -0.1642  0.6735
  487TMC3     O 7245   3.040   4.338  12.235  0.9153  0.5455 -0.6317
  487TMC3     H 7246   2.912   4.238  12.403 -1.1021 -0.1698  1.1489
  487TMC3    H1 7247   3.313   4.115  12.340 -1.5822 -0.2998 -1.2088
  487TMC3    H2 7248   3.043   3.884  12.578 -1.0065 -0.3223  0.6203
  487TMC3    C7 7249   3.310   3.914  12.514  0.2422 -0.2134  0.1670
  487TMC3    C8 7250   2.866   4.060  12.597  0.1811  0.1242 -0.0869
  487TMC3    O1 7251   3.405   3.902  12.439  0.3341  0.2283  0.7423
  487TMC3    O2 7252   2.868   4.006  12.706 -0.5440  0.1653  0.1542
  488MPD2     C 7253   2.400   1.372  16.078 -0.8449 -0.3337  0.1345
  488MPD2    C1 7254   2.524   1.414  16.129 -0.0636 -0.0602 -0.4977
  488MPD2    C2 7255   2.567   1.380  16.254  0.3383  0.4161  0.9711
  488MPD2    C3 7256   2.504   1.285  16.322  0.6466  0.0654  0.1062
  488MPD2    C4 7257   2.384   1.245  16.274  0.7074 -0.0744  0.0124
  488MPD2    C5 7258   2.335   1.279  16.151  0.3190 -0.3046  0.0975
  488MPD2     H 7259   2.656   1.421  16.301  1.2953 -1.0126  0.3852
  488MPD2    H1 7260   2.327   1.176  16.334 -0.3449  0.4991 -0.3273
  488MPD2    H2 7261   2.354   1.402  15.985  1.3558 -1.8582 -1.4653
  488MPD2    H3 7262   2.240   1.245  16.110  0.0818  0.2033  0.2366
  488MPD2     N 7263   2.539   1.252  16.451  0.2096 -0.7370  0.4528
  488MPD2    H5 7264   2.623   1.302  16.478  0.4679 -2.3090  2.5767
  488MPD2    N1 7265   2.599   1.524  16.069  0.4121  0.2334  0.2955
  488MPD2    H7 7266   2.663   1.570  16.133  1.2671 -0.4531 -0.0728
  489TMC3    C1 7267   2.533   1.199  16.677 -0.4339 -1.0871 -0.6962
  489TMC3    C2 7268   2.612   1.310  16.701  0.3938 -0.8410 -0.1372
  489TMC3    C3 7269   2.653   1.340  16.833 -0.5111 -0.4729 -0.4306
  489TMC3    C4 7270   2.482   1.117  16.777  0.7361  0.4056 -0.1521
  489TMC3    C5 7271   2.517   1.159  16.904 -0.3350 -0.3276 -0.0961
  489TMC3    C6 7272   2.600   1.267  16.933  0.9406  0.0599 -0.2471
  489TMC3     C 7273   2.480   1.165  16.543  0.2968  0.9431 -0.3803
  489TMC3     O 7274   2.379   1.093  16.540 -0.2062  0.0357  0.1535
  489TMC3     H 7275   2.637   1.379  16.621  0.7481 -0.4227  0.3330
  489TMC3    H1 7276   2.423   1.027  16.763  1.6435 -0.4468  1.4771
  489TMC3    H2 7277   2.622   1.298  17.034  0.2541 -1.2985  0.3063
  489TMC3    C7 7278   2.460   1.083  17.009 -0.0307 -0.6702 -0.2563
  489TMC3    C8 7279   2.686   1.481  16.849  0.2178 -0.1947 -0.3895
  489TMC3    O1 7280   2.527   1.080  17.112 -0.7975  0.1244 -0.3787
  489TMC3    O2 7281   2.751   1.537  16.761  0.5427  0.3008 -0.0806
  490MPD2     C 7282   3.371   1.201  16.976 -0.3706 -0.1101 -0.7638
  490MPD2    C1 7283   3.452   1.095  17.015  0.1308  0.0474 -0.6805
  490MPD2    C2 7284   3.581   1.125  17.061 -0.3357 -0.1253 -0.1338
  490MPD2    C3 7285   3.622   1.254  17.075  0.2520 -0.6448  0.5938
  490MPD2    C4 7286   3.540   1.357  17.036 -0.5487  0.3261 -0.3742
  490MPD2    C5 7287   3.417   1.332  16.987  0.0247 -0.1159  0.4500
  490MPD2     H 7288   3.634   1.040  17.103  2.7996  0.6393 -2.6006
  490MPD2    H1 7289   3.578   1.459  17.035  1.7265 -0.5032 -0.3991
  490MPD2    H2 7290   3.268   1.183  16.946 -0.4623 -0.2606 -0.3628
  490MPD2    H3 7291   3.343   1.405  16.956  1.2704  0.0981 -1.9982
  490MPD2     N 7292   3.745   1.295  17.136  0.5050  0.5056  0.3605
  490MPD2    H5 7293   3.753   1.396  17.145 -0.4558  0.6920 -0.7797
  490MPD2    N1 7294   3.407   0.961  17.011  0.3147 -0.6057 -0.2393
  490MPD2    H7 7295   3.473   0.894  17.050 -0.4515 -0.3009  1.5892
  491TMC3    C1 7296   3.283   0.773  16.939 -0.0404 -0.1950  0.6709
  491TMC3    C2 7297   3.284   0.707  17.059 -0.1321 -0.0971 -0.1193
  491TMC3    C3 7298   3.208   0.590  17.057 -0.6319 -0.1175  0.1353
  491TMC3    C4 7299   3.237   0.725  16.824  0.0131  0.2294  0.1773
  491TMC3    C5 7300   3.172   0.603  16.824 -0.3979  0.0798 -0.4478
  491TMC3    C6 7301   3.156   0.537  16.944  0.3006  0.1109 -0.1418
  491TMC3     C 7302   3.300   0.917  16.937  0.0551  0.5650  0.0436
  491TMC3     O 7303   3.232   0.972  16.852  0.0319  0.0102  0.0342
  491TMC3     H 7304   3.322   0.754  17.149  2.3792  0.2191 -1.3339
  491TMC3    H1 7305   3.244   0.783  16.733  0.5110  0.6875  0.5112
  491TMC3    H2 7306   3.093   0.449  16.942  1.3372 -0.6563  1.1689
  491TMC3    C7 7307   3.042   0.621  16.757 -0.0603  0.3870 -0.8579
  491TMC3    C8 7308   3.190   0.520  17.184  0.2029  0.8869  0.1085
  491TMC3    O1 7309   3.004   0.512  16.713  0.6509 -0.0255 -0.1185
  491TMC3    O2 7310   3.106   0.431  17.184  0.4181  0.7182  0.3555
  492MPD2     C 7311   4.117   0.782  10.762  0.6028 -0.5610  0.1234
  492MPD2    C1 7312   3.993   0.807  10.722 -0.3656  0.0769  0.4432
  492MPD2    C2 7313   3.887   0.790  10.815  0.0596  0.3364 -0.0250
  492MPD2    C3 7314   3.914   0.735  10.942 -0.1021 -0.2094 -0.3724
  492MPD2    C4 7315   4.040   0.703  10.974  0.1286  0.0092 -0.1011
  492MPD2    C5 7316   4.140   0.720  10.880 -0.6911  0.1433 -0.2340
  492MPD2     H 7317   3.784   0.818  10.799  0.2976  1.6364  0.7479
  492MPD2    H1 7318   4.069   0.657  11.068 -0.3351  2.6044  1.3009
  492MPD2    H2 7319   4.199   0.793  10.692 -1.1071 -0.5915 -1.8824
  492MPD2    H3 7320   4.239   0.687  10.910 -1.1862 -0.9149  0.2537
  492MPD2     N 7321   3.815   0.699  11.036 -0.6728 -0.4404 -0.4486
  492MPD2    H5 7322   3.847   0.662  11.125 -1.0300  0.6122  0.1224
  492MPD2    N1 7323   3.972   0.864  10.594  0.0870  0.3969  0.2255
  492MPD2    H7 7324   4.049   0.851  10.528 -1.2696  0.2324 -1.3210
  493TMC3    C1 7325   3.878   0.997  10.427  0.4896  0.4797  0.4395
  493TMC3    C2 7326   3.999   1.018  10.369  0.2076 -0.2463  0.7700
  493TMC3    C3 7327   4.009   1.078  10.248 -0.6169  0.3898  0.8036
  493TMC3    C4 7328   3.762   1.033  10.363  0.4306  0.7918 -0.3414
  493TMC3    C5 7329   3.777   1.094  10.235 -0.2909  0.1196  0.5925
  493TMC3    C6 7330   3.901   1.111  10.171 -0.2249  0.3809 -0.0187
  493TMC3     C 7331   3.863   0.921  10.552  1.0389 -0.0983 -0.2882
  493TMC3     O 7332   3.748   0.917  10.590  0.2787  0.3146 -0.1169
  493TMC3     H 7333   4.093   0.996  10.419  2.5958  1.7496 -2.7918
  493TMC3    H1 7334   3.663   1.006  10.399  0.5730 -0.4130 -0.8462
  493TMC3    H2 7335   3.910   1.115  10.063 -1.9494 -2.4320 -0.2812
  493TMC3    C7 7336   3.660   1.101  10.151 -0.3383  0.0378  0.2319
  493TMC3    C8 7337   4.140   1.058  10.182 -0.0645  0.2542 -0.1042
  493TMC3    O1 7338   3.565   1.047  10.197 -0.1109 -0.2705  0.0459
  493TMC3    O2 7339   4.212   0.964  10.219  0.0798  0.0542  0.5155
  494TMC3    C1 7340   3.493   2.710   0.182 -0.3188 -0.2468 -0.4332
  494TMC3    C2 7341   3.486   2.582   0.230  0.6850  1.0450 -0.4598
  494TMC3    C3 7342   3.583   2.493   0.201  0.1495 -0.1136 -0.3692
  494TMC3    C4 7343   3.598   2.750   0.100 -0.6106  0.5698 -0.2561
  494TMC3    C5 7344   3.701   2.662   0.078 -0.1872  0.2617 -0.0356
  494TMC3    C6 7345   3.691   2.530   0.121 -0.0871 -0.4553  1.3584
  494TMC3     C 7346   3.435   2.814   0.266  0.1882 -0.0753  0.1184
  494TMC3     O 7347   3.346   2.774   0.340  0.0117  0.2097 -0.2799
  494TMC3     H 7348   3.409   2.552   0.300 -0.1713  0.3137 -1.7204
  494TMC3    H1 7349   3.584   2.834   0.033  1.5237 -0.3945 -1.9062
  494TMC3    H2 7350   3.765   2.455   0.096  1.2584  0.1144  3.6353
  494TMC3    C7 7351   3.790   2.696  17.677 -0.0811  0.3591 -0.6658
  494TMC3    C8 7352   3.632   2.415   0.312  0.4503  0.0952  0.1411
  494TMC3    O1 7353   3.785   2.621  17.583  0.5139  0.3302  0.8337
  494TMC3    O2 7354   3.753   2.427   0.333  0.1275  0.1687 -0.0287
  495TMC3    C1 7355   2.972   4.557  14.384 -0.1667 -0.1746 -0.1056
  495TMC3    C2 7356   2.898   4.603  14.277  0.2548  0.3827 -0.1223
  495TMC3    C3 7357   2.816   4.710  14.298 -0.0031  0.2104  0.3444
  495TMC3    C4 7358   2.967   4.624  14.505  0.3285  0.9389  0.1961
  495TMC3    C5 7359   2.884   0.003  14.517 -0.3859 -0.1073  0.3215
  495TMC3    C6 7360   2.801   0.038  14.420 -0.8714 -0.0232  0.3137
  495TMC3     C 7361   2.994   4.415  14.385  0.3368 -0.0735 -0.4097
  495TMC3     O 7362   2.916   4.347  14.320  0.2152  0.0619  0.5542
  495TMC3     H 7363   2.899   4.557  14.179  1.0631  1.9164 -0.8408
  495TMC3    H1 7364   3.026   4.604  14.593 -2.7732 -2.2203  1.5712
  495TMC3    H2 7365   2.711   0.097  14.431 -0.0322  1.5151 -1.0579
  495TMC3    C7 7366   2.843   0.033  14.653 -0.2171 -0.7071  0.4276
  495TMC3    C8 7367   2.716   0.012  14.196 -0.5556  0.1626 -0.1807
  495TMC3    O1 7368   2.934   0.027  14.738 -0.2693  0.4334 -0.2186
  495TMC3    O2 7369   2.688   4.648  14.115  0.5669  0.0378 -0.4071
  496MPD2     C 7370   0.427   4.689  15.485  1.5727  0.2381  0.3086
  496MPD2    C1 7371   0.377   4.566  15.452  0.2977  0.3933  0.0258
  496MPD2    C2 7372   0.289   4.511  15.543 -0.1444  0.2859 -0.7115
  496MPD2    C3 7373   0.258   4.574  15.661  0.4317  0.0408  0.3548
  496MPD2    C4 7374   0.306   4.700  15.685 -0.4591 -0.2635 -0.3530
  496MPD2    C5 7375   0.400   0.023  15.603  0.4712  0.4191  0.3470
  496MPD2     H 7376   0.237   4.418  15.522  1.0493 -0.3137 -1.0580
  496MPD2    H1 7377   0.288   0.043  15.766  2.5645  0.8757 -0.6512
  496MPD2    H2 7378   0.505   0.002  15.421  0.0092  0.0112 -1.7248
  496MPD2    H3 7379   0.448   0.118  15.621  0.2359  0.1344  2.5070
  496MPD2     N 7380   0.177   4.501  15.757 -0.3476 -0.0790  0.0194
  496MPD2    H5 7381   0.127   4.417  15.730  1.4437 -0.6462 -1.5492
  496MPD2    N1 7382   0.404   4.499  15.327 -0.4258 -0.3934 -0.4188
  496MPD2    H7 7383   0.370   4.404  15.320 -3.0074  0.4929  0.1274
  497TMC3    C1 7384   0.046   4.493  15.947 -0.2685 -0.0252 -0.0464
  497TMC3    C2 7385   4.646   4.524  15.908 -0.1213  0.0048  0.8824
  497TMC3    C3 7386   4.555   4.537  16.013 -0.0184 -0.1039 -0.0012
  497TMC3    C4 7387   0.085   4.491  16.081  0.3615 -0.7534  0.4315
  497TMC3    C5 7388   4.715   4.518  16.179  0.3001  0.3098  0.1142
  497TMC3    C6 7389   4.582   4.547  16.142 -0.1889  0.0263 -0.6193
  497TMC3     C 7390   0.152   4.558  15.876 -0.9173 -0.4906 -0.7879
  497TMC3     O 7391   0.226   4.634  15.940  0.3587  0.2488 -0.2648
  497TMC3     H 7392   4.613   4.550  15.808  0.9166  0.5922  0.6982
  497TMC3    H1 7393   0.188   4.465  16.101  0.4473 -0.1346  0.7691
  497TMC3    H2 7394   4.510   4.581  16.215  0.8448  0.2201  0.3141
  497TMC3    C7 7395   0.021   4.564  16.305  0.2945 -0.0496  0.2217
  497TMC3    C8 7396   4.415   4.557  15.980  0.4933 -0.1152  0.5592
  497TMC3    O1 7397   4.691   4.523  16.405  0.2900  0.0655  0.8826
  497TMC3    O2 7398   4.337   4.607  16.060  0.2441 -0.1609 -0.1946
  498MPD2     C 7399   1.695   4.613   9.433 -1.2193  0.1875  0.1182
  498MPD2    C1 7400   1.641   4.697   9.528 -0.1981 -0.8743 -0.9585
  498MPD2    C2 7401   1.504   4.700   9.558  0.1817 -0.3077 -0.1817
  498MPD2    C3 7402   1.422   4.602   9.496  0.1907  0.5736  0.1297
  498MPD2    C4 7403   1.476   4.520   9.408  0.2314 -0.1350  0.3068
  498MPD2    C5 7404   1.607   4.520   9.378  0.8047  0.4327 -0.5804
  498MPD2     H 7405   1.467   0.039   9.636 -0.0921 -0.7943  0.1005
  498MPD2    H1 7406   1.424   4.442   9.352 -0.8283 -0.4294  1.7113
  498MPD2    H2 7407   1.802   4.617   9.413 -0.8841  1.0813  2.0723
  498MPD2    H3 7408   1.654   4.447   9.313  0.2469  0.4773 -1.0324
  498MPD2     N 7409   1.289   4.585   9.545 -0.0207  0.2042  0.2109
  498MPD2    H5 7410   1.264   4.631   9.632  2.0508  0.8884  0.4579
  498MPD2    N1 7411   1.723   0.053   9.615 -0.2631  0.3620  0.1427
  498MPD2    H7 7412   1.681   0.124   9.675 -0.5886  1.1520 -1.0203
  499TMC3    C1 7413   1.920   0.125   9.732 -0.1959 -0.0492 -0.1282
  499TMC3    C2 7414   2.041   0.084   9.781  0.1751  0.7037 -0.1653
  499TMC3    C3 7415   2.100   0.178   9.861 -0.6792  0.4122 -0.0315
  499TMC3    C4 7416   1.865   0.250   9.749 -0.2698  0.3951 -1.0494
  499TMC3    C5 7417   1.935   0.339   9.820 -0.1320  0.1640  0.6153
  499TMC3    C6 7418   2.053   0.309   9.875 -0.7037  0.2156  0.7402
  499TMC3     C 7419   1.858   0.028   9.637  0.3794 -0.2967 -0.3346
  499TMC3     O 7420   1.928   4.658   9.608 -0.5602  0.1251 -0.0959
  499TMC3     H 7421   2.066   4.705   9.786 -0.1151  0.6930  0.9205
  499TMC3    H1 7422   1.774   0.290   9.705 -0.3975 -0.7734 -1.8434
  499TMC3    H2 7423   2.102   0.378   9.942 -0.1178  0.8372 -0.3256
  499TMC3    C7 7424   1.905   0.480   9.793  0.2358  0.1963 -0.0346
  499TMC3    C8 7425   2.220   0.149   9.945 -0.2079  0.7231 -0.2448
  499TMC3    O1 7426   1.821   0.500   9.708 -0.7080  0.0260 -0.1813
  499TMC3    O2 7427   2.256   0.240  10.019  0.4686  0.0486 -0.3294
  500MPD2     C 7428   3.020   2.077   9.976  0.7814 -0.1396 -0.0273
  500MPD2    C1 7429   3.088   2.051   9.849 -0.0783 -0.7846  0.2487
  500MPD2    C2 7430   3.016   2.015   9.733  0.1304 -0.4491 -0.4053
  500MPD2    C3 7431   2.884   1.981   9.751 -0.1820 -1.0139  0.4931
  500MPD2    C4 7432   2.821   1.998   9.875 -0.1884  0.6858  0.0664
  500MPD2    C5 7433   2.890   2.050   9.988 -0.0948 -0.4447  0.1525
  500MPD2     H 7434   3.071   2.006   9.640 -1.9969 -0.2529 -1.6916
  500MPD2    H1 7435   2.715   1.978   9.889  0.1968 -0.5256  1.2124
  500MPD2    H2 7436   3.064   2.099  10.073 -1.6174 -1.2489  1.3077
  500MPD2    H3 7437   2.832   2.070  10.077 -0.6781 -0.7228 -0.1634
  500MPD2     N 7438   2.807   1.915   9.654  0.3436  0.3970 -0.0690
  500MPD2    H5 7439   2.719   1.873   9.682  0.5880 -0.3215 -0.3778
  500MPD2    N1 7440   3.228   2.047   9.839 -0.3052 -0.1403  0.4181
  500MPD2    H7 7441   3.268   2.033   9.746 -1.2827 -3.5284  0.4852
  501TMC3    C1 7442   3.452   2.065   9.921 -0.1798  0.3751  0.2290
  501TMC3    C2 7443   3.492   2.137   9.810 -0.4108 -0.5903  0.3083
  501TMC3    C3 7444   3.625   2.158   9.787  0.0510 -0.0974 -0.2100
  501TMC3    C4 7445   3.542   2.002   9.993  0.3001 -0.3732  0.6770
  501TMC3    C5 7446   3.673   2.012   9.961  0.3501 -0.1840  0.9121
  501TMC3    C6 7447   3.716   2.076   9.848 -0.1400 -0.0936 -0.4522
  501TMC3     C 7448   3.313   2.043   9.949 -0.7427 -0.2451 -0.2303
  501TMC3     O 7449   3.287   2.025  10.068 -0.2128 -0.3937  0.5362
  501TMC3     H 7450   3.415   2.187   9.752 -0.6158  2.5049  3.2674
  501TMC3    H1 7451   3.505   1.958  10.085 -2.5421  0.7009  0.0583
  501TMC3    H2 7452   3.820   2.098   9.831  0.0843  0.6948  1.9334
  501TMC3    C7 7453   3.763   1.998  10.072  0.2042  0.2407 -0.4756
  501TMC3    C8 7454   3.664   2.291   9.834  0.1797 -0.4731 -0.2998
  501TMC3    O1 7455   3.738   1.925  10.165  0.3982  0.2836  0.5554
  501TMC3    O2 7456   3.772   2.300   9.893  0.3845 -0.5037 -0.1796
  502TMC3    C1 7457   2.257   0.230  14.407  0.3072  0.3882 -0.2646
  502TMC3    C2 7458   2.244   0.318  14.309 -0.3668 -0.1577  0.2263
  502TMC3    C3 7459   2.147   0.413  14.324 -0.1326  0.5194 -0.2619
  502TMC3    C4 7460   2.152   0.196  14.489 -0.0875  0.4067  0.3884
  502TMC3    C5 7461   2.043   0.274  14.491  0.3376  0.6181 -0.0962
  502TMC3    C6 7462   2.051   0.390  14.418 -0.0286  0.0118  0.8107
  502TMC3     C 7463   2.368   0.271  14.483 -0.4897  1.2738  0.7775
  502TMC3     O 7464   2.464   0.297  14.413  0.6383  1.0298  0.8059
  502TMC3     H 7465   2.318   0.323  14.230 -0.2796  1.3539  0.4119
  502TMC3    H1 7466   2.163   0.111  14.556  0.2191  1.3565  1.5321
  502TMC3    H2 7467   1.974   0.465  14.434 -0.5845 -0.5343  0.7347
  502TMC3    C7 7468   1.994   0.297  14.626 -0.0075  0.2373 -0.3451
  502TMC3    C8 7469   2.185   0.552  14.323  0.2670 -0.0038  0.3450
  502TMC3    O1 7470   2.075   0.283  14.718  0.5464  0.1087  0.5125
  502TMC3    O2 7471   2.103   0.639  14.339 -0.2983  0.2287 -0.3151
  503MPD2     C 7472   4.168   1.495  17.053 -0.1894  0.3896 -0.4869
  503MPD2    C1 7473   4.228   1.537  17.172 -0.1954 -0.1151 -0.1648
  503MPD2    C2 7474   4.330   1.456  17.228  0.4140  0.1169  0.1683
  503MPD2    C3 7475   4.370   1.339  17.173  0.4810 -0.1723 -0.6872
  503MPD2    C4 7476   4.302   1.292  17.058  0.2061 -0.9521 -0.0693
  503MPD2    C5 7477   4.202   1.369  17.004 -0.0554 -0.2777  0.6394
  503MPD2     H 7478   4.382   1.489  17.318 -0.2115  1.0601  0.1761
  503MPD2    H1 7479   4.324   1.199  17.006  0.5374 -0.9482  0.0662
  503MPD2    H2 7480   4.078   1.539  17.012  0.7079  1.5952 -1.1477
  503MPD2    H3 7481   4.145   1.337  16.917 -0.0606 -0.1803  0.6076
  503MPD2     N 7482   4.475   1.274  17.232  0.2529  0.1490 -0.0404
  503MPD2    H5 7483   4.514   1.309  17.319  0.7883 -1.9546  0.5562
  503MPD2    N1 7484   4.203   1.669  17.220 -0.6257 -0.1832  0.4677
  503MPD2    H7 7485   4.238   1.690  17.312 -0.3505  0.7748  0.1393
  504TMC3    C1 7486   4.654   1.110  17.262  0.0600 -0.2386 -0.2302
  504TMC3    C2 7487   4.653   1.132  17.400  0.8266  0.3366 -0.4550
  504TMC3    C3 7488   0.008   1.053  17.475 -0.3134  0.3213 -0.1243
  504TMC3    C4 7489   0.017   1.025  17.201 -0.0721  0.2488 -0.2018
  504TMC3    C5 7490   0.104   0.952  17.284  0.4305  0.3596 -0.8116
  504TMC3    C6 7491   0.107   0.967  17.419 -0.1587 -0.1678  0.2462
  504TMC3     C 7492   4.546   1.161  17.173 -0.2028  0.4063 -0.1220
  504TMC3     O 7493   4.534   1.116  17.056  0.1940  0.3902  0.2801
  504TMC3     H 7494   4.566   1.184  17.437  0.2787 -1.4804  0.8021
  504TMC3    H1 7495   0.029   1.027  17.093  1.2434 -0.0399 -0.0656
  504TMC3    H2 7496   0.175   0.908  17.480 -0.4492  1.1993  1.8957
  504TMC3    C7 7497   0.227   0.921  17.221  0.0014  0.3042 -0.6386
  504TMC3    C8 7498   0.003   1.075  17.618  0.4663 -0.5680  0.3655
  504TMC3    O1 7499   0.258   0.988  17.120  0.4399  0.0647 -0.2153
  504TMC3    O2 7500   4.657   1.162  17.665  0.4640  0.0471  0.7051
  505MPD2     C 7501   0.512   4.073  10.458  0.4465  0.3925  0.0271
  505MPD2    C1 7502   0.559   3.949  10.414  0.1774 -0.1845  0.1245
  505MPD2    C2 7503   0.688   3.911  10.445  0.4515 -0.5231 -0.0442
  505MPD2    C3 7504   0.778   3.998  10.507 -0.4262 -0.0603  0.9388
  505MPD2    C4 7505   0.734   4.121  10.540 -0.1372  0.5755  0.2841
  505MPD2    C5 7506   0.606   4.154  10.523  0.7947  0.5020  0.3567
  505MPD2     H 7507   0.731   3.817  10.412 -0.4144 -1.1420  0.5984
  505MPD2    H1 7508   0.796   4.191  10.595  1.4082 -0.1053 -0.5885
  505MPD2    H2 7509   0.409   4.108  10.458  0.4765  0.4738 -1.1828
  505MPD2    H3 7510   0.579   4.252  10.561 -0.7793  0.2406 -0.0601
  505MPD2     N 7511   0.910   3.960  10.540  0.4027  0.7024  0.9622
  505MPD2    H5 7512   0.965   4.039  10.571  1.8316  0.8926 -2.0550
  505MPD2    N1 7513   0.471   3.854  10.354  0.3059 -0.9901  0.2954
  505MPD2    H7 7514   0.390   3.896  10.310  0.7486 -2.7965 -2.2558
  506TMC3    C1 7515   0.422   3.655  10.244 -0.1103  0.1482 -0.3627
  506TMC3    C2 7516   0.438   3.720  10.121 -0.9189  0.4560  0.5095
  506TMC3    C3 7517   0.440   3.653  10.004 -0.8405 -0.9561 -0.8454
  506TMC3    C4 7518   0.412   3.521  10.236 -0.0495 -0.0195  0.2037
  506TMC3    C5 7519   0.445   3.456  10.121 -0.6008 -0.5140  0.3493
  506TMC3    C6 7520   0.446   3.516  10.000 -0.0571 -0.3928 -0.8037
  506TMC3     C 7521   0.493   3.718  10.351 -0.0940 -0.0607 -0.6798
  506TMC3     O 7522   0.565   3.647  10.418 -0.0168  0.1712 -0.3367
  506TMC3     H 7523   0.427   3.828  10.121 -2.2904  0.3167  0.4827
  506TMC3    H1 7524   0.394   3.456  10.321  1.5241 -0.3507  0.2772
  506TMC3    H2 7525   0.457   3.462   9.907  1.6107 -1.3800 -0.0450
  506TMC3    C7 7526   0.550   3.360  10.136 -0.0424 -0.1898  0.2984
  506TMC3    C8 7527   0.413   3.716   9.876  0.3687 -0.1320 -0.1900
  506TMC3    O1 7528   0.556   3.273  10.052 -0.3831  0.3353  0.1129
  506TMC3    O2 7529   0.385   3.644   9.784 -0.0495  0.1388 -0.3003
  507TMC3    C1 7530   1.478   1.738  14.643  0.5833  0.0026 -0.1808
  507TMC3    C2 7531   1.509   1.863  14.593  0.1673 -1.0446  0.1504
  507TMC3    C3 7532   1.409   1.961  14.589  0.0017  0.4764  0.1989
  507TMC3    C4 7533   1.350   1.704  14.677  0.1169  0.4316  0.6086
  507TMC3    C5 7534   1.265   1.805  14.674  0.4002  0.0178 -0.1061
  507TMC3    C6 7535   1.288   1.932  14.645 -0.0574 -0.3752  0.2965
  507TMC3     C 7536   1.579   1.626  14.627  0.2865 -0.2136  0.6293
  507TMC3     O 7537   1.536   1.515  14.612  0.0723 -0.7095 -0.2209
  507TMC3     H 7538   1.608   1.884  14.553  0.6159 -2.4510  0.5220
  507TMC3    H1 7539   1.321   1.604  14.705  2.1220  0.1877  1.7947
  507TMC3    H2 7540   1.216   2.012  14.660  0.1937  0.0222 -0.6688
  507TMC3    C7 7541   1.135   1.775  14.624  0.0253  0.3723  0.1542
  507TMC3    C8 7542   1.393   2.023  14.453 -0.0973  0.8602 -0.0460
  507TMC3    O1 7543   1.076   1.866  14.574  0.0556 -0.2111  0.4010
  507TMC3    O2 7544   1.498   2.056  14.400  0.5157 -0.3550 -0.0159
  508MPD2     C 7545   1.932   2.825  15.678  0.3392 -0.0583 -0.6376
  508MPD2    C1 7546   1.859   2.924  15.746 -0.3543 -0.3578 -0.4555
  508MPD2    C2 7547   1.797   3.018  15.668  0.0615  0.3568 -0.1235
  508MPD2    C3 7548   1.801   3.002  15.530  0.4067 -0.2195 -0.9308
  508MPD2    C4 7549   1.861   2.897  15.466 -0.7653 -0.3957  0.9332
  508MPD2    C5 7550   1.932   2.814  15.544 -0.7488 -0.5195 -0.6239
  508MPD2     H 7551   1.761   3.112  15.710 -0.6798 -0.0807  0.2133
  508MPD2    H1 7552   1.854   2.881  15.358  1.8356 -0.7798  0.8298
  508MPD2    H2 7553   1.989   2.754  15.738 -1.1614 -0.5410  0.2330
  508MPD2    H3 7554   1.995   2.739  15.496 -0.2865 -1.0744  0.8312
  508MPD2     N 7555   1.754   3.106  15.457 -0.6481 -0.2483  0.1828
  508MPD2    H5 7556   1.726   3.182  15.518 -1.1092 -1.1251  1.0570
  508MPD2    N1 7557   1.858   2.927  15.884 -0.4973  0.2085  0.1580
  508MPD2    H7 7558   1.906   2.854  15.934  1.0557 -0.8277 -2.8179
  509TMC3    C1 7559   1.675   3.435  15.138 -0.6659  1.0844 -0.3449
  509TMC3    C2 7560   1.721   3.537  15.221  0.0101 -0.5945 -0.8780
  509TMC3    C3 7561   1.784   3.485  15.330 -0.2986 -0.2484 -0.6863
  509TMC3    C4 7562   1.685   3.302  15.169 -0.5685 -0.5318  1.1799
  509TMC3    C5 7563   1.749   3.263  15.286  0.6146  0.0297  0.0826
  509TMC3    C6 7564   1.807   3.355  15.364  0.1737 -0.0555  0.4686
  509TMC3     C 7565   1.577   3.466  15.036 -0.9620  0.6230  0.0017
  509TMC3     O 7566   1.500   3.372  15.002  0.2826  0.1935 -0.4378
  509TMC3     H 7567   1.704   3.640  15.191  4.0683  0.3423  0.0771
  509TMC3    H1 7568   1.622   3.233  15.115 -0.9706  0.3997  0.4444
  509TMC3    H2 7569   1.866   3.329  15.451  0.8852 -0.7200 -0.2060
  509TMC3    C7 7570   1.749   3.122  15.322  0.2386  0.9883  0.2694
  509TMC3    C8 7571   1.857   3.577  15.413  0.0484 -0.3824 -0.2822
  509TMC3    O1 7572   1.737   3.036  15.239 -0.2597 -0.1357 -0.2783
  509TMC3    O2 7573   1.955   3.529  15.471 -0.0203  0.2751 -0.0725
  510MPD2     C 7574   4.163   0.343  14.082  0.2950 -0.5328  0.2441
  510MPD2    C1 7575   4.235   0.299  14.193  0.6516  0.1702 -0.3633
  510MPD2    C2 7576   4.365   0.259  14.177  0.6104 -0.1262 -0.3257
  510MPD2    C3 7577   4.430   0.258  14.056  0.6940 -0.4302 -0.5639
  510MPD2    C4 7578   4.353   0.291  13.942 -0.5061 -0.3360 -0.5425
  510MPD2    C5 7579   4.226   0.340  13.962 -0.2632  0.3092 -0.3069
  510MPD2     H 7580   4.413   0.215  14.264 -1.0873 -0.8165  0.2532
  510MPD2    H1 7581   4.385   0.287  13.839 -1.0327  2.2386 -0.8078
  510MPD2    H2 7582   4.059   0.374  14.091  0.3660  0.2528 -1.5721
  510MPD2    H3 7583   4.167   0.374  13.877  0.8127 -0.3267 -1.3225
  510MPD2     N 7584   4.567   0.219  14.050  0.9606 -0.1794  0.1518
  510MPD2    H5 7585   4.613   0.197  14.138 -2.6438 -1.1647  1.7989
  510MPD2    N1 7586   4.165   0.292  14.313 -0.3753  0.4138  0.1551
  510MPD2    H7 7587   4.068   0.324  14.310 -0.7170 -0.7771 -1.5911
  511TMC3    C1 7588   4.112   0.201  14.517  0.7675 -0.6372  0.2378
  511TMC3    C2 7589   4.080   0.258  14.638  0.2114  0.2194 -0.4117
  511TMC3    C3 7590   4.005   0.185  14.730 -0.8370  0.0285 -0.2108
  511TMC3    C4 7591   4.094   0.069  14.490  0.6492 -0.1581  0.5022
  511TMC3    C5 7592   4.018   4.726  14.588  0.0046 -0.0741  0.0941
  511TMC3    C6 7593   3.983   0.053  14.709  0.6218 -0.2310  0.3154
  511TMC3     C 7594   4.217   0.247  14.433  0.6938 -0.0514  0.0240
  511TMC3     O 7595   4.328   0.200  14.464  0.3850  0.1728  0.1413
  511TMC3     H 7596   4.109   0.362  14.648 -0.2118  0.0819  2.3162
  511TMC3    H1 7597   4.110   0.040  14.387 -2.2843 -1.8173  0.5168
  511TMC3    H2 7598   3.908   4.722  14.762 -0.2530 -0.7302 -1.4816
  511TMC3    C7 7599   4.019   4.583  14.565 -0.7154  0.1510  0.5633
  511TMC3    C8 7600   3.937   0.255  14.846 -0.0865  0.0342 -0.0544
  511TMC3    O1 7601   4.014   4.543  14.446  0.2957  0.0852 -0.4570
  511TMC3    O2 7602   3.908   0.371  14.837  0.0538  0.4641 -0.1172
  512TMC3    C1 7603   3.608   4.257  12.938 -0.1402 -0.1687  0.1687
  512TMC3    C2 7604   3.639   4.187  13.056 -0.1558  0.2323  0.5426
  512TMC3    C3 7605   3.664   4.051  13.050 -0.9594  0.8808 -0.2667
  512TMC3    C4 7606   3.622   4.200  12.820  1.1588  1.0967  0.2723
  512TMC3    C5 7607   3.660   4.068  12.816 -0.0861 -0.2781  0.0114
  512TMC3    C6 7608   3.672   3.991  12.931 -0.7024 -0.1788 -0.2308
  512TMC3     C 7609   3.552   4.394  12.949  0.6722  0.2011 -0.6887
  512TMC3     O 7610   3.551   4.440  13.064 -0.1172  0.3786  0.1712
  512TMC3     H 7611   3.610   4.230  13.151  0.1942 -0.8030  1.1104
  512TMC3    H1 7612   3.611   4.263  12.733 -0.8460 -0.8628 -0.9018
  512TMC3    H2 7613   3.690   3.884  12.938  0.3236  0.1265  1.6892
  512TMC3    C7 7614   3.683   4.017  12.686 -0.0745  0.2939 -0.0513
  512TMC3    C8 7615   3.767   4.010  13.133  0.6133  0.0556  0.3542
  512TMC3    O1 7616   3.652   4.085  12.593 -0.1968  0.1582  1.3293
  512TMC3    O2 7617   3.805   3.893  13.126 -0.2605 -0.1901  0.1015
  513MPD2     C 7618   1.022   0.084  12.549  0.3628 -0.4481  0.3547
  513MPD2    C1 7619   1.043   0.002  12.441  0.2031  0.2577  0.3671
  513MPD2    C2 7620   1.126   4.624  12.454 -0.0166  0.3189  0.3397
  513MPD2    C3 7621   1.161   4.581  12.575  0.7385  1.0109 -0.5936
  513MPD2    C4 7622   1.119   4.641  12.694  0.5518 -0.1229 -0.1313
  513MPD2    C5 7623   1.057   0.038  12.677  0.1053 -0.2917 -1.1050
  513MPD2     H 7624   1.144   4.566  12.364 -2.6727 -0.3517  0.2348
  513MPD2    H1 7625   1.145   4.606  12.793  1.0716 -3.6713 -1.5214
  513MPD2    H2 7626   0.984   0.185  12.539 -1.9305 -1.5525 -2.0009
  513MPD2    H3 7627   1.038   0.106  12.758 -1.5640 -0.5054 -1.3195
  513MPD2     N 7628   1.228   4.455  12.564  0.0437 -0.2776  0.3885
  513MPD2    H5 7629   1.255   4.420  12.473  2.2073  1.0068  0.5460
  513MPD2    N1 7630   0.999   0.031  12.313  0.0524 -0.8939  0.4353
  513MPD2    H7 7631   1.019   4.696  12.235  1.8434 -0.2971  0.3989
  514TMC3    C1 7632   0.912   0.118  12.125 -0.1953  0.3334 -0.3987
  514TMC3    C2 7633   0.785   0.109  12.076  0.9558  0.0434  0.2705
  514TMC3    C3 7634   0.756   0.011  11.979  0.6468 -0.3358 -0.0299
  514TMC3    C4 7635   1.012   0.043  12.069 -0.0204 -0.8793 -0.4018
  514TMC3    C5 7636   0.980   4.671  11.979 -0.7003  0.1530  0.0501
  514TMC3    C6 7637   0.851   4.643  11.945 -0.0376 -0.0916 -0.1749
  514TMC3     C 7638   0.912   0.124  12.272 -0.2320 -0.1805  0.1337
  514TMC3     O 7639   0.831   0.196  12.333 -0.0099  0.0164 -0.0983
  514TMC3     H 7640   0.716   0.180  12.118  0.7419 -1.6155  2.7556
  514TMC3    H1 7641   1.113   0.063  12.103 -1.0862  1.9114  1.0898
  514TMC3    H2 7642   0.828   4.563  11.876  0.6703  0.1416 -0.6748
  514TMC3    C7 7643   1.054   4.559  12.011  0.2617  0.0279  0.1109
  514TMC3    C8 7644   0.621   0.000  11.940  0.2595 -0.5108  0.1466
  514TMC3    O1 7645   1.116   4.574  12.115  0.0323 -0.0398  0.4489
  514TMC3    O2 7646   0.539   0.030  12.030 -0.4406  0.3463  0.3972
  515MPD2     C 7647   3.186   1.713  15.114 -0.4582  0.1718 -0.4517
  515MPD2    C1 7648   3.214   1.648  14.994 -0.1807 -0.1088  0.4128
  515MPD2    C2 7649   3.327   1.688  14.923 -0.4720  0.3748  0.4038
  515MPD2    C3 7650   3.403   1.794  14.970  0.9088 -0.0947 -0.6115
  515MPD2    C4 7651   3.370   1.864  15.076 -0.5157  1.1745  0.4874
  515MPD2    C5 7652   3.256   1.824  15.151 -0.0886  0.0538 -0.0159
  515MPD2     H 7653   3.358   1.639  14.832 -0.2633 -0.6309  1.0256
  515MPD2    H1 7654   3.434   1.944  15.108  0.5386  0.6173 -0.2111
  515MPD2    H2 7655   3.093   1.696  15.166  0.4995  0.8374  1.4837
  515MPD2    H3 7656   3.215   1.877  15.236 -1.0293 -1.1341  0.2769
  515MPD2     N 7657   3.538   1.829  14.922  0.2811  0.5985  0.6295
  515MPD2    H5 7658   3.583   1.908  14.967  1.3980 -0.4358  1.3178
  515MPD2    N1 7659   3.138   1.539  14.943  0.5492  0.5724 -0.3605
  515MPD2    H7 7660   3.153   1.502  14.850  0.2035  0.4966 -0.3871
  516TMC3    C1 7661   3.023   1.343  14.950  0.9437  0.0407 -0.1848
  516TMC3    C2 7662   3.012   1.334  14.815  0.1644 -0.3710 -0.4153
  516TMC3    C3 7663   3.029   1.212  14.754 -0.1829 -0.4625  0.8830
  516TMC3    C4 7664   3.053   1.230  15.021 -0.5403 -0.1078  0.0476
  516TMC3    C5 7665   3.072   1.111  14.962  0.5020 -0.0743  0.0882
  516TMC3    C6 7666   3.063   1.097  14.828  0.7137  0.7556  0.6227
  516TMC3     C 7667   3.054   1.467  15.018 -0.1390 -0.5261 -0.3261
  516TMC3     O 7668   3.025   1.477  15.135 -0.4925 -0.7112 -0.3219
  516TMC3     H 7669   2.991   1.431  14.772 -0.0591 -1.0501 -1.8179
  516TMC3    H1 7670   3.067   1.237  15.128 -1.8014 -1.3295  0.2830
  516TMC3    H2 7671   3.059   0.997  14.788  2.5285  0.1981  1.8224
  516TMC3    C7 7672   3.068   0.986  15.034  0.7738 -0.1876  0.3926
  516TMC3    C8 7673   3.005   1.208  14.608  0.8427  0.4090 -0.7421
  516TMC3    O1 7674   3.026   0.888  14.978 -0.0337  0.1242 -0.3585
  516TMC3    O2 7675   2.964   1.311  14.557 -0.1211 -0.2531 -0.1443
  517MPD2     C 7676   2.653   2.860   0.195 -0.2809 -0.1962  0.1364
  517MPD2    C1 7677   2.779   2.880   0.142  0.1907 -0.0289 -0.0220
  517MPD2    C2 7678   2.879   2.946   0.217 -0.4192  0.2687 -0.3742
  517MPD2    C3 7679   2.841   2.976   0.347 -0.2617  0.0832 -0.3027
  517MPD2    C4 7680   2.718   2.957   0.397 -0.4508 -0.4512 -0.4305
  517MPD2    C5 7681   2.621   2.903   0.319  0.0679 -0.5773  0.5966
  517MPD2     H 7682   2.983   2.959   0.190  0.0476 -0.4174  1.1525
  517MPD2    H1 7683   2.692   2.988   0.497 -0.2984 -1.3131 -0.1200
  517MPD2    H2 7684   2.578   2.807   0.138  1.8220 -1.5097 -1.4210
  517MPD2    H3 7685   2.520   2.887   0.352  0.1594  0.2345  1.2868
  517MPD2     N 7686   2.938   3.018   0.445  0.0639  0.7750  0.1979
  517MPD2    H5 7687   2.914   3.021   0.543  0.9007 -3.5985  0.5186
  517MPD2    N1 7688   2.819   2.825   0.019 -0.4744  0.9001  0.0927
  517MPD2    H7 7689   2.908   2.849  17.686 -0.4150  2.5173  1.1468
  518TMC3    C1 7690   2.805   2.677  17.542  0.0159 -0.4203  0.4746
  518TMC3    C2 7691   2.796   2.547  17.513  0.2475 -0.1210 -0.1617
  518TMC3    C3 7692   2.862   2.499  17.404  0.2358 -0.1663  0.4416
  518TMC3    C4 7693   2.890   2.763  17.475  0.0960  0.0387 -0.3962
  518TMC3    C5 7694   2.963   2.716  17.367 -0.4136 -0.2231  0.8496
  518TMC3    C6 7695   2.936   2.587  17.330 -1.0379 -0.2554  0.0341
  518TMC3     C 7696   2.745   2.723  17.667  0.1232 -0.0167 -0.0618
  518TMC3     O 7697   2.638   2.664  17.691 -0.7895  0.1438 -0.4852
  518TMC3     H 7698   2.736   2.472  17.564 -0.1186 -0.7427 -1.4939
  518TMC3    H1 7699   2.886   2.869  17.500 -0.2600  0.4041 -1.9763
  518TMC3    H2 7700   2.972   2.550  17.235 -1.5368 -0.8236  0.0666
  518TMC3    C7 7701   3.096   2.769  17.353  0.2347  0.4422 -0.1157
  518TMC3    C8 7702   2.882   2.352  17.370 -0.1575  0.7125  0.5743
  518TMC3    O1 7703   3.131   2.856  17.439 -0.1506 -0.3474  0.3010
  518TMC3    O2 7704   2.946   2.326  17.270  0.2825  0.7508 -0.4727
  519MPD2     C 7705   4.562   0.580  14.314 -0.0483  0.3804  0.2192
  519MPD2    C1 7706   4.454   0.612  14.233 -0.1758  0.0180  0.9201
  519MPD2    C2 7707   4.472   0.596  14.096 -0.2270  0.1605  0.5688
  519MPD2    C3 7708   4.589   0.553  14.037 -0.1523 -0.7901 -0.2298
  519MPD2    C4 7709   4.697   0.534  14.126  0.3507  0.4151 -0.2636
  519MPD2    C5 7710   4.684   0.554  14.259 -0.5353  0.0274 -0.0217
  519MPD2     H 7711   4.382   0.609  14.037  0.2708  1.7229  0.1394
  519MPD2    H1 7712   0.055   0.484  14.081  1.0052  0.1551  1.2640
  519MPD2    H2 7713   4.548   0.590  14.421 -0.0266  1.9655  0.0791
  519MPD2    H3 7714   0.040   0.534  14.325  1.0965  1.2336 -1.7218
  519MPD2     N 7715   4.604   0.538  13.899  0.0377 -0.0675 -0.2603
  519MPD2    H5 7716   4.698   0.513  13.869 -0.5114 -1.0688 -1.1608
  519MPD2    N1 7717   4.339   0.664  14.300 -0.0501 -0.0239 -0.5536
  519MPD2    H7 7718   4.312   0.613  14.384  0.8226  1.5686  0.6879
  520TMC3    C1 7719   4.571   0.536  13.676  0.4528 -0.0614  0.1847
  520TMC3    C2 7720   4.530   0.624  13.577 -0.5837  0.0943  0.0981
  520TMC3    C3 7721   4.619   0.659  13.481 -0.9302 -0.3538  0.3926
  520TMC3    C4 7722   4.695   0.478  13.676  0.2740 -0.1232  0.3553
  520TMC3    C5 7723   0.058   0.517  13.582  0.0295  0.2899 -0.8514
  520TMC3    C6 7724   0.022   0.604  13.480  0.9554 -0.2172 -0.0382
  520TMC3     C 7725   4.508   0.537  13.804 -0.0636  0.1357  0.0488
  520TMC3     O 7726   4.392   0.584  13.806  0.0114  0.1616  0.4243
  520TMC3     H 7727   4.435   0.672  13.595 -0.7207 -1.5885  3.8334
  520TMC3    H1 7728   4.726   0.405  13.750  0.6987 -0.0963  0.2054
  520TMC3    H2 7729   0.092   0.633  13.402  0.1532  2.3158  0.1626
  520TMC3    C7 7730   0.190   0.461  13.593 -0.2550  0.5352 -0.5138
  520TMC3    C8 7731   4.569   0.731  13.360  0.3428 -0.0124 -1.5684
  520TMC3    O1 7732   0.201   0.362  13.669  0.3466 -0.4240 -0.3331
  520TMC3    O2 7733   4.632   0.718  13.255 -0.1405 -0.1147  0.3237
  521MPD2     C 7734   0.459   3.988  17.095 -0.2639  0.0526  0.3599
  521MPD2    C1 7735   0.449   3.877  17.016 -0.5100 -0.5995 -0.1220
  521MPD2    C2 7736   0.561   3.837  16.941  0.4933 -0.3896 -0.2897
  521MPD2    C3 7737   0.672   3.919  16.927  0.4813 -0.5530  0.6495
  521MPD2    C4 7738   0.670   4.039  16.993  1.1987 -0.0485  0.2855
  521MPD2    C5 7739   0.573   4.069  17.083  0.5258  0.3488  0.6018
  521MPD2     H 7740   0.561   3.744  16.885  1.6188  0.3856 -1.5743
  521MPD2    H1 7741   0.756   4.105  16.989  1.0204  0.1214 -0.6777
  521MPD2    H2 7742   0.387   4.017  17.170 -1.8073 -1.0027 -0.7209
  521MPD2    H3 7743   0.587   4.154  17.149 -3.4993 -0.2469  2.1918
  521MPD2     N 7744   0.799   3.885  16.873 -0.4768  0.1921  0.7362
  521MPD2    H5 7745   0.862   3.960  16.848  0.8695  0.1441  3.8684
  521MPD2    N1 7746   0.328   3.804  17.032 -0.7226  0.1745  0.3145
  521MPD2    H7 7747   0.269   3.829  17.111 -1.3207 -0.2629  0.0006
  522TMC3    C1 7748   0.981   3.738  16.825  1.0534  0.0422 -0.3931
  522TMC3    C2 7749   1.036   3.616  16.840 -0.5599  0.1809  0.1732
  522TMC3    C3 7750   1.142   3.586  16.758 -0.0564 -0.8481 -0.3761
  522TMC3    C4 7751   1.026   3.825  16.729 -0.8910 -0.8158 -0.0014
  522TMC3    C5 7752   1.122   3.784  16.645  0.2223 -0.0742  0.6393
  522TMC3    C6 7753   1.186   3.667  16.661 -0.3406 -0.6346  0.3430
  522TMC3     C 7754   0.845   3.754  16.880 -0.1519 -0.3872  0.5822
  522TMC3     O 7755   0.795   3.656  16.930 -0.4514 -0.7984  0.4663
  522TMC3     H 7756   1.010   3.540  16.913  0.3728 -1.1742 -0.8894
  522TMC3    H1 7757   0.987   3.927  16.723  0.8318 -0.1996 -0.8176
  522TMC3    H2 7758   1.269   3.639  16.596  0.7437 -0.8816  1.8267
  522TMC3    C7 7759   1.130   3.845  16.508  0.1404 -0.2591  0.1116
  522TMC3    C8 7760   1.221   3.467  16.798 -0.5023  0.4051 -0.1283
  522TMC3    O1 7761   1.237   3.878  16.466 -0.2076 -0.2537  0.1048
  522TMC3    O2 7762   1.182   3.410  16.899  0.2906  0.3494 -0.1808
  523MPD2     C 7763   3.762   3.325  10.190 -0.8224  0.3253  0.7754
  523MPD2    C1 7764   3.725   3.296  10.062  0.6134  0.2731  0.1883
  523MPD2    C2 7765   3.666   3.397   9.986 -0.4064 -0.3908 -0.1448
  523MPD2    C3 7766   3.648   3.526  10.039 -0.3561  0.0068  0.1471
  523MPD2    C4 7767   3.678   3.549  10.170  0.0594 -0.5228  0.1973
  523MPD2    C5 7768   3.748   3.454  10.240  1.2486  0.4318 -0.0341
  523MPD2     H 7769   3.639   3.383   9.882 -0.6080  0.6315 -0.2333
  523MPD2    H1 7770   3.652   3.640  10.223 -0.9216 -1.0255  0.5811
  523MPD2    H2 7771   3.812   3.251  10.251  1.6379  2.4661  1.3373
  523MPD2    H3 7772   3.771   3.475  10.344 -0.4712 -0.7299  0.5915
  523MPD2     N 7773   3.592   3.630   9.974  0.7604  0.4687 -0.0027
  523MPD2    H5 7774   3.591   3.719  10.022 -0.0884  1.0138 -1.0226
  523MPD2    N1 7775   3.768   3.173  10.004 -0.0829  0.5708 -0.1822
  523MPD2    H7 7776   3.815   3.107  10.066 -0.0709  0.3145 -0.4666
  524TMC3    C1 7777   3.477   3.754   9.811 -0.1402  0.2023  0.0779
  524TMC3    C2 7778   3.436   3.759   9.679  0.2114 -0.2952 -0.0314
  524TMC3    C3 7779   3.388   3.877   9.643 -0.3365 -1.0686 -0.2457
  524TMC3    C4 7780   3.435   3.844   9.903 -0.6241  0.0828  0.5198
  524TMC3    C5 7781   3.363   3.950   9.865  0.6130  0.9228  0.2653
  524TMC3    C6 7782   3.342   3.972   9.732 -0.5194  0.8776 -0.3034
  524TMC3     C 7783   3.533   3.625   9.849  1.4426 -0.2368 -0.3691
  524TMC3     O 7784   3.501   3.528   9.780  0.4395  0.3273 -0.0489
  524TMC3     H 7785   3.464   3.685   9.605 -3.8829  0.4317 -2.3243
  524TMC3    H1 7786   3.450   3.822  10.008 -0.2836  0.6593  0.5944
  524TMC3    H2 7787   3.274   4.052   9.703  0.0710  1.3581 -0.3911
  524TMC3    C7 7788   3.265   4.010   9.953  0.2204 -0.1965  1.2940
  524TMC3    C8 7789   3.350   3.888   9.509  0.3112  0.0150 -0.5107
  524TMC3    O1 7790   3.235   3.942  10.052 -0.2433 -0.0370  0.1770
  524TMC3    O2 7791   3.347   3.789   9.431  0.4981 -0.5139 -0.0437
  525MPD2     C 7792   1.104   0.356  14.051 -0.3640 -0.0917  0.0576
  525MPD2    C1 7793   1.210   0.397  14.127 -0.1462 -0.3744 -0.5966
  525MPD2    C2 7794   1.269   0.519  14.110 -0.3769 -0.3817 -0.4793
  525MPD2    C3 7795   1.232   0.601  14.007  0.7068  0.3197  0.6979
  525MPD2    C4 7796   1.126   0.558  13.927  0.0434 -0.2752  1.2845
  525MPD2    C5 7797   1.058   0.441  13.950 -0.5038  0.0368  0.4676
  525MPD2     H 7798   1.365   0.529  14.160 -0.8618  0.0182  0.3800
  525MPD2    H1 7799   1.100   0.616  13.840 -0.9270 -2.9592 -0.1898
  525MPD2    H2 7800   1.045   0.266  14.068  1.8180 -1.9116 -2.0434
  525MPD2    H3 7801   0.980   0.415  13.880  0.6792 -1.4352 -0.2916
  525MPD2     N 7802   1.289   0.721  13.972 -0.5397 -0.0463  0.2253
  525MPD2    H5 7803   1.248   0.759  13.887  0.2914 -0.3736 -0.3219
  525MPD2    N1 7804   1.248   0.323  14.241 -0.3498  0.4988 -0.3736
  525MPD2    H7 7805   1.327   0.360  14.293 -1.1304  1.1492  0.3629
  526TMC3    C1 7806   1.251   0.145  14.404  0.0662 -0.0592 -0.1715
  526TMC3    C2 7807   1.172   0.099  14.505 -0.2498  0.4355 -0.7360
  526TMC3    C3 7808   1.226   0.068  14.624 -0.3254 -1.2201 -0.0623
  526TMC3    C4 7809   1.390   0.143  14.410 -0.2746 -0.4531 -0.6580
  526TMC3    C5 7810   1.439   0.108  14.531  1.0025 -0.0767 -0.4318
  526TMC3    C6 7811   1.360   0.081  14.643  0.4146  0.0161  0.4125
  526TMC3     C 7812   1.179   0.214  14.294  0.1099 -0.9044  0.4313
  526TMC3     O 7813   1.068   0.170  14.266 -0.2387  0.0330 -0.3664
  526TMC3     H 7814   1.068   0.078  14.485 -0.6336  1.3633  0.2530
  526TMC3    H1 7815   1.444   0.162  14.318  1.4278 -0.9505  0.2486
  526TMC3    H2 7816   1.407   0.093  14.740  3.0136 -0.4134 -0.7650
  526TMC3    C7 7817   1.577   0.057  14.544  0.1541 -0.2810  0.8854
  526TMC3    C8 7818   1.145   0.098  14.742 -0.2413  0.0093 -0.2987
  526TMC3    O1 7819   1.608   0.024  14.660  0.5076 -0.0918 -0.3787
  526TMC3    O2 7820   1.202   0.150  14.837 -0.1351 -0.0153  0.0613
  527MPD2     C 7821   4.004   3.086   0.731 -0.5053 -0.2567 -0.4145
  527MPD2    C1 7822   4.075   3.122   0.845 -0.0116  0.3286  0.4837
  527MPD2    C2 7823   4.212   3.159   0.821 -0.1578 -0.1115  0.3957
  527MPD2    C3 7824   4.260   3.182   0.693  0.7100  1.3244 -0.3117
  527MPD2    C4 7825   4.180   3.158   0.585  1.0365 -0.6847 -0.4391
  527MPD2    C5 7826   4.055   3.117   0.607 -0.5626 -0.0883 -0.3122
  527MPD2     H 7827   4.280   3.170   0.905  1.0024 -0.1886 -0.5519
  527MPD2    H1 7828   4.206   3.156   0.480 -1.5949  1.2207 -1.1218
  527MPD2    H2 7829   3.909   3.036   0.747 -0.9645  0.9247  0.5472
  527MPD2    H3 7830   4.004   3.077   0.520 -2.8008  2.2294 -0.0680
  527MPD2     N 7831   4.390   3.234   0.685  0.0667 -0.0966 -0.0719
  527MPD2    H5 7832   4.430   3.278   0.768  3.5707 -0.7152 -1.4841
  527MPD2    N1 7833   4.023   3.115   0.978  0.1006 -0.1396 -0.6261
  527MPD2    H7 7834   4.098   3.130   1.046  0.4640 -0.3005 -0.9924
  528TMC3    C1 7835   3.856   3.082   1.149 -0.1790  0.1673  0.4511
  528TMC3    C2 7836   3.956   3.100   1.241  0.2850 -0.6787  0.4976
  528TMC3    C3 7837   3.934   3.128   1.373  0.3131  0.0215  0.2794
  528TMC3    C4 7838   3.727   3.095   1.193 -0.6470  0.0705  0.0103
  528TMC3    C5 7839   3.705   3.126   1.327 -0.0103 -0.9638  0.7159
  528TMC3    C6 7840   3.805   3.141   1.416  0.0656  0.2395 -0.3332
  528TMC3     C 7841   3.890   3.101   1.010  0.3737 -0.0157 -0.7353
  528TMC3     O 7842   3.791   3.083   0.941 -0.5741 -0.1399 -0.1616
  528TMC3     H 7843   4.056   3.069   1.213  0.1141 -1.1879  0.4389
  528TMC3    H1 7844   3.650   3.085   1.118 -0.4116  1.1228 -0.3662
  528TMC3    H2 7845   3.791   3.179   1.516  0.7623 -1.4814  0.4238
  528TMC3    C7 7846   3.566   3.126   1.377  0.3459  0.3820  0.2432
  528TMC3    C8 7847   4.047   3.140   1.458 -0.8399  0.3339 -0.1388
  528TMC3    O1 7848   3.479   3.122   1.290  0.0435 -0.3040  0.5050
  528TMC3    O2 7849   4.152   3.180   1.413 -0.4252 -0.0561  0.2987
  529MPD2     C 7850   2.067   2.097   0.843 -0.7705 -0.7432  0.2260
  529MPD2    C1 7851   2.022   1.980   0.795 -0.9597  0.1472  0.6627
  529MPD2    C2 7852   1.923   1.979   0.706 -0.0019  0.3111 -0.3601
  529MPD2    C3 7853   1.887   2.097   0.639  0.0343  0.2715  0.4387
  529MPD2    C4 7854   1.949   2.218   0.669  0.2117  0.4070 -0.2307
  529MPD2    C5 7855   2.030   2.214   0.776  0.4021 -0.0236  0.2511
  529MPD2     H 7856   1.879   1.883   0.684 -2.4991  0.9920  1.7222
  529MPD2    H1 7857   1.917   2.308   0.617 -1.2068  1.0111  1.7001
  529MPD2    H2 7858   2.136   2.112   0.926  0.8254 -2.0537 -0.8539
  529MPD2    H3 7859   2.065   2.306   0.821 -0.2918  0.5114 -0.2869
  529MPD2     N 7860   1.778   2.104   0.549 -0.1701 -0.9571  0.6494
  529MPD2    H5 7861   1.765   2.197   0.510 -3.2914 -0.5945  2.4876
  529MPD2    N1 7862   2.063   1.854   0.848 -0.7849  0.2308 -0.2644
  529MPD2    H7 7863   2.024   1.772   0.802  0.0236  0.9996 -2.3490
  530TMC3    C1 7864   2.176   1.701   0.992 -0.0017 -0.0048 -0.0386
  530TMC3    C2 7865   2.169   1.664   1.124  0.4898  0.2023  0.3060
  530TMC3    C3 7866   2.201   1.535   1.147 -0.4282 -0.1074 -0.3080
  530TMC3    C4 7867   2.216   1.617   0.887  0.0091 -0.4172  0.8869
  530TMC3    C5 7868   2.229   1.485   0.918  0.2945  0.7515  0.3350
  530TMC3    C6 7869   2.222   1.445   1.047 -0.2303 -0.2870  0.4719
  530TMC3     C 7870   2.139   1.837   0.962  0.2221  0.3261  0.5687
  530TMC3     O 7871   2.184   1.925   1.035 -0.1932 -0.8773 -0.0372
  530TMC3     H 7872   2.131   1.723   1.206 -1.4940 -1.4617  0.5852
  530TMC3    H1 7873   2.218   1.651   0.784 -0.0098  0.5874  1.2210
  530TMC3    H2 7874   2.228   1.340   1.073 -0.0460 -0.7767 -1.5569
  530TMC3    C7 7875   2.161   1.405   0.823  0.3994 -0.2935 -0.2864
  530TMC3    C8 7876   2.198   1.495   1.285  0.1596  0.7154  0.3330
  530TMC3    O1 7877   2.215   1.417   0.715  0.0401 -0.6348  0.0960
  530TMC3    O2 7878   2.140   1.566   1.362 -0.3362 -0.2105  0.0941
  531MPD2     C 7879   1.067   4.062  12.057 -0.7888  0.1528 -0.0036
  531MPD2    C1 7880   1.143   4.158  12.120  0.1430  0.7431  0.9963
  531MPD2    C2 7881   1.135   4.289  12.067  0.3365  0.5834  0.4120
  531MPD2    C3 7882   1.051   4.327  11.963  1.0143  1.1303  0.7879
  531MPD2    C4 7883   0.982   4.227  11.899  0.0283 -0.0080 -0.6335
  531MPD2    C5 7884   0.993   4.100  11.949 -1.0387 -0.2499  0.6034
  531MPD2     H 7885   1.188   4.369  12.117  0.9763  0.6936 -0.4321
  531MPD2    H1 7886   0.912   4.255  11.822 -2.0524  0.0399  1.2560
  531MPD2    H2 7887   1.072   3.961  12.099  1.2340  0.2129 -0.0893
  531MPD2    H3 7888   0.951   4.011  11.903  0.9792 -0.5673 -0.6065
  531MPD2     N 7889   1.035   4.460  11.925  0.9804  0.2315 -0.5838
  531MPD2    H5 7890   0.986   4.471  11.837  0.6944 -1.9166 -0.6944
  531MPD2    N1 7891   1.222   4.141  12.236  0.5782 -0.7008 -0.4311
  531MPD2    H7 7892   1.264   4.226  12.271 -0.2909 -0.3082 -0.3519
  532TMC3    C1 7893   1.279   4.071  12.448 -0.1827  0.2990 -0.0152
  532TMC3    C2 7894   1.248   4.199  12.497 -0.6184 -0.2939  0.6351
  532TMC3    C3 7895   1.308   4.240  12.614  0.1786 -0.3950  0.0743
  532TMC3    C4 7896   1.352   3.982  12.523 -0.0634  0.4087  0.5955
  532TMC3    C5 7897   1.406   4.037  12.641 -0.6022 -0.5576  0.2016
  532TMC3    C6 7898   1.390   4.167  12.684 -0.0344  0.0051 -0.2489
  532TMC3     C 7899   1.223   4.033  12.320 -0.1155 -0.1199  0.4732
  532TMC3     O 7900   1.186   3.914  12.300  0.0713 -0.0640 -0.5637
  532TMC3     H 7901   1.182   4.257  12.433  0.9946 -0.8143 -1.4649
  532TMC3    H1 7902   1.393   3.889  12.485  0.8384  1.1705 -0.3039
  532TMC3    H2 7903   1.410   4.203  12.784  0.0040 -1.5142  0.2987
  532TMC3    C7 7904   1.480   3.954  12.733  0.1953 -0.2099 -0.2399
  532TMC3    C8 7905   1.261   4.363  12.667  0.1612  0.4078  0.0306
  532TMC3    O1 7906   1.536   4.017  12.821  0.2870  0.2404  0.2373
  532TMC3    O2 7907   1.251   4.376  12.788  0.2351  0.5823 -0.4995
  533TMC3    C1 7908   1.412   0.905  14.027  0.4585  0.0106  0.0344
  533TMC3    C2 7909   1.533   0.956  14.060  0.0684  0.1715 -0.3310
  533TMC3    C3 7910   1.525   1.093  14.088 -0.3554  0.6093  0.0011
  533TMC3    C4 7911   1.294   0.974  14.046  0.4950  0.3694  0.4645
  533TMC3    C5 7912   1.292   1.092  14.116 -0.2393  0.4246  0.4120
  533TMC3    C6 7913   1.411   1.162  14.116  0.4415  0.0710 -0.0504
  533TMC3     C 7914   1.401   0.767  14.034 -0.0675  0.3527  0.2848
  533TMC3     O 7915   1.488   0.709  14.095  0.1147  0.1402 -0.1872
  533TMC3     H 7916   1.622   0.895  14.063 -0.0016  0.1415  1.1643
  533TMC3    H1 7917   1.204   0.916  14.059 -0.5585  1.9113  0.1118
  533TMC3    H2 7918   1.437   1.248  14.176  0.1733  0.3379 -0.3193
  533TMC3    C7 7919   1.217   1.089  14.249  0.3005  0.6473 -0.2581
  533TMC3    C8 7920   1.656   1.152  14.139  0.2946 -0.0096  0.9637
  533TMC3    O1 7921   1.107   1.032  14.263  0.4759 -0.0182 -0.0826
  533TMC3    O2 7922   1.714   1.098  14.235  0.2504  1.2205 -0.5022
  534MPD2     C 7923   4.003   2.250   2.068 -0.2908 -0.1802  0.4340
  534MPD2    C1 7924   3.996   2.293   1.938  0.4705  0.1484 -0.6777
  534MPD2    C2 7925   3.919   2.222   1.845 -0.0319 -0.4257  0.4970
  534MPD2    C3 7926   3.852   2.112   1.882  0.3488 -0.7639 -0.0605
  534MPD2    C4 7927   3.865   2.068   2.014 -0.0714  0.3382 -0.0188
  534MPD2    C5 7928   3.944   2.130   2.106 -0.2497  0.8945  0.0056
  534MPD2     H 7929   3.907   2.264   1.746  2.2562  0.1494  0.4704
  534MPD2    H1 7930   3.815   1.979   2.051 -1.0985  0.5647 -0.8664
  534MPD2    H2 7931   4.065   2.302   2.140  0.6342 -1.3715  0.5015
  534MPD2    H3 7932   3.958   2.093   2.207  3.7175  0.5664 -0.6763
  534MPD2     N 7933   3.761   2.047   1.792  0.4804 -0.2603  0.1578
  534MPD2    H5 7934   3.708   1.968   1.827 -0.0359 -0.3123 -0.7241
  534MPD2    N1 7935   4.048   2.415   1.887 -0.8569 -0.3750 -0.0098
  534MPD2    H7 7936   4.018   2.434   1.792  1.5945 -0.8033 -0.8828
  535TMC3    C1 7937   3.648   1.989   1.602  0.4340  0.3148 -0.5707
  535TMC3    C2 7938   3.544   1.929   1.672  0.4698  0.2874  0.3659
  535TMC3    C3 7939   3.444   1.860   1.607  0.2688 -0.0580 -0.1361
  535TMC3    C4 7940   3.652   1.974   1.465 -0.0924 -0.0319 -0.2484
  535TMC3    C5 7941   3.544   1.917   1.407 -0.3796  0.1235 -0.0649
  535TMC3    C6 7942   3.439   1.862   1.475 -0.1818  0.1470 -0.4590
  535TMC3     C 7943   3.733   2.087   1.662  1.0594  0.5572  0.1101
  535TMC3     O 7944   3.789   2.164   1.585 -0.3227 -0.0770 -0.1572
  535TMC3     H 7945   3.524   1.945   1.778 -2.3040 -0.0923 -0.1058
  535TMC3    H1 7946   3.732   2.023   1.411 -0.2516 -0.4857 -0.8942
  535TMC3    H2 7947   3.367   1.799   1.426 -0.2536 -0.0730 -0.0718
  535TMC3    C7 7948   3.541   1.927   1.259  1.1663 -0.8866  0.1472
  535TMC3    C8 7949   3.336   1.784   1.673  0.2045  0.4492  0.2010
  535TMC3    O1 7950   3.643   1.983   1.210 -0.0961  0.3980  0.7205
  535TMC3    O2 7951   3.245   1.733   1.604  0.1717 -0.0991  0.7326
  536MPD2     C 7952   2.789   0.706  15.739  0.0854 -0.1011 -0.0062
  536MPD2    C1 7953   2.663   0.646  15.770  0.5970 -0.2486 -0.2218
  536MPD2    C2 7954   2.568   0.639  15.676 -0.1994  0.6917 -0.1332
  536MPD2    C3 7955   2.599   0.680  15.545  0.1490  0.8147 -0.4432
  536MPD2    C4 7956   2.730   0.724  15.513  0.0834 -0.1857  0.0682
  536MPD2    C5 7957   2.825   0.738  15.610 -0.7259  0.1736  0.3014
  536MPD2     H 7958   2.472   0.594  15.696  0.6131 -1.1602 -0.3804
  536MPD2    H1 7959   2.758   0.750  15.412  1.4201  1.5954  0.8925
  536MPD2    H2 7960   2.866   0.707  15.814  1.8075  4.2964 -1.8453
  536MPD2    H3 7961   2.926   0.771  15.588 -1.6880  1.7021 -1.7860
  536MPD2     N 7962   2.494   0.672  15.448 -0.2084  0.2153  0.0329
  536MPD2    H5 7963   2.525   0.683  15.352  0.0673  0.6287  0.1725
  536MPD2    N1 7964   2.639   0.614  15.902  0.1020 -0.7003 -0.1149
  536MPD2    H7 7965   2.707   0.640  15.972  0.4666  1.5384 -1.2972
  537TMC3    C1 7966   2.540   0.474  16.075 -0.3182  0.5848 -0.2510
  537TMC3    C2 7967   2.568   0.560  16.180  0.3762  1.2402  0.3909
  537TMC3    C3 7968   2.539   0.518  16.310 -0.5652 -0.2083  0.3742
  537TMC3    C4 7969   2.489   0.347  16.100 -0.2180 -1.0259 -0.1737
  537TMC3    C5 7970   2.465   0.314  16.225  0.1389 -0.8451  0.0618
  537TMC3    C6 7971   2.490   0.394  16.335 -0.1807 -0.4237 -0.6280
  537TMC3     C 7972   2.545   0.517  15.932 -1.0143 -0.0220 -0.6596
  537TMC3     O 7973   2.489   0.443  15.854  0.4121  0.1539  0.6813
  537TMC3     H 7974   2.619   0.655  16.164 -0.8398  2.0119  1.1183
  537TMC3    H1 7975   2.481   0.280  16.015 -0.6907 -1.8846  0.5471
  537TMC3    H2 7976   2.450   0.374  16.434 -1.1874 -1.1595 -1.1768
  537TMC3    C7 7977   2.400   0.182  16.240 -0.1615 -0.5283 -0.0171
  537TMC3    C8 7978   2.624   0.572  16.411  0.3444  0.4226 -0.3113
  537TMC3    O1 7979   2.350   0.133  16.138  0.0780 -0.2097  0.3486
  537TMC3    O2 7980   2.674   0.491  16.489 -0.1035 -0.1979 -0.1290
  538TMC3    C1 7981   4.239   3.237  10.700  0.4964  0.0511 -0.1757
  538TMC3    C2 7982   4.300   3.177  10.593 -0.2853  0.1835 -0.1497
  538TMC3    C3 7983   4.283   3.229  10.466  0.8051 -0.1104 -0.0478
  538TMC3    C4 7984   4.166   3.352  10.703  0.2627  0.0021  0.7329
  538TMC3    C5 7985   4.161   3.403  10.578  0.6005  0.4147 -0.1106
  538TMC3    C6 7986   4.213   3.344  10.463 -0.1939 -0.2644  0.1401
  538TMC3     C 7987   4.256   3.171  10.834  0.8134 -0.1125 -0.4935
  538TMC3     O 7988   4.159   3.162  10.907 -0.4114 -0.4688 -0.0915
  538TMC3     H 7989   4.348   3.079  10.599  0.1279  0.3231 -1.1766
  538TMC3    H1 7990   4.123   3.403  10.788 -0.6550  2.2493 -1.0616
  538TMC3    H2 7991   4.193   3.399  10.371 -0.3143  0.6725  0.7196
  538TMC3    C7 7992   4.094   3.533  10.568  0.0744  0.0282 -0.2982
  538TMC3    C8 7993   4.388   3.203  10.369 -1.0360 -0.6860 -0.2507
  538TMC3    O1 7994   4.029   3.558  10.463  0.0195 -0.1891  0.4720
  538TMC3    O2 7995   4.481   3.137  10.409 -0.5238  0.1656 -0.7839
  539MPD2     C 7996   4.141   2.617  11.603 -0.8933 -0.6196 -0.4841
  539MPD2    C1 7997   4.085   2.644  11.475 -0.3352 -0.4732  0.0586
  539MPD2    C2 7998   4.060   2.773  11.437  0.3206  0.0983 -0.4925
  539MPD2    C3 7999   4.100   2.881  11.516  0.0639 -0.2530  0.3129
  539MPD2    C4 8000   4.147   2.857  11.642 -0.5321 -0.7432  0.3044
  539MPD2    C5 8001   4.165   2.731  11.686  0.1313 -0.1525 -0.5832
  539MPD2     H 8002   4.016   2.798  11.341  2.4164  1.1797 -1.1616
  539MPD2    H1 8003   4.149   2.939  11.713 -2.6703 -0.0153 -0.4944
  539MPD2    H2 8004   4.160   2.524  11.654 -0.7658 -0.4335 -0.1941
  539MPD2    H3 8005   4.195   2.721  11.789 -0.5626  1.8184 -0.1748
  539MPD2     N 8006   4.095   3.019  11.475 -0.0711  0.5473  0.6025
  539MPD2    H5 8007   4.121   3.085  11.547  3.5583  1.6534 -1.7553
  539MPD2    N1 8008   4.069   2.540  11.376  0.0728 -0.0779  0.2233
  539MPD2    H7 8009   4.033   2.561  11.283  2.6385  1.6982 -0.3714
  540TMC3    C1 8010   4.032   3.206  11.343 -0.1563  0.1186  1.2315
  540TMC3    C2 8011   3.996   3.249  11.220 -0.1847 -0.2845  0.2543
  540TMC3    C3 8012   3.949   3.380  11.208  0.2844 -0.2693  0.1432
  540TMC3    C4 8013   4.034   3.283  11.451 -0.7675  0.0181 -0.4386
  540TMC3    C5 8014   3.987   3.413  11.436  0.7423 -0.4082  0.1096
  540TMC3    C6 8015   3.953   3.461  11.318  0.4725  0.4249 -0.1717
  540TMC3     C 8016   4.048   3.063  11.355 -0.7454  0.1667 -0.0567
  540TMC3     O 8017   4.005   3.000  11.259 -0.9338 -0.2508 -0.2125
  540TMC3     H 8018   4.004   3.181  11.135  0.5213  1.3251 -0.9784
  540TMC3    H1 8019   4.055   3.241  11.549 -0.7890  0.3483 -0.2907
  540TMC3    H2 8020   3.918   3.563  11.301  1.7033  1.2551  2.2292
  540TMC3    C7 8021   3.904   3.465  11.540  0.3528  0.1128  0.2195
  540TMC3    C8 8022   3.922   3.431  11.074 -0.5253 -0.0149  0.2199
  540TMC3    O1 8023   3.852   3.368  11.599  0.5531 -0.4192  0.4715
  540TMC3    O2 8024   3.950   3.546  11.044  0.2382 -0.2090  0.0511
  541MPD2     C 8025   2.899   4.152  13.362  0.5314  0.5178  0.1956
  541MPD2    C1 8026   2.823   4.174  13.253  0.9602 -0.1668  0.1307
  541MPD2    C2 8027   2.866   4.248  13.153 -0.3063  0.1694 -0.4797
  541MPD2    C3 8028   3.004   4.290  13.141 -0.8119 -0.1022  0.5024
  541MPD2    C4 8029   3.085   4.250  13.243  0.2330  0.4170 -0.5078
  541MPD2    C5 8030   3.027   4.196  13.356  0.8010  0.7055  0.7506
  541MPD2     H 8031   2.793   4.273  13.077 -0.7324 -0.1002 -0.1604
  541MPD2    H1 8032   3.190   4.277  13.248  0.6526 -1.2606 -0.3280
  541MPD2    H2 8033   2.855   4.097  13.445  2.4987 -3.0066 -1.0592
  541MPD2    H3 8034   3.089   4.162  13.438  2.6143 -0.5836 -1.1526
  541MPD2     N 8035   3.057   4.369  13.039  0.1849 -0.1487 -0.2723
  541MPD2    H5 8036   3.142   4.418  13.065 -0.0284 -0.0193  0.1945
  541MPD2    N1 8037   2.685   4.133  13.245  0.1082 -0.0416 -0.2289
  541MPD2    H7 8038   2.633   4.169  13.165 -4.0520 -0.9595  2.0727
  542TMC3    C1 8039   3.053   4.457  12.817  0.6531 -0.3680 -0.8547
  542TMC3    C2 8040   3.016   4.433  12.685 -0.7687  0.0001  0.3789
  542TMC3    C3 8041   3.018   4.539  12.599  0.3343 -0.2183 -0.2155
  542TMC3    C4 8042   3.107   4.576  12.861 -0.5080 -0.5414 -0.0715
  542TMC3    C5 8043   3.109   4.678  12.764 -0.4019  0.1612  0.3657
  542TMC3    C6 8044   3.072   4.663  12.634  0.1546  1.4092 -0.5104
  542TMC3     C 8045   2.996   4.374  12.913  0.0800 -0.0653  0.1642
  542TMC3     O 8046   2.921   4.292  12.865  0.0179 -0.3384  0.4905
  542TMC3     H 8047   2.970   4.342  12.649 -2.1179  0.2139  1.5558
  542TMC3    H1 8048   3.121   4.609  12.963  0.2626 -1.2341  0.0471
  542TMC3    H2 8049   3.056   0.026  12.575 -1.8072  1.9534  0.8795
  542TMC3    C7 8050   3.094   0.085  12.817 -0.6095 -0.5128  0.0302
  542TMC3    C8 8051   2.926   4.539  12.489 -0.3566 -0.0533 -0.3639
  542TMC3    O1 8052   3.012   0.090  12.906 -0.2571  0.1780  0.3254
  542TMC3    O2 8053   2.944   4.626  12.405  0.0054 -0.0120  0.1814
  543TMC3    C1 8054   1.476   0.786  17.029 -0.1176 -0.2833 -0.2833
  543TMC3    C2 8055   1.475   0.652  16.995 -0.2494 -0.2844 -0.5043
  543TMC3    C3 8056   1.411   0.569  17.081 -0.0072  0.2759 -0.0864
  543TMC3    C4 8057   1.415   0.839  17.143 -0.1130 -0.5090 -0.3809
  543TMC3    C5 8058   1.361   0.749  17.226 -0.3394  0.0027  0.3866
  543TMC3    C6 8059   1.362   0.616  17.206 -0.1046  0.4644  0.4907
  543TMC3     C 8060   1.537   0.871  16.929 -0.4269 -0.2016 -0.3364
  543TMC3     O 8061   1.628   0.824  16.863 -0.3317  0.2948 -0.3881
  543TMC3     H 8062   1.515   0.617  16.901 -0.0964  1.4211 -1.0708
  543TMC3    H1 8063   1.441   0.940  17.172  1.9935 -1.2965  0.4735
  543TMC3    H2 8064   1.321   0.547  17.278  1.2352  0.4086  1.2081
  543TMC3    C7 8065   1.290   0.800  17.342  0.0272  0.1392 -0.7111
  543TMC3    C8 8066   1.382   0.438  17.032  0.0291  0.4906 -0.7170
  543TMC3    O1 8067   1.250   0.727  17.430  0.2361  0.2449 -0.1173
  543TMC3    O2 8068   1.416   0.416  16.916  0.0976 -0.1889 -0.1819
  544MPD2     C 8069   1.243   4.678  17.072 -0.1002 -0.6598 -0.2178
  544MPD2    C1 8070   1.340   0.004  16.994 -0.4919 -0.1185  0.1281
  544MPD2    C2 8071   1.373   0.136  17.017 -0.6808  0.3660  0.1774
  544MPD2    C3 8072   1.294   0.217  17.096  0.4338 -0.0216  0.3948
  544MPD2    C4 8073   1.186   0.166  17.162 -0.4761 -0.1201  0.8589
  544MPD2    C5 8074   1.160   0.030  17.148 -0.0314  0.4224  0.2567
  544MPD2     H 8075   1.461   0.180  16.972 -0.4422  0.7612  1.0334
  544MPD2    H1 8076   1.125   0.231  17.224 -2.1033  0.1261 -1.0019
  544MPD2    H2 8077   1.223   4.571  17.074 -0.3725 -0.6212 -0.8312
  544MPD2    H3 8078   1.075   4.711  17.198  1.4708 -0.1124  2.3672
  544MPD2     N 8079   1.304   0.360  17.107 -0.1353  0.4909 -0.0812
  544MPD2    H5 8080   1.241   0.404  17.173  2.1303  1.0794  1.7190
  544MPD2    N1 8081   1.410   4.642  16.905 -0.0738  0.0553  0.0524
  544MPD2    H7 8082   1.389   4.542  16.902  0.8581 -0.1106 -0.7310
  545TMC3    C1 8083   1.578   4.565  16.776  0.0306 -0.3575  0.8618
  545TMC3    C2 8084   1.634   4.581  16.649  0.8891 -0.0749  0.0879
  545TMC3    C3 8085   1.671   4.470  16.572 -0.1712  0.8194 -0.2083
  545TMC3    C4 8086   1.567   4.441  16.832  0.9259  0.1350  0.3173
  545TMC3    C5 8087   1.597   4.332  16.755  0.7280  0.2172 -0.0963
  545TMC3    C6 8088   1.652   4.346  16.629  0.1685 -0.3928  0.3231
  545TMC3     C 8089   1.525   4.681  16.835 -0.4538 -0.1165 -0.4243
  545TMC3     O 8090   1.578   0.063  16.807 -0.4683  0.0247  0.4420
  545TMC3     H 8091   1.639   4.685  16.620 -0.4232  0.9800  3.6134
  545TMC3    H1 8092   1.535   4.425  16.934  1.8020  1.9950  0.8927
  545TMC3    H2 8093   1.667   4.253  16.575  1.9934  0.6457 -0.9173
  545TMC3    C7 8094   1.631   4.208  16.824 -1.1857  0.4101  0.3996
  545TMC3    C8 8095   1.678   4.481  16.432 -0.0239  0.1471 -0.9585
  545TMC3    O1 8096   1.606   4.101  16.767 -0.5611  0.7423  0.3333
  545TMC3    O2 8097   1.617   4.394  16.366  0.1791  0.1908 -0.0419
  546MPD2     C 8098   3.012   0.839  17.198 -0.5459 -0.8232 -0.1334
  546MPD2    C1 8099   2.922   0.890  17.115 -0.0740 -0.2585 -0.3080
  546MPD2    C2 8100   2.928   1.023  17.080  0.1406 -1.1753 -0.1571
  546MPD2    C3 8101   3.029   1.104  17.132  0.3478 -0.6728  0.1749
  546MPD2    C4 8102   3.124   1.048  17.213 -0.3303  0.6794 -0.4027
  546MPD2    C5 8103   3.109   0.918  17.248  0.3744 -0.3934 -0.9625
  546MPD2     H 8104   2.856   1.063  17.010 -0.5264 -0.9083  0.6764
  546MPD2    H1 8105   3.211   1.098  17.253  1.0841 -0.8495 -1.5755
  546MPD2    H2 8106   3.006   0.734  17.226  0.4192 -0.4729  1.4024
  546MPD2    H3 8107   3.176   0.874  17.322 -0.0806  1.0177  0.2804
  546MPD2     N 8108   3.032   1.245  17.121  0.0641  0.2356 -0.2451
  546MPD2    H5 8109   3.088   1.301  17.185 -0.7776 -0.0626  0.7505
  546MPD2    N1 8110   2.834   0.801  17.065 -0.5736 -0.0344 -0.9698
  546MPD2    H7 8111   2.820   0.707  17.102 -4.4275  0.9182  0.0652
  547TMC3    C1 8112   2.623   0.739  16.972 -0.3233  0.3055  0.6559
  547TMC3    C2 8113   2.558   0.731  16.851 -0.1691  0.5553 -0.2369
  547TMC3    C3 8114   2.459   0.640  16.849 -0.8063  1.0239  0.6478
  547TMC3    C4 8115   2.604   0.658  17.084 -0.2558 -0.7872 -0.7583
  547TMC3    C5 8116   2.493   0.585  17.071 -0.0526 -0.2755 -0.1395
  547TMC3    C6 8117   2.419   0.566  16.959  0.4975 -0.2227  0.1740
  547TMC3     C 8118   2.737   0.829  16.972  0.3669 -0.1784 -0.0323
  547TMC3     O 8119   2.710   0.927  16.905 -0.3017  0.1260 -0.0015
  547TMC3     H 8120   2.582   0.803  16.773  0.3782 -0.4276 -0.9888
  547TMC3    H1 8121   2.652   0.674  17.180 -1.9046  0.3407 -0.1103
  547TMC3    H2 8122   2.319   0.523  16.954 -0.5152  2.2300 -0.3572
  547TMC3    C7 8123   2.443   0.525  17.201 -0.5096  0.4885 -0.1218
  547TMC3    C8 8124   2.394   0.615  16.715 -0.2131  0.1391 -0.3102
  547TMC3    O1 8125   2.468   0.583  17.304 -0.0280  0.3361  0.1066
  547TMC3    O2 8126   2.420   0.691  16.623  0.5288 -0.1582  0.0140
  548MPD2     C 8127   3.041   1.733  12.290 -0.4573  0.5589  0.1655
  548MPD2    C1 8128   3.019   1.599  12.294 -0.8578  0.1141 -0.3802
  548MPD2    C2 8129   3.121   1.519  12.259 -0.0481  0.0116  0.4610
  548MPD2    C3 8130   3.247   1.572  12.243 -0.2437  0.4500 -0.1927
  548MPD2    C4 8131   3.270   1.707  12.250 -0.7596  0.0833  0.3190
  548MPD2    C5 8132   3.162   1.791  12.267 -0.3725  0.0588  0.0533
  548MPD2     H 8133   3.108   1.412  12.252  3.2756 -0.3311 -0.4775
  548MPD2    H1 8134   3.366   1.758  12.251  0.1140 -1.5606 -0.3127
  548MPD2    H2 8135   2.959   1.804  12.302 -0.0337  1.4025 -2.0459
  548MPD2    H3 8136   3.181   1.897  12.268  0.6315 -0.1092 -1.8186
  548MPD2     N 8137   3.346   1.472  12.221  0.0135 -0.2996 -0.5243
  548MPD2    H5 8138   3.323   1.375  12.236 -0.3544 -0.1690 -0.2536
  548MPD2    N1 8139   2.888   1.546  12.332 -0.7661 -0.0788 -0.2073
  548MPD2    H7 8140   2.810   1.610  12.342 -0.1072  0.7759 -0.4727
  549TMC3    C1 8141   2.735   1.389  12.385 -0.0240 -0.8214 -0.4340
  549TMC3    C2 8142   2.639   1.470  12.337  0.1378 -0.1914  0.0069
  549TMC3    C3 8143   2.510   1.434  12.368  0.7173  0.3341 -0.2902
  549TMC3    C4 8144   2.705   1.279  12.456  0.6818  0.0775 -0.4467
  549TMC3    C5 8145   2.574   1.236  12.477 -0.0611 -0.3858 -0.7714
  549TMC3    C6 8146   2.468   1.321  12.437  0.3492  0.1082 -0.0933
  549TMC3     C 8147   2.871   1.416  12.362  0.0216 -0.2283 -0.6638
  549TMC3     O 8148   2.956   1.333  12.386  0.1315 -0.1207  0.6104
  549TMC3     H 8149   2.656   1.568  12.294  0.8338 -0.4376 -0.2831
  549TMC3    H1 8150   2.788   1.218  12.489  0.9988  1.2389  0.9157
  549TMC3    H2 8151   2.364   1.301  12.458  0.5015  0.6383  1.1889
  549TMC3    C7 8152   2.539   1.120  12.559 -0.2329  0.5510 -0.3812
  549TMC3    C8 8153   2.400   1.498  12.305  0.1079  0.1932  0.8091
  549TMC3    O1 8154   2.426   1.112  12.601 -0.1261  0.3509  0.2883
  549TMC3    O2 8155   2.296   1.439  12.278  0.4902 -0.2273  0.1033
  550TMC3    C1 8156   1.508   3.893  12.000 -0.4354  0.0099  0.6612
  550TMC3    C2 8157   1.560   3.975  12.089  0.2191 -0.3930 -0.3696
  550TMC3    C3 8158   1.544   4.109  12.077 -0.0930 -0.5223 -0.6242
  550TMC3    C4 8159   1.421   3.941  11.909 -0.2655 -0.7852  0.1998
  550TMC3    C5 8160   1.391   4.068  11.903  0.2388 -0.3947 -0.1407
  550TMC3    C6 8161   1.454   4.163  11.981  0.5611  0.2802  0.4113
  550TMC3     C 8162   1.538   3.750  12.006  0.4329  0.5946 -0.0647
  550TMC3     O 8163   1.571   3.710  12.115  0.0102 -0.7265  0.0445
  550TMC3     H 8164   1.630   3.943  12.165  0.3185 -2.8138 -1.4794
  550TMC3    H1 8165   1.396   3.886  11.819 -0.5541  0.3217 -0.3912
  550TMC3    H2 8166   1.430   4.267  11.967  1.8899  0.8994  2.8574
  550TMC3    C7 8167   1.372   4.112  11.765  0.3404 -0.4544  0.2756
  550TMC3    C8 8168   1.600   4.211  12.175  0.5838 -0.7367  0.0263
  550TMC3    O1 8169   1.476   4.144  11.708  0.5626  0.0391 -0.6045
  550TMC3    O2 8170   1.610   4.324  12.138  0.2473  0.3423 -0.4044
  551TMC3    C1 8171   3.853   1.725  13.119 -0.9584 -0.4871  0.4873
  551TMC3    C2 8172   3.990   1.699  13.124  0.0601  0.2861  0.2194
  551TMC3    C3 8173   4.065   1.762  13.213  0.5290 -0.4304  0.2225
  551TMC3    C4 8174   3.798   1.808  13.211  0.0994 -0.2989 -0.3545
  551TMC3    C5 8175   3.886   1.871  13.295  0.1059 -0.0495  0.2917
  551TMC3    C6 8176   4.021   1.853  13.298  0.1444 -0.6158 -0.1378
  551TMC3     C 8177   3.769   1.667  13.018 -0.9313 -0.4066 -0.4189
  551TMC3     O 8178   3.662   1.724  13.008 -0.7532 -0.1308  0.0517
  551TMC3     H 8179   4.037   1.641  13.046  0.5084  1.0481 -0.0749
  551TMC3    H1 8180   3.692   1.829  13.218  0.3086  0.6345 -0.0238
  551TMC3    H2 8181   4.079   1.894  13.379  0.7305  0.0419 -0.8892
  551TMC3    C7 8182   3.824   1.951  13.398  0.0967  0.2693  0.1890
  551TMC3    C8 8183   4.210   1.785  13.184 -0.1704  0.1237  0.5396
  551TMC3    O1 8184   3.895   1.965  13.494  0.8610  0.3701  0.1275
  551TMC3    O2 8185   4.276   1.692  13.143 -0.2068  0.2705  0.3063
  552MPD2     C 8186   1.380   3.794  13.341  0.1681  0.5905  0.3219
  552MPD2    C1 8187   1.315   3.766  13.458 -0.0731  0.1456  0.0448
  552MPD2    C2 8188   1.385   3.713  13.562  0.1523 -0.0134 -0.5930
  552MPD2    C3 8189   1.517   3.679  13.551  0.6811 -0.1795 -0.2212
  552MPD2    C4 8190   1.585   3.710  13.437 -0.1663  0.0873  0.0844
  552MPD2    C5 8191   1.514   3.763  13.329 -0.4489 -0.0359 -0.1326
  552MPD2     H 8192   1.329   3.705  13.654  1.6895  1.4514  0.4553
  552MPD2    H1 8193   1.689   3.682  13.434  0.2977  1.9439 -0.8099
  552MPD2    H2 8194   1.332   3.825  13.249  0.8816 -1.6911 -0.8257
  552MPD2    H3 8195   1.567   3.768  13.234 -1.8688 -1.6468 -1.0082
  552MPD2     N 8196   1.600   3.645  13.658  0.3138 -0.5541 -0.5715
  552MPD2    H5 8197   1.700   3.642  13.644  0.4485 -3.2509  1.1049
  552MPD2    N1 8198   1.174   3.784  13.486 -0.1809  0.5187  0.3399
  552MPD2    H7 8199   1.153   3.762  13.583  1.0181  0.0593  0.4944
  553TMC3    C1 8200   0.951   3.829  13.455  0.2929  0.0215  0.1596
  553TMC3    C2 8201   0.852   3.883  13.378  0.0831 -0.0592 -0.0964
  553TMC3    C3 8202   0.741   3.812  13.348 -0.6924  0.7768 -0.1557
  553TMC3    C4 8203   0.927   3.714  13.523 -0.4029  0.3932  0.3076
  553TMC3    C5 8204   0.815   3.638  13.491 -0.4455  0.6372  0.3192
  553TMC3    C6 8205   0.715   3.691  13.408 -0.2325 -0.0311 -0.2638
  553TMC3     C 8206   1.081   3.836  13.397 -0.4648 -0.1484 -0.2129
  553TMC3     O 8207   1.083   3.876  13.283 -0.8008 -0.0406  0.0732
  553TMC3     H 8208   0.876   3.969  13.317 -0.4532  0.6474  0.6951
  553TMC3    H1 8209   0.987   3.687  13.610 -0.4558 -0.2849  0.1385
  553TMC3    H2 8210   0.635   3.620  13.386  0.9945 -1.5634  0.2486
  553TMC3    C7 8211   0.858   3.519  13.427  0.7397 -0.2908  0.3604
  553TMC3    C8 8212   0.713   3.805  13.205  0.2837  0.7129 -0.4293
  553TMC3    O1 8213   0.803   3.456  13.338  0.5085  0.2786 -0.0715
  553TMC3    O2 8214   0.728   3.908  13.146  0.2573 -0.0102 -0.1977
  554TMC3    C1 8215   3.188   2.679  11.392 -0.1600 -0.2897 -1.0793
  554TMC3    C2 8216   3.140   2.649  11.268 -0.1180 -0.5719 -0.2957
  554TMC3    C3 8217   3.176   2.728  11.163 -0.2750  0.3574  0.0796
  554TMC3    C4 8218   3.287   2.776  11.414  0.3138  0.2649  0.1709
  554TMC3    C5 8219   3.327   2.846  11.303  0.0900 -0.6619  1.0859
  554TMC3    C6 8220   3.275   2.825  11.174  0.0094 -0.9058 -0.5416
  554TMC3     C 8221   3.117   2.621  11.503 -0.7342 -0.5183 -0.2749
  554TMC3     O 8222   3.014   2.558  11.477 -0.3762 -0.0992  0.0090
  554TMC3     H 8223   3.072   2.568  11.250  0.7331 -1.5890  1.0509
  554TMC3    H1 8224   3.314   2.807  11.514  0.3246 -0.3567  0.3630
  554TMC3    H2 8225   3.323   2.862  11.084  2.6801  0.2862  1.3527
  554TMC3    C7 8226   3.418   2.953  11.320 -0.7284 -0.1186  0.0940
  554TMC3    C8 8227   3.102   2.719  11.035  0.2201 -0.2998 -0.2319
  554TMC3    O1 8228   3.483   2.945  11.424  0.8483  0.5534  0.0799
  554TMC3    O2 8229   3.160   2.771  10.942  0.2026  0.0389 -0.1320
  555TMC3    C1 8230   1.569   2.653  15.145 -0.4374  0.7070 -0.2899
  555TMC3    C2 8231   1.546   2.746  15.238  0.4888 -0.3811 -0.0088
  555TMC3    C3 8232   1.521   2.695  15.362 -0.1091 -0.8603 -0.6649
  555TMC3    C4 8233   1.567   2.520  15.164 -0.0609 -0.6669  0.6279
  555TMC3    C5 8234   1.545   2.480  15.295 -0.3136 -0.6094 -0.4607
  555TMC3    C6 8235   1.521   2.566  15.397 -0.0394 -0.1656  0.0407
  555TMC3     C 8236   1.597   2.697  15.011 -0.6379 -0.3702 -0.5452
  555TMC3     O 8237   1.582   2.617  14.917 -0.4281  0.5140 -0.5234
  555TMC3     H 8238   1.522   2.850  15.217  0.3409 -0.5141 -0.4833
  555TMC3    H1 8239   1.580   2.450  15.083  0.8290  1.1916 -0.8460
  555TMC3    H2 8240   1.499   2.526  15.496 -0.0952  1.9305  0.8704
  555TMC3    C7 8241   1.542   2.337  15.310  0.0265  0.8348 -0.5111
  555TMC3    C8 8242   1.517   2.780  15.476 -0.1947  0.4624 -0.6682
  555TMC3    O1 8243   1.488   2.278  15.221 -0.3899 -0.7444  0.2129
  555TMC3    O2 8244   1.456   2.885  15.469  0.3558 -0.1490  0.6515
  556MPD2     C 8245   0.032   4.349  10.188  0.5283  0.2786  0.0581
  556MPD2    C1 8246   4.708   4.235  10.242 -0.0931  0.4135 -0.3117
  556MPD2    C2 8247   4.624   4.159  10.164 -0.0894  0.0677 -0.1807
  556MPD2    C3 8248   4.586   4.200  10.039  0.0650  0.3296 -0.5478
  556MPD2    C4 8249   4.630   4.318   9.990  0.4133 -0.3505 -0.4525
  556MPD2    C5 8250   4.718   4.396  10.067 -0.0203  0.2635 -0.0727
  556MPD2     H 8251   4.574   4.072  10.206 -1.6635  0.5924 -0.9880
  556MPD2    H1 8252   4.610   4.353   9.889 -0.8016 -0.7135 -0.3425
  556MPD2    H2 8253   0.092   4.421  10.244 -0.2423 -0.8354  2.3396
  556MPD2    H3 8254   0.018   4.498  10.039 -2.5013  0.9355 -0.0281
  556MPD2     N 8255   4.516   4.101   9.974 -0.3286 -0.3934  0.1340
  556MPD2    H5 8256   4.510   4.008  10.013  2.8445 -0.5129  0.2956
  556MPD2    N1 8257   0.001   4.182  10.372 -0.1587  0.0672 -0.2232
  556MPD2    H7 8258   4.666   4.104  10.394 -1.3872  0.9156 -0.6763
  557TMC3    C1 8259   4.424   3.991   9.793  0.9416  0.1447  0.2423
  557TMC3    C2 8260   4.345   3.999   9.682 -0.0903  0.3541  0.6281
  557TMC3    C3 8261   4.294   3.878   9.632 -0.6230  0.1177 -1.1839
  557TMC3    C4 8262   4.469   3.874   9.849  0.5057  0.1340 -0.0127
  557TMC3    C5 8263   4.403   3.759   9.801  1.4411 -0.3827  0.5045
  557TMC3    C6 8264   4.319   3.756   9.692 -0.1938 -0.5396  0.3819
  557TMC3     C 8265   4.469   4.119   9.844  0.7273 -0.3768  0.9363
  557TMC3     O 8266   4.467   4.217   9.767  0.4296 -0.5420 -0.0295
  557TMC3     H 8267   4.314   4.098   9.651  0.6564  0.6032  0.6546
  557TMC3    H1 8268   4.542   3.863   9.928 -0.8755 -1.9372  0.9623
  557TMC3    H2 8269   4.268   3.667   9.657 -0.0216 -1.1925  1.8033
  557TMC3    C7 8270   4.401   3.637   9.878 -0.6855  0.6984 -0.2558
  557TMC3    C8 8271   4.184   3.887   9.533  0.3334 -1.0695 -1.0894
  557TMC3    O1 8272   4.290   3.587   9.897  0.2847  0.0739 -0.1717
  557TMC3    O2 8273   4.119   3.988   9.537  0.0487  0.6009  0.4862
  558TMC3    C1 8274   2.779   1.755   9.475  0.6706 -0.4896  1.2709
  558TMC3    C2 8275   2.768   1.653   9.566 -0.3321 -0.4917  0.8178
  558TMC3    C3 8276   2.699   1.545   9.521 -0.5059  0.2909  0.2154
  558TMC3    C4 8277   2.738   1.753   9.346  0.1904 -0.0292  0.3000
  558TMC3    C5 8278   2.664   1.644   9.314 -0.2098 -0.5340 -0.0457
  558TMC3    C6 8279   2.649   1.537   9.397 -0.0886 -0.2906 -0.0117
  558TMC3     C 8280   2.843   1.884   9.522  0.0380  0.0907  1.0302
  558TMC3     O 8281   2.933   1.937   9.461 -0.5881 -0.2718  0.4229
  558TMC3     H 8282   2.809   1.666   9.666 -0.2973  3.1941  0.3384
  558TMC3    H1 8283   2.759   1.836   9.280 -1.5112 -1.2204 -1.7693
  558TMC3    H2 8284   2.616   1.442   9.358 -1.0156  0.3543 -0.8129
  558TMC3    C7 8285   2.560   1.656   9.221 -0.2424 -0.0760  0.5277
  558TMC3    C8 8286   2.672   1.428   9.605 -1.0016  0.4638 -0.3861
  558TMC3    O1 8287   2.567   1.744   9.134  0.1163  0.5144 -0.3289
  558TMC3    O2 8288   2.603   1.345   9.552 -0.1483  0.1926  0.4459
  559MPD2     C 8289   2.724   2.452  10.217 -0.1864  0.2893  0.4089
  559MPD2    C1 8290   2.671   2.371  10.312 -0.1179 -0.0266 -0.1148
  559MPD2    C2 8291   2.758   2.329  10.409 -0.2460  0.3702  0.0356
  559MPD2    C3 8292   2.889   2.369  10.410  0.6366 -0.1477  0.6267
  559MPD2    C4 8293   2.940   2.444  10.308  0.0207  0.3638 -0.4146
  559MPD2    C5 8294   2.858   2.485  10.212 -0.5393  0.4726  0.5636
  559MPD2     H 8295   2.715   2.269  10.488  0.7784 -0.3067  0.0766
  559MPD2    H1 8296   3.044   2.473  10.302  0.3359 -0.6516  0.0200
  559MPD2    H2 8297   2.658   2.492  10.141  2.2162  1.2755 -1.1415
  559MPD2    H3 8298   2.896   2.536  10.124  3.4700 -0.5917  1.6766
  559MPD2     N 8299   2.977   2.325  10.512  0.3998 -0.3347  0.1199
  559MPD2    H5 8300   2.932   2.256  10.571  2.0142 -1.0303  0.5339
  559MPD2    N1 8301   2.529   2.359  10.319 -0.7362  0.0242  0.9066
  559MPD2    H7 8302   2.473   2.425  10.267  1.0135 -0.1918 -1.2678
  560TMC3    C1 8303   3.144   2.306  10.664  0.5415 -0.1954 -0.7864
  560TMC3    C2 8304   3.085   2.182  10.686 -0.0776  0.3178 -0.8983
  560TMC3    C3 8305   3.076   2.139  10.817 -0.1385 -0.1012  0.1297
  560TMC3    C4 8306   3.183   2.386  10.772  0.3353  0.0650 -0.4027
  560TMC3    C5 8307   3.176   2.331  10.896 -0.8064 -0.7185 -1.0079
  560TMC3    C6 8308   3.123   2.208  10.927 -0.2208 -0.4061 -0.3908
  560TMC3     C 8309   3.101   2.375  10.541 -0.3786 -0.2161  0.1062
  560TMC3     O 8310   3.155   2.481  10.507  0.1028 -0.1195 -0.1342
  560TMC3     H 8311   3.057   2.115  10.606  1.5552 -1.1318 -0.2366
  560TMC3    H1 8312   3.212   2.489  10.754  0.1934  0.5358  2.0882
  560TMC3    H2 8313   3.108   2.182  11.031  0.0786 -0.7133 -0.4234
  560TMC3    C7 8314   3.244   2.392  11.002  0.1632  0.3432 -0.3180
  560TMC3    C8 8315   2.984   2.023  10.824  0.1258 -0.3167  0.2492
  560TMC3    O1 8316   3.186   2.377  11.110 -0.2565  0.7573 -0.2651
  560TMC3    O2 8317   2.887   2.013  10.747  0.0373 -0.2033  0.0154
  561TMC3    C1 8318   0.695   1.276  11.115 -0.1857 -0.0723  0.7723
  561TMC3    C2 8319   0.611   1.213  11.207  0.2594  0.7602  0.1297
  561TMC3    C3 8320   0.509   1.303  11.254  0.6495  0.3940  0.1362
  561TMC3    C4 8321   0.679   1.406  11.068 -0.0955 -0.5988  0.4053
  561TMC3    C5 8322   0.575   1.477  11.116 -0.6509  0.0916  0.0527
  561TMC3    C6 8323   0.476   1.428  11.201 -0.2752 -0.1963 -0.3204
  561TMC3     C 8324   0.802   1.190  11.068  0.2931 -0.2754 -0.0014
  561TMC3     O 8325   0.783   1.070  11.073 -0.4874 -0.2468 -0.1977
  561TMC3     H 8326   0.638   1.117  11.249 -2.2548  0.1879  0.4130
  561TMC3    H1 8327   0.749   1.453  11.000 -0.3889 -0.8917 -0.0953
  561TMC3    H2 8328   0.396   1.492  11.235  0.1133  1.0278 -1.7156
  561TMC3    C7 8329   0.580   1.623  11.104 -0.2529 -0.1159 -0.4466
  561TMC3    C8 8330   0.412   1.253  11.353  0.0337  0.1566  0.1249
  561TMC3    O1 8331   0.543   1.683  11.199 -0.1855 -0.5761 -0.3000
  561TMC3    O2 8332   0.411   1.133  11.358  0.9552 -0.3276  0.3166
  562TMC3    C1 8333   1.136   2.823  15.909 -0.2878  0.7145 -0.3642
  562TMC3    C2 8334   1.136   2.930  15.822  0.5483  0.2944  0.3415
  562TMC3    C3 8335   1.171   2.906  15.688 -0.3821 -0.6118 -0.6359
  562TMC3    C4 8336   1.185   2.702  15.879  0.3308 -0.3752  0.1512
  562TMC3    C5 8337   1.216   2.678  15.752  0.2725  0.2156  0.7831
  562TMC3    C6 8338   1.204   2.777  15.653  0.2792 -0.4757  0.3541
  562TMC3     C 8339   1.153   2.848  16.048  0.1198 -0.5921  0.0255
  562TMC3     O 8340   1.224   2.768  16.111  0.7659  0.0443  0.1032
  562TMC3     H 8341   1.101   3.029  15.848 -0.6461  0.1996 -0.8574
  562TMC3    H1 8342   1.157   2.628  15.952 -0.7074 -0.7301 -0.6120
  562TMC3    H2 8343   1.225   2.742  15.552  0.7981 -0.6339  0.5166
  562TMC3    C7 8344   1.262   2.543  15.715  0.6327 -0.3327  0.3865
  562TMC3    C8 8345   1.132   3.012  15.597 -0.1897  0.0682  0.2653
  562TMC3    O1 8346   1.250   2.502  15.599 -0.0548 -0.1503 -0.1405
  562TMC3    O2 8347   1.078   3.115  15.647  0.6120  0.0768 -0.9990
  563MPD2     C 8348   3.369   3.841  15.680  0.8459  0.3663 -0.0814
  563MPD2    C1 8349   3.443   3.951  15.644  0.3934 -0.5346  0.0781
  563MPD2    C2 8350   3.571   3.963  15.710 -0.9790  0.1653  0.3798
  563MPD2    C3 8351   3.613   3.867  15.804  0.4783 -0.0694 -0.8159
  563MPD2    C4 8352   3.535   3.756  15.833  0.0398 -0.3928  0.1450
  563MPD2    C5 8353   3.419   3.747  15.768  0.2971  0.5718  0.3965
  563MPD2     H 8354   3.642   4.041  15.683  2.1416 -2.0821  2.1372
  563MPD2    H1 8355   3.550   3.684  15.913 -2.8005 -0.2989  0.7503
  563MPD2    H2 8356   3.272   3.817  15.638 -0.2542  2.3885  1.3250
  563MPD2    H3 8357   3.358   3.660  15.789  2.1172 -0.9617 -0.5951
  563MPD2     N 8358   3.745   3.873  15.865  0.3616 -0.4698  0.4826
  563MPD2    H5 8359   3.803   3.954  15.845 -0.5725  0.2655  0.7745
  563MPD2    N1 8360   3.387   4.050  15.564 -0.2802  0.0616 -0.4049
  563MPD2    H7 8361   3.293   4.020  15.539  0.4659 -0.1238 -2.9770
  564TMC3    C1 8362   3.363   4.237  15.699  0.6584  0.3399  0.2511
  564TMC3    C2 8363   3.232   4.218  15.721 -0.5187  0.2087 -0.3725
  564TMC3    C3 8364   3.181   4.223  15.846 -0.1491  0.2320 -0.4400
  564TMC3    C4 8365   3.458   4.265  15.798  0.4474  0.4259 -0.0055
  564TMC3    C5 8366   3.407   4.272  15.927 -0.3525 -0.4772  0.5935
  564TMC3    C6 8367   3.272   4.254  15.951  0.5370 -0.0097 -0.0214
  564TMC3     C 8368   3.425   4.183  15.579 -0.1624 -0.0372  0.1955
  564TMC3     O 8369   3.539   4.225  15.568 -0.2983 -0.1396 -0.0290
  564TMC3     H 8370   3.175   4.198  15.630 -2.9349  1.5795  0.8427
  564TMC3    H1 8371   3.566   4.259  15.791  0.3702  0.8856 -1.7209
  564TMC3    H2 8372   3.233   4.259  16.052  2.1690 -0.2211  0.6194
  564TMC3    C7 8373   3.485   4.214  16.035  0.3304 -0.0589  0.2136
  564TMC3    C8 8374   3.120   4.101  15.888 -0.5248  0.0592  0.4054
  564TMC3    O1 8375   3.601   4.245  16.046 -0.5273  1.2273 -0.1390
  564TMC3    O2 8376   3.146   4.069  15.998 -0.0116  0.0764 -0.4840
  565TMC3    C1 8377   4.322   0.414   9.897 -0.1314 -0.6965  0.0610
  565TMC3    C2 8378   4.382   0.302   9.960 -0.7499 -0.5355  0.1460
  565TMC3    C3 8379   4.310   0.195   9.997 -0.3549  0.1327 -0.0776
  565TMC3    C4 8380   4.185   0.420   9.888 -0.3514 -1.5545 -0.0862
  565TMC3    C5 8381   4.112   0.312   9.929  0.0893 -0.9871  0.0939
  565TMC3    C6 8382   4.169   0.208   9.994 -0.2899 -0.1775  0.2972
  565TMC3     C 8383   4.408   0.528   9.865 -0.1631 -0.7131 -0.1332
  565TMC3     O 8384   4.516   0.539   9.921  0.1981 -0.2398 -0.6259
  565TMC3     H 8385   4.490   0.302   9.965 -0.7334 -1.2617 -0.1446
  565TMC3    H1 8386   4.144   0.515   9.858  0.1948 -1.4172 -0.3933
  565TMC3    H2 8387   4.109   0.122  10.023  0.8936 -0.5068  1.7637
  565TMC3    C7 8388   3.966   0.335   9.920 -0.6985 -0.0311 -0.4816
  565TMC3    C8 8389   4.368   0.094  10.084  0.9644 -0.2087  0.0784
  565TMC3    O1 8390   3.893   0.245   9.955 -0.3330  0.6702  0.0352
  565TMC3    O2 8391   4.472   0.134  10.143 -0.0920 -0.8279 -0.2763
  566MPD2     C 8392   1.232   2.059  13.742 -0.2905 -0.6215  0.9354
  566MPD2    C1 8393   1.279   2.147  13.649  0.7997 -0.2954  0.9203
  566MPD2    C2 8394   1.210   2.160  13.532  0.0154  0.0422 -0.7925
  566MPD2    C3 8395   1.091   2.083  13.508  0.0621  0.2906  0.6845
  566MPD2    C4 8396   1.041   2.006  13.608  0.6382 -0.1241 -0.2858
  566MPD2    C5 8397   1.115   1.996  13.724 -0.1612  0.3956  0.5336
  566MPD2     H 8398   1.237   2.240  13.465 -1.1168  1.2449  0.2112
  566MPD2    H1 8399   0.945   1.955  13.611  2.2198 -2.8891  2.1018
  566MPD2    H2 8400   1.271   2.051  13.843 -1.5774  2.4669  1.6649
  566MPD2    H3 8401   1.070   1.937  13.804  0.3768 -0.5907  0.1046
  566MPD2     N 8402   1.005   2.091  13.396  0.1333  0.3757 -0.1865
  566MPD2    H5 8403   0.924   2.031  13.403  1.9291 -2.0626 -0.5133
  566MPD2    N1 8404   1.404   2.210  13.673 -0.3466 -0.2025  0.1539
  566MPD2    H7 8405   1.451   2.188  13.761  3.2767  1.0831 -1.4825
  567TMC3    C1 8406   1.588   2.343  13.655 -0.2151 -0.3435  0.4576
  567TMC3    C2 8407   1.685   2.375  13.571  0.9376 -1.3119  0.0320
  567TMC3    C3 8408   1.793   2.445  13.621 -0.1466 -0.0797  0.0811
  567TMC3    C4 8409   1.599   2.358  13.789  0.0457 -0.2377  0.6225
  567TMC3    C5 8410   1.713   2.417  13.831 -0.0942 -0.3312  0.2703
  567TMC3    C6 8411   1.817   2.459  13.755 -0.1770  0.8525 -0.7850
  567TMC3     C 8412   1.470   2.291  13.587 -0.1725  0.0363  0.8596
  567TMC3     O 8413   1.450   2.314  13.472  0.1227  0.5716 -1.0308
  567TMC3     H 8414   1.667   2.374  13.464  0.2968 -1.6687  0.1487
  567TMC3    H1 8415   1.521   2.323  13.854 -0.6415 -2.7120 -1.5055
  567TMC3    H2 8416   1.899   2.511  13.803 -1.4977  3.9069 -1.9015
  567TMC3    C7 8417   1.733   2.446  13.976 -0.3387  0.2257  0.1912
  567TMC3    C8 8418   1.845   2.544  13.528  0.3145  0.0435 -0.0490
  567TMC3    O1 8419   1.847   2.469  14.013 -0.1516  0.1578 -0.2573
  567TMC3    O2 8420   1.804   2.546  13.414 -0.0412  0.5125 -0.1649
  568MPD2     C 8421   3.052   2.821  16.633 -0.2725  0.1100  0.4005
  568MPD2    C1 8422   3.126   2.918  16.698 -1.3022  0.0382  0.2934
  568MPD2    C2 8423   3.112   3.046  16.650  0.3440 -0.0586 -0.3709
  568MPD2    C3 8424   3.023   3.078  16.555  0.1516 -0.1832 -0.4700
  568MPD2    C4 8425   2.945   2.978  16.507 -0.3733 -0.3527 -0.7272
  568MPD2    C5 8426   2.958   2.852  16.545  0.0527  0.6719 -0.1682
  568MPD2     H 8427   3.175   3.124  16.691  0.5530 -0.8325  0.7983
  568MPD2    H1 8428   2.884   2.990  16.418  1.8761 -1.4406 -2.4489
  568MPD2    H2 8429   3.049   2.718  16.665 -1.8960 -0.3361 -1.2031
  568MPD2    H3 8430   2.903   2.768  16.502 -0.1149  0.4164  0.5419
  568MPD2     N 8431   3.012   3.207  16.510  0.4598  0.4947 -0.0691
  568MPD2    H5 8432   3.079   3.273  16.548  1.8213  0.3388 -2.2087
  568MPD2    N1 8433   3.225   2.879  16.801  0.0044 -0.4973  0.0127
  568MPD2    H7 8434   3.253   2.781  16.798 -1.1247 -0.8073 -0.4646
  569TMC3    C1 8435   2.969   3.383  16.376 -0.6809  1.1935  0.1876
  569TMC3    C2 8436   3.019   3.474  16.469  0.4233 -0.0802  0.0325
  569TMC3    C3 8437   3.095   3.576  16.422 -0.0193  0.9616 -0.1969
  569TMC3    C4 8438   2.997   3.377  16.249  0.2322 -0.6880 -0.1631
  569TMC3    C5 8439   3.080   3.479  16.201  0.0814 -0.4012 -0.4017
  569TMC3    C6 8440   3.129   3.586  16.282  0.2699 -0.5986  0.2822
  569TMC3     C 8441   2.917   3.259  16.428  0.4387  0.1420 -0.2556
  569TMC3     O 8442   2.828   3.199  16.366  0.5249  0.5231 -0.2038
  569TMC3     H 8443   2.973   3.480  16.567  0.6403  1.6008  0.0322
  569TMC3    H1 8444   2.944   3.313  16.179 -0.5852  1.2401 -1.2865
  569TMC3    H2 8445   3.196   3.663  16.248  0.1818 -1.0389 -0.8772
  569TMC3    C7 8446   3.081   3.492  16.063 -0.0510  0.8147  0.2924
  569TMC3    C8 8447   3.075   3.701  16.484 -0.3341  0.6727 -0.2839
  569TMC3    O1 8448   3.070   3.390  15.993 -0.3171  0.0191  0.5454
  569TMC3    O2 8449   2.970   3.717  16.543 -0.5939  0.5660 -0.0827
  570TMC3    C1 8450   2.654   1.693  15.922 -0.6311 -0.5844 -0.6717
  570TMC3    C2 8451   2.699   1.736  15.805 -0.6979 -0.4292  0.1793
  570TMC3    C3 8452   2.752   1.861  15.794  0.5563 -0.6670 -0.4810
  570TMC3    C4 8453   2.656   1.777  16.029 -0.2496  0.1432  0.4244
  570TMC3    C5 8454   2.696   1.904  16.010  0.0109 -0.2679  0.4089
  570TMC3    C6 8455   2.749   1.945  15.898 -0.3160  0.0695  0.4346
  570TMC3     C 8456   2.585   1.567  15.941  0.5995  0.6265 -0.8850
  570TMC3     O 8457   2.528   1.513  15.845 -0.3487  0.2107 -0.5560
  570TMC3     H 8458   2.683   1.675  15.717 -1.3272 -1.8241  1.2683
  570TMC3    H1 8459   2.621   1.756  16.130 -0.3780 -0.8923  0.1665
  570TMC3    H2 8460   2.790   2.044  15.883  0.0119 -0.2501 -0.8443
  570TMC3    C7 8461   2.681   2.006  16.117 -0.3179  0.0945  0.0669
  570TMC3    C8 8462   2.875   1.867  15.716  0.3368  0.0528  0.2972
  570TMC3    O1 8463   2.685   1.956  16.228  0.3676  0.0132  0.6367
  570TMC3    O2 8464   2.933   1.979  15.734  0.0517 -0.3054  0.3839
  571MPD2     C 8465   0.767   3.088  16.804 -0.0163  0.4315 -0.2844
  571MPD2    C1 8466   0.675   3.083  16.906  0.2836  0.0915  0.3371
  571MPD2    C2 8467   0.618   3.196  16.958  0.1108  0.1544  0.1806
  571MPD2    C3 8468   0.678   3.314  16.930 -0.0755 -1.3582  1.3000
  571MPD2    C4 8469   0.767   3.325  16.822 -0.6059 -0.3710 -0.0080
  571MPD2    C5 8470   0.803   3.211  16.754 -0.2252  0.1483 -0.1572
  571MPD2     H 8471   0.540   3.197  17.034 -0.9045  0.4497 -0.8548
  571MPD2    H1 8472   0.808   3.422  16.796 -1.4462  0.0793  0.3588
  571MPD2    H2 8473   0.819   2.998  16.771 -1.1868 -0.2004 -0.4163
  571MPD2    H3 8474   0.888   3.226  16.688  0.1339  0.3549  0.3577
  571MPD2     N 8475   0.661   3.434  17.004 -0.5135 -0.1715 -0.1233
  571MPD2    H5 8476   0.718   3.514  16.979 -1.3103 -0.4634 -2.9075
  571MPD2    N1 8477   0.655   2.952  16.958  0.1123 -0.1247 -0.5864
  571MPD2    H7 8478   0.692   2.872  16.908  0.8088 -0.3364  0.2472
  572TMC3    C1 8479   0.611   3.566  17.189  0.1077  0.8247 -0.6546
  572TMC3    C2 8480   0.508   3.604  17.265  0.5332 -0.1013  0.5122
  572TMC3    C3 8481   0.526   3.702  17.356  0.2851  0.5522  0.3385
  572TMC3    C4 8482   0.737   3.616  17.213  0.1451 -0.0766  0.6614
  572TMC3    C5 8483   0.754   3.718  17.312 -0.0061 -0.4875  0.4117
  572TMC3    C6 8484   0.650   3.758  17.385 -0.7474  0.4064 -0.3383
  572TMC3     C 8485   0.580   3.452  17.113 -0.6053 -0.2896 -0.3338
  572TMC3     O 8486   0.491   3.386  17.161 -0.0933 -0.3369 -0.1234
  572TMC3     H 8487   0.407   3.587  17.228  0.6443 -0.4462  0.3699
  572TMC3    H1 8488   0.819   3.578  17.154 -0.0477  2.3339 -1.1586
  572TMC3    H2 8489   0.664   3.816  17.476  2.3895  2.2083 -1.9801
  572TMC3    C7 8490   0.846   3.826  17.274 -0.2217  0.2610 -0.8488
  572TMC3    C8 8491   0.413   3.786  17.389 -0.0182 -0.5001 -0.1829
  572TMC3    O1 8492   0.806   3.939  17.300  0.0661 -0.3742  0.2873
  572TMC3    O2 8493   0.315   3.780  17.318 -0.5496  0.3311  0.3246
  573MPD2     C 8494   2.083   4.115   0.603 -0.2221 -0.4838  0.1191
  573MPD2    C1 8495   2.183   4.201   0.565 -0.3915  0.2228 -0.0557
  573MPD2    C2 8496   2.207   4.222   0.429  0.2198  0.0651 -0.4296
  573MPD2    C3 8497   2.146   4.142   0.334  0.0825 -0.4662 -0.9235
  573MPD2    C4 8498   2.047   4.057   0.368  0.7211 -0.0592 -0.1957
  573MPD2    C5 8499   2.018   4.043   0.505 -0.0679  0.3710  0.6192
  573MPD2     H 8500   2.274   4.301   0.399  2.2550 -1.9201 -1.1389
  573MPD2    H1 8501   2.005   3.990   0.294  1.8784 -1.9629  0.8678
  573MPD2    H2 8502   2.066   4.095   0.709  2.4619  1.3780  0.9103
  573MPD2    H3 8503   1.946   3.966   0.529 -0.4846  0.1316 -1.4398
  573MPD2     N 8504   2.155   4.165   0.194 -0.3272  0.1360 -0.0546
  573MPD2    H5 8505   2.091   4.119   0.130 -0.1129 -1.3914  0.8190
  573MPD2    N1 8506   2.240   4.283   0.664  0.5942  0.0459 -0.0246
  573MPD2    H7 8507   2.193   4.292   0.753 -1.7807  1.6549 -1.4525
  574TMC3    C1 8508   2.204   4.277  17.697  0.2845 -0.7759 -0.0037
  574TMC3    C2 8509   2.137   4.179  17.628 -0.2286  0.3057  0.5018
  574TMC3    C3 8510   2.115   4.191  17.497 -0.1836 -0.1050 -0.3487
  574TMC3    C4 8511   2.272   4.374  17.635 -0.0238 -0.1008 -0.4665
  574TMC3    C5 8512   2.257   4.384  17.499 -0.2274 -0.2831 -0.0828
  574TMC3    C6 8513   2.163   4.299  17.428  0.1341 -0.4008 -0.5080
  574TMC3     C 8514   2.225   4.266   0.134  0.2795 -0.0738 -0.5806
  574TMC3     O 8515   2.308   4.345   0.185  0.4811 -0.1010 -0.2309
  574TMC3     H 8516   2.091   4.091  17.672  1.7075 -1.0308 -0.1305
  574TMC3    H1 8517   2.330   4.441  17.698 -2.0137 -0.5977  1.8910
  574TMC3    H2 8518   2.148   4.300  17.321 -1.8517 -0.3781 -0.2342
  574TMC3    C7 8519   2.316   4.493  17.427 -0.3667 -0.3077 -0.2623
  574TMC3    C8 8520   2.033   4.088  17.429 -0.8243  0.7582  0.3535
  574TMC3    O1 8521   2.259   4.511  17.316 -0.5747  0.8660 -0.3615
  574TMC3    O2 8522   2.025   3.977  17.474  0.3432  0.0818  0.7331
  575TMC3    C1 8523   0.215   4.609  10.694  0.2056  0.5740 -0.1132
  575TMC3    C2 8524   0.156   4.594  10.813  0.1697  0.6073  0.1236
  575TMC3    C3 8525   0.022   4.560  10.815 -0.2605 -0.3251 -0.0399
  575TMC3    C4 8526   0.154   4.583  10.575  0.0272 -0.3333  0.7950
  575TMC3    C5 8527   0.023   4.544  10.575 -0.2845 -0.0673  0.3991
  575TMC3    C6 8528   4.681   4.535  10.699  0.1612  0.4718  0.8254
  575TMC3     C 8529   0.363   4.630  10.702 -0.1436 -0.4992  0.0154
  575TMC3     O 8530   0.416   4.673  10.804 -0.0521  0.3391 -0.6382
  575TMC3     H 8531   0.207   4.621  10.904  3.2409  1.4984 -1.8614
  575TMC3    H1 8532   0.201   4.592  10.478 -1.2709 -3.4151 -0.1074
  575TMC3    H2 8533   4.582   4.492  10.693  0.7407 -0.9568  1.7102
  575TMC3    C7 8534   4.677   4.569  10.453  0.7100  0.3891  0.2758
  575TMC3    C8 8535   4.698   4.491  10.932 -0.0067 -0.2380  0.0949
  575TMC3    O1 8536   4.722   4.641  10.362  0.1723  0.2619 -0.3070
  575TMC3    O2 8537   4.635   4.388  10.917  0.3581  0.6052  0.3596
  576MPD2     C 8538   4.266   1.934  12.296  0.9584  1.1568 -0.6571
  576MPD2    C1 8539   4.317   1.954  12.167  0.1669 -0.3733 -0.0773
  576MPD2    C2 8540   4.233   2.006  12.076 -0.0202  0.3271 -0.0758
  576MPD2    C3 8541   4.100   2.030  12.099  0.1505 -0.3283 -0.2318
  576MPD2    C4 8542   4.049   2.008  12.223  0.3276  0.4674 -0.1891
  576MPD2    C5 8543   4.135   1.964  12.319  0.3501  0.0485 -0.3394
  576MPD2     H 8544   4.269   2.031  11.977  1.7850 -2.9230 -0.2400
  576MPD2    H1 8545   3.944   2.022  12.243  0.5189  2.9627 -1.0024
  576MPD2    H2 8546   4.329   1.914  12.382  0.6675  0.6315 -0.5631
  576MPD2    H3 8547   4.106   1.972  12.424  0.2570 -1.1369 -0.2793
  576MPD2     N 8548   4.021   2.072  11.991  0.2352 -0.0322 -0.1121
  576MPD2    H5 8549   4.075   2.083  11.905 -1.1468 -0.2888 -1.0162
  576MPD2    N1 8550   4.452   1.936  12.117 -0.0680  0.1086 -0.1414
  576MPD2    H7 8551   4.465   1.960  12.020  0.6026 -2.2677 -0.6429
  577TMC3    C1 8552   4.673   1.859  12.102  0.4178 -0.2475 -0.1047
  577TMC3    C2 8553   4.717   1.732  12.080  0.3552 -0.1187  0.2050
  577TMC3    C3 8554   0.072   1.715  11.969 -0.3006  0.3203 -0.1793
  577TMC3    C4 8555   4.702   1.960  12.018 -0.2357  0.3490 -0.6039
  577TMC3    C5 8556   0.078   1.940  11.926 -0.0179  0.0947 -0.8107
  577TMC3    C6 8557   0.122   1.817  11.895  0.3532 -0.8850  0.8247
  577TMC3     C 8558   4.555   1.875  12.189  0.6383 -0.4597 -0.1023
  577TMC3     O 8559   4.547   1.810  12.288  0.1126  0.0557  0.0231
  577TMC3     H 8560   4.689   1.647  12.141 -1.1600 -0.3903 -0.8834
  577TMC3    H1 8561   4.660   2.056  12.045  0.3223 -0.4683  3.1131
  577TMC3    H2 8562   0.209   1.816  11.831 -0.4284  3.4608 -0.3463
  577TMC3    C7 8563   0.087   2.029  11.819 -0.0089  0.0673 -0.8604
  577TMC3    C8 8564   0.085   1.578  11.920 -0.0531  0.5282  0.4940
  577TMC3    O1 8565   0.199   2.069  11.788 -0.0494  0.2456 -0.1520
  577TMC3    O2 8566   0.025   1.498  11.993  0.4607 -0.5104 -0.4565
  578MPD2     C 8567   2.294   1.907   1.380  0.0138 -0.5753 -0.5224
  578MPD2    C1 8568   2.401   1.847   1.321 -0.2500 -0.5247  0.4819
  578MPD2    C2 8569   2.478   1.763   1.399  0.8006  0.9963 -0.0134
  578MPD2    C3 8570   2.434   1.723   1.523  0.0330 -0.1599 -0.2888
  578MPD2    C4 8571   2.319   1.777   1.579  0.8004  0.5411 -0.2998
  578MPD2    C5 8572   2.253   1.872   1.503 -0.2570  0.0204 -0.2236
  578MPD2     H 8573   2.565   1.711   1.358  1.7119  1.8430  0.8324
  578MPD2    H1 8574   2.274   1.742   1.671  1.8101 -2.4519 -0.9345
  578MPD2    H2 8575   2.220   1.960   1.322 -1.7505 -0.3195  1.9753
  578MPD2    H3 8576   2.160   1.915   1.539 -0.0961  1.1009 -1.1084
  578MPD2     N 8577   2.511   1.620   1.586  0.6173  0.1235  0.3783
  578MPD2    H5 8578   2.581   1.578   1.527 -0.2407  0.9854 -1.2402
  578MPD2    N1 8579   2.424   1.876   1.187  0.0925  0.5656  0.2076
  578MPD2    H7 8580   2.366   1.948   1.146  0.5724  0.2127 -1.0716
  579TMC3    C1 8581   2.571   1.451   1.737  0.0462  0.4406  0.6451
  579TMC3    C2 8582   2.631   1.441   1.861  0.5327 -0.0192  0.2341
  579TMC3    C3 8583   2.757   1.390   1.877  0.2592  0.2380 -0.7298
  579TMC3    C4 8584   2.619   1.378   1.629  0.2627  0.5272 -0.3454
  579TMC3    C5 8585   2.733   1.301   1.656  0.4353 -1.0163 -0.0469
  579TMC3    C6 8586   2.807   1.320   1.771 -0.4955  0.0663  0.0410
  579TMC3     C 8587   2.490   1.568   1.709 -0.1353 -0.2593  0.0798
  579TMC3     O 8588   2.425   1.614   1.801  0.4821 -0.2196  0.3296
  579TMC3     H 8589   2.585   1.497   1.941  1.6969  3.1119 -1.2773
  579TMC3    H1 8590   2.553   1.377   1.543  1.5531 -2.4389 -1.3283
  579TMC3    H2 8591   2.908   1.283   1.784 -1.7763 -3.1034  1.0597
  579TMC3    C7 8592   2.791   1.218   1.554  0.2025 -0.3922 -0.2766
  579TMC3    C8 8593   2.847   1.478   1.945 -0.4689  0.5294 -0.5401
  579TMC3    O1 8594   2.902   1.174   1.576 -0.1094  0.4988  0.0359
  579TMC3    O2 8595   2.795   1.548   2.030  0.2060  0.2361  0.2699
  580TMC3    C1 8596   2.041   0.916  12.178 -0.5738 -0.1017 -0.0505
  580TMC3    C2 8597   1.982   0.910  12.061 -0.0239 -0.2411 -0.3040
  580TMC3    C3 8598   1.978   0.788  11.990  0.3523  0.4787 -0.0220
  580TMC3    C4 8599   2.078   0.803  12.241 -0.8222 -0.3534 -0.1785
  580TMC3    C5 8600   2.065   0.681  12.181  0.2816 -0.2447  0.2779
  580TMC3    C6 8601   2.013   0.674  12.046 -0.1740  0.3404 -0.3117
  580TMC3     C 8602   2.126   1.028  12.193 -0.3241 -0.1227 -0.4134
  580TMC3     O 8603   2.077   1.127  12.137  0.0220  0.6608  0.0823
  580TMC3     H 8604   1.961   0.999  12.002  0.4036  0.1159  0.0824
  580TMC3    H1 8605   2.104   0.797  12.346  0.4899  1.4754 -0.4098
  580TMC3    H2 8606   2.039   0.586  11.987  0.3978 -0.9970  1.9049
  580TMC3    C7 8607   2.177   0.599  12.206 -0.4545  0.2730  0.5667
  580TMC3    C8 8608   2.017   0.798  11.851  0.1677 -0.3747 -0.3473
  580TMC3    O1 8609   2.282   0.655  12.240  0.8563  0.9441 -0.3464
  580TMC3    O2 8610   2.007   0.697  11.779  0.1135  0.4670  0.1262
  581MPD2     C 8611   4.644   0.285  14.760  0.2336  0.0514 -0.0890
  581MPD2    C1 8612   4.629   0.367  14.874 -0.5370 -0.8989  0.1579
  581MPD2    C2 8613   4.539   0.476  14.868  0.9182 -0.2956  0.0076
  581MPD2    C3 8614   4.459   0.502  14.752 -0.4510  0.6771  0.5005
  581MPD2    C4 8615   4.479   0.408  14.645  0.6236 -0.5719 -0.1059
  581MPD2    C5 8616   4.578   0.313  14.651 -0.4991 -0.3981  0.2633
  581MPD2     H 8617   4.523   0.537  14.956  0.2984  0.7873 -0.8455
  581MPD2    H1 8618   4.420   0.426  14.555  0.5047 -1.7774 -0.2639
  581MPD2    H2 8619   4.718   0.206  14.751 -0.4726 -1.1872  4.6830
  581MPD2    H3 8620   4.594   0.263  14.556 -0.6706 -0.7673  0.4288
  581MPD2     N 8621   4.362   0.601  14.755  0.1355  0.2178  0.3615
  581MPD2    H5 8622   4.366   0.664  14.834  0.1094 -0.4667  0.9067
  581MPD2    N1 8623   4.701   0.344  14.997  0.3325  0.4235 -0.5787
  581MPD2    H7 8624   4.659   0.382  15.081 -0.4714 -1.2235 -0.2270
  582TMC3    C1 8625   0.035   0.192  15.151 -0.3627 -0.1754  0.9108
  582TMC3    C2 8626   0.111   0.210  15.264  0.4186 -1.1492  0.0869
  582TMC3    C3 8627   0.054   0.168  15.382 -0.0978 -0.4796  0.6864
  582TMC3    C4 8628   4.635   0.143  15.149  0.1278 -0.0714  0.5934
  582TMC3    C5 8629   4.595   0.085  15.266  0.3118 -0.0103 -0.2653
  582TMC3    C6 8630   4.658   0.107  15.381  0.1241 -0.2297  0.8045
  582TMC3     C 8631   0.072   0.243  15.021  0.0930  0.0474 -0.3584
  582TMC3     O 8632   0.130   0.167  14.946  0.2743  0.2443 -0.6604
  582TMC3     H 8633   0.201   0.268  15.251  0.5937 -1.8142 -1.7857
  582TMC3    H1 8634   4.569   0.146  15.062 -0.0559 -3.3794  0.6190
  582TMC3    H2 8635   4.616   0.069  15.474  0.9275 -0.0672  1.2283
  582TMC3    C7 8636   4.452   0.084  15.284  0.3945  0.6292  0.2595
  582TMC3    C8 8637   0.079   0.245  15.505  0.0553 -0.7278 -0.0168
  582TMC3    O1 8638   4.387   4.708  15.300  0.3957  0.4609  0.4002
  582TMC3    O2 8639   4.711   0.245  15.587 -0.1186  0.4090 -0.4116
  583MPD2     C 8640   4.709   2.320  16.690 -0.4167 -0.1842 -0.2940
  583MPD2    C1 8641   4.644   2.379  16.585 -0.7219  0.1660 -0.2291
  583MPD2    C2 8642   4.522   2.442  16.600  0.0391 -0.1069  0.1098
  583MPD2    C3 8643   4.457   2.437  16.724  0.1125 -0.8728  0.0402
  583MPD2    C4 8644   4.523   2.377  16.832  0.4074 -0.4239  0.0190
  583MPD2    C5 8645   4.640   2.312  16.810 -0.1236  0.7826  0.1643
  583MPD2     H 8646   4.475   2.484  16.512  0.5424  0.5528  0.1546
  583MPD2    H1 8647   4.472   2.359  16.926  0.1645 -1.8175 -0.3780
  583MPD2    H2 8648   0.074   2.263  16.684  0.1734  0.6948  0.2502
  583MPD2    H3 8649   4.689   2.255  16.888 -2.4546 -1.3099  0.0678
  583MPD2     N 8650   4.334   2.512  16.747 -0.2313 -0.2893 -0.2098
  583MPD2    H5 8651   4.281   2.549  16.668  1.6331  1.6103 -0.5785
  583MPD2    N1 8652   4.703   2.385  16.454 -0.4006 -0.4897  0.2721
  583MPD2    H7 8653   4.661   2.438  16.378  0.6865 -0.3155 -0.2096
  584TMC3    C1 8654   4.164   2.622  16.876  0.7253 -0.0660 -0.0856
  584TMC3    C2 8655   4.182   2.739  16.797 -0.2214 -0.3517 -0.0225
  584TMC3    C3 8656   4.111   2.847  16.832 -0.4150 -0.4210  0.1333
  584TMC3    C4 8657   4.110   2.632  16.999 -0.5029  0.2770 -0.9364
  584TMC3    C5 8658   4.052   2.752  17.035  0.2609  0.2754  0.1042
  584TMC3    C6 8659   4.055   2.867  16.958 -0.0207  0.4307 -0.7982
  584TMC3     C 8660   4.278   2.528  16.869 -0.0099 -0.4397 -0.3361
  584TMC3     O 8661   4.318   2.501  16.981 -0.2807 -0.1849 -0.6029
  584TMC3     H 8662   4.227   2.730  16.699 -1.2910 -3.0054 -0.2677
  584TMC3    H1 8663   4.096   2.549  17.067  1.1670  0.9975  0.3178
  584TMC3    H2 8664   4.017   2.963  16.991  1.4409  1.0785 -1.0020
  584TMC3    C7 8665   3.998   2.759  17.175  0.0714 -0.4246  0.0312
  584TMC3    C8 8666   4.140   2.964  16.749  0.6593 -0.5441  0.5629
  584TMC3    O1 8667   3.933   2.671  17.228  0.6213  0.5693 -0.1917
  584TMC3    O2 8668   4.119   2.953  16.628  0.2343 -0.1011  0.2995
  585MPD2     C 8669   3.888   2.020  17.571 -0.1550 -0.0340 -0.1420
  585MPD2    C1 8670   3.897   1.923  17.667 -0.9232  0.2492 -0.7533
  585MPD2    C2 8671   3.916   1.797  17.626 -0.5753 -0.2994 -0.3740
  585MPD2    C3 8672   3.919   1.763  17.487 -0.7078  0.3426  0.3355
  585MPD2    C4 8673   3.897   1.862  17.397  0.1707 -0.2617 -0.0474
  585MPD2    C5 8674   3.887   1.992  17.441 -0.7641 -0.4179 -0.0964
  585MPD2     H 8675   3.929   1.724  17.705 -0.0535  1.3660  1.0725
  585MPD2    H1 8676   3.880   1.841  17.292 -2.0541 -1.5947  0.5787
  585MPD2    H2 8677   3.877   2.122  17.606  0.5975 -1.1243  3.2447
  585MPD2    H3 8678   3.845   2.067  17.375 -1.1266 -1.4102 -0.9967
  585MPD2     N 8679   3.943   1.635  17.436  0.3653 -0.0098 -1.1312
  585MPD2    H5 8680   3.913   1.621  17.340  0.0082  4.6806 -1.7006
  585MPD2    N1 8681   3.878   1.954   0.100 -0.0959 -0.4051 -0.0026
  585MPD2    H7 8682   3.893   2.052   0.118  0.5996 -0.6697  0.9014
  586TMC3    C1 8683   4.015   1.414  17.424  0.1133  0.1873 -1.2858
  586TMC3    C2 8684   4.124   1.343  17.455  0.3127 -0.2562 -0.0112
  586TMC3    C3 8685   4.142   1.231  17.386  0.6609  0.0133 -0.0182
  586TMC3    C4 8686   3.927   1.389  17.320 -0.0567 -0.1735  0.0433
  586TMC3    C5 8687   3.950   1.273  17.250 -0.4300 -0.1838 -0.3659
  586TMC3    C6 8688   4.060   1.192  17.284 -0.5433  1.2169 -0.3522
  586TMC3     C 8689   3.997   1.534  17.506 -0.0139 -0.0247 -0.4306
  586TMC3     O 8690   4.040   1.536  17.622 -0.8679 -0.3927 -0.7241
  586TMC3     H 8691   4.190   1.362  17.539  0.5705 -0.6642 -0.1200
  586TMC3    H1 8692   3.834   1.442  17.302  0.0176 -0.0951 -0.1118
  586TMC3    H2 8693   4.074   1.099  17.230 -1.5609  2.0672 -2.0938
  586TMC3    C7 8694   3.839   1.210  17.180 -0.6653  0.2049  0.0732
  586TMC3    C8 8695   4.237   1.132  17.437 -0.2275  0.3821  0.4173
  586TMC3    O1 8696   3.839   1.092  17.162 -0.5724  0.3801  0.0993
  586TMC3    O2 8697   4.293   1.170  17.538  0.0469  0.5589 -0.0558
  587TMC3    C1 8698   1.362   0.756  15.788  0.6796 -0.0475 -0.2860
  587TMC3    C2 8699   1.376   0.735  15.921 -0.0140  0.1042 -0.7612
  587TMC3    C3 8700   1.497   0.695  15.969 -0.1259  0.3832  0.2713
  587TMC3    C4 8701   1.463   0.724  15.698 -0.0728 -0.0721  0.1475
  587TMC3    C5 8702   1.577   0.658  15.744  0.9049  0.0925 -0.4805
  587TMC3    C6 8703   1.599   0.650  15.883 -0.7880 -0.0645 -0.0877
  587TMC3     C 8704   1.238   0.705  15.735  0.1288  0.3902  0.4521
  587TMC3     O 8705   1.190   0.769  15.638 -0.3045  0.1839  0.4102
  587TMC3     H 8706   1.300   0.778  15.984  0.6457  0.0670  0.0675
  587TMC3    H1 8707   1.446   0.729  15.591 -0.2395  0.7140  0.2116
  587TMC3    H2 8708   1.679   0.596  15.930 -0.4814  0.4336 -0.0368
  587TMC3    C7 8709   1.666   0.611  15.646 -0.2303 -0.1935  0.3667
  587TMC3    C8 8710   1.520   0.674  16.111  0.8350 -0.0140  0.2974
  587TMC3    O1 8711   1.625   0.602  15.531  0.3671 -0.2088 -0.3384
  587TMC3    O2 8712   1.634   0.640  16.136 -0.0265  0.0830 -0.2318
  588TMC3    C1 8713   3.767   2.655   9.200  0.2374  0.3858  0.3288
  588TMC3    C2 8714   3.769   2.530   9.138  1.3020 -0.0459 -0.7872
  588TMC3    C3 8715   3.878   2.447   9.171 -0.6109  0.0452  0.1927
  588TMC3    C4 8716   3.873   2.694   9.277  0.4624 -0.5656  1.0624
  588TMC3    C5 8717   3.979   2.609   9.300 -0.3102  0.1416 -0.0752
  588TMC3    C6 8718   3.979   2.479   9.261 -0.4148  0.0726 -0.7289
  588TMC3     C 8719   3.667   2.755   9.153 -0.6152 -0.1096  0.0013
  588TMC3     O 8720   3.597   2.726   9.056 -0.5886  0.4412 -0.6034
  588TMC3     H 8721   3.685   2.487   9.085  1.9396 -1.5998 -0.5174
  588TMC3    H1 8722   3.876   2.796   9.312 -1.5536  0.3299 -1.4108
  588TMC3    H2 8723   4.073   2.427   9.279 -0.4856  0.7209  1.4831
  588TMC3    C7 8724   4.071   2.650   9.405 -0.0636  0.0230  0.6857
  588TMC3    C8 8725   3.869   2.304   9.145 -0.4881  0.0925 -0.2009
  588TMC3    O1 8726   4.147   2.566   9.455 -0.1556 -0.2072 -0.0785
  588TMC3    O2 8727   3.784   2.265   9.065  0.9099 -0.0375 -0.2142
  589TMC3    C1 8728   3.029   0.214   1.124 -0.2803 -0.3801  0.2666
  589TMC3    C2 8729   3.089   0.250   1.242  0.1282 -0.6694  0.7462
  589TMC3    C3 8730   3.209   0.188   1.276 -0.0042 -0.5101 -0.0640
  589TMC3    C4 8731   3.084   0.118   1.044  0.2067 -0.1783  0.1950
  589TMC3    C5 8732   3.190   0.047   1.085 -0.4118  0.2018 -0.2935
  589TMC3    C6 8733   3.258   0.079   1.205  0.9745  0.3099 -0.4121
  589TMC3     C 8734   2.904   0.274   1.070  0.0295  0.3063  0.7099
  589TMC3     O 8735   2.879   0.244   0.951  0.2819 -0.0298  0.2596
  589TMC3     H 8736   3.055   0.328   1.309 -0.3726  1.2328 -1.7559
  589TMC3    H1 8737   3.030   0.078   0.960  0.9687 -0.1981 -0.2902
  589TMC3    H2 8738   3.337   0.018   1.247 -0.6572 -2.3102 -1.2157
  589TMC3    C7 8739   3.233   4.651   1.007 -0.4902 -0.6264  0.3532
  589TMC3    C8 8740   3.283   0.253   1.384 -0.0148  0.2804  0.2841
  589TMC3    O1 8741   3.157   4.616   0.915  0.8265  0.8137  0.0179
  589TMC3    O2 8742   3.219   0.314   1.471 -0.0243  0.7865  0.0509
  590MPD2     C 8743   2.301   3.184  16.579 -1.0956  0.9805  0.0475
  590MPD2    C1 8744   2.265   3.198  16.444 -0.4077  0.0690  0.2091
  590MPD2    C2 8745   2.350   3.263  16.355 -0.0168 -0.2243 -0.3744
  590MPD2    C3 8746   2.457   3.334  16.407 -0.9142  0.9812  0.1346
  590MPD2    C4 8747   2.482   3.324  16.543  0.5178 -0.3023 -0.3638
  590MPD2    C5 8748   2.405   3.251  16.626  0.4804 -0.4819 -0.0840
  590MPD2     H 8749   2.331   3.251  16.249 -0.2376  1.9507 -0.5739
  590MPD2    H1 8750   2.575   3.368  16.576  1.1768 -0.5033 -1.9227
  590MPD2    H2 8751   2.245   3.132  16.656  1.3323 -2.1115 -0.2779
  590MPD2    H3 8752   2.427   3.230  16.730 -1.3225 -0.5925  0.2679
  590MPD2     N 8753   2.544   3.402  16.315 -0.4045  0.2734 -0.4042
  590MPD2    H5 8754   2.514   3.394  16.219  0.9945 -0.0815 -0.8151
  590MPD2    N1 8755   2.145   3.134  16.406  0.1627 -0.4357 -0.4391
  590MPD2    H7 8756   2.091   3.098  16.484 -0.8057  0.2644 -0.7893
  591TMC3    C1 8757   2.707   3.540  16.216  0.5043 -0.2040  0.2488
  591TMC3    C2 8758   2.716   3.458  16.109 -0.1748  0.2155 -0.5401
  591TMC3    C3 8759   2.735   3.521  15.992  0.3826  0.1403  0.8900
  591TMC3    C4 8760   2.722   3.674  16.210 -0.1203 -0.0532  0.1605
  591TMC3    C5 8761   2.737   3.730  16.090 -0.0589  0.8097  0.1127
  591TMC3    C6 8762   2.733   3.657  15.973  0.7405 -0.1733  0.3088
  591TMC3     C 8763   2.648   3.491  16.339 -0.1233 -0.8082 -0.0107
  591TMC3     O 8764   2.668   3.545  16.446 -0.2099  0.1501  0.1884
  591TMC3     H 8765   2.683   3.355  16.117  0.7791 -0.0007  0.6205
  591TMC3    H1 8766   2.719   3.739  16.297 -1.1339 -0.7796  0.6661
  591TMC3    H2 8767   2.744   3.704  15.877 -1.1862  1.6656  0.9919
  591TMC3    C7 8768   2.708   3.872  16.086  0.1430 -0.2400 -0.8149
  591TMC3    C8 8769   2.754   3.423  15.878  0.0892 -0.7911 -0.2407
  591TMC3    O1 8770   2.659   3.927  16.182  0.2078 -0.2768  0.3429
  591TMC3    O2 8771   2.785   3.310  15.910 -0.2083 -0.0691  0.3634
  592MPD2     C 8772   3.102   1.054  11.140 -0.1431 -0.2120 -0.0304
  592MPD2    C1 8773   3.148   1.068  11.267 -0.0642  0.4894 -0.3072
  592MPD2    C2 8774   3.121   0.969  11.356 -0.5076  1.1571  0.6155
  592MPD2    C3 8775   3.045   0.861  11.324  0.4899 -0.2381 -0.3957
  592MPD2    C4 8776   2.996   0.848  11.193 -0.1085  0.2127  0.2069
  592MPD2    C5 8777   3.025   0.948  11.102  0.4251 -0.3472  0.1918
  592MPD2     H 8778   3.156   0.979  11.459  0.4079 -1.1044  0.5180
  592MPD2    H1 8779   2.944   0.760  11.158  0.0876 -0.6575  2.1028
  592MPD2    H2 8780   3.113   1.133  11.066 -0.9221  0.3825  0.4858
  592MPD2    H3 8781   2.993   0.928  11.001 -0.4750 -0.2365  0.4488
  592MPD2     N 8782   3.014   0.776  11.431  0.1176 -0.1764  0.2858
  592MPD2    H5 8783   3.068   0.790  11.516  0.8854  0.2614 -0.2713
  592MPD2    N1 8784   3.232   1.179  11.282  0.2194 -0.7210  0.0989
  592MPD2    H7 8785   3.253   1.239  11.203 -2.1542  0.5672  0.4364
  593TMC3    C1 8786   3.407   1.310  11.377  0.4443  0.1113 -0.0327
  593TMC3    C2 8787   3.438   1.361  11.501 -0.7036  0.2158 -0.1941
  593TMC3    C3 8788   3.571   1.395  11.528 -0.3760 -0.2126 -0.4016
  593TMC3    C4 8789   3.506   1.291  11.280  0.4687  0.1507 -0.2173
  593TMC3    C5 8790   3.633   1.325  11.314 -0.5030  0.1269  0.1444
  593TMC3    C6 8791   3.666   1.378  11.432 -0.3538  0.5081 -0.2458
  593TMC3     C 8792   3.305   1.206  11.393  0.6387  0.5620 -0.0697
  593TMC3     O 8793   3.322   1.155  11.502 -0.5781 -0.1413  0.2263
  593TMC3     H 8794   3.358   1.371  11.574  0.7120  1.0145  1.2567
  593TMC3    H1 8795   3.475   1.265  11.180  2.6788 -5.5032  0.5738
  593TMC3    H2 8796   3.767   1.412  11.453 -0.0553 -0.4828 -0.1026
  593TMC3    C7 8797   3.732   1.340  11.210  0.2977  0.7019 -0.4913
  593TMC3    C8 8798   3.614   1.402  11.668 -0.7898 -0.4639 -0.0698
  593TMC3    O1 8799   3.699   1.384  11.100 -0.0367 -0.0614 -0.0248
  593TMC3    O2 8800   3.534   1.457  11.745 -0.0742  0.9000 -0.2223
  594MPD2     C 8801   2.227   3.744  14.010  0.4476 -0.4956 -0.0783
  594MPD2    C1 8802   2.103   3.799  13.984  0.0395  0.3258 -0.6503
  594MPD2    C2 8803   2.096   3.940  13.966  0.3146  0.4739  0.1192
  594MPD2    C3 8804   2.207   4.022  13.962  0.1104  0.1481 -0.5143
  594MPD2    C4 8805   2.330   3.965  13.976 -0.3827  1.0189 -0.7705
  594MPD2    C5 8806   2.338   3.826  13.998  0.6713 -0.3027 -0.4175
  594MPD2     H 8807   2.000   3.987  13.952  0.1758  0.8490  2.3177
  594MPD2    H1 8808   2.419   4.027  13.978 -0.0818  0.6122 -1.5810
  594MPD2    H2 8809   2.252   3.639  14.026 -0.6093 -0.7382 -0.0583
  594MPD2    H3 8810   2.435   3.780  14.004  0.1094 -1.3917  0.1845
  594MPD2     N 8811   2.181   4.158  13.937 -0.6297  0.3641 -0.8986
  594MPD2    H5 8812   2.085   4.171  13.907 -0.5235 -0.9255 -1.7880
  594MPD2    N1 8813   1.989   3.726  13.988 -0.1862  0.4891  0.5048
  594MPD2    H7 8814   1.900   3.772  13.976  0.8553  3.0257  2.4046
  595TMC3    C1 8815   2.242   4.595  13.790 -0.1734  0.2315  0.3101
  595TMC3    C2 8816   2.274   4.461  13.796 -0.2072 -0.3753  0.3180
  595TMC3    C3 8817   2.202   4.383  13.878  0.1689 -0.2905  0.0915
  595TMC3    C4 8818   2.137   4.648  13.860  0.2666  0.2566  0.7002
  595TMC3    C5 8819   2.071   4.568  13.947 -0.6693  0.0217 -0.3228
  595TMC3    C6 8820   2.104   4.436  13.963 -0.5483 -0.5589  0.0762
  595TMC3     C 8821   2.362   4.668  13.821 -0.3075 -0.2988 -0.7912
  595TMC3     O 8822   2.455   4.596  13.857 -0.1438  0.1603  0.0494
  595TMC3     H 8823   2.363   4.420  13.750 -0.2739 -3.0281  2.5222
  595TMC3    H1 8824   2.112   0.026  13.869 -1.1781  0.1624 -2.1589
  595TMC3    H2 8825   2.053   4.375  14.036 -2.4058  0.9915  0.0655
  595TMC3    C7 8826   1.981   4.629  14.045  0.1580 -0.2539 -0.7568
  595TMC3    C8 8827   2.268   4.263  13.930 -0.2956  0.2788 -0.2947
  595TMC3    O1 8828   1.873   4.676  14.007  0.0028 -0.5308 -0.0372
  595TMC3    O2 8829   2.385   4.266  13.955 -0.0051 -0.1715 -0.0620
  596MPD2     C 8830   0.979   2.451  16.106  0.3102  0.1984  0.0710
  596MPD2    C1 8831   0.849   2.475  16.132  0.8450 -0.2803 -0.0213
  596MPD2    C2 8832   0.754   2.423  16.054 -0.2074  0.5167 -1.0626
  596MPD2    C3 8833   0.790   2.339  15.951 -0.5196 -0.0100  0.3168
  596MPD2    C4 8834   0.925   2.312  15.931  0.5883  0.0526  0.2103
  596MPD2    C5 8835   1.022   2.378  15.996 -0.0037  0.7278 -0.0071
  596MPD2     H 8836   0.653   2.457  16.072 -0.0272  0.3723  0.1982
  596MPD2    H1 8837   0.949   2.252  15.845 -0.0435  1.1977 -0.7594
  596MPD2    H2 8838   1.057   2.501  16.162 -0.7977  1.2244  0.6846
  596MPD2    H3 8839   1.124   2.352  15.971  0.0118  1.3940 -0.6425
  596MPD2     N 8840   0.698   2.304  15.851  0.2379 -1.1500 -0.5637
  596MPD2    H5 8841   0.739   2.251  15.775  3.4664  1.3386 -0.5638
  596MPD2    N1 8842   0.816   2.570  16.231  0.6505  0.9097 -0.0166
  596MPD2    H7 8843   0.889   2.629  16.270 -0.2122  0.3930  2.4043
  597TMC3    C1 8844   0.675   2.710  16.363  0.3408 -0.3627 -0.2346
  597TMC3    C2 8845   0.715   2.826  16.303 -0.1595 -0.2265  0.1335
  597TMC3    C3 8846   0.683   2.948  16.365 -0.7422 -0.3423  0.0887
  597TMC3    C4 8847   0.597   2.710  16.482 -0.2784  0.8245 -0.3568
  597TMC3    C5 8848   0.558   2.837  16.527  0.1893  0.4245 -0.3797
  597TMC3    C6 8849   0.605   2.952  16.481  0.8609  0.8480 -0.4906
  597TMC3     C 8850   0.691   2.577  16.298  0.0408 -0.9480  1.0286
  597TMC3     O 8851   0.612   2.488  16.325  0.4286 -0.1896 -0.2889
  597TMC3     H 8852   0.781   2.821  16.217  1.6936  0.6592  1.4922
  597TMC3    H1 8853   0.561   2.623  16.534  1.1552 -1.1820 -2.7421
  597TMC3    H2 8854   0.573   3.047  16.523 -2.0056 -1.5460  2.6780
  597TMC3    C7 8855   0.478   2.839  16.648 -0.3372 -0.3445  0.0473
  597TMC3    C8 8856   0.699   3.066  16.280 -0.6509 -0.1028  0.0327
  597TMC3    O1 8857   0.522   2.759  16.727  0.1297  0.4737 -0.6667
  597TMC3    O2 8858   0.698   3.167  16.342 -0.2345 -0.0635 -0.1278
  598TMC3    C1 8859   3.771   3.930  15.295 -0.0396  0.0496 -0.1901
  598TMC3    C2 8860   3.639   3.894  15.319  0.9154 -0.1074  0.1919
  598TMC3    C3 8861   3.554   3.893  15.214 -0.0222  0.3372  0.3427
  598TMC3    C4 8862   3.801   3.982  15.171 -0.7797  0.2799  0.0770
  598TMC3    C5 8863   3.709   3.980  15.076 -0.1581 -0.6275  0.3259
  598TMC3    C6 8864   3.584   3.934  15.087  0.0751 -0.1010  0.8017
  598TMC3     C 8865   3.866   3.935  15.407  0.4876  0.8466 -0.2051
  598TMC3     O 8866   3.829   3.927  15.522  0.2179 -0.5487 -0.2270
  598TMC3     H 8867   3.609   3.867  15.420 -0.8539  1.1498  0.0084
  598TMC3    H1 8868   3.899   4.024  15.152 -0.5528 -0.4699 -0.3954
  598TMC3    H2 8869   3.517   3.914  15.004 -1.7542  5.3515  0.9170
  598TMC3    C7 8870   3.736   4.038  14.942  0.3934 -0.4268  0.1792
  598TMC3    C8 8871   3.425   3.816  15.238  0.0876 -0.4353  0.3101
  598TMC3    O1 8872   3.659   4.000  14.853  0.7671 -0.7245 -0.1831
  598TMC3    O2 8873   3.343   3.822  15.142 -0.9341  0.2463 -0.2185
  599MPD2     C 8874   3.920   1.772  15.866 -0.6877 -0.0764 -0.3590
  599MPD2    C1 8875   3.855   1.659  15.819  0.0927  0.3739  0.8673
  599MPD2    C2 8876   3.717   1.647  15.821  0.0220  0.1872 -0.6512
  599MPD2    C3 8877   3.646   1.762  15.848 -0.0083  0.1005 -0.1812
  599MPD2    C4 8878   3.711   1.879  15.876  0.6501 -0.3093  0.0959
  599MPD2    C5 8879   3.847   1.891  15.889 -0.1802 -0.2748  0.2536
  599MPD2     H 8880   3.675   1.549  15.803 -0.5245  0.3561 -0.2983
  599MPD2    H1 8881   3.655   1.971  15.888  2.1826  1.0124 -2.8696
  599MPD2    H2 8882   4.028   1.773  15.876 -0.5686  0.9655 -1.6751
  599MPD2    H3 8883   3.901   1.984  15.909 -0.3779 -0.6141  2.3812
  599MPD2     N 8884   3.505   1.760  15.854 -0.3118  0.0246 -0.3277
  599MPD2    H5 8885   3.452   1.845  15.848 -2.1156 -0.8106  3.7726
  599MPD2    N1 8886   3.945   1.563  15.763 -0.7309 -0.1695  0.2718
  599MPD2    H7 8887   4.043   1.588  15.765 -1.5332  2.8173  2.3946
  600TMC3    C1 8888   3.276   1.676  15.862  0.5044 -0.1522  0.0755
  600TMC3    C2 8889   3.197   1.562  15.881  0.4892 -0.6390  0.0444
  600TMC3    C3 8890   3.073   1.572  15.933 -0.0707 -0.1285 -0.2148
  600TMC3    C4 8891   3.229   1.794  15.903 -0.6584 -0.4924  0.5120
  600TMC3    C5 8892   3.100   1.800  15.941 -0.7702  0.3176  0.1544
  600TMC3    C6 8893   3.023   1.692  15.968  0.1903 -0.0381  0.5290
  600TMC3     C 8894   3.423   1.650  15.853  0.2531 -0.3353  0.3235
  600TMC3     O 8895   3.450   1.533  15.850  0.0164 -0.0402  0.1015
  600TMC3     H 8896   3.220   1.461  15.849 -0.3311 -1.8988  3.3905
  600TMC3    H1 8897   3.274   1.892  15.890  3.6084 -2.4518  0.1485
  600TMC3    H2 8898   2.932   1.701  16.026 -1.3872 -1.2068 -1.7522
  600TMC3    C7 8899   3.070   1.911  16.034 -0.3762 -0.5040 -0.1125
  600TMC3    C8 8900   3.037   1.465  16.020  0.5369  0.5388  0.4549
  600TMC3    O1 8901   3.013   1.875  16.136 -0.1007  0.7860 -0.0887
  600TMC3    O2 8902   3.076   1.465  16.134  0.1723  0.3862  0.5075
  601MPD2     C 8903   1.209   4.048  16.994  0.2877  0.0349  0.1289
  601MPD2    C1 8904   1.087   4.092  17.033 -0.4203 -0.7583 -0.0753
  601MPD2    C2 8905   0.995   4.003  17.091  0.1158  0.2893 -0.5055
  601MPD2    C3 8906   1.036   3.877  17.127 -0.1172 -0.2361 -0.1071
  601MPD2    C4 8907   1.154   3.832  17.073 -0.1865 -0.5210  0.5423
  601MPD2    C5 8908   1.242   3.916  17.013 -1.0353  0.4006  0.2275
  601MPD2     H 8909   0.898   4.042  17.121  1.0156 -0.5456  3.5586
  601MPD2    H1 8910   1.186   3.730  17.086 -0.1571 -0.3438  1.9179
  601MPD2    H2 8911   1.281   4.117  16.951  1.8009 -2.2685 -0.9828
  601MPD2    H3 8912   1.342   3.888  16.980  0.2492  0.4173  4.1405
  601MPD2     N 8913   0.954   3.787  17.196 -0.0907  0.0287 -0.1503
  601MPD2    H5 8914   0.964   3.686  17.193  3.3256  0.3647  0.9434
  601MPD2    N1 8915   1.042   4.220  16.999  0.5987 -0.1258 -0.2668
  601MPD2    H7 8916   0.940   4.227  17.000  0.6837  0.8376  1.9210
  602TMC3    C1 8917   1.022   4.430  16.897 -0.2736  1.0054  0.5051
  602TMC3    C2 8918   1.083   4.522  16.812  0.0935  0.4292  0.1638
  602TMC3    C3 8919   1.005   4.628  16.785  0.1992  0.0333  0.3484
  602TMC3    C4 8920   0.892   4.436  16.942  0.5771  0.3449  0.2011
  602TMC3    C5 8921   0.820   4.544  16.903  0.6172  0.1405 -0.6030
  602TMC3    C6 8922   0.873   4.639  16.818 -0.9473  0.2623  0.3645
  602TMC3     C 8923   1.115   4.327  16.945 -0.0965 -0.7957  0.3580
  602TMC3     O 8924   1.234   4.345  16.944  0.4799  0.4297  0.1249
  602TMC3     H 8925   1.186   4.518  16.779  0.4387  1.5713  1.1451
  602TMC3    H1 8926   0.843   4.369  17.012 -1.1020  1.4966  0.1128
  602TMC3    H2 8927   0.809   4.716  16.777 -1.1083 -0.7101 -1.1985
  602TMC3    C7 8928   0.686   4.556  16.947  0.0572  0.4308  0.3087
  602TMC3    C8 8929   1.050   0.003  16.696 -0.0297 -0.0377  0.2443
  602TMC3    O1 8930   0.625   4.453  16.975 -0.3345 -0.0382  0.7943
  602TMC3    O2 8931   1.133   4.704  16.607 -0.1595 -0.4405 -0.1299
  603TMC3    C1 8932   4.194   0.045  10.442  0.3495  0.4288  0.4585
  603TMC3    C2 8933   4.279   0.001  10.545  0.2395 -0.0818 -0.0126
  603TMC3    C3 8934   4.357   0.094  10.608 -0.8000 -0.0102  0.0115
  603TMC3    C4 8935   4.188   0.173  10.406  0.3622 -0.2543 -0.5154
  603TMC3    C5 8936   4.277   0.256  10.463 -0.0090  0.2625 -0.6635
  603TMC3    C6 8937   4.365   0.225  10.565 -0.0733 -0.1577  0.5749
  603TMC3     C 8938   4.119   4.676  10.366 -0.9875  0.3281  0.2590
  603TMC3     O 8939   4.071   4.714  10.263 -0.5464 -0.1669 -0.5010
  603TMC3     H 8940   4.279   4.624  10.576  1.9434  0.4811  1.8165
  603TMC3    H1 8941   4.134   0.198  10.315  0.1190  1.6510  0.1639
  603TMC3    H2 8942   4.448   0.289  10.592  0.5087 -1.0471  0.9303
  603TMC3    C7 8943   4.297   0.382  10.386  0.1379  0.5228 -1.0698
  603TMC3    C8 8944   4.409   0.070  10.744 -0.3306  0.4311 -0.0256
  603TMC3    O1 8945   4.410   0.430  10.371 -0.1631  0.3190  0.1554
  603TMC3    O2 8946   4.379   4.688  10.792 -0.4711 -0.2277 -0.6621
  604MPD2     C 8947   4.567   3.715  16.379  1.0248  0.4372 -0.6322
  604MPD2    C1 8948   4.451   3.671  16.322 -0.6326 -0.6639  0.2553
  604MPD2    C2 8949   4.455   3.616  16.193 -0.1983  0.0041 -0.5205
  604MPD2    C3 8950   4.581   3.623  16.122  0.8842  0.3093  0.0248
  604MPD2    C4 8951   4.692   3.661  16.191  0.3786 -0.1743 -0.0567
  604MPD2    C5 8952   4.686   3.698  16.318  0.5748  0.1316 -0.6383
  604MPD2     H 8953   4.363   3.591  16.143 -2.5385  2.3092  2.6309
  604MPD2    H1 8954   0.061   3.664  16.141  0.7193  0.1592  0.6049
  604MPD2    H2 8955   4.553   3.753  16.480  0.6514 -0.2888 -0.4099
  604MPD2    H3 8956   0.043   3.736  16.376  0.6103  0.2760 -0.7841
  604MPD2     N 8957   4.580   3.593  15.979 -0.1298  0.7452 -0.4031
  604MPD2    H5 8958   4.486   3.585  15.942 -0.5026 -0.4374  0.8384
  604MPD2    N1 8959   4.336   3.696  16.398  0.3255  0.0276 -0.2609
  604MPD2    H7 8960   4.356   3.732  16.491 -0.6035  0.6790 -0.3194
  605TMC3    C1 8961   4.103   3.709  16.455  0.1307  0.2827 -0.0246
  605TMC3    C2 8962   4.160   3.782  16.556 -0.0201  0.1463  0.5077
  605TMC3    C3 8963   4.154   3.920  16.549  0.5820  0.6729 -0.8110
  605TMC3    C4 8964   3.992   3.752  16.389 -0.2261  0.0671 -0.2519
  605TMC3    C5 8965   3.971   3.889  16.390 -0.3505  0.0166 -0.3363
  605TMC3    C6 8966   4.055   3.973  16.459  0.5136  0.6439  0.3791
  605TMC3     C 8967   4.208   3.670  16.356 -0.3502 -0.0280  0.0844
  605TMC3     O 8968   4.161   3.627  16.251 -0.9089  0.2945  0.4940
  605TMC3     H 8969   4.222   3.723  16.622  1.8640  0.4390 -1.0121
  605TMC3    H1 8970   3.936   3.687  16.322  2.7429 -0.6213 -2.0556
  605TMC3    H2 8971   4.048   4.081  16.448  2.4932  0.4367 -2.6634
  605TMC3    C7 8972   3.845   3.942  16.350  0.1186 -0.0755  0.2666
  605TMC3    C8 8973   4.282   3.981  16.561  0.6101  0.2419  0.2085
  605TMC3    O1 8974   3.845   4.063  16.338  0.5958  0.0824  0.2980
  605TMC3    O2 8975   4.313   4.078  16.494 -0.4907  0.0815 -0.3188
  606TMC3    C1 8976   0.423   2.098   0.432 -0.5935 -0.2460 -0.0392
  606TMC3    C2 8977   0.548   2.066   0.482 -0.6726 -0.5049 -0.4181
  606TMC3    C3 8978   0.591   1.937   0.471  0.2643 -0.4427 -0.3196
  606TMC3    C4 8979   0.338   2.003   0.383  0.2515 -0.0071  0.5004
  606TMC3    C5 8980   0.385   1.872   0.371 -1.5946  0.1411  0.3906
  606TMC3    C6 8981   0.510   1.838   0.416  0.2586  0.7450  0.4152
  606TMC3     C 8982   0.365   2.215   0.478  0.0533 -0.1290  0.3352
  606TMC3     O 8983   0.244   2.209   0.516 -0.7715  0.0011  0.7025
  606TMC3     H 8984   0.616   2.133   0.534 -2.2290 -0.1788  1.2047
  606TMC3    H1 8985   0.238   2.038   0.359  0.0485 -0.6488  0.4190
  606TMC3    H2 8986   0.545   1.737   0.400 -1.3178 -0.1497  2.6448
  606TMC3    C7 8987   0.295   1.768   0.343 -0.4305  0.4327  0.4322
  606TMC3    C8 8988   0.731   1.920   0.457 -0.2362 -0.4703  0.5032
  606TMC3    O1 8989   0.309   1.664   0.410  0.1635 -0.2160  0.0573
  606TMC3    O2 8990   0.807   2.012   0.427 -0.7439  0.1320  0.3750
  607MPD2     C 8991   3.119   0.351  11.324  0.4674 -0.0995  0.0260
  607MPD2    C1 8992   3.203   0.437  11.389  0.3561 -0.1642 -0.1687
  607MPD2    C2 8993   3.220   0.427  11.525 -0.8919 -0.5064  0.7993
  607MPD2    C3 8994   3.157   0.320  11.590 -0.3506 -0.0615 -0.0196
  607MPD2    C4 8995   3.068   0.242  11.526  0.1153  0.4386  0.4047
  607MPD2    C5 8996   3.047   0.255  11.391 -0.1756 -0.2348  0.3997
  607MPD2     H 8997   3.282   0.491  11.587 -2.0664 -1.4542  2.9077
  607MPD2    H1 8998   3.021   0.158  11.575 -1.3724 -0.5128 -2.6109
  607MPD2    H2 8999   3.113   0.348  11.216  0.5934 -5.1758  0.1435
  607MPD2    H3 9000   2.989   0.187  11.329  0.0619  0.0529 -0.1340
  607MPD2     N 9001   3.186   0.301  11.726 -0.2187 -0.4470  0.4885
  607MPD2    H5 9002   3.243   0.374  11.768 -1.1297 -1.3603  3.3045
  607MPD2    N1 9003   3.278   0.527  11.306  0.0932  0.6335  0.1996
  607MPD2    H7 9004   3.260   0.540  11.207 -0.9464 -0.4995  0.2488
  608TMC3    C1 9005   3.398   0.728  11.252 -0.0546  0.1770  0.1219
  608TMC3    C2 9006   3.442   0.837  11.334  0.3716  0.0288 -0.0666
  608TMC3    C3 9007   3.576   0.873  11.325  0.0605 -0.5537 -0.4882
  608TMC3    C4 9008   3.483   0.681  11.152  0.3371  0.3522 -0.8656
  608TMC3    C5 9009   3.608   0.735  11.145 -0.1749  0.4554  0.5664
  608TMC3    C6 9010   3.660   0.820  11.237 -0.2517  0.5711 -0.2056
  608TMC3     C 9011   3.353   0.634  11.354 -0.9441 -0.2728  0.0280
  608TMC3     O 9012   3.383   0.664  11.467  0.4263  0.9680  0.1574
  608TMC3     H 9013   3.373   0.873  11.409 -0.5187  0.2639 -0.9994
  608TMC3    H1 9014   3.450   0.602  11.086  3.7008 -1.4747 -0.3715
  608TMC3    H2 9015   3.757   0.868  11.223  0.0862 -0.2484 -0.6455
  608TMC3    C7 9016   3.680   0.723  11.021  0.2931  0.5319 -0.0215
  608TMC3    C8 9017   3.632   0.914  11.451  0.2325 -0.0911 -0.4525
  608TMC3    O1 9018   3.609   0.715  10.921  0.1223 -0.2155  0.3625
  608TMC3    O2 9019   3.733   0.986  11.456  0.2426 -0.3884  0.0590
  609TMC3    C1 9020   2.491   4.088   8.681  0.8512  0.0374 -0.4284
  609TMC3    C2 9021   2.533   4.167   8.576 -0.2515 -0.1934 -0.8006
  609TMC3    C3 9022   2.668   4.174   8.559  0.4899  0.1856  0.0910
  609TMC3    C4 9023   2.574   4.018   8.751 -0.2564 -0.2469 -0.5301
  609TMC3    C5 9024   2.707   4.012   8.711 -0.4210  0.7547  0.5120
  609TMC3    C6 9025   2.759   4.092   8.622 -0.2753 -0.2373  0.2174
  609TMC3     C 9026   2.350   4.081   8.704  0.3303 -0.2165 -0.3390
  609TMC3     O 9027   2.279   4.143   8.632  0.3739 -0.2513 -0.5579
  609TMC3     H 9028   2.470   4.240   8.526  1.1622  2.2388  0.9671
  609TMC3    H1 9029   2.544   3.954   8.833  1.1916 -0.2899 -0.0269
  609TMC3    H2 9030   2.866   4.098   8.605 -0.4062 -1.5344 -0.9848
  609TMC3    C7 9031   2.793   3.912   8.766  0.3853  0.2320  0.0676
  609TMC3    C8 9032   2.717   4.274   8.470  0.3789  0.4009 -0.1503
  609TMC3    O1 9033   2.788   3.894   8.884  0.2811 -0.1096 -0.2900
  609TMC3    O2 9034   2.820   4.331   8.493  0.0428 -0.0593  0.0263
  610TMC3    C1 9035   3.861   0.242  12.421 -0.4522 -0.6700 -0.5699
  610TMC3    C2 9036   3.816   0.317  12.314 -0.8696  0.1644  0.1416
  610TMC3    C3 9037   3.820   0.268  12.189  0.0070  0.6094  0.0799
  610TMC3    C4 9038   3.910   0.119  12.399  0.0783 -0.3083 -0.8410
  610TMC3    C5 9039   3.889   0.065  12.274 -0.7162 -0.3103  0.5243
  610TMC3    C6 9040   3.850   0.138  12.160 -0.4072  0.1250  0.1633
  610TMC3     C 9041   3.859   0.284  12.559 -0.1759 -0.0319 -0.6548
  610TMC3     O 9042   3.896   0.204  12.641 -1.1816 -0.7270  0.3093
  610TMC3     H 9043   3.795   0.423  12.325 -2.4437 -0.1130 -0.2557
  610TMC3    H1 9044   3.957   0.059  12.476 -2.5317 -1.4325 -0.1248
  610TMC3    H2 9045   3.836   0.088  12.065 -1.2297 -1.0847  0.9135
  610TMC3    C7 9046   3.874   4.647  12.254  0.5480 -0.0968 -0.5457
  610TMC3    C8 9047   3.853   0.359  12.088 -0.0759  0.1464  0.2435
  610TMC3    O1 9048   3.810   4.602  12.158  0.3743  0.1767 -0.2014
  610TMC3    O2 9049   3.803   0.468  12.102 -0.2742 -0.1490  0.3043
  611MPD2     C 9050   3.058   0.886  10.485 -0.4694 -0.1970 -0.3975
  611MPD2    C1 9051   3.064   0.774  10.411  0.7521  0.2580 -0.1710
  611MPD2    C2 9052   3.159   0.773  10.308 -0.1783  0.2117 -0.4539
  611MPD2    C3 9053   3.246   0.877  10.279 -0.6806 -0.6022  0.6132
  611MPD2    C4 9054   3.231   0.985  10.356  0.5350 -0.0590 -0.1710
  611MPD2    C5 9055   3.137   0.993  10.455  0.5875 -0.0429  0.1876
  611MPD2     H 9056   3.166   0.685  10.246  1.2254  0.3532 -0.5085
  611MPD2    H1 9057   3.291   1.073  10.334  0.2935  0.4482  1.1675
  611MPD2    H2 9058   2.993   0.902  10.570  0.1454 -3.1056  0.6139
  611MPD2    H3 9059   3.122   1.085  10.511  0.6319 -0.7625  1.4004
  611MPD2     N 9060   3.351   0.868  10.189  0.2836  0.4675  0.3224
  611MPD2    H5 9061   3.419   0.944  10.191 -0.4635  1.1346  0.5947
  611MPD2    N1 9062   2.980   0.670  10.444  0.2375 -0.6443 -0.2137
  611MPD2    H7 9063   2.897   0.694  10.499  0.5845  0.2205 -0.0724
  612TMC3    C1 9064   3.479   0.823  10.010  0.0233 -0.5791  0.4303
  612TMC3    C2 9065   3.606   0.787  10.045  0.5069  0.4035  0.0219
  612TMC3    C3 9066   3.701   0.816   9.954  0.3166  0.1526  0.0679
  612TMC3    C4 9067   3.443   0.878   9.892 -0.1545  0.0913  0.1168
  612TMC3    C5 9068   3.546   0.890   9.801  0.0263 -0.1452 -0.6284
  612TMC3    C6 9069   3.672   0.863   9.832 -0.1832  0.2484 -0.2632
  612TMC3     C 9070   3.371   0.773  10.092 -0.1179  0.3951 -0.3698
  612TMC3     O 9071   3.317   0.668  10.064  0.2611 -0.1181 -0.1026
  612TMC3     H 9072   3.633   0.775  10.149  1.9470 -1.2262 -0.5370
  612TMC3    H1 9073   3.337   0.895   9.879 -0.2795 -0.0493  0.9399
  612TMC3    H2 9074   3.751   0.865   9.758  0.0804 -0.2737  0.0049
  612TMC3    C7 9075   3.519   0.963   9.678 -0.1080  0.3147  0.3710
  612TMC3    C8 9076   3.839   0.817   9.983  0.3616  0.5162 -0.0463
  612TMC3    O1 9077   3.613   0.959   9.600 -0.0286  0.0428 -0.0326
  612TMC3    O2 9078   3.911   0.891   9.918  0.5539  0.8068  0.1881
  613MPD2     C 9079   2.125   2.428  16.778  0.0315  0.4428 -0.2260
  613MPD2    C1 9080   2.045   2.479  16.683  0.4687 -0.1738  1.0226
  613MPD2    C2 9081   1.932   2.408  16.647  0.1414  0.1015  0.5839
  613MPD2    C3 9082   1.906   2.276  16.688  0.8088 -0.3787 -0.7329
  613MPD2    C4 9083   1.989   2.229  16.793  0.3056 -0.1789  0.1515
  613MPD2    C5 9084   2.093   2.307  16.830  0.5906 -0.2984 -0.0786
  613MPD2     H 9085   1.864   2.454  16.576  1.4334 -1.9421 -2.0111
  613MPD2    H1 9086   1.979   2.130  16.837 -1.0635  0.0748  0.4214
  613MPD2    H2 9087   2.217   2.474  16.812 -0.7082  2.7577 -1.4043
  613MPD2    H3 9088   2.156   2.260  16.904 -3.4093  1.5373  4.5235
  613MPD2     N 9089   1.820   2.180  16.623  0.2580 -0.4143 -0.2262
  613MPD2    H5 9090   1.810   2.091  16.670 -2.0633 -0.6452 -1.1474
  613MPD2    N1 9091   2.071   2.611  16.643 -0.7143  0.3287  0.3612
  613MPD2    H7 9092   2.135   2.664  16.701 -2.2981  0.3701  2.0659
  614TMC3    C1 9093   1.980   2.594  16.404 -0.0916  0.6909 -0.2931
  614TMC3    C2 9094   2.022   2.473  16.363  1.0999 -0.6948 -1.4163
  614TMC3    C3 9095   1.974   2.418  16.247 -0.2413 -0.7821 -0.8217
  614TMC3    C4 9096   1.869   2.654  16.341  0.8695  0.2129  0.0107
  614TMC3    C5 9097   1.821   2.597  16.228 -0.1448 -0.1529  0.0839
  614TMC3    C6 9098   1.870   2.477  16.175 -0.3397  0.0935  0.4972
  614TMC3     C 9099   2.029   2.671  16.520  1.1431 -0.9164  0.1845
  614TMC3     O 9100   2.028   2.795  16.510 -0.1240  0.0886 -0.0278
  614TMC3     H 9101   2.095   2.415  16.419 -0.0727  1.7424  2.6061
  614TMC3    H1 9102   1.819   2.737  16.391  2.3209  1.3559 -0.4184
  614TMC3    H2 9103   1.806   2.432  16.100  3.1989 -0.4539 -2.1455
  614TMC3    C7 9104   1.699   2.660  16.171 -0.6306 -0.0310 -0.6584
  614TMC3    C8 9105   1.985   2.275  16.238 -0.7270 -0.2724  0.5727
  614TMC3    O1 9106   1.643   2.740  16.245  0.0602  0.0013 -0.0044
  614TMC3    O2 9107   2.032   2.220  16.338 -0.2386  0.4411 -0.2425
  615MPD2     C 9108   1.618   3.612  15.639  0.2406 -0.1584  0.0942
  615MPD2    C1 9109   1.589   3.739  15.591  0.0863  0.1443  0.6122
  615MPD2    C2 9110   1.497   3.748  15.485  0.6734 -0.0809 -0.0942
  615MPD2    C3 9111   1.461   3.627  15.429 -0.1718  0.3497  0.0856
  615MPD2    C4 9112   1.496   3.503  15.473 -0.0573 -0.3369 -0.2517
  615MPD2    C5 9113   1.579   3.500  15.580 -0.0078  0.6508 -0.2759
  615MPD2     H 9114   1.470   3.847  15.451 -1.3489  0.0088  1.7194
  615MPD2    H1 9115   1.465   3.414  15.422 -1.6868 -1.3022  2.4187
  615MPD2    H2 9116   1.697   3.593  15.711  0.4317 -0.3094 -0.1547
  615MPD2    H3 9117   1.608   3.400  15.610 -1.2406  0.1430 -0.7648
  615MPD2     N 9118   1.373   3.643  15.323  0.4193  0.6116  0.5057
  615MPD2    H5 9119   1.360   3.734  15.279 -0.1009  0.2347 -0.1083
  615MPD2    N1 9120   1.631   3.862  15.650  0.3053  0.2369  0.6096
  615MPD2    H7 9121   1.605   3.954  15.615  2.6418 -0.4084 -2.7878
  616TMC3    C1 9122   1.763   4.015  15.801 -0.0093 -0.6711  0.3000
  616TMC3    C2 9123   1.841   4.027  15.919 -0.1823 -0.6058 -0.0412
  616TMC3    C3 9124   1.904   4.146  15.933  0.4802 -0.5204  0.1373
  616TMC3    C4 9125   1.739   4.117  15.713 -0.3151  1.3062  0.4496
  616TMC3    C5 9126   1.804   4.236  15.736 -0.7900 -0.7745 -0.4446
  616TMC3    C6 9127   1.893   4.248  15.841 -0.2310 -0.1593  0.2543
  616TMC3     C 9128   1.719   3.871  15.760 -0.3015  0.3758 -0.0329
  616TMC3     O 9129   1.769   3.779  15.827  0.4412 -0.1542 -0.1227
  616TMC3     H 9130   1.854   3.945  15.988  1.3482  0.5006  0.9673
  616TMC3    H1 9131   1.662   4.117  15.637  2.5152  0.4710 -2.4278
  616TMC3    H2 9132   1.945   4.339  15.868  0.3869  0.2015 -2.1361
  616TMC3    C7 9133   1.762   4.353  15.668  0.2136  0.8630  0.1381
  616TMC3    C8 9134   2.000   4.177  16.036  0.9446 -0.3915 -0.1699
  616TMC3    O1 9135   1.646   4.356  15.627  0.5354 -0.4064 -1.1929
  616TMC3    O2 9136   2.060   4.287  16.031  0.3256  0.3494  0.5306
  617MPD2     C 9137   4.383   2.205  13.430 -0.1637 -0.4072 -0.4102
  617MPD2    C1 9138   4.457   2.108  13.504  0.2242 -0.1106 -0.8346
  617MPD2    C2 9139   4.382   2.029  13.587 -0.3034 -0.6665 -0.3274
  617MPD2    C3 9140   4.246   2.044  13.599 -0.3399  0.6248 -0.0839
  617MPD2    C4 9141   4.177   2.127  13.520 -0.3359  0.1274  0.2069
  617MPD2    C5 9142   4.244   2.212  13.439  0.3888  0.8032  0.5088
  617MPD2     H 9143   4.442   1.963  13.648 -0.9937 -1.4267 -0.4665
  617MPD2    H1 9144   4.070   2.139  13.533 -0.0547  1.1659  1.5524
  617MPD2    H2 9145   4.435   2.262  13.355 -0.5878 -1.2266 -1.3249
  617MPD2    H3 9146   4.194   2.292  13.385  1.3946  0.6800 -0.5965
  617MPD2     N 9147   4.158   1.970  13.683 -0.8081  0.3003 -0.4872
  617MPD2    H5 9148   4.057   1.980  13.683 -0.8080  0.4165  1.2685
  617MPD2    N1 9149   4.596   2.097  13.475 -0.2783 -0.3521 -0.3818
  617MPD2    H7 9150   4.635   2.169  13.414  1.6921 -1.2620 -0.2092
  618TMC3    C1 9151   0.083   1.997  13.470  0.8912  0.8148 -0.4692
  618TMC3    C2 9152   0.176   1.934  13.545  0.0679  0.8231  0.0399
  618TMC3    C3 9153   0.280   1.869  13.480  0.1293 -0.4944  0.8748
  618TMC3    C4 9154   0.099   2.014  13.337  0.4275  0.6699 -0.0926
  618TMC3    C5 9155   0.196   1.941  13.275  0.0719  0.0412  0.6186
  618TMC3    C6 9156   0.285   1.869  13.346 -0.6916 -0.0126 -0.4268
  618TMC3     C 9157   4.682   2.009  13.532 -0.8692 -0.4217  0.2732
  618TMC3     O 9158   4.670   1.944  13.637 -0.2858  0.7008 -0.3380
  618TMC3     H 9159   0.179   1.945  13.653  2.4473 -0.9626  0.1593
  618TMC3    H1 9160   0.010   2.041  13.281 -0.6660  1.3579  1.9950
  618TMC3    H2 9161   0.350   1.800  13.292  0.0896 -0.3184  0.8931
  618TMC3    C7 9162   0.178   1.920  13.134 -0.2616 -0.0059 -0.2395
  618TMC3    C8 9163   0.359   1.780  13.569 -0.4497 -0.6460  1.0424
  618TMC3    O1 9164   0.147   2.012  13.063 -0.5137  0.4152  0.1013
  618TMC3    O2 9165   0.305   1.745  13.672 -0.0478  0.2269  0.3248
  619MPD2     C 9166   1.301   2.890  13.410  0.3142 -0.0650 -0.0217
  619MPD2    C1 9167   1.218   2.995  13.398  0.2083 -0.6731  0.0741
  619MPD2    C2 9168   1.152   3.044  13.509  0.2837 -0.0727 -0.5575
  619MPD2    C3 9169   1.168   2.982  13.634  0.0617 -0.0769  0.2058
  619MPD2    C4 9170   1.256   2.877  13.647  0.0257 -0.3078 -0.7424
  619MPD2    C5 9171   1.320   2.839  13.534  0.6670 -0.0028 -0.1456
  619MPD2     H 9172   1.091   3.132  13.497 -0.4554 -0.3069  1.5181
  619MPD2    H1 9173   1.275   2.819  13.737  0.4908  1.8570  0.5435
  619MPD2    H2 9174   1.352   2.849  13.324 -2.9875 -2.6163 -0.7384
  619MPD2    H3 9175   1.384   2.754  13.554  3.2166  1.1793 -3.1611
  619MPD2     N 9176   1.091   3.012  13.748 -0.5718  0.3820  0.2210
  619MPD2    H5 9177   1.086   2.940  13.820 -1.4455  0.1812 -0.0343
  619MPD2    N1 9178   1.184   3.054  13.276 -0.2400  0.3171 -0.2875
  619MPD2    H7 9179   1.093   3.097  13.271 -0.3445  0.4830  3.0223
  620TMC3    C1 9180   1.195   3.068  13.037 -0.0594  0.1132  0.3852
  620TMC3    C2 9181   1.057   3.094  13.023  0.6028  0.2651 -0.5500
  620TMC3    C3 9182   1.016   3.149  12.905 -0.2529  0.1123 -0.6305
  620TMC3    C4 9183   1.282   3.120  12.941 -0.0379 -0.5224  0.1738
  620TMC3    C5 9184   1.233   3.210  12.850 -0.9974 -0.0002 -0.3169
  620TMC3    C6 9185   1.100   3.210  12.817  0.0177  0.1460  0.4465
  620TMC3     C 9186   1.258   3.025  13.163  0.6428  0.5449  0.0696
  620TMC3     O 9187   1.378   3.003  13.163 -0.2180  0.2418 -0.2272
  620TMC3     H 9188   0.990   3.054  13.098  1.2091 -2.7202 -1.5960
  620TMC3    H1 9189   1.390   3.110  12.941  0.1159  1.1519 -0.1869
  620TMC3    H2 9190   1.073   3.262  12.726  1.0915 -1.7545 -0.9430
  620TMC3    C7 9191   1.290   3.347  12.832  0.1695  0.1231 -0.1925
  620TMC3    C8 9192   0.914   3.245  12.948 -0.4114 -0.4317 -0.2766
  620TMC3    O1 9193   1.220   3.428  12.768  0.8297 -0.0209 -0.3486
  620TMC3    O2 9194   0.865   3.228  13.059 -0.0120 -0.0896 -0.2114
  621MPD2     C 9195   2.041   2.571  10.283  0.4076  0.3694 -0.5027
  621MPD2    C1 9196   2.071   2.568  10.145 -0.6143 -0.7289 -0.3639
  621MPD2    C2 9197   2.103   2.685  10.085 -0.7241  0.0441 -0.1921
  621MPD2    C3 9198   2.116   2.804  10.157 -0.0935 -0.7128 -0.9787
  621MPD2    C4 9199   2.090   2.803  10.291 -0.0236 -0.4375 -0.2266
  621MPD2    C5 9200   2.056   2.689  10.354  0.5484 -0.3046 -0.3388
  621MPD2     H 9201   2.114   2.691   9.977  2.1523 -0.7802  0.0769
  621MPD2    H1 9202   2.097   2.893  10.350  1.5555 -0.6072 -0.1397
  621MPD2    H2 9203   2.014   2.481  10.336 -1.1426  0.7074 -0.7094
  621MPD2    H3 9204   2.032   2.692  10.460 -1.5920  0.4328 -0.8432
  621MPD2     N 9205   2.171   2.926  10.106 -0.1694  0.6905  0.2801
  621MPD2    H5 9206   2.174   3.012  10.160  1.0891  0.5580  0.4197
  621MPD2    N1 9207   2.048   2.455  10.064  0.3589  0.0919  0.0550
  621MPD2    H7 9208   2.049   2.470   9.964  2.1923  3.5729  0.6169
  622TMC3    C1 9209   1.931   2.248  10.015 -0.2721  0.2641 -0.3319
  622TMC3    C2 9210   1.887   2.126  10.062  0.5463  0.6009  0.1038
  622TMC3    C3 9211   1.787   2.081   9.988  0.6222  0.2026  0.2423
  622TMC3    C4 9212   1.902   2.298   9.890  0.0960  0.1639 -0.7957
  622TMC3    C5 9213   1.803   2.228   9.820  0.1379 -0.0540 -0.7939
  622TMC3    C6 9214   1.745   2.119   9.870  0.1805  0.2064  0.0095
  622TMC3     C 9215   2.005   2.332  10.110  0.0356  0.6623 -0.9754
  622TMC3     O 9216   2.001   2.290  10.226 -0.3737 -0.1482  0.2431
  622TMC3     H 9217   1.892   2.090  10.164  1.6066  0.9224  0.1595
  622TMC3    H1 9218   1.940   2.390   9.847 -0.3217  0.9396  0.5211
  622TMC3    H2 9219   1.659   2.068   9.827 -0.3418  0.4990  0.7021
  622TMC3    C7 9220   1.724   2.291   9.715 -0.0200  0.0059 -0.0623
  622TMC3    C8 9221   1.718   1.977  10.065 -0.0922  0.5957  0.8941
  622TMC3    O1 9222   1.610   2.249   9.695  0.1291 -0.8553  0.4453
  622TMC3    O2 9223   1.776   1.870  10.076 -0.0107 -0.2867 -0.7471
  623MPD2     C 9224   4.527   3.858  15.780  0.2473 -0.1472 -1.2444
  623MPD2    C1 9225   4.508   3.880  15.914 -0.0027  0.4436  0.2078
  623MPD2    C2 9226   4.604   3.936  15.996 -0.1786 -0.0170 -0.7566
  623MPD2    C3 9227   4.726   3.987  15.947 -0.8129 -0.0812 -0.0489
  623MPD2    C4 9228   0.024   3.960  15.815 -0.2442  0.8573  0.0233
  623MPD2    C5 9229   4.650   3.905  15.734 -0.1155 -0.3293  0.5055
  623MPD2     H 9230   4.594   3.928  16.104 -1.3304  0.6483 -0.8149
  623MPD2    H1 9231   0.119   3.982  15.768 -1.7824  2.9619 -2.0737
  623MPD2    H2 9232   4.454   3.816  15.712 -0.5594 -0.4278 -0.2048
  623MPD2    H3 9233   4.660   3.910  15.626  1.8704  1.7550  0.7810
  623MPD2     N 9234   0.079   4.055  16.033  0.4917 -0.0118  0.0566
  623MPD2    H5 9235   0.046   4.062  16.129 -0.1112 -2.6464  0.0351
  623MPD2    N1 9236   4.386   3.851  15.981  0.3611  0.3272 -0.2350
  623MPD2    H7 9237   4.383   3.898  16.071  3.8849  0.3746 -0.1349
  624TMC3    C1 9238   0.401   4.066  16.294  0.4525 -0.1635 -0.1054
  624TMC3    C2 9239   0.301   4.075  16.386  0.6562  0.5312  0.0844
  624TMC3    C3 9240   0.185   4.135  16.352 -1.0042  0.0017  0.1247
  624TMC3    C4 9241   0.381   4.102  16.162 -0.7277 -0.3041 -0.6435
  624TMC3    C5 9242   0.258   4.158  16.132 -0.4043 -0.5544 -0.3545
  624TMC3    C6 9243   0.160   4.179  16.225  0.2359 -0.4593 -0.4538
  624TMC3     C 9244   0.535   4.031  16.341  1.2240  0.1792 -0.4045
  624TMC3     O 9245   0.545   4.002  16.460 -0.2465 -0.3006  0.4240
  624TMC3     H 9246   0.321   4.040  16.486  1.6093  0.5042 -0.1190
  624TMC3    H1 9247   0.446   4.072  16.080  0.4988 -1.9734  0.9395
  624TMC3    H2 9248   0.071   4.239  16.215 -0.9236 -2.7331 -3.8088
  624TMC3    C7 9249   0.196   4.120  16.005 -0.5494  0.8143  0.1920
  624TMC3    C8 9250   0.070   4.098  16.429 -1.2930  0.7253 -0.0621
  624TMC3    O1 9251   0.262   4.134  15.905  0.2360 -0.2084  0.0164
  624TMC3    O2 9252   4.693   4.111  16.365  0.0958  0.1222  0.4572
  625MPD2     C 9253   0.388   4.584   0.047 -0.1742 -0.5917  0.1480
  625MPD2    C1 9254   0.473   4.641   0.136  0.4320 -0.0810 -0.0429
  625MPD2    C2 9255   0.594   4.575   0.167 -0.2203  0.0359  0.6138
  625MPD2    C3 9256   0.630   4.452   0.106  0.9309  0.0708 -0.7173
  625MPD2    C4 9257   0.538   4.401   0.016 -0.0973  0.4527  0.0404
  625MPD2    C5 9258   0.427   4.472  17.692  0.0431  0.0321 -0.1051
  625MPD2     H 9259   0.667   4.617   0.235 -0.5843 -0.6242  1.4075
  625MPD2    H1 9260   0.548   4.305  17.675  2.4537  0.6422  0.2109
  625MPD2    H2 9261   0.299   4.634   0.011 -1.3986 -2.2025  0.9538
  625MPD2    H3 9262   0.353   4.435  17.622 -0.1172 -2.3940  1.3440
  625MPD2     N 9263   0.750   4.380   0.133  0.5300 -0.0575 -0.4881
  625MPD2    H5 9264   0.755   4.288   0.089  3.8389  0.0108 -0.2044
  625MPD2    N1 9265   0.458   0.042   0.189 -0.4832 -0.4588 -0.0405
  625MPD2    H7 9266   0.543   0.083   0.226 -1.2837  1.2801 -0.1298
  626TMC3    C1 9267   0.384   0.259   0.228  0.4313  0.5185  1.1652
  626TMC3    C2 9268   0.286   0.351   0.214 -0.0179  0.1027  0.4694
  626TMC3    C3 9269   0.301   0.466   0.279  1.1097  0.0573  0.0189
  626TMC3    C4 9270   0.502   0.285   0.297  0.7066 -0.2160  0.5254
  626TMC3    C5 9271   0.521   0.410   0.353  0.2485 -0.9133 -0.4153
  626TMC3    C6 9272   0.424   0.506   0.340  0.3179 -0.0672 -0.7206
  626TMC3     C 9273   0.354   0.125   0.180 -0.1180 -0.8161  0.4700
  626TMC3     O 9274   0.239   0.101   0.144  0.1966 -0.1139 -0.2667
  626TMC3     H 9275   0.206   0.327   0.145 -1.1269  0.9328  1.4768
  626TMC3    H1 9276   0.579   0.214   0.325 -0.8611 -2.0358  0.2279
  626TMC3    H2 9277   0.444   0.610   0.364  1.3251 -0.4223 -0.0499
  626TMC3    C7 9278   0.643   0.444   0.419  0.1681  0.3044 -0.2705
  626TMC3    C8 9279   0.202   0.571   0.235  0.7524  0.6201 -0.6226
  626TMC3    O1 9280   0.740   0.365   0.420 -0.2273 -0.2083 -0.4030
  626TMC3    O2 9281   0.125   0.540   0.143  0.1454  0.5923  0.2439
  627MPD2     C 9282   3.637   0.842  14.440  0.4515  1.0198  0.0984
  627MPD2    C1 9283   3.702   0.765  14.534 -0.3348 -0.0849 -0.2777
  627MPD2    C2 9284   3.651   0.640  14.562  0.3014  0.5504 -0.6479
  627MPD2    C3 9285   3.543   0.591  14.500  0.6929  0.4352  0.3255
  627MPD2    C4 9286   3.475   0.671  14.409  0.0638  0.0925 -0.6147
  627MPD2    C5 9287   3.523   0.794  14.376 -0.9992 -0.3628  0.5900
  627MPD2     H 9288   3.703   0.572  14.628 -0.5201  1.5767  1.0644
  627MPD2    H1 9289   3.397   0.631  14.345 -0.8350  0.4946  0.2201
  627MPD2    H2 9290   3.663   0.947  14.430  0.7216  1.0402  0.9722
  627MPD2    H3 9291   3.475   0.848  14.295 -0.1225  0.2502  0.4765
  627MPD2     N 9292   3.481   0.471  14.540  0.4125  0.1444  0.3252
  627MPD2    H5 9293   3.520   0.420  14.619  1.8710  0.4102 -0.2133
  627MPD2    N1 9294   3.825   0.797  14.598  0.8772 -0.3241 -0.0732
  627MPD2    H7 9295   3.870   0.723  14.650 -1.4092 -1.4308  0.3337
  628TMC3    C1 9296   4.044   0.890  14.603  0.7885  0.1137 -0.8609
  628TMC3    C2 9297   4.098   0.769  14.646 -0.1183  0.0041  0.1040
  628TMC3    C3 9298   4.234   0.761  14.667 -0.8562 -0.0879  0.8806
  628TMC3    C4 9299   4.130   0.989  14.568  0.7638  0.3779 -0.6731
  628TMC3    C5 9300   4.267   0.971  14.571 -0.3535  0.1386 -0.5283
  628TMC3    C6 9301   4.316   0.869  14.641 -0.0484  0.3921 -0.0028
  628TMC3     C 9302   3.905   0.905  14.553  0.3024  0.2717  0.4327
  628TMC3     O 9303   3.875   1.004  14.491  0.0192 -0.6503  0.1588
  628TMC3     H 9304   4.044   0.676  14.649 -0.5420  0.2319 -0.5832
  628TMC3    H1 9305   4.079   1.069  14.514  1.3234  0.6246 -0.8310
  628TMC3    H2 9306   4.419   0.847  14.616  0.1512  0.8202  0.4442
  628TMC3    C7 9307   4.357   1.039  14.474 -0.3513 -0.7633  0.1804
  628TMC3    C8 9308   4.267   0.625  14.662  0.1049  0.0443 -0.5229
  628TMC3    O1 9309   4.479   1.015  14.489  0.4402  0.1814 -0.1621
  628TMC3    O2 9310   4.239   0.559  14.561  0.6099 -0.3380 -0.1057
  629MPD2     C 9311   2.362   4.003  16.352 -0.1860  0.2693 -0.6052
  629MPD2    C1 9312   2.351   4.126  16.287 -0.2368 -0.0346 -0.1973
  629MPD2    C2 9313   2.247   4.144  16.199  0.8713 -0.3479 -0.3419
  629MPD2    C3 9314   2.159   4.039  16.173 -0.5737  0.8944 -0.0290
  629MPD2    C4 9315   2.177   3.912  16.224 -0.2499  0.4287  0.5608
  629MPD2    C5 9316   2.282   3.897  16.316  0.4612 -0.2740  0.0507
  629MPD2     H 9317   2.237   4.243  16.156  3.0391 -0.2547 -0.6266
  629MPD2    H1 9318   2.112   3.826  16.213  0.4218 -0.0555  0.3759
  629MPD2    H2 9319   2.441   3.987  16.425 -0.6142  1.1116  0.0386
  629MPD2    H3 9320   2.297   3.803  16.367 -2.9825 -2.2723 -2.6993
  629MPD2     N 9321   2.040   4.059  16.098 -0.1878 -0.8272 -0.0368
  629MPD2    H5 9322   1.982   3.975  16.090 -0.7526 -0.6702  2.3017
  629MPD2    N1 9323   2.441   4.222  16.332 -0.3552  0.1480  0.1637
  629MPD2    H7 9324   2.511   4.193  16.400 -0.9984  0.1695  0.8269
  630TMC3    C1 9325   2.554   4.423  16.332 -0.5702  0.6053 -0.0347
  630TMC3    C2 9326   2.623   4.501  16.252 -0.2472 -0.4182 -0.9708
  630TMC3    C3 9327   2.749   4.538  16.279 -0.1150 -0.2339 -1.0124
  630TMC3    C4 9328   2.613   4.378  16.449 -0.1084  0.1916 -0.8623
  630TMC3    C5 9329   2.731   4.432  16.478  0.2633 -0.8613  0.0511
  630TMC3    C6 9330   2.798   4.505  16.397 -0.0785  0.4365  0.6628
  630TMC3     C 9331   2.451   4.343  16.274 -0.0420  0.3226  0.0404
  630TMC3     O 9332   2.399   4.393  16.178 -0.5237 -0.3461  0.0329
  630TMC3     H 9333   2.568   4.527  16.162  0.9518 -2.0597 -2.1871
  630TMC3    H1 9334   2.547   4.354  16.531 -0.3913  0.6056 -0.9714
  630TMC3    H2 9335   2.901   4.531  16.420  0.2713 -1.6621  1.4138
  630TMC3    C7 9336   2.749   4.474  16.619  0.0273 -0.5016  0.2142
  630TMC3    C8 9337   2.780   4.673  16.252 -0.0113 -0.0675 -0.7434
  630TMC3    O1 9338   2.704   4.411  16.711  0.0045 -0.3768  0.4593
  630TMC3    O2 9339   2.815   0.002  16.356  0.1232 -0.3424 -0.1271
  631MPD2     C 9340   0.525   3.888  15.264  0.0955 -0.1125 -0.8407
  631MPD2    C1 9341   0.596   3.958  15.167  0.6239 -0.1471  0.2791
  631MPD2    C2 9342   0.700   3.890  15.109 -0.3372 -0.0608  0.0782
  631MPD2    C3 9343   0.723   3.755  15.133 -0.6740 -0.3491  0.0392
  631MPD2    C4 9344   0.642   3.682  15.222  0.4012  0.0280 -0.5225
  631MPD2    C5 9345   0.542   3.754  15.289 -0.1173 -0.5655  0.0560
  631MPD2     H 9346   0.768   3.942  15.043  0.2016 -0.2447  0.4852
  631MPD2    H1 9347   0.631   3.575  15.231 -0.7741  0.1450 -0.5302
  631MPD2    H2 9348   0.433   3.929  15.305  0.3313 -0.1667 -0.2560
  631MPD2    H3 9349   0.470   3.712  15.358 -1.4409  0.8343 -0.4805
  631MPD2     N 9350   0.834   3.704  15.061 -0.2691  0.6542 -0.0719
  631MPD2    H5 9351   0.889   3.774  15.012  1.3617 -2.1703 -2.2623
  631MPD2    N1 9352   0.563   4.092  15.130  0.0644  0.4728  0.2608
  631MPD2    H7 9353   0.486   4.137  15.179 -0.0649 -0.1207  0.6088
  632TMC3    C1 9354   0.581   4.298  15.020  0.2966 -0.0856 -0.0992
  632TMC3    C2 9355   0.537   4.363  15.132  0.3585 -0.4477  0.9496
  632TMC3    C3 9356   0.475   4.481  15.109 -0.2374 -0.1415  0.7555
  632TMC3    C4 9357   0.580   4.349  14.890 -0.2164  0.2768  1.3358
  632TMC3    C5 9358   0.532   4.480  14.882 -0.2233  0.1629 -0.0512
  632TMC3    C6 9359   0.479   4.540  14.994 -0.0952 -0.0733 -0.2904
  632TMC3     C 9360   0.618   4.159  15.024 -0.4353 -0.7997  0.1406
  632TMC3     O 9361   0.693   4.115  14.937 -0.2089 -0.2325  0.4462
  632TMC3     H 9362   0.529   4.313  15.228 -1.9986 -0.1651  0.9012
  632TMC3    H1 9363   0.606   4.290  14.803 -0.1017  1.4816  0.5506
  632TMC3    H2 9364   0.412   4.626  14.991 -0.7392 -0.6127 -1.2259
  632TMC3    C7 9365   0.504   4.542  14.755 -0.0690 -0.2468  0.4421
  632TMC3    C8 9366   0.446   4.574  15.219 -0.4965 -0.3686  0.6078
  632TMC3    O1 9367   0.430   4.638  14.765  0.1981  0.5043  0.3373
  632TMC3    O2 9368   0.479   4.695  15.203 -0.0990 -0.1043  0.0332
  633MPD2     C 9369   0.301   2.361  17.236  0.2132 -0.1229  0.4380
  633MPD2    C1 9370   0.249   2.301  17.117 -0.4054  0.1146  0.2230
  633MPD2    C2 9371   0.165   2.192  17.125 -0.1249  0.7025  0.1456
  633MPD2    C3 9372   0.122   2.146  17.242 -0.0765 -0.1445 -0.7194
  633MPD2    C4 9373   0.170   2.201  17.358  0.4425  0.0099  0.4723
  633MPD2    C5 9374   0.256   2.306  17.353 -0.1295  0.4188  0.2161
  633MPD2     H 9375   0.114   2.153  17.038  1.6998 -0.9237 -0.2063
  633MPD2    H1 9376   0.145   2.168  17.458  3.3160  0.1844  1.2364
  633MPD2    H2 9377   0.363   2.449  17.238  1.0774 -0.7719  2.5655
  633MPD2    H3 9378   0.287   2.352  17.445  0.8540 -2.0029  1.0882
  633MPD2     N 9379   0.026   2.042  17.257  0.4404 -0.2643  0.1166
  633MPD2    H5 9380   0.003   2.021  17.353  1.7755 -3.7550 -0.3058
  633MPD2    N1 9381   0.270   2.350  16.988 -0.4522  1.0394 -0.3967
  633MPD2    H7 9382   0.250   2.289  16.910 -1.7327 -0.5638  1.1651
  634TMC3    C1 9383   0.346   2.496  16.820  0.8540 -0.1583 -0.3571
  634TMC3    C2 9384   0.416   2.395  16.758  0.3632  0.5223  0.0782
  634TMC3    C3 9385   0.417   2.390  16.623 -0.0439  0.8663 -0.2586
  634TMC3    C4 9386   0.273   2.586  16.745  0.3266  0.3909 -0.3530
  634TMC3    C5 9387   0.261   2.571  16.613  0.3677 -0.5682 -0.5203
  634TMC3    C6 9388   0.332   2.473  16.552 -0.3183  0.1294 -0.4127
  634TMC3     C 9389   0.314   2.479  16.964 -0.1806 -0.0265 -0.0046
  634TMC3     O 9390   0.316   2.574  17.039 -0.3946  0.2710 -0.2504
  634TMC3     H 9391   0.481   2.322  16.805 -0.2254  0.6778  1.1271
  634TMC3    H1 9392   0.223   2.659  16.808 -1.4400 -0.3051 -0.9434
  634TMC3    H2 9393   0.328   2.450  16.446  1.2283 -0.7944 -0.2818
  634TMC3    C7 9394   0.168   2.657  16.540 -0.0818  0.2471 -0.1819
  634TMC3    C8 9395   0.450   2.258  16.567 -0.6979 -0.2068  0.0141
  634TMC3    O1 9396   0.188   2.664  16.423  0.9868 -0.2081  0.0694
  634TMC3    O2 9397   0.439   2.170  16.646  0.0812  0.0410  0.7238
  635TMC3    C1 9398   0.598   2.779  17.116  0.4745  0.9815 -0.3147
  635TMC3    C2 9399   0.646   2.692  17.024 -0.2217  0.5015  0.2609
  635TMC3    C3 9400   0.677   2.566  17.074  1.0135 -0.3630 -0.1019
  635TMC3    C4 9401   0.581   2.751  17.248  0.6660  0.3269 -0.1865
  635TMC3    C5 9402   0.613   2.628  17.294 -0.3076  0.1446 -0.6704
  635TMC3    C6 9403   0.662   2.533  17.205 -0.0470  0.4141 -0.4644
  635TMC3     C 9404   0.591   2.920  17.079 -0.3528 -0.2203  0.0063
  635TMC3     O 9405   0.562   3.007  17.165 -0.8447 -0.4224  0.2586
  635TMC3     H 9406   0.626   2.713  16.919  1.5277  0.9553  0.0283
  635TMC3    H1 9407   0.533   2.822  17.314  1.5969 -0.7038  1.5787
  635TMC3    H2 9408   0.702   2.441  17.245  0.2090  1.9129  2.7163
  635TMC3    C7 9409   0.627   2.598  17.440  0.6956 -0.4310 -0.0605
  635TMC3    C8 9410   0.686   2.455  16.973  0.5560  0.5619 -0.1006
  635TMC3    O1 9411   0.657   2.482  17.471  0.6171  0.4077 -0.0580
  635TMC3    O2 9412   0.653   2.347  17.018  0.3047 -0.0697  0.4522
  636MPD2     C 9413   1.283   2.253  15.740  0.0513  0.1707 -0.4948
  636MPD2    C1 9414   1.322   2.347  15.838  0.1427  0.1978  0.4178
  636MPD2    C2 9415   1.386   2.307  15.955 -0.4479 -0.7031  0.1308
  636MPD2    C3 9416   1.415   2.171  15.975  0.1312 -0.4934 -0.9535
  636MPD2    C4 9417   1.373   2.077  15.878  0.3505 -0.2631 -0.6608
  636MPD2    C5 9418   1.310   2.119  15.762 -0.3656 -0.0338  0.1916
  636MPD2     H 9419   1.425   2.379  16.026 -2.6188 -0.5822  1.1972
  636MPD2    H1 9420   1.398   1.972  15.888  1.9653  0.4712  3.1697
  636MPD2    H2 9421   1.254   2.285  15.641 -1.8429  0.3513  0.1021
  636MPD2    H3 9422   1.283   2.048  15.685  0.8491 -1.3345  0.9749
  636MPD2     N 9423   1.487   2.136  16.093  0.1016  0.2219  0.2910
  636MPD2    H5 9424   1.500   2.210  16.161  1.4028 -0.7063  1.0651
  636MPD2    N1 9425   1.306   2.484  15.827 -0.1608  0.1903 -0.4696
  636MPD2    H7 9426   1.312   2.548  15.905  0.1217 -0.7556  0.2866
  637TMC3    C1 9427   1.616   1.995  16.249  0.3600 -0.6097 -0.5546
  637TMC3    C2 9428   1.609   2.089  16.351 -0.2195 -0.1476 -0.0585
  637TMC3    C3 9429   1.700   2.076  16.457 -0.9518 -1.1007 -1.0185
  637TMC3    C4 9430   1.696   1.889  16.261 -0.3523 -0.4748 -0.2227
  637TMC3    C5 9431   1.765   1.877  16.373  0.6067 -0.5051 -0.2703
  637TMC3    C6 9432   1.768   1.965  16.475  0.0127 -0.0200 -0.5255
  637TMC3     C 9433   1.534   2.007  16.128  1.4386  0.7894 -0.0988
  637TMC3     O 9434   1.540   1.902  16.062 -0.3086  0.0300 -0.6440
  637TMC3     H 9435   1.550   2.178  16.338 -1.5793 -1.1141 -0.5054
  637TMC3    H1 9436   1.707   1.810  16.188  0.7718  0.3936 -0.9773
  637TMC3    H2 9437   1.825   1.932  16.562 -1.9794  0.1534  0.8598
  637TMC3    C7 9438   1.878   1.792  16.368 -0.0641 -0.6801  0.3021
  637TMC3    C8 9439   1.750   2.198  16.505 -0.4196 -0.2043 -0.1503
  637TMC3    O1 9440   1.889   1.728  16.472  0.0263 -0.1978 -0.8081
  637TMC3    O2 9441   1.711   2.300  16.451 -0.1487 -0.4873  0.0691
  638MPD2     C 9442   1.262   1.298  14.547  0.3359 -0.1479  0.5508
  638MPD2    C1 9443   1.236   1.180  14.471  0.3288 -0.4181  0.4371
  638MPD2    C2 9444   1.194   1.065  14.531 -0.3057  0.3177 -0.0345
  638MPD2    C3 9445   1.174   1.060  14.663  0.3446 -0.0107 -0.7216
  638MPD2    C4 9446   1.189   1.178  14.739 -0.3400  0.3199 -0.4427
  638MPD2    C5 9447   1.226   1.297  14.678  0.4616 -0.4413 -0.2747
  638MPD2     H 9448   1.181   0.977  14.469  1.1776 -1.0700  1.6328
  638MPD2    H1 9449   1.173   1.178  14.846  1.5047 -0.3197 -0.1681
  638MPD2    H2 9450   1.294   1.388  14.497 -1.8634 -0.3748 -1.3190
  638MPD2    H3 9451   1.241   1.382  14.743 -1.0335 -0.0917 -0.3857
  638MPD2     N 9452   1.125   0.933  14.708  0.2818 -0.4297 -0.1509
  638MPD2    H5 9453   1.100   0.856  14.648  0.7985 -0.4623 -0.3266
  638MPD2    N1 9454   1.270   1.178  14.337 -0.3973 -0.1389  0.5486
  638MPD2    H7 9455   1.341   1.239  14.298  0.1814 -2.1967 -1.6577
  639TMC3    C1 9456   1.102   0.755  14.861 -0.1530  0.3299  0.0856
  639TMC3    C2 9457   1.015   0.686  14.774  0.0526 -0.0451  0.1432
  639TMC3    C3 9458   1.053   0.559  14.736 -0.2266  0.3343  0.3010
  639TMC3    C4 9459   1.207   0.693  14.914  0.0512  0.8313 -0.4391
  639TMC3    C5 9460   1.255   0.581  14.850  0.3642  0.8441 -0.6408
  639TMC3    C6 9461   1.173   0.508  14.769  0.4285  0.7040  0.1662
  639TMC3     C 9462   1.125   0.899  14.840  0.0458 -0.4075 -0.2364
  639TMC3     O 9463   1.189   0.961  14.923  0.0519  0.3855  0.8356
  639TMC3     H 9464   0.937   0.733  14.716 -1.1171 -0.8784  1.0493
  639TMC3    H1 9465   1.258   0.741  14.997 -1.1590  2.7451 -0.8023
  639TMC3    H2 9466   1.205   0.408  14.744  0.2277  1.6974 -4.1622
  639TMC3    C7 9467   1.375   0.525  14.901 -0.9339  0.0030  0.7817
  639TMC3    C8 9468   0.999   0.504  14.620 -0.7028 -0.0114 -0.1034
  639TMC3    O1 9469   1.405   0.563  15.012 -0.1646 -0.0175  0.2115
  639TMC3    O2 9470   1.073   0.435  14.557 -0.4932  0.2128  0.0606
  640MPD2     C 9471   2.355   4.050   9.425  0.5515  0.1482  0.1374
  640MPD2    C1 9472   2.355   4.145   9.521 -0.2668  0.7039  0.2021
  640MPD2    C2 9473   2.232   4.197   9.560 -0.1850 -0.6401  0.1899
  640MPD2    C3 9474   2.112   4.160   9.504  0.2921 -0.1126 -0.2605
  640MPD2    C4 9475   2.114   4.052   9.419  0.0135  0.6887 -0.3576
  640MPD2    C5 9476   2.235   3.998   9.382 -0.3770  0.2052  0.0001
  640MPD2     H 9477   2.232   4.278   9.632 -0.3952 -0.8850  0.4634
  640MPD2    H1 9478   2.019   4.016   9.380 -0.9738  1.9441  0.8953
  640MPD2    H2 9479   2.449   4.004   9.397  0.0600 -0.4946 -0.4622
  640MPD2    H3 9480   2.238   3.914   9.314  1.4861  0.0220  0.3156
  640MPD2     N 9481   1.987   4.212   9.541  0.5449  0.0775 -0.2111
  640MPD2    H5 9482   1.905   4.173   9.497 -1.2105 -0.7147  3.8325
  640MPD2    N1 9483   2.475   4.167   9.585 -0.3744 -0.3789 -0.1542
  640MPD2    H7 9484   2.554   4.115   9.546  0.8063 -0.1076  1.8776
  641TMC3    C1 9485   2.643   4.283   9.691 -0.7172  0.1186  0.3318
  641TMC3    C2 9486   2.722   4.174   9.702  0.2227  0.3483 -0.0051
  641TMC3    C3 9487   2.857   4.188   9.736  0.3495 -0.7216 -0.3341
  641TMC3    C4 9488   2.688   4.411   9.714  0.3041  0.0457  0.2881
  641TMC3    C5 9489   2.827   4.423   9.737  0.1753  0.2598 -0.7515
  641TMC3    C6 9490   2.913   4.308   9.742  0.0422 -0.1017  0.0478
  641TMC3     C 9491   2.500   4.260   9.686  0.5993 -0.0002 -0.1185
  641TMC3     O 9492   2.428   4.331   9.760 -0.1583  0.3514 -0.2642
  641TMC3     H 9493   2.689   4.073   9.679  1.4660 -0.3166  1.1245
  641TMC3    H1 9494   2.617   4.493   9.717  1.1395  0.7883 -0.1627
  641TMC3    H2 9495   3.019   4.317   9.761  0.0401 -1.8357  0.8091
  641TMC3    C7 9496   2.886   4.557   9.708 -0.4717  0.1870 -0.8307
  641TMC3    C8 9497   2.941   4.081   9.699 -0.6314 -0.2541  0.6967
  641TMC3    O1 9498   3.006   4.562   9.677 -0.7697 -0.2780 -0.1254
  641TMC3    O2 9499   3.028   4.092   9.612  0.4727 -1.1327 -0.1728
  642TMC3    C1 9500   3.540   1.380  12.164 -0.7915  0.4938 -0.2990
  642TMC3    C2 9501   3.650   1.349  12.245  0.8196 -0.3679 -0.5745
  642TMC3    C3 9502   3.697   1.222  12.238 -0.8331  0.0697  0.1302
  642TMC3    C4 9503   3.468   1.283  12.085  0.2725  0.0147 -0.4269
  642TMC3    C5 9504   3.527   1.161  12.087  0.1532  0.6373  0.1074
  642TMC3    C6 9505   3.636   1.124  12.157  0.7377  0.1295 -0.2741
  642TMC3     C 9506   3.470   1.503  12.176  0.0621 -0.3565 -0.0333
  642TMC3     O 9507   3.527   1.613  12.170 -0.2197 -0.4610 -0.0383
  642TMC3     H 9508   3.704   1.432  12.290 -0.3754  0.7072 -1.1391
  642TMC3    H1 9509   3.379   1.302  12.026  0.5444  2.0613 -0.1979
  642TMC3    H2 9510   3.690   1.030  12.150  1.1611  0.2871  0.8953
  642TMC3    C7 9511   3.440   1.058  12.025 -0.2140  0.5195  0.6615
  642TMC3    C8 9512   3.813   1.187  12.326 -1.0217 -0.0068 -0.2515
  642TMC3    O1 9513   3.375   1.089  11.931 -0.0183  0.4006 -0.2529
  642TMC3    O2 9514   3.836   1.068  12.330  0.1583 -0.1313  0.1076
  643TMC3    C1 9515   2.044   0.489   0.300 -0.1817 -0.0158  0.1144
  643TMC3    C2 9516   1.915   0.518   0.288 -0.1851  0.0601  0.1188
  643TMC3    C3 9517   1.853   0.505   0.167 -0.9792  0.2075 -0.1029
  643TMC3    C4 9518   2.123   0.473   0.190  0.2784  0.2293 -0.5991
  643TMC3    C5 9519   2.064   0.466   0.069 -0.4774 -0.2030  0.4714
  643TMC3    C6 9520   1.929   0.469   0.062  0.2581 -0.1720  0.3080
  643TMC3     C 9521   2.105   0.533   0.423  0.3436 -0.7516  0.1668
  643TMC3     O 9522   2.034   0.565   0.517 -0.4031  0.2835  0.3784
  643TMC3     H 9523   1.857   0.559   0.371 -2.4298  0.8538 -1.8221
  643TMC3    H1 9524   2.227   0.443   0.197 -0.5844 -2.5177  0.6585
  643TMC3    H2 9525   1.877   0.461  17.675 -0.4942  1.8757  0.5347
  643TMC3    C7 9526   2.138   0.449  17.657  0.4035  0.6489  0.6804
  643TMC3    C8 9527   1.777   0.626   0.142 -0.2511 -0.3389 -0.7613
  643TMC3    O1 9528   2.248   0.507  17.645 -0.4911 -0.0300 -0.0759
  643TMC3    O2 9529   1.679   0.649   0.213 -0.5814  0.6173 -0.0848
  644MPD2     C 9530   2.891   0.730   9.895 -0.6924 -0.1243  0.1411
  644MPD2    C1 9531   2.841   0.611   9.925 -0.1335 -0.8835  0.7765
  644MPD2    C2 9532   2.710   0.586   9.881  0.2040  0.0516 -1.0584
  644MPD2    C3 9533   2.641   0.681   9.809 -0.0778 -0.2935 -0.1583
  644MPD2    C4 9534   2.701   0.798   9.774 -0.2938  0.0020 -0.4076
  644MPD2    C5 9535   2.825   0.820   9.820 -0.4297  0.1925 -0.5775
  644MPD2     H 9536   2.659   0.494   9.909  0.0972 -0.8988 -4.2980
  644MPD2    H1 9537   2.662   0.873   9.706 -0.7702  1.7388  1.7774
  644MPD2    H2 9538   2.989   0.760   9.931 -0.1130 -2.3294  0.4507
  644MPD2    H3 9539   2.871   0.916   9.799  0.8423 -0.1821  0.4905
  644MPD2     N 9540   2.514   0.640   9.756 -0.4545 -0.4724 -1.7861
  644MPD2    H5 9541   2.471   0.559   9.800  1.0096  1.1887  2.6600
  644MPD2    N1 9542   2.925   0.513   9.989 -0.1105 -0.0122 -0.4815
  644MPD2    H7 9543   3.025   0.528   9.979  0.3751 -0.3607  3.7260
  645TMC3    C1 9544   2.299   0.665   9.634 -0.1024  0.1157 -0.1389
  645TMC3    C2 9545   2.213   0.755   9.567  0.6989 -0.5882 -0.5800
  645TMC3    C3 9546   2.118   0.701   9.489  0.7342  0.0845  0.3408
  645TMC3    C4 9547   2.304   0.531   9.606 -0.1211 -0.6223 -0.7912
  645TMC3    C5 9548   2.205   0.485   9.521  0.0630  0.0197 -0.3636
  645TMC3    C6 9549   2.110   0.567   9.460  0.7863  0.8577  0.8595
  645TMC3     C 9550   2.428   0.722   9.677  1.2824 -0.6562  0.7968
  645TMC3     O 9551   2.446   0.845   9.667 -0.2689 -0.0233 -0.7539
  645TMC3     H 9552   2.210   0.860   9.592 -0.2490 -0.8019  0.2127
  645TMC3    H1 9553   2.370   0.460   9.654  0.2802  0.9119  0.9312
  645TMC3    H2 9554   2.049   0.533   9.377  1.5124 -0.0947  0.7185
  645TMC3    C7 9555   2.198   0.340   9.491  0.3568  0.6382  0.0609
  645TMC3    C8 9556   2.027   0.792   9.414 -1.0415 -0.4783  0.7247
  645TMC3    O1 9557   2.286   0.266   9.537  0.1489  0.1588  0.1717
  645TMC3    O2 9558   2.074   0.907   9.401  0.0572 -0.3123 -0.1751
  646MPD2     C 9559   1.534   4.545  14.234 -0.5548  0.0895 -0.2505
  646MPD2    C1 9560   1.426   4.526  14.315  0.6075 -1.1183  0.1147
  646MPD2    C2 9561   1.298   4.573  14.279 -0.3965 -0.3985  0.1473
  646MPD2    C3 9562   1.285   4.627  14.151 -0.0698  0.3280  0.1982
  646MPD2    C4 9563   1.397   4.653  14.077  0.2700  0.2632  0.8067
  646MPD2    C5 9564   1.519   4.617  14.116 -0.1358  0.3787 -0.4480
  646MPD2     H 9565   1.212   4.557  14.343 -0.4145  1.0813  0.4985
  646MPD2    H1 9566   1.389   4.686  13.974 -2.2686  2.8717  1.8374
  646MPD2    H2 9567   1.636   4.518  14.257 -0.7914 -0.6614 -0.1010
  646MPD2    H3 9568   1.605   4.631  14.052  0.4008 -0.8200  0.0180
  646MPD2     N 9569   1.161   4.684  14.111 -0.1649 -0.5297 -0.3492
  646MPD2    H5 9570   1.083   4.677  14.176 -0.2799 -0.2502 -0.4580
  646MPD2    N1 9571   1.460   4.459  14.436  0.1942 -0.3834  0.2562
  646MPD2    H7 9572   1.559   4.438  14.436  0.6469  1.8156 -0.9192
  647TMC3    C1 9573   1.437   4.350  14.643  1.2826  0.5642  0.0921
  647TMC3    C2 9574   1.371   4.256  14.721 -0.6052 -0.0021  0.4402
  647TMC3    C3 9575   1.428   4.226  14.843  0.9183 -0.5455  0.2877
  647TMC3    C4 9576   1.556   4.409  14.691 -0.7670  0.2354 -0.0516
  647TMC3    C5 9577   1.595   4.378  14.815  0.4644 -0.3495 -0.0563
  647TMC3    C6 9578   1.533   4.288  14.900  0.3433  0.1027 -0.0737
  647TMC3     C 9579   1.376   4.411  14.528 -0.0993 -0.0638 -0.7982
  647TMC3     O 9580   1.256   4.394  14.513  0.0159 -0.4524  0.0919
  647TMC3     H 9581   1.275   4.220  14.687 -0.4293 -0.1589  0.1100
  647TMC3    H1 9582   1.628   4.470  14.638 -0.4323  0.8240  1.0857
  647TMC3    H2 9583   1.560   4.272  15.004  0.3993 -1.8063 -0.3785
  647TMC3    C7 9584   1.736   4.378  14.839  1.0434 -0.1621  0.5527
  647TMC3    C8 9585   1.444   4.089  14.876  0.1352 -0.5677 -0.3515
  647TMC3    O1 9586   1.796   4.274  14.824 -0.3075  0.1903 -0.0949
  647TMC3    O2 9587   1.500   4.059  14.982  0.2149  0.3466  0.0423
  648TMC3    C1 9588   0.495   2.323  15.721  0.0889 -0.6602 -0.4618
  648TMC3    C2 9589   0.534   2.220  15.638 -0.2822 -0.4065 -0.6073
  648TMC3    C3 9590   0.508   2.236  15.502 -0.2237  0.2827 -0.0166
  648TMC3    C4 9591   0.429   2.435  15.684 -0.3997  0.1004  0.6508
  648TMC3    C5 9592   0.384   2.431  15.551 -0.3718  0.3088 -0.5722
  648TMC3    C6 9593   0.423   2.338  15.463 -0.0790 -0.2281  0.4879
  648TMC3     C 9594   0.559   2.333  15.856 -0.1747 -0.5291 -0.8411
  648TMC3     O 9595   0.484   2.355  15.950  0.5517  0.1014  0.1015
  648TMC3     H 9596   0.597   2.140  15.676 -0.1052  0.6878  1.3697
  648TMC3    H1 9597   0.429   2.516  15.756 -1.0483  0.3350  0.3853
  648TMC3    H2 9598   0.390   2.341  15.360  0.5504  0.2038  0.2995
  648TMC3    C7 9599   0.328   2.551  15.491 -0.5237  0.1256  0.2452
  648TMC3    C8 9600   0.524   2.125  15.412 -0.0295  0.2568 -0.7578
  648TMC3    O1 9601   0.354   2.566  15.372 -0.4247 -0.2914 -0.3108
  648TMC3    O2 9602   0.445   2.115  15.315 -0.6139 -0.0154 -0.6537
  649TMC3    C1 9603   4.650   2.974  12.883 -0.0031  0.1175 -0.6973
  649TMC3    C2 9604   0.051   3.023  12.891  0.7249 -0.2221  0.2149
  649TMC3    C3 9605   0.138   2.940  12.956 -0.3630  0.1011 -0.5433
  649TMC3    C4 9606   4.607   2.860  12.933 -0.8314  0.1018  0.0534
  649TMC3    C5 9607   4.700   2.786  13.006  0.3974  0.7509 -0.5784
  649TMC3    C6 9608   0.101   2.821  13.018  0.4784  0.0726  0.0537
  649TMC3     C 9609   4.550   3.061  12.828  0.3136  0.6966 -0.2400
  649TMC3     O 9610   4.556   3.181  12.854 -0.1508 -0.4113  0.1023
  649TMC3     H 9611   0.080   3.122  12.858  0.2111 -0.5542 -1.2321
  649TMC3    H1 9612   4.504   2.828  12.930 -0.7155 -0.2573 -0.0552
  649TMC3    H2 9613   0.176   2.753  13.058 -1.2211 -0.3344  2.5194
  649TMC3    C7 9614   4.648   2.706  13.118  0.0178 -0.0210 -0.4113
  649TMC3    C8 9615   0.276   2.974  12.932 -0.5925 -0.2285 -0.4379
  649TMC3    O1 9616   4.549   2.636  13.099 -0.0711  0.2694 -0.4953
  649TMC3    O2 9617   0.303   3.052  12.843 -0.0046 -0.2707 -0.1922
  650TMC3    C1 9618   3.031   0.268  12.321  0.8769 -0.2522  0.4459
  650TMC3    C2 9619   3.021   0.399  12.373  0.5111 -0.7180  0.0692
  650TMC3    C3 9620   2.902   0.452  12.418 -0.0848  0.0779  0.1815
  650TMC3    C4 9621   2.915   0.204  12.287  0.2492  0.0379 -0.3402
  650TMC3    C5 9622   2.796   0.272  12.299  0.2880 -0.3397 -0.2501
  650TMC3    C6 9623   2.786   0.392  12.372 -0.0930  0.1867 -0.1755
  650TMC3     C 9624   3.158   0.207  12.300 -0.7027 -0.1552 -0.1134
  650TMC3     O 9625   3.256   0.283  12.308 -0.6217 -0.2066 -0.3204
  650TMC3     H 9626   3.108   0.448  12.414  0.1147 -0.0265  0.0894
  650TMC3    H1 9627   2.900   0.104  12.249  0.2215 -0.4402  0.9225
  650TMC3    H2 9628   2.692   0.434  12.406  0.8204  4.1774 -2.4746
  650TMC3    C7 9629   2.678   0.198  12.270  0.2391 -0.3084  0.5482
  650TMC3    C8 9630   2.887   0.579  12.495  0.6435 -0.1537 -0.4403
  650TMC3    O1 9631   2.665   0.080  12.250  0.2505  0.1548  0.2535
  650TMC3    O2 9632   2.951   0.671  12.448 -0.1166 -0.0149  0.0040
  651MPD2     C 9633   1.603   1.815  10.444  0.2206  0.1073  0.3924
  651MPD2    C1 9634   1.574   1.948  10.438  0.6930 -0.1562  0.0544
  651MPD2    C2 9635   1.676   2.042  10.461  0.1932 -0.6128 -0.8597
  651MPD2    C3 9636   1.808   1.993  10.471  0.5196  0.5695 -0.2218
  651MPD2    C4 9637   1.832   1.861  10.469  1.0575  0.2562 -0.6280
  651MPD2    C5 9638   1.728   1.772  10.450 -0.0428 -0.5062  0.1098
  651MPD2     H 9639   1.651   2.144  10.434  1.5288 -0.0952 -0.1171
  651MPD2    H1 9640   1.932   1.823  10.484  0.4220 -0.6960  1.2499
  651MPD2    H2 9641   1.525   1.740  10.440  0.0830  0.3271 -0.8866
  651MPD2    H3 9642   1.750   1.667  10.463  1.8551 -0.3391 -1.7075
  651MPD2     N 9643   1.911   2.086  10.496 -0.2636 -0.2464 -0.4966
  651MPD2    H5 9644   1.882   2.183  10.492 -0.3140 -0.1571  1.9058
  651MPD2    N1 9645   1.442   1.998  10.415  0.3161  0.5482 -0.0161
  651MPD2    H7 9646   1.422   2.097  10.433 -0.5243  0.3748  0.0329
  652TMC3    C1 9647   2.331   2.280  10.429  0.1859 -0.0370  0.6638
  652TMC3    C2 9648   2.257   2.169  10.430  0.4024 -0.1918 -0.1192
  652TMC3    C3 9649   2.126   2.180  10.485 -0.6832  0.9463 -0.3174
  652TMC3    C4 9650   2.302   2.395  10.498  0.0966 -0.1552  0.5163
  652TMC3    C5 9651   2.184   2.398  10.568 -0.0284 -0.0172  0.8058
  652TMC3    C6 9652   2.092   2.291  10.561  0.0415  0.0824 -0.1047
  652TMC3     C 9653   2.475   2.260  10.403  0.5762 -0.3195  0.5042
  652TMC3     O 9654   2.523   2.160  10.460 -0.6152  0.0941 -0.4116
  652TMC3     H 9655   2.282   2.083  10.369 -2.7832 -0.5470 -0.9457
  652TMC3    H1 9656   2.384   2.463  10.519  0.1900  0.4255 -1.7915
  652TMC3    H2 9657   2.006   2.288  10.627  0.1157 -0.0794 -0.0145
  652TMC3    C7 9658   2.163   2.477  10.693 -0.4879 -0.4641  0.1958
  652TMC3    C8 9659   2.049   2.062  10.486 -0.5302 -1.3828  0.8349
  652TMC3    O1 9660   2.086   2.441  10.782  0.0212 -0.2228  0.3439
  652TMC3    O2 9661   2.112   1.955  10.479 -0.1482  0.0540 -0.0714
  653MPD2     C 9662   0.016   2.313  17.679 -0.2198 -0.2809  0.3909
  653MPD2    C1 9663   4.699   2.394  17.577  0.2512  0.0782 -0.4827
  653MPD2    C2 9664   4.600   2.343  17.491  0.1418  0.2791 -0.5669
  653MPD2    C3 9665   4.525   2.230  17.521 -1.0824  0.0615  0.5809
  653MPD2    C4 9666   4.568   2.154  17.623  0.3639  0.3500  0.3512
  653MPD2    C5 9667   4.673   2.200  17.700 -0.3222  0.6647  0.1847
  653MPD2     H 9668   4.573   2.406  17.407 -0.2865  1.1221  0.2014
  653MPD2    H1 9669   4.517   2.060  17.644  0.6204 -0.1296 -1.1319
  653MPD2    H2 9670   0.090   2.348   0.041 -0.2219 -1.2218  0.8653
  653MPD2    H3 9671   4.710   2.137   0.072  1.7093  0.8443 -0.6122
  653MPD2     N 9672   4.427   2.192  17.431  0.4813  0.3235 -0.1564
  653MPD2    H5 9673   4.415   2.243  17.344 -2.6897  2.3440  1.4676
  653MPD2    N1 9674   0.039   2.508  17.530  0.2693 -0.6320  0.3076
  653MPD2    H7 9675   4.714   2.560  17.459  1.2519 -0.2769 -0.1469
  654TMC3    C1 9676   4.251   2.058  17.342  0.0721 -0.8595  0.1911
  654TMC3    C2 9677   4.201   2.166  17.269  0.2378  1.1497 -0.5893
  654TMC3    C3 9678   4.131   2.132  17.157  0.3262  0.5291  0.5696
  654TMC3    C4 9679   4.233   1.925  17.309 -0.0698  0.6721 -0.2341
  654TMC3    C5 9680   4.165   1.904  17.195  0.1302 -0.2441  0.6882
  654TMC3    C6 9681   4.113   2.003  17.125  0.0148  0.4762 -0.3146
  654TMC3     C 9682   4.341   2.081  17.454 -0.4218  0.1018 -0.1493
  654TMC3     O 9683   4.349   1.989  17.531  0.4650 -0.4238 -0.0915
  654TMC3     H 9684   4.194   2.266  17.310  0.8287  1.5599 -1.5054
  654TMC3    H1 9685   4.272   1.845  17.370 -1.4826  0.4067  0.3434
  654TMC3    H2 9686   4.044   1.973  17.047 -2.9536 -1.1614  2.9890
  654TMC3    C7 9687   4.140   1.768  17.141 -0.0789 -0.0613 -0.3159
  654TMC3    C8 9688   4.047   2.235  17.100 -0.0678 -0.0681 -0.1210
  654TMC3    O1 9689   4.083   1.756  17.037  0.0414  0.1437 -0.6476
  654TMC3    O2 9690   4.027   2.331  17.176 -0.1404  0.5596 -0.4067
  655MPD2     C 9691   1.084   2.504  15.266 -0.5295 -0.0821 -0.6747
  655MPD2    C1 9692   0.985   2.576  15.199 -0.5749 -0.0916  0.3235
  655MPD2    C2 9693   0.974   2.562  15.066 -0.4549 -0.0921  0.3724
  655MPD2    C3 9694   1.053   2.483  14.994 -0.1162  0.7216 -0.2633
  655MPD2    C4 9695   1.152   2.416  15.060 -0.2737 -0.8914 -0.0758
  655MPD2    C5 9696   1.167   2.427  15.194  0.5936  0.1788 -0.0668
  655MPD2     H 9697   0.900   2.627  15.021  1.1197  0.4234 -1.4508
  655MPD2    H1 9698   1.222   2.363  14.996  2.2580 -0.1666  2.0589
  655MPD2    H2 9699   1.093   2.492  15.373 -0.4089  2.2265 -0.4226
  655MPD2    H3 9700   1.257   2.383  15.236 -0.1741 -0.8895  0.4521
  655MPD2     N 9701   1.051   2.460  14.857 -0.1547  0.0059  0.8162
  655MPD2    H5 9702   1.131   2.416  14.813 -0.3739  0.0156  0.4011
  655MPD2    N1 9703   0.901   2.674  15.260  0.5171 -0.1913  0.2506
  655MPD2    H7 9704   0.832   2.724  15.204  2.3937  1.6256 -0.4555
  656TMC3    C1 9705   0.802   2.784  15.447  0.3938  0.9681  0.0259
  656TMC3    C2 9706   0.732   2.751  15.560 -0.0673  0.1834  0.7771
  656TMC3    C3 9707   0.617   2.815  15.599 -0.2487  0.5091 -0.1345
  656TMC3    C4 9708   0.763   2.896  15.374 -0.1142  0.0731  0.0892
  656TMC3    C5 9709   0.659   2.965  15.428 -0.2033  0.4750 -0.5219
  656TMC3    C6 9710   0.585   2.931  15.536  0.3980  0.0088 -0.2354
  656TMC3     C 9711   0.902   2.690  15.394  0.5583  1.0573  0.6687
  656TMC3     O 9712   0.960   2.629  15.480 -0.4689  0.2996  0.8548
  656TMC3     H 9713   0.769   2.685  15.637  0.2023  1.5725  1.8484
  656TMC3    H1 9714   0.812   2.924  15.281 -0.4392  0.5535  0.0684
  656TMC3    H2 9715   0.490   2.979  15.552  1.5693  1.4959  2.2999
  656TMC3    C7 9716   0.605   3.077  15.341 -0.6741  0.0190  0.4748
  656TMC3    C8 9717   0.565   2.797  15.737  0.9286 -0.4062 -0.1633
  656TMC3    O1 9718   0.642   3.078  15.223  0.0739  0.5603 -0.2170
  656TMC3    O2 9719   0.586   2.687  15.782  0.0415  0.4300 -0.0405
  657TMC3    C1 9720   0.058   1.544  14.790 -0.0500  0.0022  0.2047
  657TMC3    C2 9721   0.052   1.497  14.919 -0.0387  0.1549 -0.1106
  657TMC3    C3 9722   4.694   1.567  15.003  0.0946  0.8076  0.0312
  657TMC3    C4 9723   4.716   1.661  14.745 -0.1539 -0.3099  0.1654
  657TMC3    C5 9724   4.641   1.729  14.833  0.8021 -0.5089  0.3299
  657TMC3    C6 9725   4.629   1.680  14.959  0.3358 -0.2037  0.4787
  657TMC3     C 9726   0.147   1.484  14.688  0.2038  0.3442 -0.3591
  657TMC3     O 9727   0.185   1.558  14.599  0.2378 -0.2413  0.0311
  657TMC3     H 9728   0.091   1.403  14.957 -0.9622  0.5507  1.7782
  657TMC3    H1 9729   0.009   1.699  14.645  1.6793 -1.8337 -0.0587
  657TMC3    H2 9730   4.588   1.740  15.039  1.0989  1.2309 -0.2114
  657TMC3    C7 9731   4.578   1.853  14.808  0.1934 -0.2782  0.2843
  657TMC3    C8 9732   4.715   1.563  15.145  0.5371 -0.2909 -0.0024
  657TMC3    O1 9733   4.520   1.912  14.894  0.2405 -0.7918  0.4194
  657TMC3    O2 9734   4.633   1.602  15.219 -0.2601  0.1232  0.4785
  658MPD2     C 9735   1.556   2.411  14.438  0.0488  0.1360 -0.2234
  658MPD2    C1 9736   1.445   2.428  14.362 -0.1071  0.0400  0.1932
  658MPD2    C2 9737   1.466   2.448  14.230 -0.6888  0.0295 -0.1583
  658MPD2    C3 9738   1.597   2.451  14.177 -0.3172  0.1322  0.1409
  658MPD2    C4 9739   1.707   2.441  14.263  0.0855 -0.1349 -0.1471
  658MPD2    C5 9740   1.684   2.423  14.395 -0.5045 -0.2727 -0.1005
  658MPD2     H 9741   1.387   2.454  14.156  1.9649  0.4933 -2.9848
  658MPD2    H1 9742   1.808   2.468  14.237 -0.3792  1.1749 -0.6006
  658MPD2    H2 9743   1.552   2.395  14.545  2.1409  0.5066 -0.1029
  658MPD2    H3 9744   1.769   2.407  14.461 -0.6108  1.4776  0.4478
  658MPD2     N 9745   1.613   2.462  14.039 -0.0704  0.3009 -0.8647
  658MPD2    H5 9746   1.529   2.468  13.982 -1.4566 -0.6476  1.1151
  658MPD2    N1 9747   1.316   2.420  14.424  0.1411  0.3235  0.0116
  658MPD2    H7 9748   1.313   2.403  14.524 -1.2661  0.7649  0.0425
  659TMC3    C1 9749   1.077   2.424  14.441 -0.5003 -0.2019 -0.2368
  659TMC3    C2 9750   1.080   2.462  14.574 -0.1049  0.1513  0.5614
  659TMC3    C3 9751   0.957   2.468  14.633 -0.8087  0.7262 -0.5028
  659TMC3    C4 9752   0.971   2.401  14.369 -0.1056 -0.2019 -0.1745
  659TMC3    C5 9753   0.853   2.396  14.431  0.6694 -0.5172 -0.0596
  659TMC3    C6 9754   0.844   2.442  14.564 -0.2346  0.7633  0.2276
  659TMC3     C 9755   1.199   2.430  14.359  0.0939 -0.2423 -0.5714
  659TMC3     O 9756   1.184   2.458  14.244  0.2335 -0.2444 -0.1365
  659TMC3     H 9757   1.164   2.513  14.619  0.2300 -0.0325  0.1409
  659TMC3    H1 9758   0.976   2.359  14.269 -1.6679  0.5819 -0.5835
  659TMC3    H2 9759   0.752   2.452  14.622 -0.0979 -0.5363  0.6781
  659TMC3    C7 9760   0.747   2.329  14.354  0.0954 -0.0656 -0.3154
  659TMC3    C8 9761   0.945   2.491  14.779 -0.5117 -0.1618 -0.7732
  659TMC3    O1 9762   0.759   2.315  14.232 -0.2428 -0.2819 -0.7420
  659TMC3    O2 9763   0.834   2.530  14.820 -0.8254 -0.2390 -0.1535
  660MPD2     C 9764   4.507   0.597  12.521 -0.2869  0.0037  0.0939
  660MPD2    C1 9765   4.415   0.699  12.530  0.1159  1.4274 -0.3472
  660MPD2    C2 9766   4.339   0.704  12.645  0.3824  0.0221 -0.2415
  660MPD2    C3 9767   4.346   0.603  12.736  0.5818  0.5451 -0.1365
  660MPD2    C4 9768   4.433   0.501  12.726  0.3203  0.2526 -0.1483
  660MPD2    C5 9769   4.521   0.503  12.622  0.5864  0.0769 -0.9002
  660MPD2     H 9770   4.276   0.785  12.681  1.2517 -0.1961  1.8015
  660MPD2    H1 9771   4.440   0.429  12.807  0.9393  0.4557 -0.0122
  660MPD2    H2 9772   4.567   0.582  12.432  0.9301 -0.0152  0.9283
  660MPD2    H3 9773   4.593   0.422  12.612 -0.7277 -1.3714  1.3606
  660MPD2     N 9774   4.263   0.602  12.851 -0.5954 -0.0904  0.2685
  660MPD2    H5 9775   4.286   0.527  12.914 -1.9143 -0.0920  0.7436
  660MPD2    N1 9776   4.412   0.787  12.421  0.5406 -0.1167  0.5934
  660MPD2    H7 9777   4.467   0.761  12.339 -0.2344 -0.6884  0.2479
  661TMC3    C1 9778   4.349   0.975  12.286  0.0158  0.1437 -0.4332
  661TMC3    C2 9779   4.411   0.922  12.179 -0.0268 -0.3768  0.6833
  661TMC3    C3 9780   4.376   0.974  12.059  0.5164  0.7076  0.7348
  661TMC3    C4 9781   4.261   1.086  12.279  0.7541 -0.0309 -0.3765
  661TMC3    C5 9782   4.227   1.120  12.154 -0.3267 -0.7757 -0.3260
  661TMC3    C6 9783   4.289   1.081  12.040  0.0171 -0.0338  0.1526
  661TMC3     C 9784   4.339   0.897  12.412 -0.0203  0.0802 -0.5643
  661TMC3     O 9785   4.300   0.957  12.510  0.2263  0.2555 -0.0844
  661TMC3     H 9786   4.471   0.833  12.188  0.6113  0.2684  2.7710
  661TMC3    H1 9787   4.219   1.142  12.362  1.2784  0.8960 -0.7392
  661TMC3    H2 9788   4.261   1.120  11.943 -1.0972 -0.4077  0.3205
  661TMC3    C7 9789   4.134   1.233  12.144 -0.0518  0.8998  0.4187
  661TMC3    C8 9790   4.470   0.952  11.945 -0.2900  0.1351 -0.9414
  661TMC3    O1 9791   4.140   1.321  12.230 -0.0197 -0.3388  0.3936
  661TMC3    O2 9792   4.432   0.988  11.835  0.1306  0.6689 -0.1477
  662MPD2     C 9793   4.549   0.727  17.434  0.6142 -0.8534  0.0296
  662MPD2    C1 9794   4.503   0.808  17.546 -0.1741  0.4150 -0.1371
  662MPD2    C2 9795   4.422   0.915  17.512 -0.7963 -0.1119  0.1704
  662MPD2    C3 9796   4.373   0.936  17.380 -0.1951  0.6902 -0.9540
  662MPD2    C4 9797   4.406   0.846  17.286 -0.4768  0.3096 -0.4379
  662MPD2    C5 9798   4.499   0.746  17.315  0.2261  0.2246  0.5436
  662MPD2     H 9799   4.398   0.977  17.598 -0.9221 -0.0255  0.0732
  662MPD2    H1 9800   4.365   0.855  17.186  1.1540 -0.7419 -1.2132
  662MPD2    H2 9801   4.627   0.651  17.441  0.9220 -0.6234 -0.9512
  662MPD2    H3 9802   4.526   0.675  17.238 -1.4514  1.1359 -0.8896
  662MPD2     N 9803   4.284   1.040  17.342 -0.1709 -0.5870  0.2861
  662MPD2    H5 9804   4.255   1.040  17.245  0.0688  1.7386  0.2145
  662MPD2    N1 9805   4.530   0.788  17.681  0.4368 -0.1150  0.0601
  662MPD2    H7 9806   4.482   0.851   0.036  0.0129  0.6088 -0.9673
  663TMC3    C1 9807   4.559   0.656   0.162 -0.8457 -0.0286  0.1609
  663TMC3    C2 9808   4.544   0.768   0.236 -0.5488 -0.0307  0.0669
  663TMC3    C3 9809   4.555   0.749   0.373 -0.4056 -0.1522  0.3362
  663TMC3    C4 9810   4.553   0.529   0.204 -0.7761 -0.3743 -0.4249
  663TMC3    C5 9811   4.520   0.523   0.336  0.1681 -0.1574 -0.1162
  663TMC3    C6 9812   4.523   0.627   0.428 -0.8524  0.5074  0.1714
  663TMC3     C 9813   4.589   0.674   0.023  0.4654 -0.5491  0.5415
  663TMC3     O 9814   4.617   0.570  17.669  0.4017 -0.4248  0.3242
  663TMC3     H 9815   4.575   0.866   0.202  0.0441 -0.3829 -0.4111
  663TMC3    H1 9816   4.550   0.449   0.130 -2.6610 -1.3573  0.7004
  663TMC3    H2 9817   4.543   0.616   0.533  0.8507 -1.5068 -0.3619
  663TMC3    C7 9818   4.469   0.398   0.393 -1.2325 -0.0051  0.4165
  663TMC3    C8 9819   4.498   0.863   0.446 -0.1917 -0.2832  0.0217
  663TMC3    O1 9820   4.469   0.391   0.516  0.5827 -0.6318  0.2823
  663TMC3    O2 9821   4.425   0.943   0.387 -0.1410  0.4087 -0.2262
  664MPD2     C 9822   2.375   3.976  17.270 -0.4775 -0.7051  1.0741
  664MPD2    C1 9823   2.446   4.082  17.317 -0.0870  0.2285 -0.5163
  664MPD2    C2 9824   2.483   4.076  17.448  0.1212  0.2878  0.4684
  664MPD2    C3 9825   2.427   3.990  17.539 -0.3728  0.2075  0.1552
  664MPD2    C4 9826   2.367   3.877  17.482 -0.0460 -0.8024  0.5349
  664MPD2    C5 9827   2.352   3.872  17.350  0.1522 -0.3164 -1.0404
  664MPD2     H 9828   2.540   4.159  17.487 -1.2847  1.1407  0.6753
  664MPD2    H1 9829   2.348   3.793  17.549 -2.4064  0.6638  1.6822
  664MPD2    H2 9830   2.357   3.968  17.164 -0.1750 -1.7376  1.1041
  664MPD2    H3 9831   2.310   3.781  17.308 -0.3777 -0.8672  0.7130
  664MPD2     N 9832   2.463   4.007  17.671  0.1132  0.6565 -0.2275
  664MPD2    H5 9833   2.525   4.084  17.694  1.9824 -0.3107 -2.0368
  664MPD2    N1 9834   2.487   4.196  17.241 -0.2496 -0.0119 -0.5256
  664MPD2    H7 9835   2.564   4.256  17.270 -0.2746 -0.7241  0.9937
  665TMC3    C1 9836   2.475   3.985   0.198 -0.4851 -0.2172  0.1077
  665TMC3    C2 9837   2.443   3.919   0.316 -0.1328 -0.3967 -0.2779
  665TMC3    C3 9838   2.474   3.977   0.439  0.5689 -1.0324  0.2876
  665TMC3    C4 9839   2.549   4.096   0.214  0.1419 -0.0970  0.7272
  665TMC3    C5 9840   2.610   4.135   0.331  0.1027 -0.2257 -0.3613
  665TMC3    C6 9841   2.563   4.084   0.445  0.3778  0.1485  0.0908
  665TMC3     C 9842   2.413   3.937   0.071 -0.2505 -0.3255 -0.7199
  665TMC3     O 9843   2.333   3.845   0.070  0.5284  0.6356 -0.0814
  665TMC3     H 9844   2.378   3.832   0.320 -1.1338  0.4848  2.9196
  665TMC3    H1 9845   2.590   4.149   0.128 -2.5227 -0.0256 -0.5006
  665TMC3    H2 9846   2.597   4.127   0.538 -0.7355 -2.8457  1.8913
  665TMC3    C7 9847   2.703   4.242   0.333  0.6199  0.4618  0.2423
  665TMC3    C8 9848   2.444   3.914   0.568 -0.2177 -0.3377  0.5565
  665TMC3    O1 9849   2.764   4.275   0.230 -0.1014  0.1140 -0.3625
  665TMC3    O2 9850   2.486   3.967   0.671 -0.5722 -0.7526 -0.5144
  666TMC3    C1 9851   2.306   3.066   9.983  0.2475  0.9043  0.2652
  666TMC3    C2 9852   2.443   3.071  10.000 -0.3042 -1.0649 -0.3881
  666TMC3    C3 9853   2.498   3.196  10.019 -1.1091 -0.7147  0.8249
  666TMC3    C4 9854   2.221   3.168   9.959  0.2139  0.3364 -0.0623
  666TMC3    C5 9855   2.288   3.290   9.974 -0.7202  0.0074 -0.1381
  666TMC3    C6 9856   2.417   3.308  10.009  0.1302  0.0357  0.2208
  666TMC3     C 9857   2.257   2.931   9.998 -0.1004  0.2708 -0.1612
  666TMC3     O 9858   2.305   2.846   9.928  0.3008  0.3714 -0.9001
  666TMC3     H 9859   2.488   2.977  10.027  0.3540 -0.9031 -0.9477
  666TMC3    H1 9860   2.114   3.162   9.942  0.5270  3.3395 -2.9140
  666TMC3    H2 9861   2.450   3.407  10.036 -0.3048 -0.2996  2.0093
  666TMC3    C7 9862   2.224   3.410   9.929 -1.0304  0.7226 -0.6747
  666TMC3    C8 9863   2.597   3.205  10.123  0.6277  0.3607 -0.7132
  666TMC3    O1 9864   2.104   3.406   9.947 -0.0284 -0.4971  0.5325
  666TMC3    O2 9865   2.612   3.103  10.191 -0.2086 -0.0323 -0.2158
  667MPD2     C 9866   2.889   3.555  14.712 -0.1232  0.2858  0.2316
  667MPD2    C1 9867   2.804   3.638  14.773  0.5787  0.1770 -0.3506
  667MPD2    C2 9868   2.680   3.657  14.716  0.6974  0.2649  0.3112
  667MPD2    C3 9869   2.657   3.589  14.597  1.2068 -0.3188  0.1154
  667MPD2    C4 9870   2.742   3.490  14.550  0.2321  0.3579  0.4378
  667MPD2    C5 9871   2.853   3.462  14.620  0.7970 -0.0435 -0.2544
  667MPD2     H 9872   2.601   3.720  14.757  0.8009 -1.4258  3.0790
  667MPD2    H1 9873   2.713   3.423  14.470  0.0993  1.7517 -0.6807
  667MPD2    H2 9874   2.990   3.545  14.750 -0.0738 -0.5287 -0.1054
  667MPD2    H3 9875   2.915   3.377  14.593  0.0018 -0.3374 -1.1631
  667MPD2     N 9876   2.537   3.606  14.523  0.3423  0.8061 -0.1710
  667MPD2    H5 9877   2.515   3.539  14.450  0.4988 -0.6217  1.0989
  667MPD2    N1 9878   2.828   3.699  14.892 -0.6159 -0.1569  0.4154
  667MPD2    H7 9879   2.748   3.747  14.933 -1.6803 -0.1807 -1.6479
  668TMC3    C1 9880   2.932   3.790  15.082 -0.1062 -0.5659  0.5147
  668TMC3    C2 9881   3.044   3.875  15.098 -1.2036  0.9476  0.0666
  668TMC3    C3 9882   3.042   3.943  15.212  0.3838  0.8326  0.2469
  668TMC3    C4 9883   2.837   3.770  15.180 -0.7303  0.1723 -0.3941
  668TMC3    C5 9884   2.847   3.848  15.292  0.7445 -0.8919  0.4720
  668TMC3    C6 9885   2.947   3.941  15.308  0.7456 -0.4459  0.6308
  668TMC3     C 9886   2.940   3.698  14.971 -0.1992 -0.2010  0.2875
  668TMC3     O 9887   3.041   3.637  14.946 -0.0264 -0.4551 -0.5092
  668TMC3     H 9888   3.128   3.871  15.029 -0.8864 -3.6306  0.7280
  668TMC3    H1 9889   2.766   3.689  15.167 -0.3586 -0.2551  0.2959
  668TMC3    H2 9890   2.958   4.012  15.389  0.8860  0.3055 -0.0519
  668TMC3    C7 9891   2.745   3.859  15.398  0.8444  0.8958 -0.2282
  668TMC3    C8 9892   3.152   4.042  15.229  0.3566 -0.2078  0.5699
  668TMC3    O1 9893   2.756   3.949  15.479  0.2751 -0.6062  0.7299
  668TMC3    O2 9894   3.162   4.093  15.338  0.8313 -0.2550 -0.2058
  669TMC3    C1 9895   1.677   3.408  14.069  0.4496 -0.0912  0.2355
  669TMC3    C2 9896   1.593   3.451  13.970  0.1895  0.6008 -0.0027
  669TMC3    C3 9897   1.643   3.546  13.876 -0.0293 -0.0925  0.0119
  669TMC3    C4 9898   1.803   3.452  14.070 -1.2090  0.2888  0.1060
  669TMC3    C5 9899   1.846   3.548  13.983 -0.3662 -0.3852  0.4183
  669TMC3    C6 9900   1.767   3.602  13.885 -0.1799 -0.2668  0.6948
  669TMC3     C 9901   1.625   3.321  14.171  0.5862 -0.0032 -0.2840
  669TMC3     O 9902   1.527   3.250  14.140  0.3322  0.1050 -0.4682
  669TMC3     H 9903   1.488   3.426  13.986  0.1812  0.5162 -0.1872
  669TMC3    H1 9904   1.870   3.423  14.150 -2.4331  1.4205  1.5269
  669TMC3    H2 9905   1.795   3.691  13.830  0.8170 -0.4684  0.8843
  669TMC3    C7 9906   1.986   3.594  14.007 -0.3353  0.0720 -0.1923
  669TMC3    C8 9907   1.547   3.600  13.777 -0.4720  0.5651  0.1643
  669TMC3    O1 9908   2.073   3.516  14.037  0.8495  0.6271  0.4545
  669TMC3    O2 9909   1.432   3.563  13.799 -0.4436 -0.3348  0.3591
  670MPD2     C 9910   0.196   0.870  13.599  0.0615  0.5745 -0.0746
  670MPD2    C1 9911   0.086   0.939  13.544 -0.6275 -0.2198  0.4112
  670MPD2    C2 9912   4.704   0.971  13.628 -0.7257  0.4440 -0.0617
  670MPD2    C3 9913   4.696   0.918  13.754 -0.2798  0.1344  0.3128
  670MPD2    C4 9914   0.078   0.846  13.802  0.2157  0.4263  0.3897
  670MPD2    C5 9915   0.189   0.828  13.729  0.6580  0.2737 -0.3181
  670MPD2     H 9916   4.624   1.032  13.586 -0.7054 -0.0774 -0.8451
  670MPD2    H1 9917   0.088   0.795  13.897 -2.0830 -1.2208 -0.2690
  670MPD2    H2 9918   0.282   0.838  13.541  0.4036  2.7476 -0.7614
  670MPD2    H3 9919   0.281   0.780  13.761  0.8777 -0.2507 -1.7182
  670MPD2     N 9920   4.574   0.931  13.825 -0.2716 -0.0887 -0.6744
  670MPD2    H5 9921   4.489   0.954  13.774  0.2042 -0.6051 -1.6930
  670MPD2    N1 9922   0.085   0.977  13.407 -0.8883 -0.0648  0.3129
  670MPD2    H7 9923   0.017   1.046  13.377 -0.2609  0.2264 -0.4476
  671TMC3    C1 9924   4.430   0.946  14.011  0.2859  0.8500  0.9630
  671TMC3    C2 9925   4.395   0.875  14.125 -0.0790  0.2138 -0.0403
  671TMC3    C3 9926   4.272   0.817  14.136  0.3645 -0.2097 -0.0377
  671TMC3    C4 9927   4.329   1.003  13.929  0.6844  0.3237  0.0634
  671TMC3    C5 9928   4.204   0.964  13.966  0.4534  0.1913  0.1677
  671TMC3    C6 9929   4.169   0.864  14.060  0.1341  0.7402  0.1717
  671TMC3     C 9930   4.563   0.923  13.961  0.2091 -0.0834  0.3109
  671TMC3     O 9931   4.650   0.914  14.046  0.2810  0.0619 -0.6117
  671TMC3     H 9932   4.478   0.840  14.185 -1.1434 -1.1513  0.6368
  671TMC3    H1 9933   4.337   1.077  13.850  0.7740  0.1871 -0.0546
  671TMC3    H2 9934   4.065   0.838  14.074  0.0529  0.5355 -0.8062
  671TMC3    C7 9935   4.092   1.021  13.894 -0.1026  0.1941  0.0238
  671TMC3    C8 9936   4.233   0.732  14.241  0.3995  0.5915 -0.1747
  671TMC3    O1 9937   4.109   1.045  13.775  0.0414  0.1341  0.1831
  671TMC3    O2 9938   4.117   0.737  14.283  0.2887  0.4483 -0.2166
  672MPD2     C 9939   4.329   2.343   1.533 -1.0408 -0.0423  0.2186
  672MPD2    C1 9940   4.364   2.404   1.415  0.4038  0.1556  0.4881
  672MPD2    C2 9941   4.469   2.489   1.413  0.7236  0.5225  0.3991
  672MPD2    C3 9942   4.542   2.513   1.522  0.1420  0.7844 -0.0744
  672MPD2    C4 9943   4.506   2.449   1.639  0.0201 -0.1561 -0.0863
  672MPD2    C5 9944   4.396   2.362   1.648  0.6234  0.4856  0.4420
  672MPD2     H 9945   4.487   2.534   1.316  0.7965  0.8572  0.5661
  672MPD2    H1 9946   4.557   2.464   1.733 -0.1072 -1.6061  0.2070
  672MPD2    H2 9947   4.242   2.278   1.535 -1.7666  0.8205 -3.1404
  672MPD2    H3 9948   4.362   2.315   1.740  2.1425 -0.6347  0.4292
  672MPD2     N 9949   4.657   2.602   1.518 -0.5257 -0.5392 -0.1801
  672MPD2    H5 9950   4.712   2.614   1.602  0.2512 -1.1094 -0.6067
  672MPD2    N1 9951   4.297   2.396   1.286 -0.1691  0.0660  0.2356
  672MPD2    H7 9952   4.351   2.420   1.204 -1.2800  1.9904  0.0778
  673TMC3    C1 9953   4.127   2.324   1.138 -0.8320 -0.2717 -0.3095
  673TMC3    C2 9954   4.215   2.257   1.057 -0.0041  0.2980  1.6240
  673TMC3    C3 9955   4.180   2.209   0.932  0.3092  0.5916  0.1798
  673TMC3    C4 9956   3.994   2.329   1.095  0.0900 -0.0752  0.9382
  673TMC3    C5 9957   3.962   2.293   0.966 -0.3079 -0.3130 -0.3704
  673TMC3    C6 9958   4.055   2.238   0.886  0.4102  0.0231  0.0967
  673TMC3     C 9959   4.164   2.359   1.278 -0.5008  0.0462  0.8060
  673TMC3     O 9960   4.079   2.344   1.365 -0.5719 -0.4650 -0.2523
  673TMC3     H 9961   4.312   2.229   1.098 -0.3778 -1.8196  1.0425
  673TMC3    H1 9962   3.919   2.366   1.164 -0.1773  0.5260  0.3255
  673TMC3    H2 9963   4.032   2.199   0.788 -0.6670  0.9867 -0.0297
  673TMC3    C7 9964   3.819   2.301   0.935 -0.4036 -0.1652 -0.3534
  673TMC3    C8 9965   4.228   2.075   0.889  0.2220 -0.5929  0.4553
  673TMC3    O1 9966   3.740   2.308   1.026 -0.2765 -0.0518  0.3753
  673TMC3    O2 9967   4.141   2.008   0.835 -0.3600  0.2796 -0.1119
  674MPD2     C 9968   4.496   2.262   0.643 -0.0142 -0.7023 -0.3422
  674MPD2    C1 9969   4.480   2.134   0.600 -0.5166  0.4095  0.3314
  674MPD2    C2 9970   4.354   2.093   0.551 -0.0641  0.6577 -0.1155
  674MPD2    C3 9971   4.250   2.180   0.538 -0.4719 -0.8507  0.2263
  674MPD2    C4 9972   4.262   2.311   0.587 -0.4437 -0.9144  0.7858
  674MPD2    C5 9973   4.385   2.343   0.643  0.7082 -0.3076 -0.5469
  674MPD2     H 9974   4.332   1.992   0.520  2.6845  0.3195 -0.8910
  674MPD2    H1 9975   4.191   2.393   0.578 -1.5464 -1.9836 -0.1880
  674MPD2    H2 9976   4.583   2.312   0.685 -0.8111 -0.7039  1.3172
  674MPD2    H3 9977   4.403   2.443   0.682 -1.1170  0.1647 -0.9353
  674MPD2     N 9978   4.128   2.129   0.490 -0.4640 -0.7034  0.4484
  674MPD2    H5 9979   4.133   2.035   0.452  1.1733 -0.0038 -1.0710
  674MPD2    N1 9980   4.593   2.050   0.607  0.3375  0.4689  0.2097
  674MPD2    H7 9981   4.665   2.095   0.662  1.5015 -1.2439  0.0724
  675TMC3    C1 9982   4.703   1.836   0.582  0.3084  0.3277 -0.6335
  675TMC3    C2 9983   4.667   1.706   0.607  0.1827  0.4948 -0.4110
  675TMC3    C3 9984   0.028   1.630   0.668  0.2877  0.2084  0.4608
  675TMC3    C4 9985   0.090   1.889   0.631  0.3385 -0.0644  0.2990
  675TMC3    C5 9986   0.178   1.808   0.690  0.1491 -0.5546  0.5260
  675TMC3    C6 9987   0.155   1.668   0.699  0.0339  0.1341 -0.4574
  675TMC3     C 9988   4.596   1.924   0.541  0.6176 -0.1634  0.5093
  675TMC3     O 9989   4.516   1.880   0.460  0.4937  0.8083  0.0403
  675TMC3     H 9990   4.562   1.690   0.585  0.8547 -0.2454 -3.1215
  675TMC3    H1 9991   0.119   1.991   0.607 -1.0474 -0.2992 -2.2971
  675TMC3    H2 9992   0.232   1.602   0.736 -0.7276 -0.8142 -0.5785
  675TMC3    C7 9993   0.310   1.851   0.726  0.7576  0.3765 -0.5445
  675TMC3    C8 9994   4.721   1.492   0.670  0.0400 -0.0557  0.6585
  675TMC3    O1 9995   0.396   1.759   0.724 -0.7919  0.9205 -0.1306
  675TMC3    O2 9996   4.653   1.441   0.580  0.5325  0.9767 -0.1067
  676MPD2     C 9997   2.782   0.202  10.974 -0.6256  0.9753 -0.3000
  676MPD2    C1 9998   2.743   0.126  11.086 -0.0753  0.0292 -0.4675
  676MPD2    C2 9999   2.795   4.723  11.083  0.0824 -0.0353  0.3790
  676MPD2    C310000   2.886   4.676  10.996 -0.0327  0.3909  0.6222
  676MPD2    C410001   2.938   0.030  10.906 -0.7945 -0.0603 -0.7135
  676MPD2    C510002   2.872   0.152  10.887 -0.0476 -0.4190  0.5151
  676MPD2     H10003   2.759   4.660  11.163 -0.6937 -2.1687 -1.6479
  676MPD2    H110004   3.014   0.008  10.831 -0.2811 -3.0539  0.6576
  676MPD2    H210005   2.752   0.305  10.959  0.8052  1.4121 -0.2129
  676MPD2    H310006   2.900   0.214  10.803 -0.3005 -0.5250  0.3543
  676MPD2     N10007   2.948   4.552  11.008  0.3101  0.8170  0.5792
  676MPD2    H510008   3.039   4.542  10.963  0.1617 -0.8596  0.6804
  676MPD2    N110009   2.637   0.169  11.178  0.3822  0.5772  0.5337
  676MPD2    H710010   2.602   0.102  11.245 -1.4262 -1.1397 -2.1499
  677TMC3    C110011   2.493   0.310  11.285 -0.4622 -0.3666  0.0754
  677TMC3    C210012   2.396   0.208  11.279  0.4761 -1.0265  0.5328
  677TMC3    C310013   2.280   0.228  11.352  0.8547 -0.2590  0.0031
  677TMC3    C410014   2.475   0.427  11.351  0.1299  0.2093 -0.8234
  677TMC3    C510015   2.361   0.442  11.418 -0.6437  0.1856 -0.4219
  677TMC3    C610016   2.259   0.343  11.419 -0.0684  0.2632  0.9589
  677TMC3     C10017   2.601   0.301  11.196  0.2145 -0.7349  0.3713
  677TMC3     O10018   2.649   0.398  11.148 -0.0273 -0.1212  0.8911
  677TMC3     H10019   2.418   0.106  11.250 -0.5505 -1.7159  2.1930
  677TMC3    H110020   2.540   0.514  11.346  1.1452 -0.4604  0.8990
  677TMC3    H210021   2.162   0.367  11.462  0.4141  1.0457  1.6006
  677TMC3    C710022   2.353   0.529  11.529  0.2924  0.1543 -0.2278
  677TMC3    C810023   2.222   0.107  11.402  0.9551 -0.3492  0.1485
  677TMC3    O110024   2.260   0.527  11.602  0.0063 -0.0623 -0.4106
  677TMC3    O210025   2.185   0.022  11.321 -0.3802 -0.0227  0.3166
  678MPD2     C10026   3.714   0.402   1.593  0.2544 -0.2923  0.0985
  678MPD2    C110027   3.753   0.323   1.480  0.4412  0.2428 -0.4089
  678MPD2    C210028   3.650   0.254   1.418  0.5005 -0.1597 -0.1075
  678MPD2    C310029   3.518   0.286   1.456  0.1021  0.0350  0.4450
  678MPD2    C410030   3.484   0.357   1.570  0.0170  0.0235 -0.3320
  678MPD2    C510031   3.583   0.417   1.633 -0.1744 -0.4268 -0.1496
  678MPD2     H10032   3.674   0.197   1.329  0.8057  1.1836 -0.8760
  678MPD2    H110033   3.381   0.372   1.598 -0.4431 -0.5422 -1.6654
  678MPD2    H210034   3.790   0.453   1.650  1.9619 -0.4703 -2.0049
  678MPD2    H310035   3.558   0.478   1.719  3.3364  1.9554 -0.7852
  678MPD2     N10036   3.421   0.230   1.374  0.0436 -0.3627 -0.7599
  678MPD2    H510037   3.450   0.162   1.304 -2.0575  1.5197 -3.4902
  678MPD2    N110038   3.884   0.290   1.449  0.4048  0.2593  0.0413
  678MPD2    H710039   3.895   0.225   1.372  0.7104  0.4635 -0.0900
  679TMC3    C110040   4.265   0.175   1.324 -0.6360  0.4495 -0.1705
  679TMC3    C210041   4.139   0.200   1.371 -0.3965 -0.3683  0.8571
  679TMC3    C310042   4.120   0.317   1.446  0.6343 -0.0461 -0.0959
  679TMC3    C410043   4.368   0.266   1.330  0.3616  0.1002  0.5198
  679TMC3    C510044   4.340   0.377   1.397 -0.1541 -0.2181 -0.3309
  679TMC3    C610045   4.222   0.413   1.458  0.3160  0.1073  0.1796
  679TMC3     C10046   4.289   0.070   1.234 -0.0115  0.6176 -0.1167
  679TMC3     O10047   4.213   4.696   1.236  0.2763  0.7792 -0.2353
  679TMC3     H10048   4.062   0.125   1.361 -1.4205  0.6781  0.8131
  679TMC3    H110049   4.467   0.232   1.301  0.0724 -1.4318  1.2815
  679TMC3    H210050   4.218   0.504   1.517 -0.4064  0.3587 -0.2590
  679TMC3    C710051   4.445   0.479   1.394  0.4156 -0.3000 -0.0825
  679TMC3    C810052   3.994   0.349   1.505  0.7751 -0.5067 -0.9836
  679TMC3    O110053   4.404   0.596   1.406 -0.0813  0.0543 -0.1372
  679TMC3    O210054   3.994   0.448   1.580 -0.6068  0.4931 -0.5345
  680MPD2     C10055   4.061   3.280  13.345 -0.0124 -0.1052 -0.0036
  680MPD2    C110056   4.085   3.248  13.474 -0.7837  0.4288  0.3692
  680MPD2    C210057   4.133   3.349  13.551 -0.3575 -1.1052 -0.5341
  680MPD2    C310058   4.147   3.479  13.505  0.3552 -0.1522 -0.6215
  680MPD2    C410059   4.113   3.508  13.374 -0.5764  0.7628 -0.2733
  680MPD2    C510060   4.072   3.407  13.295 -0.1322 -0.0087 -0.3621
  680MPD2     H10061   4.150   3.319  13.654  1.3502  0.3389 -0.3857
  680MPD2    H110062   4.126   3.608  13.334  0.7336  0.0723 -1.5683
  680MPD2    H210063   4.032   3.205  13.272  2.1868 -0.1554 -0.8218
  680MPD2    H310064   4.046   3.434  13.194  0.8495 -0.2453 -0.6766
  680MPD2     N10065   4.208   3.580  13.580  0.1649  0.2923 -0.7947
  680MPD2    H510066   4.226   3.668  13.533  1.1802  0.0033 -0.9491
  680MPD2    N110067   4.077   3.116  13.527 -0.7746 -0.6560 -0.5350
  680MPD2    H710068   4.103   3.109  13.625 -1.9123  1.4766 -0.0796
  681TMC3    C110069   4.035   2.887  13.560  0.0866 -0.1574  0.1639
  681TMC3    C210070   3.977   2.913  13.684  0.2078  1.0709  0.0076
  681TMC3    C310071   4.009   2.829  13.782  0.4573 -0.1692 -0.5813
  681TMC3    C410072   4.134   2.789  13.545 -0.0215 -0.0906  0.7423
  681TMC3    C510073   4.162   2.705  13.649 -0.0423  0.2463 -0.5948
  681TMC3    C610074   4.101   2.728  13.768  0.0033 -0.0815 -0.5822
  681TMC3     C10075   4.047   2.997  13.468  0.2613  0.2566 -0.5715
  681TMC3     O10076   4.000   2.973  13.355 -0.0587 -0.0832  0.1724
  681TMC3     H10077   3.916   3.002  13.691  0.0721  0.9966 -0.2511
  681TMC3    H110078   4.194   2.799  13.455  0.0131 -0.3545  0.7372
  681TMC3    H210079   4.132   2.674  13.857  1.2321 -0.2911 -1.1440
  681TMC3    C710080   4.297   2.651  13.659  0.5858 -0.0549 -0.1658
  681TMC3    C810081   3.984   2.880  13.915 -0.3374 -0.4119 -0.0764
  681TMC3    O110082   4.345   2.630  13.769  0.1301 -0.2055  0.3965
  681TMC3    O210083   4.056   2.835  13.995 -0.0406 -0.4385  0.0434
  682MPD2     C10084   1.713   4.570  10.276  0.5755 -0.2582  0.5796
  682MPD2    C110085   1.722   4.452  10.348  0.3007  0.3324  0.1728
  682MPD2    C210086   1.699   4.444  10.479 -0.2012  0.2767 -0.5750
  682MPD2    C310087   1.677   4.558  10.554  1.1923  0.6183  0.2120
  682MPD2    C410088   1.682   4.677  10.487 -0.1849  0.9900 -0.0602
  682MPD2    C510089   1.688   4.685  10.350 -0.1717  0.1015  1.2105
  682MPD2     H10090   1.697   4.349  10.530 -3.1768  0.5350 -0.1699
  682MPD2    H110091   1.672   0.043  10.542 -0.4819 -1.1842  3.5264
  682MPD2    H210092   1.722   4.582  10.169  0.6293 -0.4441  0.5625
  682MPD2    H310093   1.688   0.045  10.285 -0.6086  1.3649  2.9017
  682MPD2     N10094   1.663   4.562  10.692  0.2575  0.6139 -0.1077
  682MPD2    H510095   1.637   4.652  10.732 -3.2087 -1.9691  3.5036
  682MPD2    N110096   1.746   4.330  10.282 -0.6545 -0.6802 -0.0431
  682MPD2    H710097   1.715   4.244  10.328 -1.1700  0.8188  2.4063
  683TMC3    C110098   1.507   4.589  11.075  0.1622  0.1302 -0.7593
  683TMC3    C210099   1.459   4.468  11.129  0.2489  0.2068  0.5712
  683TMC3    C310100   1.497   4.356  11.063  0.2115  0.3294 -0.1864
  683TMC3    C410101   1.582   4.595  10.967  0.4797 -0.0431  0.1549
  683TMC3    C510102   1.617   4.476  10.906  0.5270  0.4702 -0.3066
  683TMC3    C610103   1.582   4.356  10.957  0.0130  0.1546  0.1100
  683TMC3     C10104   1.464   4.718  11.132 -0.9391  0.0337 -0.4877
  683TMC3     O10105   1.418   4.716  11.245 -0.2095  0.0325  0.1287
  683TMC3     H10106   1.386   4.462  11.209 -1.4368  0.4508 -0.9614
  683TMC3    H110107   1.626   4.687  10.932 -0.6074  0.1025 -0.8465
  683TMC3    H210108   1.583   4.261  10.906 -0.6962  0.7360 -0.9903
  683TMC3    C710109   1.681   4.455  10.779 -0.3105 -0.8044 -0.4263
  683TMC3    C810110   1.395   4.251  11.060 -0.1055  0.5168 -0.6440
  683TMC3    O110111   1.728   4.350  10.747  0.5259  0.5334  1.2646
  683TMC3    O210112   1.281   4.288  11.079  0.3074  0.1642 -0.4986
  684MPD2     C10113   3.827   4.396  16.255  0.0620  0.4826  0.2774
  684MPD2    C110114   3.936   4.370  16.179 -0.1126  0.9310  0.2464
  684MPD2    C210115   4.026   4.474  16.152 -0.2473 -0.5976  0.1887
  684MPD2    C310116   3.995   4.605  16.196  0.0815  0.3631 -0.3157
  684MPD2    C410117   3.878   4.630  16.255  0.6255 -0.8578 -0.2793
  684MPD2    C510118   3.795   4.525  16.290  0.6276 -0.9424  0.1720
  684MPD2     H10119   4.117   4.466  16.093  0.8085  0.5120  1.6677
  684MPD2    H110120   3.844   0.003  16.279  1.4349 -0.5171 -0.5516
  684MPD2    H210121   3.753   4.319  16.274  2.0298 -1.2704  0.8950
  684MPD2    H310122   3.701   4.550  16.338  1.2750  1.3881  0.2257
  684MPD2     N10123   4.086   4.699  16.148 -0.1929  0.1807  0.0750
  684MPD2    H510124   4.178   4.675  16.111 -0.6411 -2.5819  0.7838
  684MPD2    N110125   3.945   4.235  16.128 -0.1364  0.2177  0.2992
  684MPD2    H710126   3.879   4.170  16.169 -0.6932  0.5674 -0.0427
  685TMC3    C110127   4.045   4.033  16.063  0.2146 -0.0173 -0.8236
  685TMC3    C210128   3.927   3.979  16.018 -0.3197  0.0019 -0.4153
  685TMC3    C310129   3.926   3.852  15.978  0.1987  0.2464  0.2846
  685TMC3    C410130   4.161   3.961  16.051  0.0038  0.7336  0.2481
  685TMC3    C510131   4.156   3.838  15.992 -0.2022  0.9863  0.1894
  685TMC3    C610132   4.034   3.770  15.975 -0.7811  0.1947 -0.2629
  685TMC3     C10133   4.059   4.178  16.082 -0.1508  0.8300 -0.2848
  685TMC3     O10134   4.160   4.232  16.036  0.1647  0.2479  0.4170
  685TMC3     H10135   3.835   4.036  16.015 -0.1752  0.2925  0.5082
  685TMC3    H110136   4.252   4.020  16.054  0.1560  0.4726  0.8266
  685TMC3    H210137   4.027   3.664  15.955 -0.8312  0.4951 -1.8070
  685TMC3    C710138   4.278   3.790  15.927  0.1144  0.4639  0.3305
  685TMC3    C810139   3.803   3.787  15.949  0.6255 -0.3626 -0.2016
  685TMC3    O110140   4.279   3.696  15.847  0.3703  0.2291  0.1214
  685TMC3    O210141   3.788   3.665  15.963  0.1291  0.0791  0.3822
  686MPD2     C10142   0.935   4.306  15.171  0.4782  0.4454 -0.0225
  686MPD2    C110143   0.934   4.209  15.270 -0.1695  0.9285 -0.2407
  686MPD2    C210144   1.000   4.094  15.235 -0.6743  0.3147  0.6278
  686MPD2    C310145   1.061   4.078  15.111  0.4333 -0.2993 -0.0304
  686MPD2    C410146   1.058   4.173  15.014 -0.5034 -0.4439  0.0895
  686MPD2    C510147   0.983   4.280  15.048  0.3351  0.0778 -0.4272
  686MPD2     H10148   1.001   4.014  15.309 -0.8754  1.4950  1.9153
  686MPD2    H110149   1.105   4.167  14.916  0.8389 -0.2299  0.7138
  686MPD2    H210150   0.879   4.398  15.187  2.3460  1.8759 -1.8333
  686MPD2    H310151   0.965   4.352  14.968 -1.8736  0.7895  0.7130
  686MPD2     N10152   1.126   3.955  15.097  0.1209  0.0478  0.1172
  686MPD2    H510153   1.149   3.905  15.182 -0.1530  1.1316  0.8227
  686MPD2    N110154   0.858   4.227  15.392 -0.0769  0.0613  0.0667
  686MPD2    H710155   0.793   4.304  15.384  2.8163  2.3518 -1.1591
  687TMC3    C110156   1.148   3.755  14.990 -0.1901 -0.2063 -0.1156
  687TMC3    C210157   1.042   3.680  14.954 -0.3282  0.6061 -0.5650
  687TMC3    C310158   1.011   3.566  15.019 -0.3615  0.1348 -0.7753
  687TMC3    C410159   1.230   3.716  15.091  0.1767  0.2750  0.2770
  687TMC3    C510160   1.210   3.599  15.148 -0.3299  0.5910 -0.0361
  687TMC3    C610161   1.099   3.524  15.116 -0.1609  0.4431 -0.5484
  687TMC3     C10162   1.122   3.897  14.979 -0.0015  0.4228 -0.5682
  687TMC3     O10163   1.066   3.928  14.875 -0.1480  0.4373 -0.2097
  687TMC3     H10164   0.983   3.710  14.868 -1.3388  1.1949  0.3313
  687TMC3    H110165   1.304   3.787  15.126 -0.1087  0.8178 -0.2383
  687TMC3    H210166   1.097   3.425  15.160 -1.9848 -0.3661 -2.4393
  687TMC3    C710167   1.297   3.545  15.254  0.1766 -0.0384  0.5306
  687TMC3    C810168   0.877   3.574  15.073  0.1664 -0.2102 -0.0382
  687TMC3    O110169   1.278   3.428  15.290 -0.0820  0.1210 -0.0655
  687TMC3    O210170   0.832   3.485  15.141 -0.4799 -0.6533 -0.0313
  688MPD2     C10171   0.096   3.004  16.943 -0.1503  0.4868  0.0091
  688MPD2    C110172   0.194   2.915  16.970 -0.0492 -0.0555  0.4488
  688MPD2    C210173   0.296   2.888  16.879 -0.8968 -0.0305  0.5723
  688MPD2    C310174   0.286   2.948  16.755  0.3304 -0.1153  0.1448
  688MPD2    C410175   0.181   3.034  16.718  0.2243  0.6358 -0.5311
  688MPD2    C510176   0.090   3.060  16.816 -0.3211  0.4522 -0.8435
  688MPD2     H10177   0.368   2.810  16.900 -0.7515  0.4478  1.8108
  688MPD2    H110178   0.171   3.087  16.624  0.2176  1.0391 -0.3027
  688MPD2    H210179   0.014   3.031  17.009 -0.7421  2.2620 -1.4514
  688MPD2    H310180   0.006   3.124  16.790 -0.9806  0.8417  2.2304
  688MPD2     N10181   0.372   2.924  16.645 -0.6979  0.1433  0.7572
  688MPD2    H510182   0.366   2.976  16.558 -1.5338  1.1193  1.3876
  688MPD2    N110183   0.199   2.850  17.095 -0.3131 -0.0053 -0.7917
  688MPD2    H710184   0.279   2.790  17.113 -1.6730 -2.4494 -2.7851
  689TMC3    C110185   0.165   2.827  17.324  0.2240 -0.0225  0.1283
  689TMC3    C210186   0.187   2.931  17.408  0.2259  0.3610  1.3121
  689TMC3    C310187   0.233   2.908  17.535 -0.4176 -0.6404  0.1352
  689TMC3    C410188   0.165   2.699  17.374 -0.0279  0.4912 -0.4341
  689TMC3    C510189   0.194   2.679  17.507 -0.2633 -0.1604 -0.0529
  689TMC3    C610190   0.243   2.777  17.578 -0.1012  0.0611 -0.2108
  689TMC3     C10191   0.107   2.863  17.196 -0.5805  0.1623  0.6780
  689TMC3     O10192   0.014   2.936  17.208 -0.5172  0.4020 -0.0952
  689TMC3     H10193   0.181   3.035  17.377  0.6851  0.2535  0.8621
  689TMC3    H110194   0.135   2.617  17.309  0.7753 -0.9323  0.9820
  689TMC3    H210195   0.260   2.768  17.685 -0.4923  0.1977 -0.1404
  689TMC3    C710196   0.155   2.559  17.584 -0.3555  0.1316 -0.2619
  689TMC3    C810197   0.241   3.010  17.634  0.7536 -0.0675 -0.3658
  689TMC3    O110198   0.215   2.537  17.691  0.3626  0.7251  0.2994
  689TMC3    O210199   0.219   2.979   0.039  0.2235  0.0942  0.0443
  690MPD2     C10200   2.105   0.209  15.129 -0.3494 -0.2458  0.3766
  690MPD2    C110201   2.139   0.128  15.230  0.4214  0.4945  0.3837
  690MPD2    C210202   2.257   0.139  15.298 -0.8775  0.0086 -0.3621
  690MPD2    C310203   2.344   0.240  15.262 -0.4519  0.0340 -0.3820
  690MPD2    C410204   2.309   0.320  15.158 -0.4982 -0.0847  0.5059
  690MPD2    C510205   2.197   0.294  15.086  0.2732 -0.0095 -0.0100
  690MPD2     H10206   2.280   0.068  15.377 -2.2883 -1.3286 -1.1423
  690MPD2    H110207   2.366   0.405  15.122 -3.7773  1.2079 -1.6363
  690MPD2    H210208   2.006   0.211  15.085 -0.9232  1.2292  1.7030
  690MPD2    H310209   2.171   0.362  15.006 -1.5208 -0.3825  0.2759
  690MPD2     N10210   2.468   0.258  15.331 -0.0204 -0.2410  0.8248
  690MPD2    H510211   2.484   0.209  15.418 -1.9838 -0.8771  0.8306
  690MPD2    N110212   2.053   0.018  15.270 -0.3072 -0.2696 -0.1080
  690MPD2    H710213   2.084   4.676  15.337  1.0035  1.0355  0.6344
  691TMC3    C110214   1.873   4.605  15.273  0.9229 -0.0325  0.1663
  691TMC3    C210215   1.737   4.610  15.278 -0.0053 -0.1285  0.2286
  691TMC3    C310216   1.679   4.488  15.298 -0.6319 -0.2633 -0.3238
  691TMC3    C410217   1.956   4.496  15.286 -0.1004 -0.3437 -0.0841
  691TMC3    C510218   1.886   4.383  15.306 -0.3615  0.5286 -0.3957
  691TMC3    C610219   1.753   4.372  15.311 -0.2644 -0.4535  0.3116
  691TMC3     C10220   1.932   4.725  15.223  0.0292  0.2263 -0.4176
  691TMC3     O10221   1.854   0.074  15.162 -0.1533  0.4132 -0.0220
  691TMC3     H10222   1.682   4.704  15.281  0.4551  0.1523 -0.2026
  691TMC3    H110223   2.062   4.489  15.265  0.0743 -3.1578  1.7264
  691TMC3    H210224   1.702   4.284  15.349 -1.9099  0.3541 -0.0267
  691TMC3    C710225   1.966   4.278  15.373  0.7642  0.0582 -0.3023
  691TMC3    C810226   1.533   4.472  15.311  0.0628 -0.3017 -0.1438
  691TMC3    O110227   2.079   4.298  15.405  0.3392  0.0618 -0.2078
  691TMC3    O210228   1.500   4.356  15.307  0.2102  0.1462 -0.0642
  692TMC3    C110229   4.015   1.357  15.664  0.1033  0.0626 -0.4242
  692TMC3    C210230   4.140   1.362  15.729  0.4967  0.2129 -0.9317
  692TMC3    C310231   4.233   1.268  15.722 -0.6030  0.7648  0.4487
  692TMC3    C410232   3.981   1.237  15.602 -0.4249  0.4057  0.5106
  692TMC3    C510233   4.081   1.146  15.590  0.5342  0.5588  0.0505
  692TMC3    C610234   4.205   1.162  15.642  0.4619 -0.4803 -0.0021
  692TMC3     C10235   3.907   1.443  15.706 -0.4182 -0.5823  0.2217
  692TMC3     O10236   3.797   1.390  15.695 -0.1315  0.0383  0.4192
  692TMC3     H10237   4.175   1.463  15.746 -1.5935  0.6381  0.8739
  692TMC3    H110238   3.889   1.226  15.544  1.3619  2.0811 -2.6319
  692TMC3    H210239   4.284   1.093  15.615 -0.5136 -1.4066 -0.4786
  692TMC3    C710240   4.034   1.016  15.548 -0.4790  0.3353  1.0252
  692TMC3    C810241   4.246   1.206  15.848 -0.2188  0.2717 -0.2686
  692TMC3    O110242   3.936   1.013  15.472  0.2866 -0.3575  0.0201
  692TMC3    O210243   4.230   1.083  15.854 -0.3818  0.0543 -0.4187
  693MPD2     C10244   3.924   3.972  10.772 -0.4839 -0.2026  0.0570
  693MPD2    C110245   3.871   3.880  10.691  0.1815 -0.0837 -0.1244
  693MPD2    C210246   3.940   3.770  10.641  0.1631  0.2883  0.0154
  693MPD2    C310247   4.064   3.742  10.693 -0.6774  0.5434  0.3322
  693MPD2    C410248   4.115   3.838  10.775 -0.2198 -0.3785  0.3383
  693MPD2    C510249   4.047   3.949  10.818  0.1688 -0.1118  0.4626
  693MPD2     H10250   3.889   3.692  10.586 -0.9706 -1.3484  3.3557
  693MPD2    H110251   4.217   3.827  10.812 -0.0714  1.1790  0.3919
  693MPD2    H210252   3.865   4.054  10.812 -1.1876 -1.6934  2.0531
  693MPD2    H310253   4.095   4.021  10.883  2.0216 -1.7091  0.8738
  693MPD2     N10254   4.130   3.623  10.666  0.4557  0.0750 -0.0824
  693MPD2    H510255   4.213   3.605  10.722 -0.3129 -2.0217  0.3953
  693MPD2    N110256   3.730   3.894  10.669  0.5480 -0.1487  0.2956
  693MPD2    H710257   3.670   3.957  10.722 -0.7449 -0.2435 -1.0530
  694TMC3    C110258   3.538   3.777  10.648 -0.1834 -0.6853  0.0423
  694TMC3    C210259   3.459   3.693  10.568  0.4497 -0.0855  0.2631
  694TMC3    C310260   3.381   3.595  10.619 -0.1821  0.5732 -0.2835
  694TMC3    C410261   3.548   3.743  10.781  0.1419 -0.0866  0.2556
  694TMC3    C510262   3.475   3.639  10.823  0.5916  0.4131 -1.2281
  694TMC3    C610263   3.389   3.564  10.749 -0.2226 -0.3765  0.2400
  694TMC3     C10264   3.657   3.820  10.580 -0.0553  0.2954  0.0889
  694TMC3     O10265   3.694   3.754  10.480 -0.1486  0.0449 -0.0873
  694TMC3     H10266   3.451   3.724  10.464  2.5771 -1.8750 -0.4447
  694TMC3    H110267   3.624   3.787  10.843  0.9271 -2.7823  1.1997
  694TMC3    H210268   3.328   3.486  10.794  0.9707 -1.2274  0.3872
  694TMC3    C710269   3.511   3.598  10.960 -0.2167  0.6057  0.2935
  694TMC3    C810270   3.307   3.504  10.530 -0.1522 -0.0673 -0.0575
  694TMC3    O110271   3.549   3.693  11.034  0.0436  0.1584  0.5827
  694TMC3    O210272   3.235   3.412  10.576  0.3515  0.5783 -0.2311
  695MPD2     C10273   4.434   0.910  13.153 -0.1876  0.7087  0.1309
  695MPD2    C110274   4.386   0.890  13.285  0.4400  1.1590 -0.2495
  695MPD2    C210275   4.268   0.945  13.315  0.0234  0.3513 -0.2268
  695MPD2    C310276   4.193   1.009  13.216  0.5121  0.6681  0.4135
  695MPD2    C410277   4.228   1.002  13.084 -0.5802 -0.2869 -0.4631
  695MPD2    C510278   4.350   0.953  13.054 -0.2647 -0.3407 -0.2541
  695MPD2     H10279   4.231   0.944  13.416 -0.7561  3.8086 -0.4929
  695MPD2    H110280   4.169   1.031  12.998  0.2028  2.5470 -0.0359
  695MPD2    H210281   4.534   0.876  13.126  0.0880  1.9353 -0.3579
  695MPD2    H310282   4.386   0.961  12.952  2.0705 -3.3687  0.3178
  695MPD2     N10283   4.060   1.048  13.255 -0.4307  0.1611  0.1586
  695MPD2    H510284   4.032   1.038  13.353 -1.0203 -0.3295 -0.0579
  695MPD2    N110285   4.464   0.815  13.380 -0.9273  0.0586 -0.3976
  695MPD2    H710286   4.421   0.825  13.472 -0.4066 -0.8383 -0.0547
  696TMC3    C110287   3.837   1.124  13.249  0.2141 -0.2174 -0.5511
  696TMC3    C210288   3.787   1.044  13.344 -0.0744  0.5935  0.2624
  696TMC3    C310289   3.672   1.076  13.403 -0.1881 -0.0993 -0.0619
  696TMC3    C410290   3.765   1.230  13.196 -0.6956  0.2199 -0.7843
  696TMC3    C510291   3.640   1.253  13.249 -0.3609  0.2400  0.0863
  696TMC3    C610292   3.598   1.185  13.363 -0.5678 -0.0521 -0.1821
  696TMC3     C10293   3.957   1.091  13.172 -0.2251 -0.1498  0.3770
  696TMC3     O10294   3.963   1.133  13.058 -0.1300  0.0017  0.6263
  696TMC3     H10295   3.851   0.970  13.390 -0.8589  0.0072  0.4088
  696TMC3    H110296   3.798   1.283  13.108  2.6368  1.1883  1.0260
  696TMC3    H210297   3.509   1.214  13.417 -0.1217  0.0833  0.4830
  696TMC3    C710298   3.587   1.389  13.256  1.1821 -0.8101  0.9234
  696TMC3    C810299   3.669   1.046  13.545 -0.0621 -0.5584 -0.5295
  696TMC3    O110300   3.475   1.417  13.215  0.1135  0.4968 -0.0414
  696TMC3    O210301   3.709   0.934  13.582  0.8690  1.0154 -0.1246
  697MPD2     C10302   3.597   2.692  15.830  0.0842 -0.1726 -0.1840
  697MPD2    C110303   3.613   2.640  15.706  0.0881  0.0484 -0.4370
  697MPD2    C210304   3.614   2.737  15.600  0.0068 -0.0695 -0.1839
  697MPD2    C310305   3.608   2.877  15.624  0.3999 -0.0234 -0.1411
  697MPD2    C410306   3.601   2.923  15.755  0.2073 -0.0700  0.3956
  697MPD2    C510307   3.595   2.823  15.854 -0.6695 -0.2764  0.5345
  697MPD2     H10308   3.616   2.720  15.493  1.3304 -1.0309 -0.0041
  697MPD2    H110309   3.595   3.027  15.784 -1.1505 -0.9573  3.2859
  697MPD2    H210310   3.609   2.618  15.909  2.4400 -0.3430 -0.7125
  697MPD2    H310311   3.596   2.853  15.958 -3.5092  1.1049  0.1834
  697MPD2     N10312   3.614   2.963  15.512 -0.1556  0.1179 -0.2557
  697MPD2    H510313   3.628   2.928  15.418 -1.0072  1.1039 -0.7516
  697MPD2    N110314   3.623   2.504  15.680  0.3330  0.3027 -0.7382
  697MPD2    H710315   3.635   2.477  15.583 -1.6873  1.4539 -1.2977
  698TMC3    C110316   3.621   3.154  15.381 -0.9147  1.2251  0.8500
  698TMC3    C210317   3.622   3.286  15.381  0.5467 -0.2707 -0.2892
  698TMC3    C310318   3.712   3.348  15.294  0.2999  0.0924 -0.7220
  698TMC3    C410319   3.683   3.074  15.285  0.1505 -0.5579 -0.1865
  698TMC3    C510320   3.774   3.129  15.202  0.1507  0.1514  0.3276
  698TMC3    C610321   3.784   3.267  15.209  0.3556  0.6194  0.2682
  698TMC3     C10322   3.573   3.091  15.509 -0.1738  0.5945 -0.0114
  698TMC3     O10323   3.556   3.176  15.594  0.4295 -0.0122 -0.6295
  698TMC3     H10324   3.561   3.351  15.442  2.6523  1.5302 -0.0934
  698TMC3    H110325   3.666   2.969  15.263  0.3269 -1.1341  2.3689
  698TMC3    H210326   3.818   3.303  15.113  0.7014 -0.7793 -0.1280
  698TMC3    C710327   3.794   3.063  15.070  0.7941 -0.3548 -0.7333
  698TMC3    C810328   3.644   3.452  15.224  0.3032  0.3350 -0.9511
  698TMC3    O110329   3.708   2.983  15.026 -0.1217  0.3973 -0.0423
  698TMC3    O210330   3.535   3.422  15.174 -0.4098 -0.3755 -0.1430
  699TMC3    C110331   4.079   0.668  12.995 -0.3150 -0.4698  0.3560
  699TMC3    C210332   4.159   0.642  13.098 -0.0646  0.4075  0.4101
  699TMC3    C310333   4.107   0.636  13.223 -0.5788 -0.5379  0.0874
  699TMC3    C410334   3.943   0.694  13.006 -0.5596  0.0792 -0.2668
  699TMC3    C510335   3.903   0.697  13.138 -0.1371  0.1321  0.2583
  699TMC3    C610336   3.980   0.659  13.248 -0.2503  0.1964 -0.0577
  699TMC3     C10337   4.139   0.668  12.858 -0.0356 -0.8657  0.0520
  699TMC3     O10338   4.081   0.737  12.777  0.2432  0.8692 -0.1980
  699TMC3     H10339   4.266   0.660  13.095  0.4860 -2.7200  1.1037
  699TMC3    H110340   3.882   0.704  12.917  0.6799  0.7823 -1.0471
  699TMC3    H210341   3.939   0.650  13.348  1.1326 -1.1003  0.3953
  699TMC3    C710342   3.771   0.731  13.172  0.9821 -0.7083  0.1873
  699TMC3    C810343   4.180   0.582  13.338  0.0102  0.1475 -0.1787
  699TMC3    O110344   3.723   0.698  13.280 -0.0413 -1.1256 -0.4716
  699TMC3    O210345   4.131   0.595  13.449 -0.0447 -0.2007 -0.4171
  700TMC3    C110346   3.009   3.698  17.558  0.2362  0.4760  0.9187
  700TMC3    C210347   3.029   3.564  17.562  0.9294 -0.0525  0.0973
  700TMC3    C310348   3.125   3.516  17.652  0.1331  0.6160  0.1753
  700TMC3    C410349   3.073   3.783  17.646 -0.9574 -0.0775 -0.6057
  700TMC3    C510350   3.155   3.733   0.030 -0.5733  0.1112  0.2507
  700TMC3    C610351   3.180   3.598   0.041  0.2723  0.5132 -0.6267
  700TMC3     C10352   2.916   3.752  17.462  0.3260  0.3357  0.3697
  700TMC3     O10353   2.833   3.682  17.407 -0.4174 -0.1802  0.0215
  700TMC3     H10354   2.976   3.503  17.490  1.1777 -0.9117  0.6446
  700TMC3    H110355   3.044   3.888  17.652  0.1153  0.2761 -1.6909
  700TMC3    H210356   3.258   3.558   0.105  1.0611  1.0309 -1.2622
  700TMC3    C710357   3.211   3.824   0.124  0.1074 -0.2398 -0.6836
  700TMC3    C810358   3.197   3.405  17.598  1.0350  0.4883 -0.1525
  700TMC3    O110359   3.255   3.768   0.223 -0.7461 -0.3977 -0.7288
  700TMC3    O210360   3.146   3.352  17.500 -0.1568 -0.1589  0.5445
  701TMC3    C110361   2.701   1.986  15.400 -0.4485  0.1430 -0.5750
  701TMC3    C210362   2.725   1.928  15.275 -0.3567  0.1631 -0.7585
  701TMC3    C310363   2.842   1.947  15.219  0.2735 -0.7045 -0.2037
  701TMC3    C410364   2.802   2.049  15.468  0.2638  0.0637  0.2303
  701TMC3    C510365   2.930   2.064  15.412 -0.5374 -0.2024 -0.4207
  701TMC3    C610366   2.951   2.012  15.283  0.4160  0.0460 -0.0642
  701TMC3     C10367   2.577   1.972  15.476  0.2575 -0.7798 -0.6571
  701TMC3     O10368   2.569   2.047  15.574 -0.2636 -0.1119  0.1830
  701TMC3     H10369   2.642   1.907  15.208 -1.5439  1.0695  0.4208
  701TMC3    H110370   2.796   2.102  15.561  0.8518 -1.9114  1.3976
  701TMC3    H210371   3.046   2.022  15.231  0.5001  1.2759  0.3179
  701TMC3    C710372   3.014   2.176  15.460 -0.5242 -0.0210 -0.1394
  701TMC3    C810373   2.867   1.915  15.081 -0.2746  0.2072 -0.3955
  701TMC3    O110374   3.072   2.229  15.366  0.6915 -0.4212 -0.1561
  701TMC3    O210375   2.957   1.973  15.027 -0.0934  0.3806 -0.2140
  702MPD2     C10376   3.391   4.532  10.652  0.7271 -0.7790  1.4984
  702MPD2    C110377   3.259   4.510  10.688 -0.5614  0.2351  0.2764
  702MPD2    C210378   3.162   4.598  10.639  0.2758 -0.0066  0.2994
  702MPD2    C310379   3.188   4.699  10.554 -0.0726 -0.3186  0.8201
  702MPD2    C410380   3.318   4.714  10.511  0.2904 -0.4452  0.1458
  702MPD2    C510381   3.419   4.638  10.565 -0.2285 -0.2164 -0.3908
  702MPD2     H10382   3.065   4.571  10.676  0.5863 -0.0095  1.1032
  702MPD2    H110383   3.350   0.062  10.438  0.8389  0.9608  1.8179
  702MPD2    H210384   3.469   4.465  10.685  1.4141 -0.3024  0.8387
  702MPD2    H310385   3.520   4.665  10.534  0.6848 -1.0510  1.8510
  702MPD2     N10386   3.087   0.065  10.508  0.0300  0.6961 -0.3420
  702MPD2    H510387   3.122   0.142  10.452  1.1873 -0.4797 -1.2471
  702MPD2    N110388   3.204   4.405  10.767 -0.2575  0.2064 -0.1874
  702MPD2    H710389   3.102   4.399  10.769 -0.2411  0.8002  2.4328
  703TMC3    C110390   2.890   0.203  10.523  0.4887 -0.1111 -0.5706
  703TMC3    C210391   2.771   0.227  10.591  0.3520  0.0732  0.3476
  703TMC3    C310392   2.723   0.359  10.598  0.8161 -0.6664 -0.0962
  703TMC3    C410393   2.963   0.299  10.458  0.2779 -0.1958 -0.3428
  703TMC3    C510394   2.915   0.430  10.467 -0.0204  0.3219 -0.2739
  703TMC3    C610395   2.801   0.457  10.539 -0.4555 -0.2793  0.5221
  703TMC3     C10396   2.953   0.072  10.546 -0.2793 -0.4234 -0.5299
  703TMC3     O10397   2.882   4.716  10.600  0.3613 -0.6524  0.0401
  703TMC3     H10398   2.716   0.149  10.643  0.6509  0.7901  1.7366
  703TMC3    H110399   3.040   0.279  10.384  1.8714  1.6532  0.7984
  703TMC3    H210400   2.774   0.560  10.556 -3.2250 -0.7220 -1.1522
  703TMC3    C710401   3.007   0.536  10.415 -0.0775  0.3262  0.2108
  703TMC3    C810402   2.657   0.402  10.719 -0.0298 -0.0325  0.0026
  703TMC3    O110403   3.094   0.490  10.346 -0.4022 -0.0888 -0.0033
  703TMC3    O210404   2.699   0.501  10.773 -0.5023 -0.1397  0.4269
  704TMC3    C110405   0.370   2.138  12.438 -0.3551  0.7463 -0.5954
  704TMC3    C210406   0.500   2.169  12.404  0.3735  0.0758  0.0083
  704TMC3    C310407   0.591   2.073  12.450 -0.5913 -0.0226  0.2298
  704TMC3    C410408   0.330   2.034  12.512  0.6394 -0.0098  0.0264
  704TMC3    C510409   0.424   1.954  12.563 -0.3605 -0.0769  0.0672
  704TMC3    C610410   0.558   1.967  12.529 -0.2433 -0.8490 -0.0118
  704TMC3     C10411   0.259   2.201  12.360  0.1522 -0.2064 -0.0605
  704TMC3     O10412   0.147   2.163  12.382  0.2770  0.1547  0.5162
  704TMC3     H10413   0.523   2.249  12.335 -2.5158  0.7692 -0.1476
  704TMC3    H110414   0.226   2.006  12.526  0.9841 -1.5567 -0.4973
  704TMC3    H210415   0.632   1.893  12.556 -1.2504 -2.5146 -1.7686
  704TMC3    C710416   0.393   1.811  12.580 -0.2488  0.6604  0.3634
  704TMC3    C810417   0.728   2.074  12.393  1.0817  0.2628 -0.4895
  704TMC3    O110418   0.472   1.755  12.653  0.5509 -0.2123  0.3582
  704TMC3    O210419   0.730   2.128  12.284 -0.1334  0.1150  0.4181
  705MPD2     C10420   4.162   0.485  16.273 -0.2070 -0.2426 -0.2702
  705MPD2    C110421   4.197   0.624  16.241  0.3333  0.7204  0.0054
  705MPD2    C210422   4.097   0.717  16.244  0.4187 -0.3673  0.8163
  705MPD2    C310423   3.970   0.687  16.284 -0.1307  0.1465  1.1805
  705MPD2    C410424   3.937   0.554  16.297 -0.1866 -0.4011 -0.5878
  705MPD2    C510425   4.033   0.455  16.308  0.7178  0.0075 -0.1529
  705MPD2     H10426   4.111   0.821  16.218 -0.7430 -0.2826  0.5481
  705MPD2    H110427   3.837   0.522  16.321  0.3890 -2.1790 -0.5619
  705MPD2    H210428   4.232   0.402  16.279 -0.4510 -0.3362  1.1068
  705MPD2    H310429   4.018   0.350  16.328 -1.1492  0.1398 -0.8867
  705MPD2     N10430   3.863   0.782  16.311  0.0289  0.4496  0.1712
  705MPD2    H510431   3.768   0.746  16.319 -0.2391  1.0583 -0.2975
  705MPD2    N110432   4.324   0.666  16.192 -0.1649 -0.4515 -0.2073
  705MPD2    H710433   4.333   0.754  16.144 -2.5944 -0.0203  0.1203
  706TMC3    C110434   0.046   0.696  16.100 -0.7041  0.4888  0.3651
  706TMC3    C210435   0.051   0.828  16.121 -0.5656 -0.5351  0.2135
  706TMC3    C310436   4.669   0.888  16.175  0.7887  0.7190 -0.2788
  706TMC3    C410437   4.664   0.620  16.124 -0.2772  0.1686  0.0548
  706TMC3    C510438   4.553   0.686  16.175  0.0616  0.3103  0.6851
  706TMC3    C610439   4.554   0.821  16.207 -0.5295  0.0474  0.2262
  706TMC3     C10440   0.160   0.651  16.025 -0.2694  0.0383 -0.0923
  706TMC3     O10441   0.271   0.694  16.059 -0.0843 -0.1110 -0.6143
  706TMC3     H10442   0.136   0.884  16.083  1.6831 -2.8549  1.8205
  706TMC3    H110443   4.671   0.512  16.118  4.3003  0.4047  1.3684
  706TMC3    H210444   4.475   0.880  16.252  0.6661  2.0699 -0.3581
  706TMC3    C710445   4.440   0.598  16.206 -0.8058  0.0466 -0.3479
  706TMC3    C810446   4.647   1.018  16.118 -0.3839 -0.0964 -0.3041
  706TMC3    O110447   4.470   0.497  16.269  0.0758  0.5644 -0.5812
  706TMC3    O210448   4.692   1.046  16.007 -0.4252 -0.3133  0.4745
  707TMC3    C110449   1.515   4.472   1.283  0.1330  0.7652  0.5438
  707TMC3    C210450   1.543   4.372   1.368  0.4120  0.2233  0.3808
  707TMC3    C310451   1.442   4.284   1.395 -0.6231 -0.4332  0.3073
  707TMC3    C410452   1.391   4.488   1.221  0.0986  0.0388  0.1272
  707TMC3    C510453   1.299   4.403   1.254  0.1886  0.8100  0.5163
  707TMC3    C610454   1.321   4.297   1.340 -0.2894  0.7377 -0.5813
  707TMC3     C10455   1.627   4.528   1.219  0.0937  0.5112  0.6091
  707TMC3     O10456   1.736   4.483   1.247  0.1251 -0.1380 -0.2526
  707TMC3     H10457   1.640   4.381   1.416 -0.0593 -0.2050  1.3995
  707TMC3    H110458   1.384   4.554   1.135 -0.9809  2.9498  2.4362
  707TMC3    H210459   1.243   4.228   1.369 -0.0732  0.3886 -0.8361
  707TMC3    C710460   1.165   4.406   1.203 -0.6792  0.5760 -0.3066
  707TMC3    C810461   1.474   4.147   1.429 -0.8522 -0.1585 -0.1198
  707TMC3    O110462   1.085   4.324   1.251  0.3787 -0.0054 -0.7768
  707TMC3    O210463   1.383   4.064   1.434  0.5690  0.0300 -0.1459
  708MPD2     C10464   3.442   3.311  13.865  0.4347 -0.2657 -0.2723
  708MPD2    C110465   3.378   3.434  13.854  0.0979  0.3108 -0.1451
  708MPD2    C210466   3.285   3.465  13.946 -0.0689  0.4037 -0.7830
  708MPD2    C310467   3.247   3.387  14.056  1.0835  0.2421  0.3014
  708MPD2    C410468   3.315   3.268  14.067 -0.3883 -0.1685 -1.0648
  708MPD2    C510469   3.410   3.231  13.973  0.0697  0.8839  0.0604
  708MPD2     H10470   3.212   3.540  13.918 -1.2725 -0.8100 -0.8999
  708MPD2    H110471   3.296   3.207  14.155 -0.0025  0.9375 -0.2130
  708MPD2    H210472   3.514   3.274  13.793 -0.5598  1.6868 -2.2566
  708MPD2    H310473   3.454   3.134  13.995 -0.9537  0.3159 -0.4052
  708MPD2     N10474   3.152   3.423  14.147 -0.3055  0.0914  0.2978
  708MPD2    H510475   3.128   3.360  14.223 -2.9941  1.1974  0.3560
  708MPD2    N110476   3.388   3.517  13.740 -0.9129  0.1248 -0.9046
  708MPD2    H710477   3.337   3.604  13.743 -1.7913 -0.4009 -0.6644
  709TMC3    C110478   3.442   3.610  13.535 -0.0297 -0.0188 -0.6916
  709TMC3    C210479   3.495   3.607  13.405  0.3453  0.2567  0.4844
  709TMC3    C310480   3.430   3.678  13.309  0.0982 -0.3535  0.4437
  709TMC3    C410481   3.349   3.704  13.572  0.3835  1.3149  0.0728
  709TMC3    C510482   3.293   3.777  13.472 -0.4814  0.3433 -0.2420
  709TMC3    C610483   3.320   3.746  13.339 -0.1159 -0.4488 -0.0645
  709TMC3     C10484   3.468   3.506  13.630  0.0562 -0.2249 -0.3456
  709TMC3     O10485   3.552   3.423  13.599 -0.3176 -0.0549  0.5719
  709TMC3     H10486   3.589   3.559  13.380 -0.9700 -1.5366 -1.0469
  709TMC3    H110487   3.328   3.735  13.674 -0.0020  0.8061  0.1498
  709TMC3    H210488   3.258   3.795  13.264 -0.0990  0.4387  0.5037
  709TMC3    C710489   3.151   3.823  13.489 -0.0747 -0.4913 -0.9579
  709TMC3    C810490   3.478   3.654  13.172  0.3139  0.3552 -0.5154
  709TMC3    O110491   3.073   3.821  13.396  0.0930  0.0894 -0.5506
  709TMC3    O210492   3.573   3.581  13.147  0.4255 -0.1558  0.2629
  710TMC3    C110493   0.137   1.299   1.295  0.0100 -0.0730 -0.4887
  710TMC3    C210494   0.036   1.304   1.205 -0.5707  0.3805 -0.1521
  710TMC3    C310495   4.704   1.190   1.166 -0.0380 -0.1763 -0.1571
  710TMC3    C410496   0.194   1.184   1.330 -0.2694  0.4769 -0.1025
  710TMC3    C510497   0.132   1.071   1.300 -0.1458 -0.7008  0.8750
  710TMC3    C610498   0.027   1.072   1.215 -0.8141  0.0490 -0.1103
  710TMC3     C10499   0.176   1.423   1.359 -0.4147 -0.1841 -0.4349
  710TMC3     O10500   0.290   1.417   1.404 -0.1555  0.5810 -0.0488
  710TMC3     H10501   0.014   1.403   1.166 -1.1069  0.7919  1.2066
  710TMC3    H110502   0.288   1.179   1.383 -0.3132 -3.0316 -0.3846
  710TMC3    H210503   4.703   0.980   1.186 -1.7888  0.8130 -0.8136
  710TMC3    C710504   0.186   0.945   1.335  0.2528  0.5462  0.1414
  710TMC3    C810505   4.596   1.187   1.075 -0.1916  0.0980 -0.3694
  710TMC3    O110506   0.306   0.933   1.320  0.0088  0.3379  0.1920
  710TMC3    O210507   4.521   1.282   1.079 -0.5100  0.2258  0.0753
  711TMC3    C110508   3.711   1.842  14.776  0.4289 -0.1513 -0.1737
  711TMC3    C210509   3.769   1.901  14.885 -0.0076  0.0478 -0.1231
  711TMC3    C310510   3.894   1.860  14.928  0.3255 -0.3047  0.6520
  711TMC3    C410511   3.790   1.761  14.696  0.5093  1.4877 -0.3806
  711TMC3    C510512   3.904   1.709  14.752  0.7105  0.1569 -0.2030
  711TMC3    C610513   3.966   1.761  14.865 -0.1344  0.2746 -0.4163
  711TMC3     C10514   3.594   1.773  14.814 -0.4541 -0.4030  0.4906
  711TMC3     O10515   3.565   1.674  14.749 -0.2220 -0.0729  0.2443
  711TMC3     H10516   3.729   1.988  14.936  0.7092  0.2148  0.1532
  711TMC3    H110517   3.747   1.736  14.599  0.2721  0.8144 -0.1037
  711TMC3    H210518   4.060   1.726  14.906  0.2178  0.3720 -1.1559
  711TMC3    C710519   3.925   1.568  14.730  0.3330 -0.4209  0.9353
  711TMC3    C810520   3.884   1.856  15.075 -0.0441 -0.2035  0.1909
  711TMC3    O110521   4.028   1.525  14.778  0.3024 -0.0138 -0.3735
  711TMC3    O210522   3.770   1.875  15.123 -0.0095  0.2063 -0.1457
  712MPD2     C10523   0.736   2.393  13.506  0.3961 -0.2224 -0.8573
  712MPD2    C110524   0.645   2.417  13.602 -0.2295 -0.4386  0.0279
  712MPD2    C210525   0.663   2.528  13.690  0.0506 -0.3601  0.4251
  712MPD2    C310526   0.759   2.622  13.662 -0.6010  0.9074 -0.3216
  712MPD2    C410527   0.852   2.600  13.567 -0.7539 -0.1016 -0.4740
  712MPD2    C510528   0.832   2.492  13.485 -0.1459 -0.3751  0.1546
  712MPD2     H10529   0.599   2.537  13.777 -0.4961 -1.2650  0.1182
  712MPD2    H110530   0.936   2.666  13.545 -0.6721  0.0191  0.1751
  712MPD2    H210531   0.734   2.310  13.435  1.4742 -1.6273  0.7500
  712MPD2    H310532   0.896   2.475  13.399  0.6100 -1.4346  0.9254
  712MPD2     N10533   0.782   2.738  13.741 -0.2441 -0.4246  0.4989
  712MPD2    H510534   0.861   2.794  13.709 -2.1178  1.4337 -0.8643
  712MPD2    N110535   0.535   2.322  13.619  0.2101  0.0343  0.6056
  712MPD2    H710536   0.534   2.248  13.549  0.0350  1.4140 -0.8552
  713TMC3    C110537   0.717   2.920  13.866 -0.8050  0.5705 -0.3858
  713TMC3    C210538   0.854   2.949  13.850  0.2325  0.6651 -0.0904
  713TMC3    C310539   0.886   3.082  13.841 -0.4546 -0.1487 -0.0061
  713TMC3    C410540   0.625   3.015  13.875  0.1931  0.8025 -0.1339
  713TMC3    C510541   0.659   3.147  13.860  0.5631 -0.0262 -0.4586
  713TMC3    C610542   0.790   3.177  13.847  0.1488  0.2886  0.1223
  713TMC3     C10543   0.683   2.790  13.819  0.0290  0.7602 -0.2629
  713TMC3     O10544   0.570   2.756  13.837 -0.1142  0.1388 -0.2617
  713TMC3     H10545   0.930   2.877  13.880 -0.2434  0.5542  0.8597
  713TMC3    H110546   0.522   2.990  13.897  0.5123  0.9407  1.4930
  713TMC3    H210547   0.817   3.281  13.862  0.6108 -0.1823  2.5105
  713TMC3    C710548   0.571   3.250  13.907 -0.0478 -0.1403 -0.3603
  713TMC3    C810549   0.996   3.114  13.756  0.8501 -0.6367  0.2584
  713TMC3    O110550   0.616   3.344  13.970 -0.0880  0.0323  0.2152
  713TMC3    O210551   0.991   3.216  13.688  0.2102 -0.3779 -0.3251
  714MPD2     C10552   2.321   1.232   1.700  0.0413  0.6807 -0.4817
  714MPD2    C110553   2.370   1.158   1.591 -0.0016  0.7714  0.2416
  714MPD2    C210554   2.341   1.208   1.464 -0.0438 -1.0853  0.2630
  714MPD2    C310555   2.275   1.326   1.447  0.3589 -0.9244 -0.2037
  714MPD2    C410556   2.231   1.398   1.558 -0.6567  0.0394 -0.0795
  714MPD2    C510557   2.253   1.349   1.682 -0.3075 -0.0330  0.3271
  714MPD2     H10558   2.380   1.162   1.375 -0.3064 -1.4910  0.3594
  714MPD2    H110559   2.192   1.499   1.552 -0.1263  0.2519  0.1179
  714MPD2    H210560   2.346   1.195   1.799  1.2231 -1.0831 -1.4278
  714MPD2    H310561   2.229   1.407   1.770  2.4277 -1.1219  1.7796
  714MPD2     N10562   2.268   1.376   1.314  0.2637 -0.2208  0.3244
  714MPD2    H510563   2.310   1.318   1.242 -2.2363 -1.6669  0.0126
  714MPD2    N110564   2.444   1.040   1.612  0.3761  0.1446  0.2964
  714MPD2    H710565   2.460   1.012   1.708  2.4564  0.1976 -0.0226
  715TMC3    C110566   2.632   0.893   1.554 -0.2869  0.3091  0.1301
  715TMC3    C210567   2.693   0.814   1.458 -0.0490  0.1227 -0.3828
  715TMC3    C310568   2.817   0.762   1.470 -0.0102 -0.1692 -0.6017
  715TMC3    C410569   2.699   0.923   1.668  0.1922 -0.4938  0.1019
  715TMC3    C510570   2.828   0.865   1.681  0.2249  0.3270 -0.6413
  715TMC3    C610571   2.888   0.788   1.589 -0.2902 -0.4090 -0.1618
  715TMC3     C10572   2.504   0.959   1.517  0.5211 -0.4249  0.3431
  715TMC3     O10573   2.470   0.944   1.401  0.8418 -0.3553 -0.1714
  715TMC3     H10574   2.640   0.787   1.368 -1.1765  0.0052  0.3255
  715TMC3    H110575   2.660   1.002   1.730  1.5016 -0.1686  0.4931
  715TMC3    H210576   2.985   0.745   1.606 -1.5064 -2.8094  0.6617
  715TMC3    C710577   2.910   0.915   1.792  0.5027  0.4260  0.1304
  715TMC3    C810578   2.878   0.715   1.348  1.1024 -0.0919  0.1968
  715TMC3    O110579   3.032   0.909   1.784 -0.2697 -0.5117  0.8883
  715TMC3    O210580   2.805   0.674   1.263  0.4899 -1.0446  0.1374
  716MPD2     C10581   2.970   3.785   9.888  0.2087 -0.3078 -0.3093
  716MPD2    C110582   2.968   3.852   9.770 -0.0919  1.0511 -0.3366
  716MPD2    C210583   3.022   3.793   9.656 -0.0956 -0.4912  0.1147
  716MPD2    C310584   3.089   3.672   9.656  0.1527 -0.2511  0.1661
  716MPD2    C410585   3.082   3.601   9.779 -0.6602 -0.3427 -0.4218
  716MPD2    C510586   3.025   3.662   9.893 -0.0007 -0.2829 -0.1219
  716MPD2     H10587   3.012   3.848   9.563  3.2936 -0.3889 -0.1881
  716MPD2    H110588   3.111   3.497   9.790 -0.0200 -0.2398 -1.1530
  716MPD2    H210589   2.919   3.822   9.977  0.9799  1.5397 -0.6324
  716MPD2    H310590   3.025   3.602   9.984  0.0973 -0.4021 -0.2006
  716MPD2     N10591   3.132   3.625   9.533  0.2810 -0.6044  0.4218
  716MPD2    H510592   3.093   3.682   9.459 -0.1509  0.4916  1.4996
  716MPD2    N110593   2.920   3.981   9.785 -0.1593 -0.8438  0.6109
  716MPD2    H710594   2.862   4.002   9.866 -0.4534 -0.8219  0.3929
  717TMC3    C110595   3.195   3.468   9.369 -0.5074  0.2420  0.6891
  717TMC3    C210596   3.190   3.560   9.264  0.5973  0.3924  0.0773
  717TMC3    C310597   3.200   3.504   9.136  0.4382 -0.2382  0.4727
  717TMC3    C410598   3.200   3.332   9.351  0.2637  0.2801  0.4175
  717TMC3    C510599   3.206   3.290   9.220  0.1530 -0.8000  0.0721
  717TMC3    C610600   3.208   3.369   9.113 -0.1295  0.3747 -0.5868
  717TMC3     C10601   3.205   3.508   9.512 -0.0442  0.0524  0.3669
  717TMC3     O10602   3.248   3.425   9.594  0.1568 -0.2553 -0.1246
  717TMC3     H10603   3.174   3.666   9.278 -2.0431  0.0777 -0.6728
  717TMC3    H110604   3.176   3.268   9.435  1.2256 -1.2617 -0.4726
  717TMC3    H210605   3.209   3.328   9.013  1.8733  2.1419 -1.2866
  717TMC3    C710606   3.178   3.146   9.181  0.4034 -0.0049  0.2887
  717TMC3    C810607   3.159   3.594   9.029  0.1352  0.1575 -0.4904
  717TMC3    O110608   3.117   3.134   9.078  0.3575  0.1002  0.2401
  717TMC3    O210609   3.144   3.713   9.055 -0.1628  0.5035  0.4012
  718MPD2     C10610   2.216   2.901  12.995  0.4319  0.0986 -0.0045
  718MPD2    C110611   2.202   2.941  12.863  0.4108  0.2956 -0.3768
  718MPD2    C210612   2.106   2.869  12.791  0.2198 -0.4835 -0.2633
  718MPD2    C310613   2.023   2.772  12.846  0.7499  0.2226  0.6209
  718MPD2    C410614   2.031   2.742  12.976 -0.4536  0.1798 -1.0024
  718MPD2    C510615   2.130   2.816  13.042  0.2050 -0.0422 -0.0097
  718MPD2     H10616   2.075   2.909  12.695 -0.8145  1.0296  0.7045
  718MPD2    H110617   1.975   2.666  13.029  0.6094 -0.3533 -0.6280
  718MPD2    H210618   2.277   2.958  13.064  2.0778 -1.0613 -0.4938
  718MPD2    H310619   2.143   2.802  13.149 -0.5187 -0.2133  0.0602
  718MPD2     N10620   1.942   2.710  12.755 -0.6095 -0.2745 -0.1991
  718MPD2    H510621   1.964   2.725  12.657  0.4261  1.3690  0.2812
  718MPD2    N110622   2.272   3.060  12.816 -0.4793  0.2659  0.1263
  718MPD2    H710623   2.330   3.117  12.877 -1.0281  0.1790  0.7358
  719TMC3    C110624   2.295   3.256  12.694 -0.5396  0.0705 -0.1474
  719TMC3    C210625   2.184   3.327  12.667  0.0974 -0.1935  0.1075
  719TMC3    C310626   2.192   3.417  12.570 -0.2033  0.4317  0.2391
  719TMC3    C410627   2.411   3.294  12.648 -0.0635 -0.0306 -0.8422
  719TMC3    C510628   2.414   3.402  12.570  0.1807  0.7937 -0.3190
  719TMC3    C610629   2.307   3.476  12.525  0.4044  0.2031  0.9055
  719TMC3     C10630   2.261   3.117  12.688  0.4179 -0.1179 -0.3618
  719TMC3     O10631   2.178   3.086  12.602  0.0182  0.0657  0.4336
  719TMC3     H10632   2.086   3.289  12.694  0.4475 -3.2654 -2.8117
  719TMC3    H110633   2.500   3.241  12.677  0.9519  2.1291  0.0079
  719TMC3    H210634   2.305   3.549  12.445  0.6239  1.6449  2.1992
  719TMC3    C710635   2.547   3.447  12.541 -0.2547 -0.1892 -0.2217
  719TMC3    C810636   2.080   3.423  12.482 -0.3814  0.8871  0.4236
  719TMC3    O110637   2.631   3.354  12.550 -0.6473  0.0399  0.1584
  719TMC3    O210638   2.081   3.514  12.401 -0.6473  0.2528 -0.0236
  720MPD2     C10639   0.649   4.262  13.228  0.1672  0.3360 -0.4027
  720MPD2    C110640   0.578   4.335  13.317 -0.5265 -0.5760  0.3031
  720MPD2    C210641   0.639   4.358  13.440 -0.1592 -0.3060 -0.5721
  720MPD2    C310642   0.759   4.291  13.471  0.5828 -0.6473  0.5073
  720MPD2    C410643   0.817   4.214  13.378 -0.3784 -0.6388 -0.3798
  720MPD2    C510644   0.761   4.190  13.259 -0.1072  0.6764 -0.1462
  720MPD2     H10645   0.592   4.418  13.518 -1.2137  1.3081 -2.4434
  720MPD2    H110646   0.915   4.170  13.397 -0.0336  0.4629  0.4133
  720MPD2    H210647   0.612   4.247  13.128 -0.8066 -2.4675  0.3925
  720MPD2    H310648   0.811   4.136  13.179  2.2465  0.2534  1.6146
  720MPD2     N10649   0.824   4.303  13.599  0.2157  0.0349  0.3441
  720MPD2    H510650   0.915   4.259  13.605 -0.7157 -1.9475  0.0166
  720MPD2    N110651   0.450   4.392  13.292  0.3269  0.1799 -0.6044
  720MPD2    H710652   0.402   4.444  13.365  0.5045 -0.0941 -0.2938
  721TMC3    C110653   0.865   4.367  13.827 -0.1518 -0.0687 -0.5881
  721TMC3    C210654   0.815   4.367  13.948  0.0708 -0.1900 -0.6161
  721TMC3    C310655   0.891   4.382  14.059  0.2333 -0.4055 -0.1380
  721TMC3    C410656   1.001   4.377  13.812  0.1925 -0.1887 -0.7765
  721TMC3    C510657   1.082   4.381  13.928 -0.1819  1.0492  0.1529
  721TMC3    C610658   1.030   4.383  14.055 -0.3449 -0.7064  0.0136
  721TMC3     C10659   0.767   4.368  13.710  0.0028 -0.0374  0.0315
  721TMC3     O10660   0.657   4.418  13.730 -0.0957  0.6043  0.0180
  721TMC3     H10661   0.709   4.368  13.967  0.0580  0.0863 -0.7027
  721TMC3    H110662   1.046   4.368  13.713 -0.1773 -0.3126 -0.9361
  721TMC3    H210663   1.092   4.407  14.141  0.3917  2.1351 -1.3161
  721TMC3    C710664   1.222   4.360  13.904 -0.2559 -0.2451  0.0223
  721TMC3    C810665   0.840   4.426  14.187  0.1188  0.6728 -0.4492
  721TMC3    O110666   1.266   4.389  13.796 -0.2287 -0.2893  0.1963
  721TMC3    O210667   0.914   4.415  14.282 -0.3915  0.1742  0.1556
  722MPD2     C10668   4.341   2.982  13.200  0.3661 -0.2868 -0.5315
  722MPD2    C110669   4.324   3.115  13.170  0.0580  0.7275  0.4648
  722MPD2    C210670   4.259   3.157  13.063  0.1397  0.1251  0.4228
  722MPD2    C310671   4.193   3.070  12.979 -0.1498  0.1128 -0.2810
  722MPD2    C410672   4.203   2.939  13.012 -0.7177 -0.8483  0.0073
  722MPD2    C510673   4.273   2.896  13.119  0.3185 -0.2117  0.3832
  722MPD2     H10674   4.279   3.261  13.040  2.4069 -0.2141  0.8709
  722MPD2    H110675   4.161   2.859  12.952  0.8581 -2.2549  0.7661
  722MPD2    H210676   4.426   2.950  13.260 -0.4516 -1.1145  0.1896
  722MPD2    H310677   4.294   2.791  13.135  3.1464  0.2961 -0.0895
  722MPD2     N10678   4.119   3.116  12.866 -0.0903  0.5755 -0.1832
  722MPD2    H510679   4.129   3.213  12.835 -1.8438  0.8983  0.2746
  722MPD2    N110680   4.396   3.211  13.238 -0.4130  0.2314 -0.5389
  722MPD2    H710681   4.416   3.295  13.184  1.9987 -0.5102 -0.7919
  723TMC3    C110682   4.020   3.065  12.655 -0.6703 -0.7310  0.2028
  723TMC3    C210683   4.021   2.955  12.570 -0.3732 -0.0758  0.0768
  723TMC3    C310684   3.973   2.981  12.446  0.8103 -0.5592  0.5217
  723TMC3    C410685   3.975   3.190  12.625  0.4242 -0.7433  0.3852
  723TMC3    C510686   3.926   3.205  12.496 -0.2015  0.0532 -0.4271
  723TMC3    C610687   3.923   3.103  12.404  0.0708  0.2792  0.3673
  723TMC3     C10688   4.045   3.032  12.792  0.0025 -0.7244  0.1950
  723TMC3     O10689   3.990   2.928  12.829  0.1899 -0.1649 -0.2827
  723TMC3     H10690   4.074   2.864  12.596  1.8809  1.7022  1.8430
  723TMC3    H110691   3.958   3.261  12.705 -3.5543 -0.2395 -0.9134
  723TMC3    H210692   3.869   3.113  12.311  0.8346 -2.4341 -0.3896
  723TMC3    C710693   3.885   3.338  12.443 -0.7054  0.1582  0.2062
  723TMC3    C810694   3.964   2.873  12.352  0.2201  0.0914 -0.4570
  723TMC3    O110695   3.874   3.350  12.321 -0.0199 -0.2948  0.4928
  723TMC3    O210696   3.962   2.896  12.232 -0.5117  0.0762 -0.4281
  724TMC3    C110697   3.834   2.477   8.765 -0.6025  1.0925  0.3122
  724TMC3    C210698   3.860   2.613   8.776  0.5585  0.4929  0.2770
  724TMC3    C310699   3.975   2.654   8.832 -0.2851 -0.3820  0.2780
  724TMC3    C410700   3.929   2.386   8.812 -0.0028 -0.0881  0.7104
  724TMC3    C510701   4.044   2.433   8.873  0.0899  0.1725 -0.1701
  724TMC3    C610702   4.078   2.568   8.873 -1.3438  0.3993  0.2839
  724TMC3     C10703   3.693   2.439   8.746  0.4826  0.4085  0.0919
  724TMC3     O10704   3.618   2.528   8.777 -0.2242  0.5741  0.4221
  724TMC3     H10705   3.793   2.680   8.723  0.6368 -0.1713 -0.6579
  724TMC3    H110706   3.897   2.282   8.812 -1.0803  0.2462 -1.2217
  724TMC3    H210707   4.171   2.596   8.922 -2.2525 -1.1167  2.8813
  724TMC3    C710708   4.154   2.339   8.911 -0.1460  0.7456  0.4787
  724TMC3    C810709   3.952   2.786   8.893  0.8681  0.2030 -0.2832
  724TMC3    O110710   4.258   2.383   8.952 -0.3938  0.9906 -0.1608
  724TMC3    O210711   3.852   2.846   8.859 -0.1427  0.4929  0.2261
  725TMC3    C110712   1.563   0.264  12.639  0.1292 -0.2333 -0.1477
  725TMC3    C210713   1.438   0.314  12.615 -0.3500 -0.5841 -0.6247
  725TMC3    C310714   1.360   0.264  12.513  0.0449 -0.3824 -0.0289
  725TMC3    C410715   1.598   0.145  12.574  0.0849  0.5353  0.1206
  725TMC3    C510716   1.512   0.091  12.483 -0.1329 -0.2069 -0.2185
  725TMC3    C610717   1.399   0.155  12.440  0.5371 -0.6255  0.0243
  725TMC3     C10718   1.657   0.349  12.709 -0.2917  0.3309  0.4959
  725TMC3     O10719   1.612   0.447  12.770 -0.1330  0.2011  0.1662
  725TMC3     H10720   1.417   0.415  12.648  1.0703 -0.6249  0.3951
  725TMC3    H110721   1.675   0.086  12.623  0.3937 -0.5477 -1.6307
  725TMC3    H210722   1.321   0.113  12.379  0.2524  0.3252 -0.2703
  725TMC3    C710723   1.537   4.678  12.448  0.0814 -0.2865 -0.1771
  725TMC3    C810724   1.234   0.337  12.497  0.0341 -0.5395  0.5600
  725TMC3    O110725   1.481   4.643  12.344 -0.0371 -0.5898  0.0009
  725TMC3    O210726   1.187   0.404  12.588 -0.0536  0.1506  0.1159
  726MPD2     C10727   4.031   1.189  10.672 -0.0938 -0.5375  0.0165
  726MPD2    C110728   3.976   1.292  10.594  0.0544 -0.2607  0.1947
  726MPD2    C210729   3.862   1.360  10.630 -0.1481 -0.0766  0.0905
  726MPD2    C310730   3.793   1.331  10.750 -1.0788  0.7988  0.1026
  726MPD2    C410731   3.846   1.222  10.816 -1.1680 -0.0799 -0.1617
  726MPD2    C510732   3.956   1.147  10.783  0.4414  0.0496  0.9638
  726MPD2     H10733   3.828   1.448  10.576  0.9104  0.6636  0.6394
  726MPD2    H110734   3.792   1.192  10.905  0.5827  1.2600  1.3539
  726MPD2    H210735   4.127   1.143  10.652 -0.3300 -1.4250  0.9081
  726MPD2    H310736   3.993   1.067  10.846  0.8642 -0.1867  0.4132
  726MPD2     N10737   3.675   1.391  10.795  0.2643 -0.4735  0.3672
  726MPD2    H510738   3.664   1.385  10.896  0.5347  1.7330  0.5265
  726MPD2    N110739   4.045   1.341  10.482 -0.1428  0.1127  0.2086
  726MPD2    H710740   4.006   1.415  10.425  1.7538  0.3156 -0.8253
  727TMC3    C110741   4.237   1.387  10.345 -0.5598 -0.2301  0.1778
  727TMC3    C210742   4.372   1.378  10.331  0.1206 -0.0652 -0.2704
  727TMC3    C310743   4.428   1.451  10.232 -0.1808 -0.4608  0.0374
  727TMC3    C410744   4.164   1.468  10.267 -0.0791 -0.5805 -0.3111
  727TMC3    C510745   4.230   1.546  10.174  0.2433 -0.5199  0.2469
  727TMC3    C610746   4.364   1.548  10.163  0.0861 -0.0647 -0.0925
  727TMC3     C10747   4.178   1.320  10.461 -0.0571 -0.6511  0.7272
  727TMC3     O10748   4.259   1.249  10.507  0.7085 -0.4052 -0.3324
  727TMC3     H10749   4.431   1.303  10.384  0.3115  1.0982  1.1444
  727TMC3    H110750   4.057   1.482  10.277 -0.0879 -1.7858  1.2303
  727TMC3    H210751   4.411   1.601  10.081  1.9148 -4.3007 -1.8161
  727TMC3    C710752   4.147   1.623  10.085  0.1257 -0.3277 -0.3785
  727TMC3    C810753   4.573   1.435  10.204 -0.0462 -0.1139 -0.2473
  727TMC3    O110754   4.031   1.583  10.074  0.3262 -0.8743  0.1754
  727TMC3    O210755   4.622   1.528  10.138  0.2559 -0.0703  0.0225
  728TMC3    C110756   2.698   0.309  15.373 -0.0805 -0.0278  0.6589
  728TMC3    C210757   2.708   0.195  15.455 -0.1206  0.3086  0.1690
  728TMC3    C310758   2.825   0.174  15.528 -0.4382 -0.0882  0.3732
  728TMC3    C410759   2.801   0.396  15.368 -0.0263  0.1815  0.5094
  728TMC3    C510760   2.913   0.372  15.444 -0.4057 -0.0287  0.8965
  728TMC3    C610761   2.928   0.265  15.522 -0.4073 -1.1445 -0.1494
  728TMC3     C10762   2.578   0.342  15.298 -0.1683  1.1385  0.3182
  728TMC3     O10763   2.589   0.422  15.206 -0.3594  0.3108  0.3926
  728TMC3     H10764   2.632   0.118  15.451 -1.3027  1.5294 -1.3981
  728TMC3    H110765   2.787   0.488  15.312  2.6585  0.2480 -0.0421
  728TMC3    H210766   3.022   0.256  15.574  0.2180 -1.0006 -1.2601
  728TMC3    C710767   3.015   0.478  15.461 -0.2830 -0.1928  0.5689
  728TMC3    C810768   2.823   0.053  15.604 -0.4566 -0.2145  0.6315
  728TMC3    O110769   3.089   0.467  15.557  0.0072  0.4221 -0.3061
  728TMC3    O210770   2.715   4.719  15.616 -0.2401  0.6717 -0.4897
  729MPD2     C10771   0.010   1.657  16.459 -0.0624 -0.2268 -0.2678
  729MPD2    C110772   0.090   1.604  16.556  0.0525 -0.2587 -0.1535
  729MPD2    C210773   0.034   1.603  16.686  0.0385 -0.1199  0.1586
  729MPD2    C310774   4.640   1.657  16.717 -0.3382 -0.5064  0.7032
  729MPD2    C410775   4.567   1.711  16.610 -0.3382 -0.4936  0.7011
  729MPD2    C510776   4.621   1.719  16.486 -0.1920  0.9697 -0.1076
  729MPD2     H10777   0.094   1.562  16.766  2.4032 -0.1916 -1.6286
  729MPD2    H110778   4.467   1.749  16.626 -1.2455 -2.0098 -1.3258
  729MPD2    H210779   0.044   1.677  16.359  0.7963  0.2672  0.1248
  729MPD2    H310780   4.562   1.767  16.408  0.4715  1.7225 -0.1439
  729MPD2     N10781   4.589   1.659  16.847 -0.1550  0.1600  0.4319
  729MPD2    H510782   4.504   1.710  16.869  0.8717  1.5645  1.1709
  729MPD2    N110783   0.217   1.556  16.514 -0.0112 -0.5832 -0.1912
  729MPD2    H710784   0.232   1.543  16.415  1.1280 -0.5604 -0.0277
  730TMC3    C110785   4.584   1.657  17.087  0.2672  0.0849 -0.3819
  730TMC3    C210786   4.628   1.590  17.200  0.5887  0.0916 -0.3240
  730TMC3    C310787   4.658   1.668  17.313  0.3022  0.0379 -0.0341
  730TMC3    C410788   4.553   1.791  17.091 -0.3194 -0.1083  0.2576
  730TMC3    C510789   4.600   1.863  17.199 -1.2784 -0.0529  0.2374
  730TMC3    C610790   4.638   1.805  17.319  0.4006  0.5392 -0.5344
  730TMC3     C10791   4.648   1.606  16.964 -0.8870 -0.2761  0.2518
  730TMC3     O10792   0.005   1.522  16.986  0.1870  0.1734  0.5167
  730TMC3     H10793   4.668   1.489  17.201  1.3099  0.3724 -1.6094
  730TMC3    H110794   4.530   1.848  17.002  0.1066 -0.7170 -0.2489
  730TMC3    H210795   4.647   1.853  17.416 -1.2072  2.5090 -1.3486
  730TMC3    C710796   4.684   1.980  17.156 -0.1244  0.2757 -0.0461
  730TMC3    C810797   4.684   1.589  17.428 -0.0503 -0.3435 -0.2587
  730TMC3    O110798   4.693   2.004  17.038  0.1785 -0.0591  0.3126
  730TMC3    O210799   4.654   1.474  17.423 -0.2001  0.6485  0.6668
  731MPD2     C10800   0.256   4.499  11.641  0.0303  0.6743  0.4628
  731MPD2    C110801   0.377   4.494  11.574  0.3867 -0.1122  0.3370
  731MPD2    C210802   0.483   4.552  11.636  0.0328  0.2908 -0.4960
  731MPD2    C310803   0.489   4.605  11.765  0.2952 -0.2371 -0.7017
  731MPD2    C410804   0.367   4.602  11.834 -0.0237  0.7626 -0.4528
  731MPD2    C510805   0.254   4.560  11.765 -0.9514 -0.2496  0.4120
  731MPD2     H10806   0.580   4.548  11.586 -0.4520 -1.8319 -1.2636
  731MPD2    H110807   0.349   4.623  11.939  1.6062  0.0066 -0.0366
  731MPD2    H210808   0.164   4.471  11.591  0.6266  0.0104 -0.2607
  731MPD2    H310809   0.165   4.565  11.827 -1.2670  0.2272 -0.0831
  731MPD2     N10810   0.603   4.664  11.817  0.5230 -0.1122 -0.0285
  731MPD2    H510811   0.683   4.667  11.754  1.7199  3.2104  1.6662
  731MPD2    N110812   0.393   4.436  11.441  0.7058 -0.0126 -0.0487
  731MPD2    H710813   0.320   4.368  11.423 -1.4022  2.7225 -1.6794
  732TMC3    C110814   0.538   4.299  11.317 -1.0867 -0.2316 -0.0783
  732TMC3    C210815   0.434   4.222  11.264  0.2700  0.6329  0.3816
  732TMC3    C310816   0.472   4.109  11.193 -0.1602 -0.6899 -0.1161
  732TMC3    C410817   0.671   4.263  11.321  0.1052  0.3802 -0.4632
  732TMC3    C510818   0.703   4.153  11.249  0.4697 -0.0591 -0.2863
  732TMC3    C610819   0.608   4.083  11.173  0.9740  0.4670 -0.9071
  732TMC3     C10820   0.513   4.431  11.372  0.7093  0.1047  0.1911
  732TMC3     O10821   0.615   4.501  11.374  0.4403  0.0032  0.2779
  732TMC3     H10822   0.331   4.256  11.258 -0.0920 -0.8166 -1.8937
  732TMC3    H110823   0.749   4.320  11.371  0.5019 -0.4510 -0.1204
  732TMC3    H210824   0.644   3.990  11.131 -2.5677 -1.4028  0.2066
  732TMC3    C710825   0.829   4.087  11.275 -0.3102 -0.1997  0.5538
  732TMC3    C810826   0.383   4.012  11.138 -0.6939 -0.1327 -0.2779
  732TMC3    O110827   0.865   4.001  11.190 -0.0669 -0.9025  0.7007
  732TMC3    O210828   0.420   3.939  11.050  0.0434  0.5332 -0.7964
  733TMC3    C110829   1.551   2.534  12.548 -0.6964  0.2525 -0.3638
  733TMC3    C210830   1.652   2.523  12.647  0.2411 -0.1602  0.4394
  733TMC3    C310831   1.748   2.627  12.649 -0.1360  1.1138  0.2209
  733TMC3    C410832   1.557   2.637  12.460 -0.0611 -0.1953 -0.6164
  733TMC3    C510833   1.663   2.724  12.458 -0.0877 -0.4288  0.5537
  733TMC3    C610834   1.759   2.717  12.551 -0.1659 -0.1248 -0.5268
  733TMC3     C10835   1.418   2.498  12.589 -0.2222  0.2872  0.1470
  733TMC3     O10836   1.334   2.577  12.546  0.1790  0.3141  0.0535
  733TMC3     H10837   1.644   2.466  12.738  2.0523  0.4916  0.9877
  733TMC3    H110838   1.478   2.650  12.387 -1.4929  1.0052  1.1478
  733TMC3    H210839   1.838   2.791  12.552  0.5691 -0.9344  1.3021
  733TMC3    C710840   1.654   2.842  12.365 -0.8655 -0.2282  0.2194
  733TMC3    C810841   1.825   2.639  12.771 -0.4482  0.1119 -1.0398
  733TMC3    O110842   1.542   2.878  12.328  0.1647 -0.0866 -0.5139
  733TMC3    O210843   1.779   2.599  12.877 -1.0750 -0.1465 -0.0151
  734MPD2     C10844   3.688   0.766  11.932  0.0395 -0.7991 -0.2570
  734MPD2    C110845   3.577   0.702  11.890  0.0648 -0.6794  0.2478
  734MPD2    C210846   3.531   0.742  11.765  0.2894 -0.7041 -0.4925
  734MPD2    C310847   3.600   0.836  11.687  0.5385  0.1411 -0.0849
  734MPD2    C410848   3.713   0.901  11.740  0.2407 -0.0942 -0.1710
  734MPD2    C510849   3.751   0.865  11.865  0.2864  0.9962 -0.0243
  734MPD2     H10850   3.443   0.701  11.716  0.6705 -1.9658 -0.1071
  734MPD2    H110851   3.783   0.974  11.700 -0.5627  1.4668  1.2742
  734MPD2    H210852   3.731   0.737  12.027  1.6556  1.8312 -0.1911
  734MPD2    H310853   3.840   0.912  11.905 -0.4530  0.0469  2.7317
  734MPD2     N10854   3.561   0.850  11.551 -0.4717 -0.0872  0.5659
  734MPD2    H510855   3.487   0.788  11.518 -0.2982  0.3950 -0.7419
  734MPD2    N110856   3.514   0.593  11.964  0.4590  0.1172  0.4891
  734MPD2    H710857   3.554   0.588  12.057 -0.8706 -1.6165  0.9716
  735TMC3    C110858   3.372   0.400  11.994 -0.3617 -0.0438 -0.1061
  735TMC3    C210859   3.242   0.356  11.977 -0.0230  0.0081 -0.3570
  735TMC3    C310860   3.212   0.224  11.935  0.3786 -0.2125  0.1118
  735TMC3    C410861   3.479   0.312  11.984  0.7374  0.3756 -0.4723
  735TMC3    C510862   3.439   0.180  11.959  0.8263  0.2137  0.2745
  735TMC3    C610863   3.315   0.133  11.938  0.7025 -0.9437  0.0655
  735TMC3     C10864   3.400   0.527  11.920  0.3091  0.3075  0.3177
  735TMC3     O10865   3.335   0.541  11.821  0.5862  0.4910 -0.0568
  735TMC3     H10866   3.165   0.427  11.949  0.7805  1.3341  0.8483
  735TMC3    H110867   3.581   0.349  11.993  1.0577 -0.5977 -0.0124
  735TMC3    H210868   3.289   0.040  11.888 -0.5970  0.0089 -1.0309
  735TMC3    C710869   3.546   0.104  11.918 -0.5951 -0.2453  0.1207
  735TMC3    C810870   3.139   0.212  11.817 -0.2427  0.5078  0.1095
  735TMC3    O110871   3.648   0.167  11.885  0.3964 -0.7720  0.2098
  735TMC3    O210872   3.084   0.105  11.798  0.0019  0.3194 -0.5641
  736MPD2     C10873   3.577   4.467  11.955 -0.2603 -0.0919 -0.2356
  736MPD2    C110874   3.613   4.590  11.903 -0.0938 -0.4078 -0.1424
  736MPD2    C210875   3.733   4.596  11.830  0.0898 -0.8531 -0.2438
  736MPD2    C310876   3.821   4.493  11.827  0.2114  0.2819  0.3748
  736MPD2    C410877   3.782   4.370  11.875  0.5633 -0.3063  0.1632
  736MPD2    C510878   3.656   4.354  11.937 -0.2983  0.0922 -0.1246
  736MPD2     H10879   3.760   4.690  11.784 -1.1040 -1.2533 -1.7800
  736MPD2    H110880   3.840   4.279  11.861 -0.4887 -0.8703 -0.5300
  736MPD2    H210881   3.491   4.460  12.021  2.3415 -3.4821  2.8813
  736MPD2    H310882   3.626   4.263  11.988  0.7109  1.5876  3.1803
  736MPD2     N10883   3.941   4.497  11.755 -0.0311 -0.3134  0.6796
  736MPD2    H510884   4.005   4.418  11.758  1.4149  0.7894 -0.9273
  736MPD2    N110885   3.527   4.697  11.934 -0.0731 -0.1154 -0.1911
  736MPD2    H710886   3.435   4.669  11.969 -0.1831  0.5695  0.0600
  737TMC3    C110887   4.114   4.568  11.619 -0.1509  0.1359  0.3433
  737TMC3    C210888   4.191   4.675  11.582  0.5650  0.0063 -0.3619
  737TMC3    C310889   4.270   4.657  11.474 -0.1190 -0.4260  0.0816
  737TMC3    C410890   4.131   4.442  11.565 -0.2658  1.0581  0.7741
  737TMC3    C510891   4.225   4.435  11.470  0.1176 -0.0581 -0.2419
  737TMC3    C610892   4.308   4.535  11.423 -0.0649 -0.0133 -0.5483
  737TMC3     C10893   3.989   4.602  11.684  0.3959  0.2007  0.1973
  737TMC3     O10894   3.939   4.714  11.668  0.0850  0.1401 -0.0254
  737TMC3     H10895   4.151   0.044  11.612 -0.1608 -0.2525 -0.4810
  737TMC3    H110896   4.051   4.370  11.578  0.4968  0.4820  2.4010
  737TMC3    H210897   4.387   4.522  11.350  0.9385  1.4847  0.2742
  737TMC3    C710898   4.245   4.299  11.410 -0.3236  0.6185  0.8344
  737TMC3    C810899   4.322   0.046  11.405 -0.4766  0.3793 -0.4101
  737TMC3    O110900   4.181   4.204  11.461  0.0392  0.0453 -0.0417
  737TMC3    O210901   4.305   0.150  11.463 -0.0266 -0.6724 -0.6809
  738MPD2     C10902   3.650   3.596  14.966 -0.4923 -0.0565 -0.4498
  738MPD2    C110903   3.755   3.606  15.056  0.2417 -0.2088 -0.6136
  738MPD2    C210904   3.863   3.686  15.024  0.2179 -0.1168 -0.0329
  738MPD2    C310905   3.876   3.737  14.895  0.4144 -0.1706 -0.3776
  738MPD2    C410906   3.780   3.699  14.798  0.0014 -0.4487 -0.5013
  738MPD2    C510907   3.664   3.632  14.838 -0.4188 -0.0971  0.4548
  738MPD2     H10908   3.938   3.693  15.101 -0.4812 -0.9047  0.7196
  738MPD2    H110909   3.794   3.732  14.695  1.2317 -0.9045 -0.4765
  738MPD2    H210910   3.565   3.531  14.988 -0.5068 -1.0925 -3.6030
  738MPD2    H310911   3.582   3.609  14.770  0.4115 -0.2648 -0.4802
  738MPD2     N10912   3.994   3.814  14.856 -0.1834 -0.3324  0.1432
  738MPD2    H510913   4.015   3.823  14.757 -2.2489  5.4160  0.2297
  738MPD2    N110914   3.746   3.542  15.186 -0.2274 -0.3019 -0.3070
  738MPD2    H710915   3.816   3.546  15.259 -0.9495  1.2770  0.2914
  739TMC3    C110916   4.195   3.939  14.874  0.4226  0.2642  0.4499
  739TMC3    C210917   4.261   3.867  14.769 -0.0112  0.7333 -0.0369
  739TMC3    C310918   4.388   3.912  14.739 -0.0935 -0.5933  0.0236
  739TMC3    C410919   4.263   4.039  14.953 -0.1441 -0.8045  0.5550
  739TMC3    C510920   4.386   4.075  14.917 -0.4624 -0.2807  0.2648
  739TMC3    C610921   4.449   4.010  14.820 -0.1053  0.2396 -0.4813
  739TMC3     C10922   4.075   3.878  14.937  1.0338  0.1244 -0.0077
  739TMC3     O10923   4.063   3.885  15.059 -0.3668  0.1226 -0.4337
  739TMC3     H10924   4.207   3.804  14.700  0.7028  3.0522 -2.6916
  739TMC3    H110925   4.213   4.077  15.041  1.5356  1.1911  0.6517
  739TMC3    H210926   4.553   4.034  14.803 -0.1463 -0.7621 -2.1812
  739TMC3    C710927   4.469   4.144  15.019  0.3219  0.1252  0.0636
  739TMC3    C810928   4.437   3.882  14.603 -0.8510  0.1616 -0.5166
  739TMC3    O110929   4.443   4.118  15.133 -0.1918 -0.3262 -0.0793
  739TMC3    O210930   4.372   3.807  14.537 -0.5936 -0.2546  0.1918
  740TMC3    C110931   0.048   0.129  13.944 -0.1347  0.1047  0.4900
  740TMC3    C210932   0.053   0.040  14.052  0.0623 -0.2989 -0.1971
  740TMC3    C310933   0.152   4.665  14.048  0.8298 -0.0598  0.0338
  740TMC3    C410934   0.136   0.115  13.837 -0.1758  0.0776  0.4993
  740TMC3    C510935   0.229   0.018  13.842  0.1684 -0.4560  0.1809
  740TMC3    C610936   0.244   4.656  13.946 -0.7268 -0.0984  0.3589
  740TMC3     C10937   4.640   0.192  13.931  0.1381 -0.1117 -0.2495
  740TMC3     O10938   4.618   0.227  13.816  0.2442 -0.6151  0.3381
  740TMC3     H10939   4.708   0.047  14.132  0.2024  2.4108 -0.3022
  740TMC3    H110940   0.114   0.160  13.740  0.5470  0.1850  0.3828
  740TMC3    H210941   0.332   4.594  13.958  1.9075  3.5697  0.2420
  740TMC3    C710942   0.315   4.711  13.730  0.0887  0.2437 -0.3160
  740TMC3    C810943   0.172   4.579  14.161 -0.2981 -0.6097 -0.1336
  740TMC3    O110944   0.365   4.602  13.731  0.6302  0.0082  0.1336
  740TMC3    O210945   0.234   4.475  14.144  0.5734  0.1395  0.1622
  741TMC3    C110946   4.541   4.320  14.281 -0.3301  0.3513 -0.5106
  741TMC3    C210947   4.476   4.207  14.250  0.1601 -0.2547 -0.2182
  741TMC3    C310948   4.382   4.168  14.342  0.6118 -0.1928  0.0654
  741TMC3    C410949   4.516   4.382  14.403 -0.2125  0.0572  0.0027
  741TMC3    C510950   4.436   4.325  14.495 -1.4394 -0.2184  0.2434
  741TMC3    C610951   4.366   4.215  14.469  0.2026  0.7873  0.4555
  741TMC3     C10952   4.555   4.413  14.173  0.3548 -0.1410 -0.0598
  741TMC3     O10953   4.503   4.527  14.180  0.1386  0.1057  0.4942
  741TMC3     H10954   4.479   4.167  14.149  2.5018  1.0589 -0.6584
  741TMC3    H110955   4.565   4.474  14.435 -0.7451  0.1796  0.4671
  741TMC3    H210956   4.288   4.184  14.538  0.1807 -2.5137 -1.0536
  741TMC3    C710957   4.402   4.384  14.622  0.5314 -0.0161 -0.0545
  741TMC3    C810958   4.266   4.097  14.298 -0.1698 -0.0352 -0.1978
  741TMC3    O110959   4.376   4.294  14.700 -0.4276  0.5052 -0.2294
  741TMC3    O210960   4.199   4.038  14.382  0.3659 -0.3912  0.0373
  742TMC3    C110961   4.042   2.695  15.123 -0.0570 -0.4698 -0.5216
  742TMC3    C210962   3.957   2.687  15.012  0.3505 -0.2075  0.3963
  742TMC3    C310963   4.002   2.612  14.906 -0.3241  0.0405 -0.4733
  742TMC3    C410964   4.154   2.617  15.139  0.4962  0.4768 -0.0685
  742TMC3    C510965   4.188   2.519  15.045 -0.3161 -0.1683 -0.3551
  742TMC3    C610966   4.116   2.532  14.923 -0.7646 -0.2520 -0.0822
  742TMC3     C10967   3.991   2.760  15.237 -0.1789 -0.7891 -0.4863
  742TMC3     O10968   3.872   2.789  15.241 -0.4775 -0.0303 -0.3106
  742TMC3     H10969   3.884   2.766  15.003  1.0126  0.6866  2.8539
  742TMC3    H110970   4.212   2.619  15.231  0.6268  0.8513 -0.1604
  742TMC3    H210971   4.154   2.465  14.847 -1.3219  0.0783 -0.6529
  742TMC3    C710972   4.311   2.440  15.055  0.3085 -0.2087  0.1715
  742TMC3    C810973   3.925   2.583  14.787 -0.6942 -0.4105  0.1437
  742TMC3    O110974   4.355   2.384  14.956  0.0829 -0.1390 -0.5197
  742TMC3    O210975   3.996   2.535  14.701  0.0329 -0.4780 -0.7347
  743MPD2     C10976   2.616   3.486   1.760  0.0029  0.0517  0.7497
  743MPD2    C110977   2.645   3.547   1.643  0.1915  0.7442  0.3802
  743MPD2    C210978   2.781   3.582   1.617  0.0349  0.9336  0.5329
  743MPD2    C310979   2.882   3.536   1.697 -0.0140 -0.6581 -0.1931
  743MPD2    C410980   2.854   3.470   1.817  0.0894  0.2727  0.6152
  743MPD2    C510981   2.718   3.447   1.849  0.4185  0.2707 -0.1613
  743MPD2     H10982   2.816   3.635   1.529  0.9822 -0.9544 -0.2482
  743MPD2    H110983   2.927   3.435   1.889  0.2753 -0.0528  0.2682
  743MPD2    H210984   2.511   3.477   1.785 -0.1968  2.1014  0.6396
  743MPD2    H310985   2.693   3.409   1.947 -0.8535 -1.1887 -1.0602
  743MPD2     N10986   3.017   3.558   1.658 -0.0265 -0.3999 -0.4320
  743MPD2    H510987   3.042   3.588   1.564 -3.5668 -1.1009 -1.5855
  743MPD2    N110988   2.536   3.588   1.560 -0.0085  0.5096 -0.2862
  743MPD2    H710989   2.445   3.550   1.581 -0.0244  0.2384 -0.8292
  744TMC3    C110990   2.416   3.664   1.380  0.2524  0.3580  0.1712
  744TMC3    C210991   2.296   3.667   1.456 -0.0375 -0.1362 -0.5764
  744TMC3    C310992   2.191   3.744   1.411 -0.5762  0.3934 -0.3087
  744TMC3    C410993   2.422   3.724   1.259 -0.4591 -0.6383 -0.0475
  744TMC3    C510994   2.317   3.798   1.217  0.7419  0.2571 -0.6860
  744TMC3    C610995   2.206   3.818   1.295 -0.0095  0.4590 -0.7968
  744TMC3     C10996   2.549   3.646   1.440  0.7591  0.6393 -0.7111
  744TMC3     O10997   2.655   3.663   1.376 -0.2616 -0.0399  0.4101
  744TMC3     H10998   2.276   3.610   1.546 -1.2795  0.6407 -0.3639
  744TMC3    H110999   2.514   3.723   1.202 -0.6353  1.0129 -0.3870
  744TMC3    H211000   2.120   3.875   1.261 -0.2550 -0.4421 -1.6779
  744TMC3    C711001   2.323   3.819   1.080  0.5955  0.1756 -0.2020
  744TMC3    C811002   2.069   3.738   1.489 -0.8337 -0.3463 -0.0242
  744TMC3    O111003   2.435   3.849   1.039 -0.8290 -0.2616 -0.2474
  744TMC3    O211004   2.045   3.634   1.548  0.2678 -0.1489  0.0087
  745TMC3    C111005   0.305   2.293  13.687 -0.7626 -0.1965  0.0999
  745TMC3    C211006   0.218   2.323  13.790 -0.1136  0.0885 -0.6534
  745TMC3    C311007   0.089   2.343  13.757  0.9837 -0.0964 -1.0887
  745TMC3    C411008   0.274   2.307  13.553  0.8095  0.1718 -1.3221
  745TMC3    C511009   0.139   2.318  13.530  0.2663  0.3038  0.1072
  745TMC3    C611010   0.044   2.332  13.629  0.7205 -0.5965 -0.0113
  745TMC3     C11011   0.445   2.334  13.719  0.5999  0.1813 -0.5187
  745TMC3     O11012   0.458   2.374  13.830  0.4354  0.3537  0.2177
  745TMC3     H11013   0.249   2.313  13.894  2.6408 -0.2427 -1.5033
  745TMC3    H111014   0.351   2.275  13.484  0.9447 -0.5877 -0.8202
  745TMC3    H211015   4.666   2.342  13.604  0.8613 -0.9030 -0.7228
  745TMC3    C711016   0.084   2.353  13.395 -0.4303 -0.4729  0.2534
  745TMC3    C811017   0.014   2.412  13.853  0.7149  0.1807  0.6806
  745TMC3    O111018   4.696   2.322  13.373 -0.5072  0.3192  0.7437
  745TMC3    O211019   4.617   2.392  13.858 -0.2484  0.3489  0.5460
  746TMC3    C111020   2.993   4.320  11.061 -0.5019  0.1200 -0.5249
  746TMC3    C211021   3.123   4.342  11.025 -0.4149 -0.4947 -0.1451
  746TMC3    C311022   3.197   4.256  10.949 -0.1830 -0.0350  0.0207
  746TMC3    C411023   2.931   4.210  11.014 -0.6662  0.0001  0.0548
  746TMC3    C511024   3.006   4.126  10.941 -1.0585 -0.5964  0.5964
  746TMC3    C611025   3.139   4.140  10.906  0.1173  0.5691  0.9672
  746TMC3     C11026   2.904   4.438  11.068 -0.5125 -0.0058  0.6794
  746TMC3     O11027   2.805   4.421  11.135  0.0039 -0.1411 -0.1087
  746TMC3     H11028   3.157   4.442  11.051 -1.5583  0.3500 -1.9304
  746TMC3    H111029   2.825   4.193  11.002 -0.3644 -1.7562 -0.1466
  746TMC3    H211030   3.194   4.068  10.846 -0.5777  1.0046 -0.1979
  746TMC3    C711031   2.939   4.039  10.844  0.5030  0.2677  0.2942
  746TMC3    C811032   3.274   4.330  10.854  0.3374 -0.3336 -0.1670
  746TMC3    O111033   2.838   3.974  10.875 -0.2954 -0.3553 -0.6161
  746TMC3    O211034   3.394   4.312  10.855 -0.0451  0.3842 -0.1390
  747TMC3    C111035   0.107   4.173  10.588 -0.4149  0.9427  0.2707
  747TMC3    C211036   0.001   4.102  10.639 -0.7315  0.3120  0.1930
  747TMC3    C311037   4.725   4.082  10.774 -0.5349 -0.5536  0.3467
  747TMC3    C411038   0.211   4.213  10.671  0.4124 -0.3159 -0.2081
  747TMC3    C511039   0.196   4.200  10.807  0.7272  0.6581  0.0625
  747TMC3    C611040   0.087   4.140  10.858  0.1071 -0.1839  0.5143
  747TMC3     C11041   0.098   4.233  10.452  0.3030  0.0241  0.5901
  747TMC3     O11042   0.183   4.315  10.422  0.3250  0.6773  0.5313
  747TMC3     H11043   4.634   4.084  10.587  0.2854  0.3193 -1.6543
  747TMC3    H111044   0.288   4.279  10.634 -1.6236  2.4384  0.4608
  747TMC3    H211045   0.075   4.116  10.964  0.0836 -1.4311  0.2268
  747TMC3    C711046   0.303   4.252  10.887 -0.0241  0.4522 -0.1355
  747TMC3    C811047   4.595   4.038  10.828  0.2232 -0.2216 -0.0736
  747TMC3    O111048   0.283   4.327  10.976  0.5130  0.1527 -0.0823
  747TMC3    O211049   4.556   3.926  10.791 -0.6073  0.1235  0.0502
  748MPD2     C11050   1.203   4.510   1.582  0.1621  0.8145  0.6032
  748MPD2    C111051   1.332   4.495   1.628  0.3938  0.3890 -0.0212
  748MPD2    C211052   1.423   4.589   1.593 -0.7117 -0.0255 -0.2104
  748MPD2    C311053   1.390   4.706   1.528 -0.6486  0.0004  0.2691
  748MPD2    C411054   1.258   4.713   1.478  0.2952  0.5309  0.4741
  748MPD2    C511055   1.166   4.623   1.516 -0.2545  0.9672 -0.2660
  748MPD2     H11056   1.523   4.587   1.635 -0.8178 -1.1271 -0.0223
  748MPD2    H111057   1.212   0.068   1.424 -0.1277  0.3150  0.5050
  748MPD2    H211058   1.129   4.431   1.592 -0.9466  1.8829  0.9119
  748MPD2    H311059   1.063   4.645   1.494  0.2532  2.6298 -1.0027
  748MPD2     N11060   1.492   0.074   1.509 -0.9195 -0.4545  0.2246
  748MPD2    H511061   1.587   0.046   1.533  0.0788 -0.0660 -3.1608
  748MPD2    N111062   1.372   4.388   1.714  0.3459  0.4933  0.5960
  748MPD2    H711063   1.296   4.326   1.743 -1.2564  0.9440 -2.6236
  749TMC3    C111064   1.603   0.273   1.431  0.4876 -0.0246 -0.1569
  749TMC3    C211065   1.711   0.246   1.512  0.4662  0.0897  0.4021
  749TMC3    C311066   1.840   0.262   1.462  0.5755  0.0807 -0.0935
  749TMC3    C411067   1.624   0.321   1.303  0.1857  0.3521  0.0633
  749TMC3    C511068   1.755   0.349   1.261  0.2091 -0.3515  0.9860
  749TMC3    C611069   1.862   0.311   1.338 -0.3651  0.2684  0.5814
  749TMC3     C11070   1.484   0.193   1.439 -0.5030  0.8399  0.0476
  749TMC3     O11071   1.394   0.227   1.367  0.2912  0.6744  0.7825
  749TMC3     H11072   1.696   0.218   1.616  1.0443 -0.8587  0.2289
  749TMC3    H111073   1.536   0.350   1.247 -1.5102 -1.1899  1.9375
  749TMC3    H211074   1.961   0.331   1.301 -0.6806  1.8123  0.5954
  749TMC3    C711075   1.790   0.427   1.143 -0.4249  0.7861  0.2764
  749TMC3    C811076   1.951   0.211   1.537 -1.4689 -0.1302 -0.5469
  749TMC3    O111077   1.908   0.438   1.115  0.4936 -0.1659  0.1684
  749TMC3    O211078   1.947   0.203   1.659 -0.0374  0.3018  0.6131
  750MPD2     C11079   2.427   1.730  11.222  0.4781  0.4267 -0.4920
  750MPD2    C111080   2.375   1.647  11.322 -0.1531 -0.5786  0.6784
  750MPD2    C211081   2.329   1.518  11.278  0.1468 -0.6768 -0.6085
  750MPD2    C311082   2.347   1.478  11.148  0.0333  0.0693 -0.2463
  750MPD2    C411083   2.398   1.571  11.057 -0.6595  0.4977  0.4389
  750MPD2    C511084   2.451   1.693  11.096  1.0058  0.0764  0.1096
  750MPD2     H11085   2.306   1.437  11.347 -0.2763 -0.3418 -0.3577
  750MPD2    H111086   2.416   1.551  10.952 -2.0629 -1.8973  0.6573
  750MPD2    H211087   2.471   1.826  11.247  0.7924  0.1235  0.1308
  750MPD2    H311088   2.492   1.752  11.016 -0.5440  0.4429 -0.4226
  750MPD2     N11089   2.328   1.350  11.097 -0.1337 -0.4048  0.1578
  750MPD2    H511090   2.349   1.342  10.998 -1.6608  1.5376 -0.3077
  750MPD2    N111091   2.381   1.693  11.449 -0.1007 -0.0151  0.1356
  750MPD2    H711092   2.424   1.785  11.461  0.0365  0.0224 -0.6106
  751TMC3    C111093   2.268   1.117  11.079  0.3562  0.0123  0.5438
  751TMC3    C211094   2.179   1.015  11.110 -0.0036  0.4532 -0.2093
  751TMC3    C311095   2.201   0.888  11.062 -0.7112  0.0702 -0.2598
  751TMC3    C411096   2.376   1.092  10.993  0.6022 -0.4118 -0.2643
  751TMC3    C511097   2.403   0.955  10.962 -0.0029 -0.6059 -0.2677
  751TMC3    C611098   2.315   0.855  10.994 -0.6984 -0.0553 -0.5418
  751TMC3     C11099   2.268   1.242  11.159 -0.9488  0.5461 -0.3067
  751TMC3     O11100   2.199   1.240  11.263 -0.6107 -0.2489  0.0763
  751TMC3     H11101   2.114   1.041  11.192  0.9039  2.1043 -0.0075
  751TMC3    H111102   2.447   1.170  10.969  0.3091  0.3879  1.5343
  751TMC3    H211103   2.332   0.749  10.977  0.6669 -0.1144  1.1335
  751TMC3    C711104   2.483   0.947  10.846 -0.7037  0.3753  0.1621
  751TMC3    C811105   2.106   0.781  11.084 -0.0743 -1.1087  1.0107
  751TMC3    O111106   2.546   1.050  10.819 -0.1634  0.4670  0.1504
  751TMC3    O211107   2.112   0.689  10.999  0.1232 -0.1775 -0.0795
  752TMC3    C111108   0.917   0.860  17.220 -0.0622 -0.1078 -0.1312
  752TMC3    C211109   0.961   0.742  17.260  0.3165 -0.2042  0.5174
  752TMC3    C311110   0.885   0.684  17.359  0.0369  0.1329 -0.0832
  752TMC3    C411111   0.817   0.934  17.283  0.5844 -0.4909 -0.0711
  752TMC3    C511112   0.745   0.871  17.382  0.2969  0.3293 -0.0414
  752TMC3    C611113   0.771   0.737  17.409  0.1678  0.1098 -0.5136
  752TMC3     C11114   0.974   0.903  17.099  0.6196  0.4298 -0.6320
  752TMC3     O11115   1.077   0.848  17.065  0.0081  0.1514 -0.3931
  752TMC3     H11116   1.040   0.694  17.202  0.5324  1.1942 -0.3358
  752TMC3    H111117   0.803   1.041  17.273  2.5720 -0.0147  2.1799
  752TMC3    H211118   0.720   0.697  17.497 -0.6817 -0.0499 -1.0771
  752TMC3    C711119   0.664   0.949  17.475  0.1367 -0.1522 -0.5839
  752TMC3    C811120   0.904   0.548  17.396 -0.0116  0.2124 -0.0884
  752TMC3    O111121   0.674   0.911  17.590 -0.2251  0.3195  0.5268
  752TMC3    O211122   0.805   0.484  17.415  0.3415  0.2488 -0.0001
  753TMC3    C111123   3.669   2.405  13.172  0.6100  0.9133  0.2142
  753TMC3    C211124   3.700   2.401  13.304 -0.8183  0.2351 -0.5024
  753TMC3    C311125   3.827   2.360  13.335 -0.2198  0.5382 -0.2059
  753TMC3    C411126   3.758   2.358  13.077  0.5993 -0.0785  0.9056
  753TMC3    C511127   3.878   2.297  13.110 -0.2503 -0.3780  0.0928
  753TMC3    C611128   3.911   2.300  13.246 -0.1991 -0.5322 -0.1887
  753TMC3     C11129   3.535   2.443  13.135  0.7640 -0.0863  0.6370
  753TMC3     O11130   3.501   2.403  13.026 -0.1922 -0.2644 -0.4232
  753TMC3     H11131   3.629   2.408  13.385 -1.5599 -0.4681 -1.0956
  753TMC3    H111132   3.728   2.369  12.973  2.1677  1.6997  0.6477
  753TMC3    H211133   4.008   2.264  13.277 -0.5113 -0.3266  1.0416
  753TMC3    C711134   3.955   2.213  13.023 -0.5328 -0.4150 -0.0732
  753TMC3    C811135   3.892   2.399  13.459 -0.0769  0.5735 -0.2929
  753TMC3    O111136   4.013   2.117  13.067 -0.2467  0.3517  0.1381
  753TMC3    O211137   4.014   2.404  13.449  0.3067 -0.5796 -0.0840
  754MPD2     C11138   2.687   0.822  13.271  0.2629  0.6045  0.3088
  754MPD2    C111139   2.579   0.849  13.359 -0.3863 -0.0553 -0.0621
  754MPD2    C211140   2.462   0.914  13.310  0.2547 -0.1624 -0.4921
  754MPD2    C311141   2.454   0.938  13.172 -0.3700  0.2654 -0.5018
  754MPD2    C411142   2.557   0.893  13.090  0.0307  1.0994  0.2617
  754MPD2    C511143   2.672   0.844  13.137  0.0516  0.5346 -0.2513
  754MPD2     H11144   2.379   0.936  13.375 -0.1720 -2.2353 -0.3354
  754MPD2    H111145   2.539   0.900  12.983  1.9153 -1.4181 -0.2176
  754MPD2    H211146   2.782   0.790  13.313  0.9245  2.2638  0.1018
  754MPD2    H311147   2.747   0.807  13.068  2.2076  0.5416  2.0578
  754MPD2     N11148   2.333   0.984  13.108 -0.4191 -0.4700 -0.3093
  754MPD2    H511149   2.311   0.953  13.014 -0.9618 -2.2683  0.4124
  754MPD2    N111150   2.579   0.780  13.479 -0.1246  0.3266  0.7076
  754MPD2    H711151   2.654   0.712  13.485  0.6961  1.2952  1.4213
  755MPD2     C11152   1.807   1.725  13.158 -0.1289 -0.3468  0.2132
  755MPD2    C111153   1.703   1.639  13.172 -0.3598  0.5169  0.5830
  755MPD2    C211154   1.710   1.503  13.149 -0.1228 -0.0549 -0.4120
  755MPD2    C311155   1.831   1.462  13.106 -0.7889 -0.1838 -0.3150
  755MPD2    C411156   1.937   1.547  13.077  0.6969  0.8034  0.9149
  755MPD2    C511157   1.925   1.679  13.117 -0.3324 -0.0116 -0.5076
  755MPD2     H11158   1.627   1.437  13.171  1.1900 -1.7979 -0.7532
  755MPD2    H111159   2.028   1.513  13.028  0.1194  1.1678 -0.4128
  755MPD2    H211160   1.809   1.826  13.197 -1.4088 -0.3842  0.3692
  755MPD2    H311161   2.004   1.753  13.115  0.6882 -1.1730 -3.0091
  755MPD2     N11162   1.877   1.324  13.097 -0.4958  0.2007 -0.6112
  755MPD2    H511163   1.972   1.306  13.064 -0.9108 -2.4490 -0.3765
  755MPD2    N111164   1.589   1.702  13.226 -0.2235 -0.3532  0.1922
  755MPD2    H711165   1.601   1.799  13.254  1.4230 -0.8946  1.3439
  756MPD2     C11166   2.329   1.601   9.031 -0.0711 -0.5984 -0.4058
  756MPD2    C111167   2.344   1.553   9.162  0.9474 -0.1067  0.1804
  756MPD2    C211168   2.236   1.485   9.219 -0.2307 -0.2282  0.7045
  756MPD2    C311169   2.113   1.463   9.162 -0.1013 -0.6112  0.3960
  756MPD2    C411170   2.099   1.506   9.038  0.6818 -0.2066 -0.0504
  756MPD2    C511171   2.200   1.578   8.976 -0.5185  0.7005 -0.2209
  756MPD2     H11172   2.249   1.440   9.317 -0.9463 -3.2038 -0.5609
  756MPD2    H111173   2.007   1.496   8.982 -0.0003  0.3019  0.9718
  756MPD2    H211174   2.403   1.647   8.966  1.1008 -0.2325  1.1968
  756MPD2    H311175   2.175   1.604   8.874 -2.0614  3.1314  0.7540
  756MPD2     N11176   2.019   1.389   9.234 -0.6250 -0.0722  0.4394
  756MPD2    H511177   2.037   1.378   9.333  0.9577  0.7622  0.2373
  756MPD2    N111178   2.450   1.568   9.243  1.0639 -0.1317  0.3056
  756MPD2    H711179   2.452   1.517   9.331 -1.1495  1.4942  1.2963
  757MPD2     C11180   2.093   0.757   9.939 -0.1978  0.6667  0.8777
  757MPD2    C111181   1.990   0.700   9.870  0.7146 -0.2826 -0.4025
  757MPD2    C211182   1.912   0.771   9.780  0.2211 -0.0071 -0.0254
  757MPD2    C311183   1.938   0.904   9.749  0.2623 -0.5795 -1.0599
  757MPD2    C411184   2.038   0.961   9.821 -0.0871  0.1650  0.1735
  757MPD2    C511185   2.116   0.887   9.914  0.6901  0.4112  0.4924
  757MPD2     H11186   1.825   0.730   9.730  1.4251 -0.7649 -1.5097
  757MPD2    H111187   2.063   1.066   9.811  0.6019  0.1989  2.2804
  757MPD2    H211188   2.142   0.703  10.020 -0.1748  2.7862  2.2828
  757MPD2    H311189   2.194   0.937   9.969  0.1424 -0.2505  1.8840
  757MPD2     N11190   1.867   0.973   9.647 -0.6456 -0.0964 -0.2214
  757MPD2    H511191   1.792   0.918   9.604  0.6696 -1.2874 -0.9923
  757MPD2    N111192   1.966   0.561   9.887  0.1944 -0.0409  0.4787
  757MPD2    H711193   2.017   0.514   9.961 -0.8018  0.0552  1.2275
  758MPD2     C11194   1.803   1.096  15.447 -0.5254 -0.2373 -0.0899
  758MPD2    C111195   1.851   0.974  15.490  0.3824  0.6777 -0.2158
  758MPD2    C211196   1.841   0.939  15.624 -0.2663 -0.0141 -0.1711
  758MPD2    C311197   1.787   1.027  15.714  0.3744  0.2162  1.0209
  758MPD2    C411198   1.714   1.139  15.663  1.0237 -0.8235 -0.6486
  758MPD2    C511199   1.734   1.181  15.533 -0.4559  0.0824 -0.4166
  758MPD2     H11200   1.909   0.861  15.657 -1.4894 -0.5431  1.0932
  758MPD2    H111201   1.665   1.208  15.731  0.5267 -0.8591 -0.9698
  758MPD2    H211202   1.818   1.117  15.342 -0.0639 -0.9029 -0.1551
  758MPD2    H311203   1.680   1.269  15.500 -1.3526  0.7444  2.8022
  758MPD2     N11204   1.779   1.002  15.856 -0.3341  0.2430 -0.0331
  758MPD2    H511205   1.727   1.072  15.909 -1.8562  0.0285 -1.2325
  758MPD2    N111206   1.941   0.895  15.419  0.7263  1.1488  0.2294
  758MPD2    H711207   1.994   0.831  15.476 -0.5402 -0.2278 -0.1497
  759MPD2     C11208   2.064   2.960   9.669  0.4406  0.2815  0.5503
  759MPD2    C111209   1.944   3.021   9.699  0.0692  0.2016 -0.7258
  759MPD2    C211210   1.933   3.151   9.656 -0.3967  0.0130 -0.1200
  759MPD2    C311211   2.035   3.222   9.598  0.0231 -0.1003  0.2267
  759MPD2    C411212   2.160   3.163   9.585  0.3750  0.5554 -0.3346
  759MPD2    C511213   2.167   3.032   9.621  0.3213  0.8085  0.0366
  759MPD2     H11214   1.841   3.209   9.666  1.2096  2.1282  2.3220
  759MPD2    H111215   2.245   3.217   9.545 -0.1317 -0.5182 -2.8877
  759MPD2    H211216   2.087   2.857   9.695  2.5007 -0.1284 -2.8749
  759MPD2    H311217   2.264   2.983   9.609  0.4052  0.8331  0.6116
  759MPD2     N11218   2.003   3.357   9.567 -0.0215  0.0237 -0.3888
  759MPD2    H511219   1.912   3.396   9.588 -0.5440 -1.0452 -0.6278
  759MPD2    N111220   1.840   2.963   9.766 -0.3762  0.0438 -0.2650
  759MPD2    H711221   1.763   3.026   9.787  0.6894  1.4663 -0.5506
  760MPD2     C11222   0.536   1.288  11.708  0.2583 -0.4125 -0.1949
  760MPD2    C111223   0.626   1.267  11.614 -0.0972  0.5642 -0.6772
  760MPD2    C211224   0.676   1.141  11.586 -0.6908 -0.2331  0.2173
  760MPD2    C311225   0.637   1.031  11.660  0.3349  0.7783  0.3456
  760MPD2    C411226   0.542   1.044  11.754 -0.3481 -0.5113  0.0974
  760MPD2    C511227   0.494   1.179  11.778  0.3947  0.3535 -0.5985
  760MPD2     H11228   0.754   1.130  11.511 -1.7341  1.5697 -1.1483
  760MPD2    H111229   0.502   0.964  11.815 -1.0691  0.4647  0.9108
  760MPD2    H211230   0.501   1.385  11.743 -0.2002 -0.4434 -0.5697
  760MPD2    H311231   0.422   1.204  11.855 -2.1645 -1.4377 -2.4283
  760MPD2     N11232   0.698   0.899  11.647  0.7293 -0.2753 -0.5276
  760MPD2    H511233   0.690   0.821  11.712  0.9915 -0.3744 -0.6124
  760MPD2    N111234   0.687   1.372  11.541 -0.0764  0.2019 -0.6183
  760MPD2    H711235   0.761   1.347  11.476  1.1028 -0.9422  1.1444
  761MPD2     C11236   1.850   0.485  11.429  0.6403  0.2986  0.1411
  761MPD2    C111237   1.861   0.474  11.290  0.0726  0.1830 -0.6835
  761MPD2    C211238   1.919   0.577  11.210 -0.5460  0.1952  0.0602
  761MPD2    C311239   1.968   0.690  11.274 -0.6313 -0.4487  0.5750
  761MPD2    C411240   1.950   0.701  11.412 -0.0588  0.2142 -0.2181
  761MPD2    C511241   1.900   0.603  11.483 -0.6448 -0.0821 -0.6371
  761MPD2     H11242   1.928   0.569  11.102 -0.1977  0.1690  0.0898
  761MPD2    H111243   1.966   0.797  11.459  2.0803 -0.3901  0.2647
  761MPD2    H211244   1.811   0.409  11.496  0.9104 -1.7535 -2.0251
  761MPD2    H311245   1.874   0.626  11.586 -2.4000  0.9745 -1.3254
  761MPD2     N11246   2.051   0.785  11.210 -0.1164  0.7027  0.0374
  761MPD2    H511247   2.065   0.871  11.262 -0.1299  0.8767 -0.2446
  761MPD2    N111248   1.811   0.351  11.238  0.2599  0.5689  0.3014
  761MPD2    H711249   1.789   0.277  11.304  0.7784 -1.7222 -2.1011
  762MPD2     C11250   2.257   0.404  11.043 -0.6948 -0.3556 -0.4560
  762MPD2    C111251   2.253   0.279  10.974  0.4782  0.2028  0.4113
  762MPD2    C211252   2.350   0.247  10.881 -0.2182 -0.4215  0.6455
  762MPD2    C311253   2.450   0.338  10.861  0.3579  0.2534  0.0529
  762MPD2    C411254   2.441   0.461  10.923  0.6093 -0.5392 -0.0624
  762MPD2    C511255   2.348   0.495  11.016  0.3422  0.2061  0.0257
  762MPD2     H11256   2.343   0.163  10.812  2.1858  0.8648 -1.1881
  762MPD2    H111257   2.509   0.540  10.896 -2.2385  1.4775 -1.3235
  762MPD2    H211258   2.186   0.432  11.121 -0.3283 -2.8962  0.7869
  762MPD2    H311259   2.346   0.588  11.071  0.2085  0.4235 -0.3480
  762MPD2     N11260   2.551   0.318  10.755  0.7468 -0.0740  0.7453
  762MPD2    H511261   2.541   0.241  10.689 -0.7837  0.8247 -0.0862
  762MPD2    N111262   2.146   0.197  11.004  0.5892  0.2045 -0.0249
  762MPD2    H711263   2.067   0.223  11.062  0.2328  1.5855 -1.1365
  763MPD2     C11264   3.801   0.873  15.870 -0.8836 -0.3956  0.1540
  763MPD2    C111265   3.716   0.976  15.825  0.1466 -0.4577 -0.2318
  763MPD2    C211266   3.719   1.094  15.899  0.0103  0.5755  0.1986
  763MPD2    C311267   3.800   1.114  16.005  0.3739 -0.3940 -0.1944
  763MPD2    C411268   3.898   1.024  16.034 -0.3415  0.2451 -0.0947
  763MPD2    C511269   3.899   0.907  15.960  0.5232  0.1017 -0.1612
  763MPD2     H11270   3.650   1.171  15.866  1.5395  0.9711 -2.1141
  763MPD2    H111271   3.974   1.036  16.111 -0.1678  1.6185 -0.4752
  763MPD2    H211272   3.789   0.774  15.827  0.5967 -0.3903 -0.2548
  763MPD2    H311273   3.963   0.825  15.989 -0.9803 -2.0522 -2.9073
  763MPD2     N11274   3.802   1.233  16.083 -0.2709  0.2925  0.2216
  763MPD2    H511275   3.884   1.261  16.135 -0.7005  1.6048  0.1845
  763MPD2    N111276   3.628   0.952  15.717  0.7026 -0.0657  0.7395
  763MPD2    H711277   3.581   1.031  15.674  1.1558  1.5085  3.1593
  764MPD2     C11278   1.699   2.400  17.330  0.1478 -0.2438 -0.1335
  764MPD2    C111279   1.566   2.369  17.341  0.2707  0.1879  0.3326
  764MPD2    C211280   1.518   2.331  17.463  0.3423 -0.7448  0.2015
  764MPD2    C311281   1.604   2.306  17.570 -0.3670  0.5732 -0.9477
  764MPD2    C411282   1.736   2.335  17.559 -0.0817  0.2532  0.1489
  764MPD2    C511283   1.787   2.385  17.434  0.5390  0.0036  0.0344
  764MPD2     H11284   1.413   2.307  17.476  0.6089 -0.9703  1.9478
  764MPD2    H111285   1.816   2.315  17.630 -0.3389 -2.8027 -0.4243
  764MPD2    H211286   1.740   2.427  17.234 -0.9164  1.5550 -0.0943
  764MPD2    H311287   1.892   2.405  17.419 -0.1789  3.1833 -0.6722
  764MPD2     N11288   1.553   2.244  17.688  0.3160 -0.1081  0.2178
  764MPD2    H511289   1.453   2.229  17.686  0.6686 -2.4167 -0.3844
  764MPD2    N111290   1.472   2.382  17.235  0.2046 -0.5874 -0.3425
  764MPD2    H711291   1.374   2.360  17.251  1.0432 -1.5576  3.6677
  765MPD2     C11292   1.060   4.653  15.394  0.0193 -0.3626  0.1124
  765MPD2    C111293   1.145   0.036  15.383 -0.4428  0.2711 -0.2493
  765MPD2    C211294   1.280   0.008  15.370  0.2321 -0.3201 -0.4840
  765MPD2    C311295   1.333   4.609  15.348  0.5437 -0.0636  0.7385
  765MPD2    C411296   1.244   4.505  15.366 -0.8109  0.2446  0.4691
  765MPD2    C511297   1.112   4.525  15.391  0.3054  0.0773  0.7573
  765MPD2     H11298   1.351   0.090  15.362 -0.0519  0.2389  2.9164
  765MPD2    H111299   1.272   4.400  15.364  1.5117  0.8703 -0.1250
  765MPD2    H211300   0.952   4.658  15.394 -0.1284 -3.0347  2.1435
  765MPD2    H311301   1.047   4.442  15.414 -0.7956  0.8341  0.3589
  765MPD2     N11302   1.472   4.590  15.326 -0.1462 -0.1691  0.2372
  765MPD2    H511303   1.529   4.674  15.325 -0.4273  0.0340  1.3304
  765MPD2    N111304   1.091   0.166  15.364 -0.3075 -0.1496 -0.1539
  765MPD2    H711305   0.990   0.177  15.362 -0.2764  0.6113  1.8491
  766MPD2     C11306   0.705   0.257  14.950 -0.8257 -0.4401 -0.9347
  766MPD2    C111307   0.838   0.292  14.971  0.4143 -0.1988  0.1030
  766MPD2    C211308   0.933   0.247  14.887 -0.1981 -0.0730  0.5685
  766MPD2    C311309   0.905   0.154  14.790  0.1016  0.1893  0.1018
  766MPD2    C411310   0.770   0.116  14.763  1.2418 -0.6424 -0.3095
  766MPD2    C511311   0.673   0.169  14.845  0.4519  0.1799  0.2641
  766MPD2     H11312   1.033   0.289  14.888 -1.0735  2.0028 -0.2818
  766MPD2    H111313   0.743   0.046  14.686  0.0283  1.9046 -2.1693
  766MPD2    H211314   0.633   0.300  15.019  1.3679 -0.5349  1.3846
  766MPD2    H311315   0.570   0.138  14.837 -0.0444  0.9374  3.9778
  766MPD2     N11316   1.011   0.101  14.712  0.1221  0.0145  0.2285
  766MPD2    H511317   0.978   0.033  14.644  2.1203  1.6696 -2.4078
  766MPD2    N111318   0.888   0.371  15.073  0.2284 -0.4371  0.1575
  766MPD2    H711319   0.987   0.369  15.094  0.5104  3.5687 -0.7134
  767MPD2     C11320   0.638   0.414  14.588 -0.4088  0.3216 -0.8123
  767MPD2    C111321   0.774   0.413  14.565 -0.4093 -0.0483  0.1640
  767MPD2    C211322   0.821   0.335  14.458  0.2696 -0.9194 -0.4084
  767MPD2    C311323   0.734   0.261  14.382 -0.0764 -0.0648  0.1664
  767MPD2    C411324   0.602   0.258  14.421 -0.0828  0.6356 -0.2405
  767MPD2    C511325   0.555   0.332  14.524  0.4294 -0.1531 -0.1954
  767MPD2     H11326   0.926   0.318  14.436 -0.2319 -0.9777 -2.8047
  767MPD2    H111327   0.529   0.194  14.374  0.7462 -2.0275  2.1190
  767MPD2    H211328   0.596   0.465  14.673  3.0256  0.7800  0.6285
  767MPD2    H311329   0.448   0.326  14.543  0.8560 -0.6239  2.0394
  767MPD2     N11330   0.790   0.180  14.282  0.2493 -0.3470 -0.0585
  767MPD2    H511331   0.891   0.174  14.288  0.1329 -0.0669  2.1604
  767MPD2    N111332   0.863   0.497  14.643 -0.0883 -0.7755 -0.7737
  767MPD2    H711333   0.817   0.554  14.713  1.4019  0.6302 -0.9308
  768MPD2     C11334   2.511   3.251  10.877 -0.3240  0.4704  0.1006
  768MPD2    C111335   2.588   3.355  10.828 -0.2407  0.3186 -0.1155
  768MPD2    C211336   2.688   3.413  10.899  0.4896  0.3909  0.4486
  768MPD2    C311337   2.707   3.373  11.030  0.2401 -0.2847 -0.3484
  768MPD2    C411338   2.638   3.268  11.076 -1.0113  0.4035 -0.8240
  768MPD2    C511339   2.542   3.214  11.002  0.2814 -0.3555  0.4973
  768MPD2     H11340   2.742   3.500  10.862  0.2096  0.0075 -0.8547
  768MPD2    H111341   2.657   3.231  11.176 -0.4137  2.7102 -0.0718
  768MPD2    H211342   2.429   3.204  10.825  0.4456 -0.3478 -0.3950
  768MPD2    H311343   2.494   3.129  11.050  0.2711 -0.9673 -0.6124
  768MPD2     N11344   2.787   3.442  11.123 -0.1305  0.4814 -0.3140
  768MPD2    H511345   2.774   3.416  11.220 -0.0243  2.8761  0.3261
  768MPD2    N111346   2.567   3.396  10.698  0.5673 -0.1102 -0.2168
  768MPD2    H711347   2.609   3.484  10.671  0.1464  0.0855 -0.2317
  769MPD2     C11348   2.840   1.629  14.674 -0.2321 -0.0874  0.4079
  769MPD2    C111349   2.720   1.622  14.741  0.4062  1.1938  0.2846
  769MPD2    C211350   2.706   1.684  14.863  0.2092  0.0035  0.5257
  769MPD2    C311351   2.816   1.754  14.911  0.2253  0.6519 -0.4609
  769MPD2    C411352   2.937   1.771  14.838  0.1396 -0.6444  0.5221
  769MPD2    C511353   2.942   1.701  14.722 -0.9164  0.5625 -0.7316
  769MPD2     H11354   2.616   1.683  14.924  0.3803 -0.6566  0.7685
  769MPD2    H111355   3.025   1.818  14.880  0.0200 -0.5552  0.6726
  769MPD2    H211356   2.859   1.568  14.587 -0.8566 -0.4203  0.5037
  769MPD2    H311357   3.033   1.708  14.664  0.2960  0.5342  1.1766
  769MPD2     N11358   2.786   1.825  15.029 -0.6935  0.6913 -0.0221
  769MPD2    H511359   2.706   1.806  15.088 -0.2762 -0.8339  0.0416
  769MPD2    N111360   2.617   1.546  14.680  0.0672  0.3080  0.1828
  769MPD2    H711361   2.633   1.516  14.584  2.3819  1.4153  0.2405
  770MPD2     C11362   2.529   0.646  14.342 -0.0083  0.5426 -0.6251
  770MPD2    C111363   2.393   0.676  14.335 -0.1606  0.1994  0.2161
  770MPD2    C211364   2.347   0.807  14.360 -0.0879  0.2704 -0.6115
  770MPD2    C311365   2.440   0.903  14.392  0.7327  0.9393 -0.3315
  770MPD2    C411366   2.576   0.878  14.374  0.3589  0.2614 -0.8259
  770MPD2    C511367   2.617   0.752  14.355 -0.2997 -0.0151 -0.1213
  770MPD2     H11368   2.241   0.828  14.356 -0.7660 -3.1911 -0.9821
  770MPD2    H111369   2.659   0.945  14.394  1.0102 -0.8488  0.2032
  770MPD2    H211370   2.569   0.547  14.325  0.1740  0.1089  2.4267
  770MPD2    H311371   2.724   0.738  14.350 -0.3077  0.2226 -1.0246
  770MPD2     N11372   2.389   1.036  14.431  0.1931 -0.2357  0.0793
  770MPD2    H511373   2.288   1.043  14.442 -0.1401 -0.0579 -3.1238
  770MPD2    N111374   2.321   0.561  14.306  0.2088 -0.4212 -0.0040
  770MPD2    H711375   2.367   0.474  14.283  0.8724  0.1447 -0.8598
  771MPD2     C11376   4.019   4.093  13.568  0.5346  0.3611  0.0866
  771MPD2    C111377   3.946   4.206  13.542 -0.4360  0.1853  0.0512
  771MPD2    C211378   3.862   4.208  13.433  0.4712 -0.5708  0.6800
  771MPD2    C311379   3.859   4.087  13.356  0.0949 -0.0341  0.4932
  771MPD2    C411380   3.928   3.975  13.388 -0.2097 -0.4112 -0.1525
  771MPD2    C511381   4.000   3.976  13.502 -0.5505  0.0951  0.5492
  771MPD2     H11382   3.801   4.295  13.410  4.4536  2.4652  1.5671
  771MPD2    H111383   3.918   3.889  13.323 -2.2812 -1.0940  1.0790
  771MPD2    H211384   4.106   4.092  13.634 -2.1199 -2.5568  3.5248
  771MPD2    H311385   4.067   3.894  13.527  1.0113  1.1023 -0.3069
  771MPD2     N11386   3.789   4.103  13.232  0.6796  0.3202 -0.1881
  771MPD2    H511387   3.741   4.192  13.228  0.1575 -0.0499 -2.2928
  771MPD2    N111388   3.958   4.330  13.615  0.9294 -0.6549  0.1934
  771MPD2    H711389   3.914   4.415  13.579  2.2533  0.9062  2.2836
  772MPD2     C11390   3.539   0.125  13.907 -0.8736  1.1766 -0.0692
  772MPD2    C111391   3.566   0.040  13.801 -0.2238  0.0398  0.4330
  772MPD2    C211392   3.461   4.717  13.728  0.2691  0.6904 -0.2523
  772MPD2    C311393   3.332   0.016  13.768 -0.2000 -0.8582  0.0947
  772MPD2    C411394   3.310   0.107  13.866 -0.0215  0.3919 -0.4751
  772MPD2    C511395   3.413   0.165  13.927 -0.0558  0.1255 -0.0163
  772MPD2     H11396   3.490   4.633  13.666 -1.9787 -0.6948  0.5680
  772MPD2    H111397   3.206   0.133  13.878 -0.0246  0.2400 -0.1881
  772MPD2    H211398   3.611   0.178  13.968  0.3221 -0.0949 -0.3660
  772MPD2    H311399   3.394   0.243  14.000 -0.9703  0.0229 -0.1515
  772MPD2     N11400   3.218   4.687  13.705  0.0184 -0.7615  0.9637
  772MPD2    H511401   3.131   4.697  13.756 -0.4202  0.8965 -0.1117
  772MPD2    N111402   3.700   4.721  13.776 -0.2063 -0.4189  0.1491
  772MPD2    H711403   3.701   4.645  13.710  2.0445 -0.1112 -0.1814
  773MPD2     C11404   2.669   1.228   0.006  0.1772 -0.4074  0.5831
  773MPD2    C111405   2.578   1.140  17.666 -1.1214  0.6768 -0.5464
  773MPD2    C211406   2.587   1.006  17.689 -0.4575  0.3200  0.4585
  773MPD2    C311407   2.688   0.958   0.065  0.1247  0.9723 -0.4148
  773MPD2    C411408   2.779   1.049   0.117 -0.8269 -0.1600 -0.1177
  773MPD2    C511409   2.767   1.180   0.083  0.8164  0.0495 -1.0921
  773MPD2     H11410   2.518   0.933  17.648  0.9788  0.1602 -1.6639
  773MPD2    H111411   2.856   1.010   0.183  0.8717 -1.1947 -2.6884
  773MPD2    H211412   2.670   1.336  17.702  0.6177 -0.3628  0.9925
  773MPD2    H311413   2.820   1.265   0.126 -0.1831 -0.5994  1.3957
  773MPD2     N11414   2.680   0.816   0.092  0.0501 -0.1385  0.9084
  773MPD2    H511415   2.604   0.757   0.061  0.1730  0.6639 -0.8838
  773MPD2    N111416   2.473   1.178  17.576 -0.1345 -0.0996 -0.2368
  773MPD2    H711417   2.410   1.102  17.554 -0.1240 -0.2135  0.1196
  774MPD2     C11418   2.265   4.647  13.199 -0.3807 -0.3684  0.1898
  774MPD2    C111419   2.180   4.670  13.306 -0.4193  0.1105 -0.0026
  774MPD2    C211420   2.190   0.059  13.379 -0.2802 -0.1489  0.2553
  774MPD2    C311421   2.287   0.154  13.352  0.2666 -0.3588  0.1337
  774MPD2    C411422   2.376   0.129  13.248 -0.4110  0.3051  0.2396
  774MPD2    C511423   2.360   0.017  13.165 -0.6214 -0.1325  0.1235
  774MPD2     H11424   2.117   0.064  13.459 -1.2494 -0.6535 -0.5963
  774MPD2    H111425   2.450   0.202  13.218 -0.7777  1.1200  1.3210
  774MPD2    H211426   2.255   4.551  13.150 -0.6902 -0.3979  0.3140
  774MPD2    H311427   2.417   0.013  13.072  1.8885 -1.3266  1.7210
  774MPD2     N11428   2.299   0.266  13.439 -0.3207 -0.0950  0.1003
  774MPD2    H511429   2.237   0.270  13.519  0.4487  1.4019  0.6140
  774MPD2    N111430   2.089   4.570  13.347 -0.1482 -0.2094 -0.2241
  774MPD2    H711431   2.094   4.481  13.299  2.3978  0.9306 -2.0259
  775MPD2     C11432   3.038   1.630  15.489  0.2737  0.2958 -0.6560
  775MPD2    C111433   3.020   1.750  15.557 -0.0554 -0.3278  0.0497
  775MPD2    C211434   3.126   1.837  15.573 -0.5381 -0.3635  0.5077
  775MPD2    C311435   3.251   1.813  15.523  0.2218 -0.3185  0.3024
  775MPD2    C411436   3.268   1.687  15.456  1.2789  0.2553  0.8809
  775MPD2    C511437   3.163   1.599  15.444 -0.3575 -0.3374 -0.2994
  775MPD2     H11438   3.101   1.932  15.619  2.1552  0.1632  0.8996
  775MPD2    H111439   3.370   1.672  15.422  0.7991  0.8774 -0.8198
  775MPD2    H211440   2.961   1.554  15.481 -0.0645  0.5387  0.3301
  775MPD2    H311441   3.182   1.509  15.387  2.2472  0.3857 -0.5949
  775MPD2     N11442   3.365   1.894  15.543  0.6972  0.5701  0.7238
  775MPD2    H511443   3.445   1.859  15.492 -0.5939 -1.9883  0.4914
  775MPD2    N111444   2.894   1.773  15.623 -0.0507  0.1449  0.2229
  775MPD2    H711445   2.825   1.699  15.617  0.7181 -0.4574 -1.2660
  776MPD2     C11446   2.937   2.017  11.981 -0.1381  1.0587 -0.2121
  776MPD2    C111447   2.889   1.978  11.853 -0.7625  0.1210  0.0222
  776MPD2    C211448   2.959   2.014  11.738 -0.2887 -0.1719 -0.7467
  776MPD2    C311449   3.085   2.075  11.748 -0.0663 -0.6505 -0.0646
  776MPD2    C411450   3.131   2.102  11.877 -0.1594  0.1219  0.2626
  776MPD2    C511451   3.059   2.069  11.990 -0.2632 -0.1095 -0.0607
  776MPD2     H11452   2.930   1.979  11.640  0.8820  0.5656 -1.3644
  776MPD2    H111453   3.229   2.144  11.896  0.0047  0.2945 -0.9821
  776MPD2    H211454   2.873   1.993  12.065  1.1960  0.3857  0.6067
  776MPD2    H311455   3.100   2.093  12.088  1.1825  0.0613 -0.6939
  776MPD2     N11456   3.167   2.108  11.638 -0.2799  0.3026  0.4604
  776MPD2    H511457   3.265   2.122  11.660 -0.3646  1.7650 -0.0736
  776MPD2    N111458   2.771   1.905  11.854 -0.3177  0.4035 -0.4276
  776MPD2    H711459   2.750   1.852  11.938  0.2906 -1.6247 -1.5455
  777MPD2     C11460   3.026   4.503   0.632 -0.3059 -0.2160 -0.2268
  777MPD2    C111461   2.902   4.515   0.688  0.0030  0.4927 -0.3013
  777MPD2    C211462   2.803   4.456   0.613  1.3131  0.5996  0.1129
  777MPD2    C311463   2.809   4.395   0.494 -0.1205  0.4780 -0.1386
  777MPD2    C411464   2.937   4.383   0.446  0.3216  0.4552 -0.2195
  777MPD2    C511465   3.044   4.435   0.511  0.3349 -0.2663  0.1842
  777MPD2     H11466   2.708   4.452   0.666  0.5833  1.6543 -1.1135
  777MPD2    H111467   2.962   4.323   0.359 -0.2582 -0.9389  0.5770
  777MPD2    H211468   3.116   4.537   0.682 -1.1423  0.5149  0.7833
  777MPD2    H311469   3.140   4.419   0.464  0.1454  1.9057 -0.9296
  777MPD2     N11470   2.702   4.320   0.446 -0.2333 -1.0147 -0.6101
  777MPD2    H511471   2.627   4.298   0.510 -2.1151  0.2392 -2.3736
  777MPD2    N111472   2.886   4.565   0.818 -0.0009  0.1003  0.4955
  777MPD2    H711473   2.976   4.580   0.862  0.2617  1.7053 -0.5921
  778MPD2     C11474   3.394   4.200  15.230 -0.4778 -0.0721  0.1425
  778MPD2    C111475   3.324   4.167  15.114 -0.4279 -0.2034  0.1023
  778MPD2    C211476   3.352   4.227  14.996  0.5580  0.3805 -0.1443
  778MPD2    C311477   3.452   4.322  14.989  0.0746  0.0942  0.2498
  778MPD2    C411478   3.531   4.352  15.101  0.1291 -0.4133 -0.4054
  778MPD2    C511479   3.500   4.287  15.220  0.0015  0.6191 -0.3989
  778MPD2     H11480   3.295   4.200  14.908 -0.1199 -1.9597  1.0387
  778MPD2    H111481   3.620   4.413  15.100  0.7116 -1.2579 -0.4684
  778MPD2    H211482   3.377   4.140  15.319  0.5584 -0.1925  0.2611
  778MPD2    H311483   3.574   4.307  15.296  0.0986 -0.6513 -0.1567
  778MPD2     N11484   3.467   4.383  14.860  0.7402 -0.6936 -0.0662
  778MPD2    H511485   3.423   4.331  14.784 -0.2471  1.2308 -0.8010
  778MPD2    N111486   3.216   4.079  15.119  0.2270  0.7164  0.1525
  778MPD2    H711487   3.188   4.048  15.027 -2.3363  0.2911  1.0763
  779MPD2     C11488   3.301   3.224  14.444 -0.9150 -0.1930 -0.0324
  779MPD2    C111489   3.428   3.249  14.395  0.5585 -0.6229 -0.1388
  779MPD2    C211490   3.480   3.378  14.402  0.0383  0.0239 -0.2215
  779MPD2    C311491   3.398   3.480  14.455 -0.0048 -0.0333  0.5163
  779MPD2    C411492   3.267   3.454  14.493 -0.3769 -0.4035 -0.0878
  779MPD2    C511493   3.223   3.326  14.488 -0.4545  0.4799 -0.6179
  779MPD2     H11494   3.573   3.409  14.355  1.5163 -1.8829  1.4397
  779MPD2    H111495   3.203   3.531  14.534 -0.8842 -1.8646  1.8642
  779MPD2    H211496   3.257   3.125  14.441  0.0549 -0.5099 -4.7824
  779MPD2    H311497   3.129   3.306  14.538  0.3269  0.5996  0.8936
  779MPD2     N11498   3.457   3.612  14.462 -0.6860 -0.3182  0.6185
  779MPD2    H511499   3.549   3.621  14.419 -0.1261 -0.9962  1.6701
  779MPD2    N111500   3.513   3.153  14.339 -0.6391  0.3773 -0.4048
  779MPD2    H711501   3.613   3.168  14.328 -0.4491 -0.2976  0.4351
  780MPD2     C11502   3.039   2.902   1.403 -0.0981  0.1728 -0.0762
  780MPD2    C111503   2.938   2.905   1.308 -0.5391 -0.0111 -0.4638
  780MPD2    C211504   2.969   2.929   1.171 -0.2843  0.3413  0.9896
  780MPD2    C311505   3.103   2.950   1.135  0.0479 -0.1309  0.3940
  780MPD2    C411506   3.200   2.933   1.233 -0.5322  0.2833 -0.2434
  780MPD2    C511507   3.171   2.924   1.364  0.1452 -1.1276 -0.4486
  780MPD2     H11508   2.886   2.933   1.102  1.0834 -1.3116 -0.7614
  780MPD2    H111509   3.303   2.954   1.208 -0.4779  1.7956  1.2514
  780MPD2    H211510   3.023   2.888   1.509  2.5549 -0.6154  0.2185
  780MPD2    H311511   3.252   2.925   1.435  1.8072  0.9380 -2.3897
  780MPD2     N11512   3.146   2.990   1.008 -0.2748  0.4727 -0.3757
  780MPD2    H511513   3.243   3.017   1.003 -0.4714  1.1967 -0.3510
  780MPD2    N111514   2.806   2.882   1.361 -0.5391  0.3650 -0.1335
  780MPD2    H711515   2.804   2.835   1.451 -0.6935  1.9871  0.7107
  781MPD2     C11516   0.132   0.163  11.458 -0.2449  0.9755 -0.0497
  781MPD2    C111517   0.226   0.150  11.555  0.0356  0.6203 -0.0607
  781MPD2    C211518   0.357   0.143  11.514 -0.5514 -0.2535 -0.4064
  781MPD2    C311519   0.392   0.151  11.376  0.0865 -0.1857 -0.7453
  781MPD2    C411520   0.289   0.163  11.279  0.3490 -0.3187  0.4074
  781MPD2    C511521   0.160   0.174  11.327  0.7600  0.4148 -0.4105
  781MPD2     H11522   0.443   0.124  11.577 -0.7345  0.9602  0.2096
  781MPD2    H111523   0.318   0.194  11.179 -2.3420 -2.0690 -0.9170
  781MPD2    H211524   0.032   0.196  11.484 -0.0468  1.8661 -0.4171
  781MPD2    H311525   0.080   0.205  11.261  0.2795  1.9562  0.8931
  781MPD2     N11526   0.524   0.147  11.325 -0.1193 -0.0786  0.1285
  781MPD2    H511527   0.531   0.150  11.224 -0.4846 -0.1526  0.1016
  781MPD2    N111528   0.188   0.122  11.687  0.0080 -0.2482 -0.1086
  781MPD2    H711529   0.264   0.119  11.754 -1.0762 -0.9666  1.0897
  782MPD2     C11530   3.000   1.774  10.285  0.3477 -0.2243 -0.4287
  782MPD2    C111531   3.015   1.649  10.346  0.0298 -0.6367  0.0211
  782MPD2    C211532   3.078   1.643  10.469  0.3006  0.1237  0.0619
  782MPD2    C311533   3.141   1.756  10.527  0.1793 -0.0532 -0.0612
  782MPD2    C411534   3.127   1.872  10.463 -0.7566  0.3409  0.0566
  782MPD2    C511535   3.058   1.882  10.342  1.1843  0.0567 -0.3775
  782MPD2     H11536   3.087   1.548  10.520 -1.5617 -1.1526 -1.9942
  782MPD2    H111537   3.150   1.965  10.513  0.5168  0.1115 -0.0929
  782MPD2    H211538   2.941   1.784  10.195  1.2124 -1.1160 -1.1017
  782MPD2    H311539   3.026   1.977  10.300 -1.2549 -1.1838 -1.3486
  782MPD2     N11540   3.207   1.748  10.652  0.4296  0.1488 -0.2443
  782MPD2    H511541   3.187   1.663  10.705  1.7388  2.0352  3.2895
  782MPD2    N111542   2.980   1.539  10.267 -0.3286 -0.7966 -0.5108
  782MPD2    H711543   2.942   1.545  10.173  0.9325 -1.4297 -1.0742
  783MPD2     C11544   2.512   0.683  10.596  0.1843  0.3257 -0.4016
  783MPD2    C111545   2.532   0.803  10.652 -0.2926  0.5909  0.6388
  783MPD2    C211546   2.600   0.896  10.575 -0.6893 -0.1522  0.5394
  783MPD2    C311547   2.657   0.875  10.449  0.5943 -0.2689 -0.0596
  783MPD2    C411548   2.624   0.753  10.396  0.2827  0.4846  0.0690
  783MPD2    C511549   2.548   0.663  10.467 -0.1831  0.2855 -1.0195
  783MPD2     H11550   2.625   0.991  10.620  2.0902 -1.4808  1.8133
  783MPD2    H111551   2.643   0.734  10.291 -0.7885  0.3557 -0.0965
  783MPD2    H211552   2.457   0.606  10.648 -0.1484 -0.2294 -1.5668
  783MPD2    H311553   2.518   0.569  10.422 -2.8064  0.5885  0.1075
  783MPD2     N11554   2.742   0.972  10.385 -0.1877 -0.1257  0.6657
  783MPD2    H511555   2.765   1.055  10.439  0.2028 -0.2353  0.6673
  783MPD2    N111556   2.472   0.827  10.778 -0.3971 -0.1305  0.0725
  783MPD2    H711557   2.410   0.752  10.809  2.4621 -0.8255  4.0689
  784MPD2     C11558   4.566   1.678   0.922  0.4791 -0.1470  0.3585
  784MPD2    C111559   4.622   1.789   0.985 -0.2925 -0.2506 -0.7054
  784MPD2    C211560   4.550   1.903   0.982  0.2487 -0.1057  0.3268
  784MPD2    C311561   4.430   1.922   0.908 -0.6065  0.2044  0.3298
  784MPD2    C411562   4.379   1.814   0.837  0.3757  0.4651  0.1209
  784MPD2    C511563   4.452   1.699   0.846 -0.1585  0.5121 -0.4425
  784MPD2     H11564   4.586   1.993   1.032 -0.9094  0.8830 -0.6057
  784MPD2    H111565   4.297   1.825   0.766  0.2412 -2.1388 -0.1342
  784MPD2    H211566   4.616   1.582   0.912  0.2707 -0.2446  0.2504
  784MPD2    H311567   4.405   1.613   0.800  3.4527 -0.6844 -1.8881
  784MPD2     N11568   4.364   2.046   0.917  0.4315 -0.5217  0.9866
  784MPD2    H511569   4.423   2.118   0.958 -1.0014  2.0579 -1.3938
  784MPD2    N111570   0.017   1.786   1.064  0.2412  0.0285  0.0125
  784MPD2    H711571   0.055   1.874   1.096 -0.0563  0.6562 -1.3130
  785MPD2     C11572   1.056   3.362  10.228  0.2957  0.5026 -0.9849
  785MPD2    C111573   1.002   3.466  10.299 -0.1134  0.0866  0.0821
  785MPD2    C211574   0.864   3.474  10.310  0.2426  0.6340 -0.0261
  785MPD2    C311575   0.783   3.390  10.228  0.6892  0.5008 -0.6361
  785MPD2    C411576   0.841   3.280  10.167 -0.2262 -0.0222  0.4027
  785MPD2    C511577   0.975   3.268  10.166  0.5722  0.7902 -0.2841
  785MPD2     H11578   0.816   3.547  10.375 -0.1514 -1.0259  1.5588
  785MPD2    H111579   0.783   3.206  10.113 -0.5238 -0.5820  1.4948
  785MPD2    H211580   1.162   3.339  10.227  0.4162  1.0623 -0.3460
  785MPD2    H311581   1.024   3.182  10.120  1.0109  1.2927 -0.7478
  785MPD2     N11582   0.646   3.414  10.221 -0.2589 -0.2823 -0.0680
  785MPD2    H511583   0.615   3.497  10.270 -0.9055 -0.9701  0.6812
  785MPD2    N111584   1.082   3.550  10.376 -0.6447  0.3086 -0.2054
  785MPD2    H711585   1.038   3.615  10.440  2.6252  2.6418 -0.3688
  786MPD2     C11586   3.507   2.585  14.492  0.4234 -0.2194  0.4274
  786MPD2    C111587   3.636   2.534  14.474  0.1389  0.2181 -0.0157
  786MPD2    C211588   3.733   2.548  14.572 -0.4769 -0.0586 -0.0192
  786MPD2    C311589   3.704   2.615  14.684 -0.5298  0.1942  0.1689
  786MPD2    C411590   3.576   2.658  14.701  0.3016 -0.7800  0.5923
  786MPD2    C511591   3.478   2.643  14.608  0.1949  0.1096 -0.5189
  786MPD2     H11592   3.828   2.498  14.555 -0.7774  0.2006 -2.5763
  786MPD2    H111593   3.557   2.708  14.795  1.0248  1.1185 -0.2624
  786MPD2    H211594   3.420   2.560  14.431  1.9826  0.2404 -2.0122
  786MPD2    H311595   3.378   2.682  14.624  0.0691 -0.6511  0.5529
  786MPD2     N11596   3.794   2.630  14.790 -0.3744  0.4022 -0.4873
  786MPD2    H511597   3.760   2.675  14.875 -1.8987 -1.1721 -0.2489
  786MPD2    N111598   3.669   2.453  14.358  0.1182 -0.1046  0.6244
  786MPD2    H711599   3.762   2.414  14.362  0.3696  0.1830 -2.8852
  787MPD2     C11600   3.994   2.125  14.612  0.6104  0.0996 -0.5817
  787MPD2    C111601   3.980   2.047  14.493  0.3042 -0.9109 -0.1043
  787MPD2    C211602   4.064   1.940  14.475  0.9416 -0.1142  0.3346
  787MPD2    C311603   4.151   1.894  14.579  0.0243  0.5431  0.3254
  787MPD2    C411604   4.157   1.970  14.698 -0.0014 -0.2547  0.5644
  787MPD2    C511605   4.077   2.083  14.707 -0.4725 -0.2829  0.9701
  787MPD2     H11606   4.064   1.884  14.382  2.7909  2.9571 -1.5012
  787MPD2    H111607   4.226   1.949  14.779  1.7749  0.1286 -0.8557
  787MPD2    H211608   3.941   2.218  14.628  0.3125 -0.4078  1.4007
  787MPD2    H311609   4.094   2.141  14.798  0.1604 -1.6558  1.7233
  787MPD2     N11610   4.221   1.777  14.549 -0.0674  0.7839  0.2595
  787MPD2    H511611   4.210   1.734  14.458  0.7102  2.5621 -0.6791
  787MPD2    N111612   3.879   2.089  14.404 -0.2676  0.4292  0.6056
  787MPD2    H711613   3.825   2.170  14.432 -0.6411  0.4170 -0.0895
  788MPD2     C11614   1.495   4.647   0.365 -0.1653 -0.0377 -0.0869
  788MPD2    C111615   1.361   4.660   0.326  0.1785 -0.2618  0.4434
  788MPD2    C211616   1.311   0.063   0.302  0.2694  0.7506  0.4630
  788MPD2    C311617   1.395   0.176   0.311  0.1982  0.1075  0.4560
  788MPD2    C411618   1.529   0.157   0.348  0.5913  0.1327 -0.3254
  788MPD2    C511619   1.574   0.034   0.378  0.5469  0.1764  0.2663
  788MPD2     H11620   1.211   0.066   0.258  1.6387  0.0510 -2.6719
  788MPD2    H111621   1.589   0.247   0.349 -0.5201  0.8663  0.4645
  788MPD2    H211622   1.544   4.555   0.395  0.8616  0.3558 -0.5712
  788MPD2    H311623   1.673   0.027   0.423 -1.1669  0.1003  4.0482
  788MPD2     N11624   1.352   0.306   0.281  0.0245 -0.2251 -0.3106
  788MPD2    H511625   1.419   0.381   0.294  1.1694 -1.2881 -0.0582
  788MPD2    N111626   1.273   4.556   0.315  0.5437  0.1224 -0.0284
  788MPD2    H711627   1.174   4.573   0.297  0.6881  1.0027 -0.0084
  789MPD2     C11628   1.516   0.647  16.412  0.0717  0.1334 -0.8554
  789MPD2    C111629   1.410   0.686  16.329 -0.1717  0.2446 -0.6774
  789MPD2    C211630   1.298   0.734  16.389  0.3010 -0.2817 -0.2507
  789MPD2    C311631   1.280   0.743  16.527 -0.1713 -0.6265 -0.4907
  789MPD2    C411632   1.385   0.692  16.603  0.0120  0.0460  0.5611
  789MPD2    C511633   1.499   0.643  16.549 -0.0693 -0.6157 -0.1976
  789MPD2     H11634   1.219   0.762  16.321 -3.0595 -3.1626  2.4686
  789MPD2    H111635   1.377   0.674  16.710 -1.0407  2.5120  0.8823
  789MPD2    H211636   1.615   0.634  16.369 -0.2233 -1.8358 -0.9474
  789MPD2    H311637   1.575   0.601  16.614  0.7066  1.4990  0.2690
  789MPD2     N11638   1.170   0.786  16.593 -0.3749 -0.3213  0.3512
  789MPD2    H511639   1.169   0.789  16.695  0.2713  2.4321  0.2912
  789MPD2    N111640   1.415   0.695  16.191  0.5092  0.1457 -0.5337
  789MPD2    H711641   1.323   0.713  16.151 -0.5272  0.1162  1.8454
  790MPD2     C11642   2.851   2.842  13.043  0.4403 -0.3373 -0.6069
  790MPD2    C111643   2.856   2.736  13.132  0.3178 -0.2350  0.3445
  790MPD2    C211644   2.836   2.604  13.081 -0.8096  0.5437  0.2863
  790MPD2    C311645   2.804   2.589  12.952 -0.1068 -0.5216  0.6311
  790MPD2    C411646   2.793   2.692  12.862  0.3000 -0.0072 -0.6498
  790MPD2    C511647   2.818   2.817  12.914  0.0342  0.0413  0.5970
  790MPD2     H11648   2.833   2.514  13.141  3.3377  1.3922  1.7967
  790MPD2    H111649   2.762   2.675  12.759 -0.4333  0.3140 -0.4838
  790MPD2    H211650   2.867   2.946  13.068 -0.4768 -0.3519  0.0740
  790MPD2    H311651   2.801   2.897  12.842 -1.0631  0.3339  1.1772
  790MPD2     N11652   2.780   2.456  12.912  0.2051  0.4324  0.5462
  790MPD2    H511653   2.785   2.379  12.978  1.6456  0.1824  0.1662
  790MPD2    N111654   2.871   2.767  13.269 -0.5121  0.4914 -0.8969
  790MPD2    H711655   2.898   2.862  13.292  0.8468 -0.1022 -0.0280
  791MPD2     C11656   2.286   2.153  12.370 -0.1321  0.2448  1.2052
  791MPD2    C111657   2.335   2.052  12.458  0.4241 -0.4188  0.1845
  791MPD2    C211658   2.263   1.938  12.472 -0.1515  0.0046 -0.2886
  791MPD2    C311659   2.142   1.927  12.400 -0.6168  0.0432  0.0413
  791MPD2    C411660   2.105   2.013  12.300  0.0272  0.2333 -0.8630
  791MPD2    C511661   2.175   2.134  12.288 -0.7740 -0.8003 -0.2400
  791MPD2     H11662   2.307   1.858  12.531  2.5687  0.7393 -1.3183
  791MPD2    H111663   2.018   1.995  12.238  0.9928  1.7403 -2.6525
  791MPD2    H211664   2.335   2.250  12.362 -0.3957  0.1201 -1.7738
  791MPD2    H311665   2.149   2.216  12.221 -0.2784  0.2174  0.8051
  791MPD2     N11666   2.084   1.801  12.413 -0.3824  0.0737 -0.0273
  791MPD2    H511667   2.117   1.743  12.490 -0.5312 -0.6041 -0.4757
  791MPD2    N111668   2.460   2.076  12.521 -0.5820  0.3375  0.0770
  791MPD2    H711669   2.492   2.169  12.497  0.4173  0.1302  0.6192
  792MPD2     C11670   2.957   1.772  11.088 -0.6663 -0.2189  0.3136
  792MPD2    C111671   2.943   1.828  10.969  0.3830  0.3007 -0.1322
  792MPD2    C211672   2.856   1.760  10.879  0.3013 -0.3054 -0.7437
  792MPD2    C311673   2.789   1.644  10.911  0.3954 -0.1742  0.1764
  792MPD2    C411674   2.795   1.602  11.043 -0.3196 -0.1760  0.0185
  792MPD2    C511675   2.890   1.658  11.123 -0.3094  0.0714 -0.9194
  792MPD2     H11676   2.848   1.798  10.777  2.7104  0.2852 -0.6979
  792MPD2    H111677   2.739   1.516  11.078 -0.0179  0.1226  1.2587
  792MPD2    H211678   3.018   1.820  11.164 -0.0417 -1.1952  0.4284
  792MPD2    H311679   2.913   1.618  11.221  2.2870  1.2273 -1.0602
  792MPD2     N11680   2.708   1.575  10.819 -0.6091  0.4735  0.5073
  792MPD2    H511681   2.664   1.486  10.842  1.8785 -0.8630  0.0270
  792MPD2    N111682   3.018   1.943  10.934  0.0272 -0.8587  0.2294
  792MPD2    H711683   3.097   1.962  10.995  1.5050  0.2810 -2.0523
  793MPD2     C11684   2.662   1.230   9.829 -0.2522  0.5274  0.7920
  793MPD2    C111685   2.657   1.368   9.845  0.2991 -0.0858 -0.0611
  793MPD2    C211686   2.631   1.417   9.973 -0.4197  0.0513  0.0772
  793MPD2    C311687   2.610   1.339  10.087  0.1404  0.2956  0.3761
  793MPD2    C411688   2.609   1.204  10.063  0.2624 -0.4574  0.4243
  793MPD2    C511689   2.629   1.151   9.936 -0.7685 -0.0651 -0.5852
  793MPD2     H11690   2.629   1.524   9.988 -1.2540  0.0129  0.2606
  793MPD2    H111691   2.592   1.129  10.140 -0.3937 -0.5107  0.2294
  793MPD2    H211692   2.684   1.177   9.737 -0.8841  0.0278  0.9236
  793MPD2    H311693   2.622   1.043   9.923  0.1465 -0.1957 -0.0267
  793MPD2     N11694   2.593   1.412  10.209  0.3584  0.3409 -0.1451
  793MPD2    H511695   2.609   1.513  10.210 -1.6939  0.6990 -2.0801
  793MPD2    N111696   2.677   1.460   9.739 -0.0288 -0.0865 -0.1467
  793MPD2    H711697   2.699   1.556   9.762  1.4942 -0.1953 -1.1472
  794MPD2     C11698   2.270   1.443  16.785 -0.4748  0.3286  0.7935
  794MPD2    C111699   2.156   1.424  16.860 -0.5844 -0.2551 -0.2183
  794MPD2    C211700   2.037   1.425  16.786  0.2560  0.5463 -0.4577
  794MPD2    C311701   2.041   1.453  16.648  0.1782 -0.1931 -0.2288
  794MPD2    C411702   2.155   1.473  16.580 -0.1281  0.3476 -0.2340
  794MPD2    C511703   2.272   1.465  16.652 -0.7441 -0.1707  0.5593
  794MPD2     H11704   1.941   1.418  16.835 -0.6471  4.0204 -1.7039
  794MPD2    H111705   2.154   1.483  16.472  2.0449  1.3190 -0.1712
  794MPD2    H211706   2.369   1.428  16.828 -0.7532  0.7606  1.5817
  794MPD2    H311707   2.367   1.475  16.600  0.1697 -1.5449  1.9768
  794MPD2     N11708   1.926   1.464  16.565  0.1866  0.3367  0.0741
  794MPD2    H511709   1.955   1.487  16.471  2.6604 -0.6307  0.5937
  794MPD2    N111710   2.152   1.406  17.000  0.2365 -0.5861 -0.0384
  794MPD2    H711711   2.057   1.393  17.035  0.2094 -0.5616 -0.1019
  795MPD2     C11712   0.122   3.466  13.910 -0.0008 -0.1945 -0.1718
  795MPD2    C111713   0.145   3.408  13.786  0.8565  0.2104 -0.3020
  795MPD2    C211714   0.261   3.337  13.768 -0.0946  0.2450 -0.2594
  795MPD2    C311715   0.351   3.324  13.864 -0.6975  0.1000 -0.3715
  795MPD2    C411716   0.334   3.390  13.985 -0.0245 -0.1591  0.9177
  795MPD2    C511717   0.213   3.453  14.009  0.0408  0.3082  0.6925
  795MPD2     H11718   0.270   3.292  13.670  0.5140 -0.6258  0.1977
  795MPD2    H111719   0.402   3.389  14.068 -0.2718 -1.4113  1.1065
  795MPD2    H211720   0.030   3.522  13.921  0.0759 -0.4925  2.0582
  795MPD2    H311721   0.197   3.503  14.104  0.6005  1.2063  0.3132
  795MPD2     N11722   0.454   3.237  13.839  0.1245  0.3730 -0.1020
  795MPD2    H511723   0.457   3.172  13.761  2.1182 -0.9187  1.0495
  795MPD2    N111724   0.053   3.422  13.682  0.7441 -0.2407  0.3823
  795MPD2    H711725   0.059   3.353  13.607 -1.6344 -0.6944  0.5933
  796MPD2     C11726   3.980   0.516  15.611 -0.0636  0.2574  0.9092
  796MPD2    C111727   4.068   0.557  15.711 -0.5540 -0.5558  0.1854
  796MPD2    C211728   4.102   0.687  15.716  0.2739 -0.1781 -0.1487
  796MPD2    C311729   4.053   0.775  15.612  0.7600  0.0740 -0.5503
  796MPD2    C411730   3.969   0.731  15.519 -0.3936 -0.5641  0.4631
  796MPD2    C511731   3.927   0.599  15.517 -0.2212  0.1827 -0.1234
  796MPD2     H11732   4.161   0.724  15.799 -0.7200  0.8731  0.0931
  796MPD2    H111733   3.931   0.796  15.441 -0.7277 -0.5953  0.5999
  796MPD2    H211734   3.961   0.412  15.592  0.1237  0.4827 -0.4665
  796MPD2    H311735   3.869   0.554  15.438  1.0288  0.7022 -1.3324
  796MPD2     N11736   4.086   0.910  15.624  0.9348 -0.0254 -0.0240
  796MPD2    H511737   4.149   0.938  15.698  0.6541  1.9408 -0.5477
  796MPD2    N111738   4.125   0.452  15.784 -0.3055  0.1127 -0.9259
  796MPD2    H711739   4.076   0.364  15.778  0.5056 -0.2422 -2.4922
  797MPD2     C11740   0.408   4.660  17.017  0.8412 -0.0551  0.3688
  797MPD2    C111741   0.519   0.008  16.973  0.0501  0.7256  0.6471
  797MPD2    C211742   0.498   0.131  16.924 -0.3943 -0.3858  0.1479
  797MPD2    C311743   0.370   0.190  16.900 -0.8228 -0.2916  0.0771
  797MPD2    C411744   0.260   0.112  16.939  0.4485 -0.0361 -0.3814
  797MPD2    C511745   0.287   4.714  16.987  0.0975  0.2368  0.5083
  797MPD2     H11746   0.591   0.172  16.885 -0.1964 -0.3134  0.6970
  797MPD2    H111747   0.155   0.132  16.920  0.6969  1.2184 -0.4814
  797MPD2    H211748   0.414   4.562  17.063 -2.6524 -0.3821  0.1578
  797MPD2    H311749   0.197   4.661  17.019 -0.8609 -0.0400 -2.6373
  797MPD2     N11750   0.354   0.312  16.830  0.1246 -0.2449  0.1283
  797MPD2    H511751   0.259   0.342  16.810 -0.1223 -1.2443 -0.1764
  797MPD2    N111752   0.647   4.687  16.953 -0.4939 -0.4549 -0.3874
  797MPD2    H711753   0.722   0.025  16.931  0.6058 -0.7848  2.3933
  798MPD2     C11754   0.967   0.457  16.489 -0.3356 -0.0758  0.0368
  798MPD2    C111755   0.879   0.438  16.593  0.5527  0.7249 -0.0104
  798MPD2    C211756   0.892   0.333  16.673  0.0014 -0.4275 -0.4556
  798MPD2    C311757   0.994   0.238  16.646  0.4487  0.5558 -0.3804
  798MPD2    C411758   1.069   0.247  16.526 -0.8495  0.0138 -0.5295
  798MPD2    C511759   1.056   0.363  16.459  0.3660 -0.3322  0.1373
  798MPD2     H11760   0.812   0.302  16.740 -0.8432 -2.0983 -2.2484
  798MPD2    H111761   1.152   0.182  16.505 -1.2036 -0.2454 -1.1311
  798MPD2    H211762   0.957   0.543  16.424 -1.6384  0.6608  1.2039
  798MPD2    H311763   1.117   0.378  16.371 -1.3055 -0.7959 -1.0848
  798MPD2     N11764   1.001   0.127  16.731  0.1824 -0.3480  0.1987
  798MPD2    H511765   0.933   0.121  16.807  1.2643  0.1408  1.1944
  798MPD2    N111766   0.761   0.511  16.617 -0.4665  0.4731  0.6939
  798MPD2    H711767   0.698   0.481  16.690  0.7366  0.4483  1.7108
  799MPD2     C11768   4.481   1.179  14.253  0.3320  0.2163  0.2277
  799MPD2    C111769   4.348   1.196  14.291 -0.8173 -0.1493 -0.2130
  799MPD2    C211770   4.275   1.289  14.224  0.4288  0.2107 -0.2677
  799MPD2    C311771   4.324   1.359  14.113  0.2278  0.4704 -0.0995
  799MPD2    C411772   4.457   1.338  14.072 -0.4187 -0.1651  0.4590
  799MPD2    C511773   4.534   1.249  14.144  0.1198  0.1197  0.2023
  799MPD2     H11774   4.172   1.307  14.255  0.0608  0.9941 -1.9683
  799MPD2    H111775   4.503   1.389  13.988 -0.8202  1.5780  1.3106
  799MPD2    H211776   4.550   1.112  14.305  1.8082  1.7750  0.2798
  799MPD2    H311777   4.639   1.242  14.120  0.5483  0.0135  2.0843
  799MPD2     N11778   4.251   1.459  14.042 -0.0241 -0.0128 -0.1833
  799MPD2    H511779   4.297   1.514  13.970 -1.1651  0.3321 -0.6632
  799MPD2    N111780   4.290   1.129  14.396  0.2368  0.0095  0.2688
  799MPD2    H711781   4.189   1.133  14.405  0.3368  0.8385  0.9638
  800MPD2     C11782   4.713   2.788  14.199 -0.3954 -0.0529  0.2478
  800MPD2    C111783   0.117   2.781  14.156 -0.1185 -0.0200  0.0353
  800MPD2    C211784   0.143   2.690  14.054  0.3053 -0.8656  0.6821
  800MPD2    C311785   0.049   2.607  13.993  0.2119  0.2438  0.3873
  800MPD2    C411786   4.648   2.627  14.039 -0.1935 -0.2145  0.5984
  800MPD2    C511787   4.615   2.717  14.135 -0.5991  0.3324 -0.4420
  800MPD2     H11788   0.249   2.682  14.031  0.4341 -0.1470  1.0230
  800MPD2    H111789   4.563   2.576  13.996 -1.1908  1.0955  1.0513
  800MPD2    H211790   4.683   2.853  14.280 -0.2726  1.4179 -0.8954
  800MPD2    H311791   4.515   2.715  14.175 -0.4147  1.3188  0.0674
  800MPD2     N11792   0.096   2.511  13.904 -0.3473 -0.0361 -0.4477
  800MPD2    H511793   0.196   2.510  13.885 -0.3222 -1.2421 -0.2366
  800MPD2    N111794   0.210   2.862  14.230 -0.3040  0.4937  0.0544
  800MPD2    H711795   0.171   2.932  14.293 -0.7868  0.2908 -0.0198
  801MPD2     C11796   0.195   3.543  14.450 -1.3482  0.1890  0.4665
  801MPD2    C111797   0.151   3.422  14.405 -0.4980 -0.0213  0.4986
  801MPD2    C211798   0.022   3.378  14.430  0.1234  0.0102  0.1510
  801MPD2    C311799   4.667   3.454  14.509  0.4142  0.4815  0.2128
  801MPD2    C411800   4.711   3.581  14.544 -0.3426 -0.0356  0.4272
  801MPD2    C511801   0.113   3.623  14.523 -0.2835 -0.8224  0.2116
  801MPD2     H11802   4.714   3.285  14.387  1.1168 -0.0095 -0.6209
  801MPD2    H111803   4.651   3.643  14.609  0.6380 -0.0155  1.3277
  801MPD2    H211804   0.297   3.580  14.449 -0.2567 -2.8368  0.9232
  801MPD2    H311805   0.157   3.708  14.575  3.1271 -0.4871 -3.2521
  801MPD2     N11806   4.541   3.415  14.555 -0.0995 -0.3903  0.6771
  801MPD2    H511807   4.497   3.477  14.622  2.6805 -0.7094  2.7855
  801MPD2    N111808   0.232   3.326  14.342  0.5062  0.1345  0.2996
  801MPD2    H711809   0.181   3.240  14.327  2.2924 -0.9679  0.5658
  802MPD2     C11810   3.345   3.535  17.273 -0.5809 -0.0550  0.3547
  802MPD2    C111811   3.480   3.530  17.307 -0.5863 -0.2036  0.2519
  802MPD2    C211812   3.565   3.439  17.247 -0.1460 -0.2537 -0.1266
  802MPD2    C311813   3.530   3.362  17.134  0.2259  0.5795 -0.2534
  802MPD2    C411814   3.398   3.371  17.102 -0.2396 -0.5625 -0.2917
  802MPD2    C511815   3.308   3.451  17.168 -0.3166  0.2026 -0.2887
  802MPD2     H11816   3.671   3.437  17.271 -0.7383 -2.5462  2.2164
  802MPD2    H111817   3.364   3.338  17.004 -1.8054  1.0782 -0.3044
  802MPD2    H211818   3.266   3.592  17.321  0.6381 -2.3042  5.0163
  802MPD2    H311819   3.204   3.452  17.137  0.6138  1.0646 -3.4046
  802MPD2     N11820   3.628   3.283  17.073 -0.0435 -0.1586 -0.5205
  802MPD2    H511821   3.721   3.286  17.113 -0.1845  2.7888 -0.3968
  802MPD2    N111822   3.539   3.620  17.400 -0.3222  0.4480  0.3123
  802MPD2    H711823   3.636   3.600  17.426 -0.4671  1.8204  1.9439
  803MPD2     C11824   0.789   1.896  11.707 -0.0982  0.4493  1.1748
  803MPD2    C111825   0.901   1.839  11.758 -0.2984 -0.4886 -0.0079
  803MPD2    C211826   0.890   1.714  11.822 -0.6115  0.0216 -1.0088
  803MPD2    C311827   0.764   1.659  11.843  0.3650  0.2087 -0.4765
  803MPD2    C411828   0.651   1.727  11.808 -0.7483  0.6862 -0.0529
  803MPD2    C511829   0.663   1.842  11.739  0.1166 -0.0960  0.5964
  803MPD2     H11830   0.981   1.665  11.855 -1.1827 -1.1236 -1.1313
  803MPD2    H111831   0.558   1.681  11.838 -1.4761  0.6617 -2.3721
  803MPD2    H211832   0.790   1.990  11.654 -1.0696  0.5219  1.2800
  803MPD2    H311833   0.574   1.893  11.705  1.8985  1.6924 -1.3504
  803MPD2     N11834   0.748   1.538  11.913  0.1276  0.2562  0.0576
  803MPD2    H511835   0.654   1.519  11.944 -0.5665  1.1028 -1.5253
  803MPD2    N111836   1.026   1.906  11.755 -0.6319  0.0114  0.3241
  803MPD2    H711837   1.103   1.856  11.798 -0.0149  0.2837 -0.4600
  804MPD2     C11838   4.227   3.217  16.614 -0.3574 -0.0970  0.6519
  804MPD2    C111839   4.253   3.188  16.748 -0.1974  0.2753  0.0135
  804MPD2    C211840   4.335   3.263  16.827 -0.3382 -0.3914  0.1511
  804MPD2    C311841   4.406   3.365  16.770  1.0583  0.4350 -0.0922
  804MPD2    C411842   4.388   3.397  16.631 -0.0213  0.7477  0.8211
  804MPD2    C511843   4.302   3.323  16.553  0.0539  0.7687 -0.0945
  804MPD2     H11844   4.340   3.237  16.932 -0.4629  0.1675  0.2963
  804MPD2    H111845   4.441   3.479  16.584 -1.1580  0.2900 -1.2653
  804MPD2    H211846   4.181   3.149  16.544  2.2851 -2.1097  0.8400
  804MPD2    H311847   4.290   3.340  16.447  0.1097 -1.7255 -0.5177
  804MPD2     N11848   4.500   3.432  16.853  0.1699 -0.1682 -0.5777
  804MPD2    H511849   4.515   3.391  16.944 -0.4755  0.3739 -0.2271
  804MPD2    N111850   4.203   3.070  16.812  0.3954 -0.4687  0.6016
  804MPD2    H711851   4.216   3.069  16.912 -1.8657  1.5723  0.9094
  805MPD2     C11852   3.929   1.837  15.379  0.0592  0.2172 -0.0629
  805MPD2    C111853   4.027   1.825  15.283 -0.0824 -0.2186  0.5348
  805MPD2    C211854   4.160   1.811  15.328 -0.0639 -0.5588 -0.1234
  805MPD2    C311855   4.196   1.806  15.461 -0.1246 -0.2749 -0.0312
  805MPD2    C411856   4.091   1.816  15.553  0.0777 -0.0858  0.4632
  805MPD2    C511857   3.964   1.841  15.515 -1.5648 -0.4637  0.1501
  805MPD2     H11858   4.239   1.807  15.254 -0.2270  0.1056 -0.3327
  805MPD2    H111859   4.111   1.824  15.659 -0.5389 -1.1873  0.6642
  805MPD2    H211860   3.826   1.848  15.348  0.4766  1.5317 -0.9396
  805MPD2    H311861   3.880   1.854  15.584 -0.8841  0.9493  0.7078
  805MPD2     N11862   4.331   1.795  15.507 -0.0568  0.1816  0.0347
  805MPD2    H511863   4.400   1.820  15.438  0.3951  0.7599  0.7030
  805MPD2    N111864   4.003   1.834  15.142  0.7091 -0.2224  0.2420
  805MPD2    H711865   4.082   1.826  15.079 -0.3806  2.9158 -1.5270
  806MPD2     C11866   0.175   1.031   0.807  0.2426 -0.9692  0.2040
  806MPD2    C111867   0.236   1.134   0.886  0.2205 -0.7358 -0.0988
  806MPD2    C211868   0.199   1.264   0.862  0.4749 -0.0950 -0.2495
  806MPD2    C311869   0.108   1.300   0.769 -0.1754 -0.0162 -0.0795
  806MPD2    C411870   0.074   1.202   0.673  0.6149 -0.1180  0.6109
  806MPD2    C511871   0.100   1.073   0.698 -0.1909  0.1304 -0.6143
  806MPD2     H11872   0.231   1.337   0.935 -0.6889  2.1377 -1.9431
  806MPD2    H111873   0.002   1.225   0.595  2.7936 -1.2168 -1.7273
  806MPD2    H211874   0.204   0.927   0.814 -1.7838 -1.5628 -0.3153
  806MPD2    H311875   0.075   0.997   0.624 -1.3874  2.1342 -2.2639
  806MPD2     N11876   0.061   1.429   0.771  0.6386 -0.4434  0.0518
  806MPD2    H511877   0.086   1.487   0.851  3.6035  0.6375 -1.6938
  806MPD2    N111878   0.341   1.090   0.971  0.0280 -0.3974  0.1243
  806MPD2    H711879   0.369   0.993   0.963 -1.5680 -0.8784  0.2976
  807MPD2     C11880   0.664   0.821   1.636 -0.0061 -0.3644  0.5355
  807MPD2    C111881   0.564   0.889   1.570  0.1846 -0.5373 -0.0685
  807MPD2    C211882   0.435   0.865   1.616 -0.0937  0.2316  0.6105
  807MPD2    C311883   0.407   0.766   1.709  0.3113 -0.0105 -0.6575
  807MPD2    C411884   0.510   0.703   1.775 -0.1440  0.0997 -0.0542
  807MPD2    C511885   0.640   0.735   1.741 -0.0723 -0.1761  0.2213
  807MPD2     H11886   0.354   0.908   1.558  0.8458  2.4929  0.9769
  807MPD2    H111887   0.500   0.625   1.849  0.2909  0.6313  0.5665
  807MPD2    H211888   0.769   0.820   1.611 -0.0383  1.7038  0.3677
  807MPD2    H311889   0.729   0.682   1.773 -1.2425 -2.2406  0.0246
  807MPD2     N11890   0.270   0.732   1.721 -0.0569 -0.4348  0.4143
  807MPD2    H511891   0.206   0.784   1.662  0.8076  2.8910  2.4506
  807MPD2    N111892   0.577   0.968   1.454 -0.0990 -0.5735 -0.3823
  807MPD2    H711893   0.491   1.015   1.427 -0.0224 -0.9387 -1.2602
  808MPD2     C11894   0.366   2.947   9.244 -0.1733 -0.5760  0.6673
  808MPD2    C111895   0.343   3.076   9.292  0.4834 -0.0401 -0.1501
  808MPD2    C211896   0.458   3.159   9.297 -0.1511  0.1972  0.3633
  808MPD2    C311897   0.585   3.107   9.269  0.1452  0.2486  0.2133
  808MPD2    C411898   0.601   2.974   9.227 -0.7127 -0.6820 -0.3482
  808MPD2    C511899   0.491   2.899   9.215  0.0440  0.4439  0.4472
  808MPD2     H11900   0.438   3.263   9.319 -0.0561  0.8184 -2.5997
  808MPD2    H111901   0.700   2.934   9.206 -1.0554 -1.6888 -0.0190
  808MPD2    H211902   0.280   2.883   9.227 -1.5472  1.5128 -0.3387
  808MPD2    H311903   0.499   2.799   9.174 -0.5998  0.3274  0.5925
  808MPD2     N11904   0.710   3.174   9.294  0.4870 -0.2049 -0.2882
  808MPD2    H511905   0.800   3.130   9.277  1.9628  2.3021  1.0155
  808MPD2    N111906   0.220   3.131   9.333 -0.5421  0.4490  0.5261
  808MPD2    H711907   0.222   3.231   9.352 -1.9745  0.2277  1.8982
  809MPD2     C11908   1.499   3.286   8.894  1.1585  0.9993 -0.2750
  809MPD2    C111909   1.502   3.217   9.013 -0.4796  0.2466  0.3474
  809MPD2    C211910   1.397   3.230   9.102 -0.3484 -0.3497  0.0413
  809MPD2    C311911   1.287   3.311   9.079  0.3364  0.8675  0.2302
  809MPD2    C411912   1.276   3.368   8.956 -0.2436 -0.3015  0.4666
  809MPD2    C511913   1.384   3.365   8.872 -0.0184 -0.2927 -0.1529
  809MPD2     H11914   1.410   3.175   9.194 -2.1295  1.3898  1.3485
  809MPD2    H111915   1.192   3.433   8.933  1.2255  0.8501 -1.7566
  809MPD2    H211916   1.574   3.296   8.817  2.0865  1.4805  0.7050
  809MPD2    H311917   1.375   3.430   8.785 -2.0164 -2.1022 -1.2913
  809MPD2     N11918   1.177   3.319   9.165  0.2428 -0.2325 -0.2787
  809MPD2    H511919   1.100   3.375   9.130 -0.5751  0.1228  2.0781
  809MPD2    N111920   1.612   3.145   9.048 -0.4774 -0.2734  0.0218
  809MPD2    H711921   1.621   3.116   9.145 -0.2421 -2.4099 -0.6342
  810MPD2     C11922   0.190   2.131   9.674  0.0804  0.3413  0.3039
  810MPD2    C111923   0.153   2.019   9.745 -0.1397 -0.0072 -0.0983
  810MPD2    C211924   0.249   1.951   9.818  0.1398 -0.3782  0.1603
  810MPD2    C311925   0.379   1.989   9.816  0.0793 -0.3147  0.8960
  810MPD2    C411926   0.419   2.092   9.739  0.8232 -0.1931 -0.4141
  810MPD2    C511927   0.319   2.165   9.672  0.5069 -0.2769 -0.0663
  810MPD2     H11928   0.228   1.862   9.877 -0.6553  0.7075  1.5142
  810MPD2    H111929   0.522   2.126   9.738  0.9208 -0.5339 -1.3048
  810MPD2    H211930   0.115   2.194   9.627 -0.1011  0.4498  0.7322
  810MPD2    H311931   0.347   2.250   9.610 -0.7028 -0.7340 -1.2222
  810MPD2     N11932   0.476   1.926   9.895 -0.1083 -0.2234  0.9171
  810MPD2    H511933   0.572   1.957   9.882 -0.3200  0.0786  0.0747
  810MPD2    N111934   0.010   1.978   9.735 -0.3229  0.0989 -0.5182
  810MPD2    H711935   4.673   2.033   9.677 -1.4676 -0.7785 -0.0845
  811MPD2     C11936   4.089   1.833   9.199 -0.6937  0.1914  0.0220
  811MPD2    C111937   4.146   1.922   9.288 -0.5625  0.3299  0.1080
  811MPD2    C211938   4.104   2.057   9.288 -0.0253  0.1543 -0.4718
  811MPD2    C311939   4.009   2.099   9.190  0.7300  0.0509 -0.0653
  811MPD2    C411940   3.956   2.010   9.098  0.6927  0.5297 -0.3261
  811MPD2    C511941   3.992   1.879   9.111  0.4143  0.3322  0.7084
  811MPD2     H11942   4.140   2.131   9.359  1.0098  0.4805 -1.3409
  811MPD2    H111943   3.874   2.027   9.029  0.1141 -1.4827 -0.1462
  811MPD2    H211944   4.115   1.728   9.196 -1.3746  0.1085 -2.6805
  811MPD2    H311945   3.950   1.807   9.041 -0.6482  0.2704  1.4004
  811MPD2     N11946   3.966   2.234   9.208 -0.6342  0.3479  0.5842
  811MPD2    H511947   3.997   2.287   9.289  0.9149  0.1784  0.0985
  811MPD2    N111948   4.228   1.871   9.389 -0.3375 -0.0554 -0.1961
  811MPD2    H711949   4.244   1.772   9.374  1.4206  0.4842 -1.9635
  812MPD2     C11950   2.997   2.274  12.427  0.0621 -0.0852 -0.3089
  812MPD2    C111951   3.130   2.240  12.447 -0.4160 -0.6430  0.0492
  812MPD2    C211952   3.155   2.114  12.503 -0.1396 -0.2674 -0.2234
  812MPD2    C311953   3.054   2.026  12.531  0.0865 -0.2216 -0.2115
  812MPD2    C411954   2.921   2.066  12.518  0.1960  0.1895  0.6781
  812MPD2    C511955   2.896   2.186  12.465  0.1332  0.1575 -1.0090
  812MPD2     H11956   3.258   2.086  12.521 -0.8753 -1.9670  1.2542
  812MPD2    H111957   2.837   1.999  12.533 -0.7297  1.7282  2.3887
  812MPD2    H211958   2.974   2.358  12.363  0.6097  0.8885  0.7816
  812MPD2    H311959   2.795   2.210  12.433 -0.5078  0.0354  0.8939
  812MPD2     N11960   3.096   1.901  12.590 -0.2373 -0.2543  0.6394
  812MPD2    H511961   3.195   1.876  12.591  0.3566  1.9558 -3.0909
  812MPD2    N111962   3.223   2.337  12.427  0.0444  0.0875 -0.4617
  812MPD2    H711963   3.188   2.423  12.387  0.0593  0.4550  0.3094
  813MPD2     C11964   2.515   4.176  12.501  0.1622 -0.5259  0.4940
  813MPD2    C111965   2.618   4.133  12.587  0.0100  0.0091 -0.2880
  813MPD2    C211966   2.585   4.105  12.713  0.7199 -0.1776 -0.1688
  813MPD2    C311967   2.457   4.104  12.757 -0.2499  0.1875  0.1289
  813MPD2    C411968   2.357   4.148  12.672 -0.4134 -0.1570  0.3452
  813MPD2    C511969   2.391   4.190  12.547  0.0220 -0.9211 -0.2979
  813MPD2     H11970   2.662   4.073  12.783  1.1147 -1.4904 -1.2029
  813MPD2    H111971   2.250   4.147  12.687 -0.5352  0.1736 -0.5201
  813MPD2    H211972   2.540   4.193  12.397  0.9766 -0.4211  0.7054
  813MPD2    H311973   2.308   4.209  12.480 -0.4214 -0.8876  0.2645
  813MPD2     N11974   2.430   4.057  12.891  0.5760 -0.4319  0.1373
  813MPD2    H511975   2.512   4.033  12.945  1.2137 -1.3623 -1.2249
  813MPD2    N111976   2.750   4.119  12.537  0.2302 -0.2245  0.5030
  813MPD2    H711977   2.764   4.142  12.439 -3.2906  2.1979  0.5862
  814MPD2     C11978   3.134   0.650  12.130 -0.4210 -0.0086 -0.1706
  814MPD2    C111979   3.120   0.747  12.025  0.4625 -0.5571  0.0556
  814MPD2    C211980   3.218   0.854  12.013 -0.3419  0.1156 -0.0867
  814MPD2    C311981   3.320   0.860  12.101  0.2479  0.1921  0.4014
  814MPD2    C411982   3.321   0.768  12.207 -0.0744 -0.6859  0.5564
  814MPD2    C511983   3.235   0.667  12.219 -0.5611 -0.1941  0.2861
  814MPD2     H11984   3.223   0.921  11.927 -1.6811  0.9308  0.4887
  814MPD2    H111985   3.396   0.772  12.285 -0.0314  0.2362  0.4793
  814MPD2    H211986   3.068   0.567  12.152 -1.4653  0.4842 -1.4114
  814MPD2    H311987   3.244   0.592  12.297 -0.7520 -1.0559 -0.5071
  814MPD2     N11988   3.419   0.957  12.115 -0.7953  0.0261  0.1855
  814MPD2    H511989   3.477   0.953  12.198  0.7586  1.5573 -0.8379
  814MPD2    N111990   3.025   0.729  11.927  0.0329  0.0972  0.1264
  814MPD2    H711991   3.038   0.790  11.848  1.6731 -2.4440 -1.5411
  815MPD2     C11992   3.817   3.796  11.658 -0.1097 -0.2173  0.2958
  815MPD2    C111993   3.830   3.661  11.667  0.4593 -0.5071 -0.4547
  815MPD2    C211994   3.748   3.591  11.762 -0.3105  0.1854  0.4553
  815MPD2    C311995   3.665   3.663  11.845  0.1668  0.2041  0.5491
  815MPD2    C411996   3.665   3.802  11.836  0.3996  1.0564  0.1195
  815MPD2    C511997   3.749   3.865  11.750 -0.3345  0.5575 -0.5184
  815MPD2     H11998   3.747   3.484  11.777 -0.2776 -0.0254 -1.0358
  815MPD2    H111999   3.611   3.867  11.904 -0.4270  1.2643 -0.7466
  815MPD2    H212000   3.874   3.851  11.584 -0.4003 -1.1956 -0.6595
  815MPD2    H312001   3.759   3.973  11.745 -0.5898  0.4601 -2.7362
  815MPD2     N12002   3.595   3.603  11.949  0.1413  0.4083 -0.1965
  815MPD2    H512003   3.600   3.501  11.955 -0.7874  0.3522 -0.3308
  815MPD2    N112004   3.911   3.599  11.570 -0.4178 -0.1261  0.0114
  815MPD2    H712005   3.959   3.653  11.499  0.2219 -1.3578 -0.4909
  816MPD2     C12006   3.516   3.260  17.705 -0.5823  0.4293 -0.0483
  816MPD2    C112007   3.409   3.275  17.625  0.1432  0.1487  0.1906
  816MPD2    C212008   3.410   3.218  17.502 -0.5003 -0.3752 -0.0238
  816MPD2    C312009   3.511   3.138  17.454  0.6086 -0.2508  0.2072
  816MPD2    C412010   3.621   3.125  17.535  0.1454 -0.0781 -0.0838
  816MPD2    C512011   3.619   3.184  17.654  0.0407  0.7378  0.2261
  816MPD2     H12012   3.332   3.236  17.429 -0.9055  1.6110  0.8879
  816MPD2    H112013   3.709   3.067  17.508  0.8991  0.2374  1.7179
  816MPD2    H212014   3.522   3.301   0.097  0.1028 -2.8775  1.2608
  816MPD2    H312015   3.700   3.160   0.014  2.0463  1.3393 -1.9260
  816MPD2     N12016   3.502   3.089  17.322  0.0402  0.2807  0.2618
  816MPD2    H512017   3.432   3.129  17.260 -1.0670  1.2876  2.1549
  816MPD2    N112018   3.311   3.368  17.672 -0.7742  0.5291 -0.1612
  816MPD2    H712019   3.332   3.420   0.048 -1.9913 -1.0791  1.1614
  817MPD2     C12020   3.044   4.140  10.084  0.6678  0.1436 -0.3181
  817MPD2    C112021   3.138   4.208  10.005  0.5931 -0.4673  0.0566
  817MPD2    C212022   3.146   4.346  10.010  0.4364 -0.4482  0.5242
  817MPD2    C312023   3.057   4.419  10.095 -0.1020  0.8235  0.2882
  817MPD2    C412024   2.959   4.354  10.166  0.2394  0.2868 -0.2890
  817MPD2    C512025   2.957   4.216  10.156 -0.4618  0.2223  0.0702
  817MPD2     H12026   3.224   4.392   9.950 -0.6667  0.5428 -0.1540
  817MPD2    H112027   2.886   4.408  10.225  0.8225 -0.0800  0.7728
  817MPD2    H212028   3.030   4.033  10.090  0.0798  0.3058  1.3002
  817MPD2    H312029   2.879   4.169  10.214  2.2388 -2.6290  1.3452
  817MPD2     N12030   3.063   4.565  10.086 -0.1236 -0.0315 -0.0471
  817MPD2    H512031   3.139   4.597  10.027 -1.3047  0.0642 -1.5072
  817MPD2    N112032   3.229   4.140   9.918  0.1891  0.3275  0.0110
  817MPD2    H712033   3.273   4.188   9.840 -1.6995  1.0958 -0.5853
  818MPD2     C12034   2.245   3.890   9.770 -0.2285 -0.3318 -0.3527
  818MPD2    C112035   2.144   3.822   9.826 -0.8754 -0.1959 -0.1639
  818MPD2    C212036   2.165   3.687   9.849 -0.1156  0.2390 -0.2731
  818MPD2    C312037   2.287   3.630   9.819 -0.4126  0.5522 -0.0011
  818MPD2    C412038   2.387   3.699   9.750  0.2219  0.1145 -0.0865
  818MPD2    C512039   2.362   3.830   9.723 -0.2834  0.0440 -0.0928
  818MPD2     H12040   2.085   3.625   9.888 -0.7459  0.7903 -0.6857
  818MPD2    H112041   2.481   3.652   9.728 -0.9576 -1.2046 -2.2983
  818MPD2    H212042   2.243   3.995   9.743  0.8944 -0.3747 -0.5736
  818MPD2    H312043   2.430   3.899   9.675  0.7862  0.3629  1.9240
  818MPD2     N12044   2.313   3.494   9.862  0.7893 -0.1277 -0.2767
  818MPD2    H512045   2.403   3.453   9.840  0.6312 -1.0403  0.7453
  818MPD2    N112046   2.017   3.876   9.870 -1.2534  0.1167  0.1735
  818MPD2    H712047   1.948   3.809   9.902 -1.3348  0.4949  0.7907
  819MPD2     C12048   4.408   1.362  15.380 -0.2054 -0.6691 -0.3707
  819MPD2    C112049   4.427   1.227  15.389 -0.0616  0.2612 -1.1502
  819MPD2    C212050   4.515   1.174  15.478 -0.6072  0.1915 -0.0473
  819MPD2    C312051   4.582   1.265  15.564  0.4935 -0.1647  0.5849
  819MPD2    C412052   4.563   1.403  15.548  0.3978 -0.6722 -0.5224
  819MPD2    C512053   4.471   1.449  15.459  0.4710  0.1330  0.1661
  819MPD2     H12054   4.548   1.072  15.494 -0.3469  0.1315 -0.9958
  819MPD2    H112055   4.626   1.470  15.606 -0.0787  0.1528 -0.9513
  819MPD2    H212056   4.333   1.400  15.312  2.1008 -1.7802 -3.5289
  819MPD2    H312057   4.448   1.555  15.446  0.1049  0.2672  1.9327
  819MPD2     N12058   4.684   1.218  15.646 -0.0029 -0.3395  0.3331
  819MPD2    H512059   4.708   1.120  15.638 -1.5117 -0.4578 -2.7527
  819MPD2    N112060   4.358   1.146  15.299 -0.3662 -0.0205 -0.4381
  819MPD2    H712061   4.307   1.202  15.231 -0.4901  0.4183  0.0207
  820MPD2     C12062   3.669   1.323  14.681  0.0392  0.6611 -0.0838
  820MPD2    C112063   3.786   1.371  14.728  0.0719 -1.1733  0.0334
  820MPD2    C212064   3.877   1.286  14.793  0.3628 -0.4196  0.9369
  820MPD2    C312065   3.850   1.154  14.815  0.2770 -0.5259  0.6748
  820MPD2    C412066   3.732   1.109  14.766 -0.0446  0.1712 -0.4794
  820MPD2    C512067   3.646   1.188  14.694 -0.0327 -0.8741  0.6095
  820MPD2     H12068   3.957   1.338  14.844  2.2748  0.5736 -3.0309
  820MPD2    H112069   3.698   1.006  14.778  1.1448 -0.4696 -2.7307
  820MPD2    H212070   3.601   1.388  14.626 -1.5394 -1.1227 -0.2088
  820MPD2    H312071   3.562   1.144  14.642  0.5577 -0.3015 -0.8139
  820MPD2     N12072   3.930   1.062  14.879 -0.0646 -0.1062  0.0878
  820MPD2    H512073   3.897   0.966  14.888  0.0164 -0.0831  0.6394
  820MPD2    N112074   3.811   1.503  14.702 -0.0460 -0.6456  0.2590
  820MPD2    H712075   3.733   1.558  14.666  2.2499  1.5229 -1.4934
  821MPD2     C12076   0.042   2.410  13.102  0.4149 -0.1745 -0.3696
  821MPD2    C112077   0.155   2.439  13.173 -0.0824  0.4494  0.3236
  821MPD2    C212078   0.263   2.506  13.099  0.0402 -0.0654 -0.3493
  821MPD2    C312079   0.248   2.536  12.965 -0.9646 -0.0891 -0.5681
  821MPD2    C412080   0.130   2.511  12.902 -0.3847  0.6306  0.5267
  821MPD2    C512081   0.028   2.446  12.974 -1.4384  0.8935  0.3459
  821MPD2     H12082   0.359   2.516  13.148 -0.3449 -1.6183  0.7083
  821MPD2    H112083   0.112   2.530  12.797 -1.4207 -0.4969  0.5025
  821MPD2    H212084   4.684   2.354  13.141  1.4851 -0.6158  1.3235
  821MPD2    H312085   4.671   2.397  12.926 -0.5373 -0.1894 -0.1066
  821MPD2     N12086   0.356   2.579  12.878  0.5365  0.2022 -0.3320
  821MPD2    H512087   0.326   2.633  12.797  2.2278  1.1206 -0.3571
  821MPD2    N112088   0.173   2.409  13.309 -0.4328 -0.2265  0.4730
  821MPD2    H712089   0.261   2.445  13.345  0.8243 -2.2071 -0.6594
  822MPD2     C12090   0.259   2.846  15.431 -0.5450  0.3597 -0.3248
  822MPD2    C112091   0.227   2.777  15.549 -0.4208 -0.1939 -0.7193
  822MPD2    C212092   0.170   2.846  15.654 -0.0582  0.2061  0.3764
  822MPD2    C312093   0.140   2.978  15.636  0.5954 -0.3386 -0.4905
  822MPD2    C412094   0.169   3.046  15.519  0.2195  0.3552  0.0946
  822MPD2    C512095   0.230   2.976  15.420  0.3678 -1.2036 -0.8611
  822MPD2     H12096   0.163   2.787  15.744  0.8269 -1.7019 -0.8164
  822MPD2    H112097   0.151   3.152  15.504 -0.0540  0.3016  0.0554
  822MPD2    H212098   0.313   2.800  15.350  2.0341  1.5541  0.7096
  822MPD2    H312099   0.260   3.035  15.334 -1.2914  1.2269  0.1985
  822MPD2     N12100   0.106   3.035  15.757 -0.3947  0.2107 -0.7005
  822MPD2    H512101   0.080   2.976  15.835  0.1205 -1.6563 -1.9214
  822MPD2    N112102   0.280   2.644  15.583 -0.1738  0.1899  0.2148
  822MPD2    H712103   0.273   2.616  15.680 -1.2777 -0.3969 -0.0426
  823MPD2     C12104   4.533   3.017  16.519 -0.0685 -0.2304  0.7670
  823MPD2    C112105   4.626   2.979  16.431 -1.0309 -0.3352 -0.2329
  823MPD2    C212106   4.709   2.875  16.458 -0.0130  1.1327  0.1504
  823MPD2    C312107   4.697   2.806  16.579  0.5065 -0.0081  0.6730
  823MPD2    C412108   4.588   2.835  16.658 -0.1368  0.3009 -0.6907
  823MPD2    C512109   4.508   2.944  16.633  0.6589 -0.2623 -0.3143
  823MPD2     H12110   0.058   2.853  16.384 -0.4334  1.6857 -0.4515
  823MPD2    H112111   4.570   2.780  16.750 -1.1474 -1.5139 -1.9650
  823MPD2    H212112   4.461   3.098  16.513  1.0657  0.7186  0.1835
  823MPD2    H312113   4.429   2.976  16.701 -1.2842 -0.4249 -2.4811
  823MPD2     N12114   0.061   2.707  16.624 -0.0850  0.1979 -0.2027
  823MPD2    H512115   0.048   2.669  16.717 -0.3186  2.9134  0.8838
  823MPD2    N112116   4.646   3.060  16.320  0.0432  0.6597  0.0146
  823MPD2    H712117   4.607   3.153  16.314  0.1276  0.6259 -1.0634
  824MPD2     C12118   0.546   1.842  15.353  0.7233 -0.6000  0.0344
  824MPD2    C112119   0.655   1.912  15.397  0.2902  0.0086 -0.5067
  824MPD2    C212120   0.775   1.849  15.410  0.5950  0.4792  0.1989
  824MPD2    C312121   0.802   1.729  15.350  0.5277  0.0351 -0.5988
  824MPD2    C412122   0.698   1.671  15.278  0.4212  0.0624  0.2819
  824MPD2    C512123   0.574   1.729  15.284  0.6698 -1.1023  0.4846
  824MPD2     H12124   0.854   1.904  15.459 -0.1613  0.8697  0.9683
  824MPD2    H112125   0.712   1.577  15.226  0.1489 -0.2910  0.8395
  824MPD2    H212126   0.445   1.877  15.336  1.0466 -0.1293 -0.9321
  824MPD2    H312127   0.490   1.691  15.228  1.1895  2.4939 -2.7648
  824MPD2     N12128   0.935   1.676  15.354  0.0954  0.3599  0.5994
  824MPD2    H512129   1.001   1.733  15.407  2.3674  0.1301 -1.9946
  824MPD2    N112130   0.633   2.044  15.441  0.2110  0.1493 -0.1048
  824MPD2    H712131   0.696   2.081  15.512 -1.3768 -0.3688  1.5915
  825MPD2     C12132   1.587   1.923  15.598  0.0035 -0.0634  0.2245
  825MPD2    C112133   1.519   1.936  15.481 -0.2055 -0.1891  0.3790
  825MPD2    C212134   1.524   2.060  15.417 -1.5929  0.2242 -0.3772
  825MPD2    C312135   1.592   2.162  15.481 -0.6709 -0.1654  0.1335
  825MPD2    C412136   1.665   2.142  15.598 -0.2340  0.2030 -0.5549
  825MPD2    C512137   1.660   2.018  15.659 -0.4187  0.5967  0.2722
  825MPD2     H12138   1.473   2.075  15.323 -0.1490  0.5043 -1.1149
  825MPD2    H112139   1.709   2.228  15.647 -0.1486 -0.8977  1.2932
  825MPD2    H212140   1.571   1.840  15.666 -0.3956  1.3769  1.9002
  825MPD2    H312141   1.698   1.999  15.759  1.8484 -0.2091 -0.7399
  825MPD2     N12142   1.602   2.294  15.425 -0.3307 -0.3509  0.3623
  825MPD2    H512143   1.658   2.350  15.489 -0.9694  0.5508  0.1223
  825MPD2    N112144   1.452   1.820  15.432  0.3526 -0.9445  0.5139
  825MPD2    H712145   1.444   1.732  15.482 -0.9453 -0.4544  1.1812
  826MPD2     C12146   1.988   2.137  13.425  0.0948  0.2910 -1.0990
  826MPD2    C112147   1.895   2.034  13.430  0.4031  0.2473 -0.8213
  826MPD2    C212148   1.776   2.050  13.365  0.4996  0.3433  0.3201
  826MPD2    C312149   1.751   2.162  13.285  0.2117  0.1652  0.0888
  826MPD2    C412150   1.848   2.255  13.268  0.6662 -1.0222 -0.4632
  826MPD2    C512151   1.959   2.246  13.347 -0.1692  0.0566  0.3338
  826MPD2     H12152   1.702   1.972  13.383  0.8110  0.4191  1.9207
  826MPD2    H112153   1.830   2.347  13.214  2.2202  0.4597  1.5240
  826MPD2    H212154   2.081   2.138  13.481  1.0629  4.6649 -2.7644
  826MPD2    H312155   2.039   2.319  13.333 -1.9544  1.6102 -1.6498
  826MPD2     N12156   1.624   2.185  13.224 -0.2104  0.1882  0.1721
  826MPD2    H512157   1.622   2.270  13.169 -0.4256  0.1463  0.1116
  826MPD2    N112158   1.931   1.915  13.502 -0.3358 -0.4076  0.3626
  826MPD2    H712159   2.027   1.908  13.536 -1.5339 -1.6079  3.4984
  827MPD2     C12160   2.666   3.059   9.738  0.2337  0.9265 -0.3607
  827MPD2    C112161   2.663   2.945   9.804 -0.0829  0.0908 -0.2806
  827MPD2    C212162   2.595   2.838   9.752  0.0541  0.7592 -0.9348
  827MPD2    C312163   2.545   2.841   9.625  0.4643 -0.2951 -0.0304
  827MPD2    C412164   2.557   2.957   9.557  0.7235  0.1538  0.7292
  827MPD2    C512165   2.610   3.072   9.613  0.3822 -0.4687 -0.1331
  827MPD2     H12166   2.586   2.748   9.813  0.0879  1.2163 -0.2644
  827MPD2    H112167   2.515   2.963   9.457  1.3606 -1.1625  0.3926
  827MPD2    H212168   2.716   3.143   9.786  2.7658 -1.1304  0.5903
  827MPD2    H312169   2.605   3.169   9.566  0.9445 -0.9841 -1.2674
  827MPD2     N12170   2.482   2.729   9.572 -0.6384 -0.3079  0.0548
  827MPD2    H512171   2.479   2.656   9.642 -0.4532  0.5063  0.9245
  827MPD2    N112172   2.726   2.946   9.925  0.2534 -0.0217  0.9815
  827MPD2    H712173   2.786   3.023   9.951 -0.7028  1.2652 -0.6424
  828MPD2     C12174   0.855   2.438  12.375 -0.2120  0.5039 -0.1355
  828MPD2    C112175   0.840   2.548  12.296 -0.1125 -0.1242 -0.3071
  828MPD2    C212176   0.953   2.598  12.233  0.2981  0.3191  0.3553
  828MPD2    C312177   1.076   2.554  12.266 -0.1211 -0.3333 -0.1579
  828MPD2    C412178   1.087   2.457  12.362  0.1139  0.2423 -0.3910
  828MPD2    C512179   0.974   2.392  12.412  0.2894  0.5794  0.1931
  828MPD2     H12180   0.947   2.670  12.152 -0.0848  0.5822  0.6154
  828MPD2    H112181   1.185   2.420  12.391  1.0032  4.4292  2.0679
  828MPD2    H212182   0.766   2.385  12.407  1.3347 -1.6831  0.5520
  828MPD2    H312183   0.978   2.311  12.484 -1.4746 -0.1345 -0.5163
  828MPD2     N12184   1.190   2.616  12.213 -0.7735  0.3724 -0.3717
  828MPD2    H512185   1.277   2.564  12.212 -0.9065  0.1437 -0.0349
  828MPD2    N112186   0.716   2.600  12.250  0.2670 -0.6737  0.5737
  828MPD2    H712187   0.707   2.672  12.178  0.1233  2.2475  3.4892
  829MPD2     C12188   0.764   3.027  11.603 -0.3068  0.0725 -0.0133
  829MPD2    C112189   0.630   3.032  11.585  0.3135 -0.3782  0.4807
  829MPD2    C212190   0.548   2.980  11.690  0.5352  0.2378 -0.4734
  829MPD2    C312191   0.609   2.937  11.810 -0.2522 -0.0910  0.1112
  829MPD2    C412192   0.748   2.937  11.822  0.7963 -0.6023  0.6217
  829MPD2    C512193   0.826   2.989  11.717  0.3766  0.9774 -0.1229
  829MPD2     H12194   0.442   2.959  11.684  0.4777  0.5420 -0.5469
  829MPD2    H112195   0.797   2.904  11.913  0.6611 -3.8065 -0.4552
  829MPD2    H212196   0.821   3.080  11.528  0.4100 -0.2055  0.3306
  829MPD2    H312197   0.934   2.989  11.726  0.4021 -1.3217 -0.4589
  829MPD2     N12198   0.536   2.868  11.917 -0.3399 -0.5652  0.6105
  829MPD2    H512199   0.596   2.859  11.999  1.6491  2.4035 -0.4732
  829MPD2    N112200   0.577   3.076  11.461  0.7125 -0.2247  0.1395
  829MPD2    H712201   0.651   3.100  11.397 -0.4214 -1.6698 -1.7088
  830MPD2     C12202   0.751   0.881  15.739  0.1149 -0.1973 -0.1962
  830MPD2    C112203   0.644   0.927  15.665 -0.0073 -0.0464 -0.0761
  830MPD2    C212204   0.670   0.949  15.529 -0.5860 -0.0446  0.4658
  830MPD2    C312205   0.796   0.929  15.472 -0.4445  0.3052  0.1382
  830MPD2    C412206   0.899   0.889  15.552  0.2935 -0.7114 -0.6354
  830MPD2    C512207   0.873   0.866  15.683 -0.1413 -0.0966 -0.4761
  830MPD2     H12208   0.591   0.983  15.463 -2.4273 -0.6176  2.3794
  830MPD2    H112209   0.999   0.863  15.520  0.8273  0.9202 -0.2730
  830MPD2    H212210   0.744   0.858  15.844  0.0175  0.0752 -0.1428
  830MPD2    H312211   0.951   0.822  15.744 -0.5791 -0.3131 -0.0783
  830MPD2     N12212   0.821   0.945  15.332  0.3469  0.0303 -0.1098
  830MPD2    H512213   0.919   0.935  15.307  0.0194 -1.8253 -0.6430
  830MPD2    N112214   0.515   0.948  15.725  0.2809 -0.5930  0.2428
  830MPD2    H712215   0.507   0.918  15.822  0.4866 -0.0489  0.4259
  831MPD2     C12216   0.424   3.008  16.009  0.4833 -0.0187 -0.4817
  831MPD2    C112217   0.445   2.896  15.927  0.2301 -0.2650  0.3087
  831MPD2    C212218   0.377   2.783  15.959  0.2000  0.1698 -0.5583
  831MPD2    C312219   0.299   2.778  16.072  0.3156 -0.2887 -1.2685
  831MPD2    C412220   0.311   2.877  16.170 -0.0024 -0.3646 -0.3661
  831MPD2    C512221   0.370   2.995  16.132 -0.4885 -0.5487  0.1490
  831MPD2     H12222   0.391   2.696  15.896 -1.5703 -0.6164  0.1497
  831MPD2    H112223   0.259   2.886  16.265  0.0901 -3.1673 -0.0296
  831MPD2    H212224   0.474   3.102  15.988 -1.5640  1.4347  1.0877
  831MPD2    H312225   0.376   3.073  16.207 -2.2512  1.2579 -1.5878
  831MPD2     N12226   0.225   2.658  16.106 -0.3769 -0.3176 -0.8073
  831MPD2    H512227   0.189   2.655  16.201 -0.0372  1.9428 -0.6254
  831MPD2    N112228   0.523   2.908  15.806 -0.3317  0.5795  0.2434
  831MPD2    H712229   0.539   3.002  15.770 -0.1157  0.5615  0.2912
  832MPD2     C12230   3.911   4.165  17.129  1.0003  0.3928  0.0472
  832MPD2    C112231   3.905   4.297  17.169  0.8564 -0.3150  0.2779
  832MPD2    C212232   3.788   4.369  17.154 -0.6784  0.4024 -0.3157
  832MPD2    C312233   3.671   4.301  17.124  0.3925 -0.0326  0.0788
  832MPD2    C412234   3.678   4.170  17.099  0.9836 -0.3254  0.0488
  832MPD2    C512235   3.800   4.099  17.088  0.0033 -0.2552 -0.1935
  832MPD2     H12236   3.775   4.472  17.186  0.8637  1.6982 -3.8685
  832MPD2    H112237   3.589   4.114  17.072  0.2664 -0.5871  2.9278
  832MPD2    H212238   4.002   4.109  17.151  1.8352  1.1106 -1.5769
  832MPD2    H312239   3.814   3.995  17.062  2.4985 -0.1302  0.6290
  832MPD2     N12240   3.547   4.362  17.106 -0.3711 -0.7730 -0.4339
  832MPD2    H512241   3.467   4.300  17.097 -0.9178 -0.6079  3.1604
  832MPD2    N112242   4.011   4.342  17.252 -0.2489 -0.6720  0.1233
  832MPD2    H712243   4.074   4.267  17.279  0.0707 -0.9510 -1.4510
  833MPD2     C12244   1.703   0.491  12.400  0.8614  0.5723  0.3171
  833MPD2    C112245   1.588   0.539  12.337 -0.2068 -0.3577  1.0040
  833MPD2    C212246   1.553   0.497  12.216 -0.2497  0.0289 -0.6139
  833MPD2    C312247   1.635   0.413  12.142  0.3353  0.4071 -0.5358
  833MPD2    C412248   1.749   0.370  12.201  0.3832  0.0243 -0.1227
  833MPD2    C512249   1.788   0.413  12.326  0.5400 -0.2966 -1.0638
  833MPD2     H12250   1.466   0.549  12.178 -0.3298  2.3151  2.6691
  833MPD2    H112251   1.817   0.304  12.148  1.0363 -0.0249  0.7757
  833MPD2    H212252   1.725   0.534  12.497  0.4790 -3.0140  2.0134
  833MPD2    H312253   1.881   0.381  12.370 -1.1958 -2.7601  0.8374
  833MPD2     N12254   1.632   0.390  12.001 -0.0677 -0.3286  0.3757
  833MPD2    H512255   1.715   0.358  11.953  1.2194  1.0389  1.6566
  833MPD2    N112256   1.510   0.625  12.421 -0.2680 -0.3961 -0.3729
  833MPD2    H712257   1.541   0.638  12.517  1.3594  0.5663 -1.0346
  834MPD2     C12258   1.469   0.334  11.000  0.3176 -1.0237 -0.2542
  834MPD2    C112259   1.454   0.234  11.092 -0.1126 -0.4480  0.6115
  834MPD2    C212260   1.467   0.272  11.229  0.8260 -0.2634 -0.5535
  834MPD2    C312261   1.469   0.410  11.262  0.3715 -0.6536 -0.1716
  834MPD2    C412262   1.471   0.504  11.162 -0.0022  1.0473 -0.5695
  834MPD2    C512263   1.467   0.466  11.031 -0.1702 -0.1274 -0.1554
  834MPD2     H12264   1.480   0.195  11.304  2.0407 -0.3131 -0.8144
  834MPD2    H112265   1.484   0.610  11.180  1.7416  0.9063 -0.9764
  834MPD2    H212266   1.474   0.323  10.892 -0.6719 -1.8326 -0.2201
  834MPD2    H312267   1.477   0.532  10.946  0.4813  0.7025  0.5737
  834MPD2     N12268   1.484   0.438  11.397 -0.1172 -0.4470  0.6793
  834MPD2    H512269   1.485   0.356  11.457  2.0299 -1.3229 -0.5328
  834MPD2    N112270   1.469   0.102  11.049 -0.0291 -0.5393  0.6243
  834MPD2    H712271   1.498   0.084  10.954  0.2294  0.7261  0.4750
  835MPD2     C12272   1.473   3.039  10.837  0.8294 -0.6153  0.2102
  835MPD2    C112273   1.348   3.070  10.877 -0.1351 -0.2425 -0.1509
  835MPD2    C212274   1.319   3.080  11.008  0.4015 -0.3121  0.6823
  835MPD2    C312275   1.415   3.059  11.108 -0.5946  0.2380 -0.7558
  835MPD2    C412276   1.547   3.031  11.070 -0.9179  0.2862  0.1852
  835MPD2    C512277   1.570   3.026  10.930  0.2254 -0.3546 -0.1936
  835MPD2     H12278   1.214   3.093  11.030  0.5535 -1.6679  2.1728
  835MPD2    H112279   1.629   3.028  11.141  0.0958  1.6255 -0.9255
  835MPD2    H212280   1.511   3.029  10.736 -0.7224  3.2165 -0.7497
  835MPD2    H312281   1.674   3.009  10.903  0.3801 -0.8833  0.7753
  835MPD2     N12282   1.383   3.066  11.250 -0.2267 -0.0432  0.3286
  835MPD2    H512283   1.456   3.059  11.319  0.6685  0.3397 -0.5681
  835MPD2    N112284   1.242   3.094  10.789  0.6472 -0.5515 -0.3267
  835MPD2    H712285   1.146   3.120  10.810  0.0651 -1.4158 -1.9691
  836MPD2     C12286   0.799   3.444  11.373 -0.0511 -0.5317  0.3300
  836MPD2    C112287   0.835   3.408  11.503 -0.4365  0.7925  0.1310
  836MPD2    C212288   0.740   3.398  11.607  0.0444  0.1828 -0.4801
  836MPD2    C312289   0.610   3.442  11.583  0.0037 -0.9627  0.5155
  836MPD2    C412290   0.573   3.488  11.459 -0.2690 -0.2545  0.5460
  836MPD2    C512291   0.666   3.485  11.355 -0.5482  0.0268 -0.1720
  836MPD2     H12292   0.765   3.351  11.701  0.6963  1.6335  0.0624
  836MPD2    H112293   0.472   3.520  11.437  0.2514  1.3658  0.5106
  836MPD2    H212294   0.865   3.443  11.287  1.7635 -0.0922  1.7353
  836MPD2    H312295   0.642   3.531  11.260 -0.3643  0.1431 -0.1632
  836MPD2     N12296   0.506   3.429  11.677 -0.4057 -0.2567  0.0319
  836MPD2    H512297   0.417   3.442  11.631 -0.9487 -1.4903  0.7534
  836MPD2    N112298   0.965   3.359  11.520 -0.5654 -0.0581  0.0889
  836MPD2    H712299   1.016   3.354  11.433 -1.2852  0.5798 -0.3696
  837MPD2     C12300   4.193   2.805   9.632 -0.3236  0.3420  0.1779
  837MPD2    C112301   4.127   2.861   9.523  0.1509  0.0431 -0.2117
  837MPD2    C212302   4.099   3.001   9.521  0.3291 -0.5689  0.4746
  837MPD2    C312303   4.123   3.074   9.623 -0.1808  0.0710 -0.8670
  837MPD2    C412304   4.184   3.024   9.735  0.2005  1.3861 -0.4627
  837MPD2    C512305   4.221   2.891   9.735  0.8178 -0.6611 -0.8851
  837MPD2     H12306   4.041   3.041   9.439 -1.4280 -0.2487  1.8814
  837MPD2    H112307   4.224   3.080   9.819 -0.5141  2.2250 -0.6878
  837MPD2    H212308   4.220   2.700   9.632  1.1414  0.7141 -0.8104
  837MPD2    H312309   4.270   2.846   9.820 -1.2372 -0.4243  0.3995
  837MPD2     N12310   4.074   3.206   9.609 -0.1320  0.6252 -0.3088
  837MPD2    H512311   4.040   3.237   9.519 -1.1786  1.0961  0.2341
  837MPD2    N112312   4.072   2.787   9.419  0.8052  0.0872  0.0769
  837MPD2    H712313   4.012   2.833   9.351 -0.7525 -0.1974  1.2524
  838MPD2     C12314   2.332   0.994  11.505 -0.2967 -0.3724  0.9883
  838MPD2    C112315   2.338   1.079  11.619 -0.1737  0.0231 -0.3975
  838MPD2    C212316   2.264   1.041  11.731 -0.5504  0.2722  0.0750
  838MPD2    C312317   2.176   0.937  11.721 -0.6187 -0.5764  0.0334
  838MPD2    C412318   2.173   0.855  11.605 -0.1521 -0.3322  0.1748
  838MPD2    C512319   2.255   0.884  11.499  0.8747  0.3971 -0.1062
  838MPD2     H12320   2.261   1.102  11.820 -1.2229  0.6117 -0.1778
  838MPD2    H112321   2.120   0.762  11.593  0.5493 -0.5483 -1.2367
  838MPD2    H212322   2.378   1.025  11.412 -0.9054  1.0442  1.1530
  838MPD2    H312323   2.255   0.813  11.416  0.8542 -0.2385  0.4355
  838MPD2     N12324   2.100   0.908  11.835 -0.5021  0.6058  0.4061
  838MPD2    H512325   2.107   0.978  11.908  0.2446  0.2926  0.6256
  838MPD2    N112326   2.434   1.185  11.625  0.4092  0.2858 -0.0327
  838MPD2    H712327   2.443   1.221  11.720  1.4246  0.7644 -0.3022
  839MPD2     C12328   2.420   0.664  11.776  0.2097 -0.9528  0.0676
  839MPD2    C112329   2.482   0.692  11.659  0.3966 -0.2763  0.0737
  839MPD2    C212330   2.585   0.791  11.651 -0.3252  0.3851  0.5165
  839MPD2    C312331   2.614   0.865  11.767 -1.0968 -0.0744  0.5983
  839MPD2    C412332   2.536   0.849  11.877  0.0371  0.6710  0.0426
  839MPD2    C512333   2.444   0.747  11.882  0.0091 -0.3228 -0.2419
  839MPD2     H12334   2.649   0.804  11.565  1.1901  0.8276  1.7163
  839MPD2    H112335   2.541   0.924  11.955  0.3560  0.7878 -0.0859
  839MPD2    H212336   2.346   0.587  11.798 -2.7677  2.3072  1.5040
  839MPD2    H312337   2.380   0.733  11.969 -0.8773 -1.2140 -1.0441
  839MPD2     N12338   2.709   0.975  11.772  0.2837 -0.7351  0.8360
  839MPD2    H512339   2.710   1.017  11.864 -0.1576  0.2327  0.4059
  839MPD2    N112340   2.462   0.616  11.541  0.2334  0.1341  0.0306
  839MPD2    H712341   2.523   0.623  11.460 -3.8274  0.0838 -3.0183
  840MPD2     C12342   3.183   3.336  10.057 -0.6243  0.0070 -0.4321
  840MPD2    C112343   3.157   3.278  10.182 -0.8170 -0.8608  0.0305
  840MPD2    C212344   3.213   3.336  10.298 -0.3112 -0.2291 -0.2052
  840MPD2    C312345   3.275   3.454  10.287  0.1004  0.0102  1.0066
  840MPD2    C412346   3.299   3.509  10.163  0.2564 -0.5730 -0.5857
  840MPD2    C512347   3.252   3.454  10.047  0.8423 -0.2632  0.8454
  840MPD2     H12348   3.207   3.281  10.392  3.4615  0.4020  0.4392
  840MPD2    H112349   3.359   3.599  10.156  0.3302 -0.7224 -1.7935
  840MPD2    H212350   3.147   3.297   9.962  0.3943 -0.9071 -0.4411
  840MPD2    H312351   3.270   3.496   9.948  0.7180 -0.4598  0.7385
  840MPD2     N12352   3.333   3.533  10.395 -0.6166 -0.1305 -0.4476
  840MPD2    H512353   3.360   3.629  10.376 -0.2344  0.4022  2.7392
  840MPD2    N112354   3.080   3.153  10.188  0.1019 -0.1458  0.2813
  840MPD2    H712355   3.025   3.131  10.106  1.4368  0.4462 -0.7772
  841MPD2     C12356   2.199   2.900  14.773  0.3295  0.2881  0.0983
  841MPD2    C112357   2.222   2.901  14.637 -0.2284 -0.1858 -0.1098
  841MPD2    C212358   2.208   3.018  14.569  0.5429 -0.0986 -0.1249
  841MPD2    C312359   2.194   3.139  14.625 -0.3486 -0.1692  0.1562
  841MPD2    C412360   2.182   3.141  14.768  0.4122  0.3276 -0.4736
  841MPD2    C512361   2.185   3.022  14.837  0.3625 -0.3650 -0.1579
  841MPD2     H12362   2.217   3.015  14.461 -0.8312  0.4702 -0.2621
  841MPD2    H112363   2.173   3.236  14.820 -0.1624 -0.4554  0.8453
  841MPD2    H212364   2.199   2.806  14.827  0.4980  1.0446  1.4118
  841MPD2    H312365   2.191   3.024  14.945 -1.5402  1.4805 -0.0834
  841MPD2     N12366   2.180   3.250  14.538  0.3044  0.9442  0.4707
  841MPD2    H512367   2.202   3.241  14.439 -0.4872  0.6463  0.3224
  841MPD2    N112368   2.250   2.785  14.562 -0.4706  0.3391  0.1839
  841MPD2    H712369   2.266   2.813  14.466 -0.5690  1.0194  0.3657
  842MPD2     C12370   2.926   0.061  16.699 -0.4385 -0.3441 -0.6907
  842MPD2    C112371   2.858   4.673  16.722 -0.1251 -0.4382  0.3157
  842MPD2    C212372   2.844   4.632  16.855  0.6650 -0.6310 -0.4779
  842MPD2    C312373   2.875   4.703  16.969 -0.4197  0.4405  0.5291
  842MPD2    C412374   2.939   0.097  16.938 -0.8600 -0.4236  1.1142
  842MPD2    C512375   2.973   0.127  16.811 -0.3735  0.2151  0.8010
  842MPD2     H12376   2.824   4.526  16.862 -0.2414 -0.4886 -0.9620
  842MPD2    H112377   2.996   0.153  17.012 -0.1341 -0.0106  0.2493
  842MPD2    H212378   2.951   0.090  16.598  0.4745  2.1302  0.2521
  842MPD2    H312379   3.040   0.212  16.804 -0.7526  0.4892  0.5869
  842MPD2     N12380   2.859   4.660  17.107  0.2094  0.0650  0.1180
  842MPD2    H512381   2.918   4.711  17.172 -0.2233 -0.3017  0.8056
  842MPD2    N112382   2.818   4.591  16.616 -0.9762  0.3911  0.2382
  842MPD2    H712383   2.834   4.634  16.525  0.3284  0.6128  0.5789
  843MPD2     C12384   4.537   4.462   0.121  0.3496  0.0242 -0.4171
  843MPD2    C112385   4.589   4.410   0.009 -0.6392 -0.2404 -0.4680
  843MPD2    C212386   4.674   4.485  17.639 -0.0588 -0.4854 -0.9720
  843MPD2    C312387   4.689   4.618  17.659  0.0774  0.2372  0.0814
  843MPD2    C412388   4.627   4.679   0.058 -0.1563 -0.2880 -0.4219
  843MPD2    C512389   4.552   4.601   0.142  0.3437  0.0624  0.2736
  843MPD2     H12390   4.708   4.433  17.550  0.5132 -2.0077  0.1285
  843MPD2    H112391   4.645   0.056   0.082  0.4334 -0.4386 -0.2175
  843MPD2    H212392   4.478   4.405   0.191 -0.3687 -1.3492 -2.1697
  843MPD2    H312393   4.506   4.641   0.232  0.0323  1.5323 -0.5523
  843MPD2     N12394   0.051   4.698  17.573 -0.1031  0.0090  0.3691
  843MPD2    H512395   0.055   0.069  17.599  0.2395 -0.3568  1.7386
  843MPD2    N112396   4.552   4.275  17.691 -0.3994 -0.6019  0.0531
  843MPD2    H712397   4.526   4.225   0.067 -0.3855 -0.2079  0.2957
  844MPD2     C12398   3.089   3.999  16.526 -0.1614  0.4739  0.0223
  844MPD2    C112399   3.197   3.911  16.520 -0.0300 -0.3148  0.6613
  844MPD2    C212400   3.325   3.959  16.534 -0.0545  0.3117 -0.6917
  844MPD2    C312401   3.347   4.098  16.553 -0.7806  0.5140 -0.0944
  844MPD2    C412402   3.239   4.180  16.534  0.0285 -0.0326 -0.0869
  844MPD2    C512403   3.113   4.133  16.520 -0.0400 -0.6036 -0.6207
  844MPD2     H12404   3.409   3.891  16.522 -0.2796 -0.4268  1.7999
  844MPD2    H112405   3.237   4.288  16.522  0.6046  0.1034  0.9934
  844MPD2    H212406   2.986   3.965  16.527 -0.6212  1.8741 -0.9269
  844MPD2    H312407   3.029   4.200  16.502  0.4807 -0.6642 -3.3294
  844MPD2     N12408   3.482   4.136  16.578  0.4395 -0.0380  0.0478
  844MPD2    H512409   3.552   4.063  16.591 -2.7732 -3.2041 -0.3806
  844MPD2    N112410   3.188   3.775  16.486  0.8067  0.2744 -0.3150
  844MPD2    H712411   3.269   3.718  16.466 -1.3417 -1.9770 -2.4780
  845MPD2     C12412   4.186   0.161  16.521 -0.0207 -0.5899 -0.0112
  845MPD2    C112413   4.077   0.170  16.611  0.8519 -0.0218  0.2944
  845MPD2    C212414   3.993   0.058  16.631 -0.2872 -0.1563 -0.1979
  845MPD2    C312415   4.028   4.659  16.581  0.2161  0.4143 -0.4300
  845MPD2    C412416   4.143   4.645  16.505 -0.4600 -0.5292 -0.1741
  845MPD2    C512417   4.217   0.030  16.465 -0.2295  0.0813  0.3409
  845MPD2     H12418   3.899   0.067  16.685 -0.6368  1.2741 -1.0515
  845MPD2    H112419   4.183   4.553  16.464 -0.1626 -0.3098 -0.3818
  845MPD2    H212420   4.241   0.245  16.481  0.5296 -0.0627  1.8608
  845MPD2    H312421   4.306   0.017  16.404  0.3944 -1.2277  1.5342
  845MPD2     N12422   3.951   4.554  16.621 -0.3521 -0.3408  0.0834
  845MPD2    H512423   3.862   4.584  16.659 -0.3553 -0.7821  0.4184
  845MPD2    N112424   4.053   0.292  16.663  0.1695  0.4124 -0.2117
  845MPD2    H712425   4.112   0.371  16.638  0.6529  0.3046  0.5778
  846MPD2     C12426   0.592   0.072  13.319  0.4710  0.0293  0.2865
  846MPD2    C112427   0.491   0.171  13.319  0.6852 -0.8884 -0.1022
  846MPD2    C212428   0.412   0.180  13.435 -0.2299 -0.6879 -0.9451
  846MPD2    C312429   0.424   0.083  13.538 -0.0638 -0.0893 -0.3683
  846MPD2    C412430   0.524   4.712  13.527 -0.2464 -0.0005  0.4929
  846MPD2    C512431   0.603   4.712  13.427  0.3486  0.7363 -0.2232
  846MPD2     H12432   0.332   0.254  13.435 -0.4006 -0.8741 -0.0583
  846MPD2    H112433   0.546   4.647  13.611  0.1782 -2.1931 -1.3238
  846MPD2    H212434   0.673   0.068  13.247 -0.2277  0.3090 -0.5107
  846MPD2    H312435   0.693   4.651  13.431 -0.0709  0.0978 -0.5995
  846MPD2     N12436   0.332   0.087  13.640  0.0858 -0.2097 -0.1862
  846MPD2    H512437   0.279   0.173  13.645  2.9425  1.5538 -0.2918
  846MPD2    N112438   0.486   0.261  13.205  0.2903  0.1267  0.1707
  846MPD2    H712439   0.421   0.336  13.226  3.4051  2.2748  1.9581
  847MPD2     C12440   1.101   2.151  14.051 -0.1249  0.3858 -0.7429
  847MPD2    C112441   1.021   2.079  14.136  0.2095 -0.3466  0.6375
  847MPD2    C212442   1.086   2.036  14.253 -0.2763 -0.3196 -0.2939
  847MPD2    C312443   1.221   2.066  14.283 -0.0701 -0.4112  0.1679
  847MPD2    C412444   1.296   2.141  14.193 -0.2511 -0.4672 -0.4328
  847MPD2    C512445   1.234   2.171  14.072  0.6945 -0.2782  0.9355
  847MPD2     H12446   1.023   1.985  14.325  0.7212 -1.4192 -0.1943
  847MPD2    H112447   1.398   2.179  14.200 -0.3660 -0.4975  1.5231
  847MPD2    H212448   1.063   2.183  13.955  0.3609  0.7060 -0.8324
  847MPD2    H312449   1.286   2.235  14.002  0.8518  0.3516  1.6262
  847MPD2     N12450   1.265   2.028  14.409  0.2183 -0.3654  0.1730
  847MPD2    H512451   1.191   1.994  14.470 -1.5027  3.6473  0.3438
  847MPD2    N112452   0.892   2.035  14.117  0.9698  0.3326 -0.0998
  847MPD2    H712453   0.845   1.978  14.186  2.0027 -2.1468 -1.4594
  848MPD2     C12454   3.160   4.570  16.450 -0.2470 -0.3432 -0.8909
  848MPD2    C112455   3.214   4.662  16.544  0.6621 -0.9366 -0.3055
  848MPD2    C212456   3.255   0.054  16.504  0.1233  0.2582 -0.1210
  848MPD2    C312457   3.217   0.105  16.381 -0.2731 -0.6481  0.8249
  848MPD2    C412458   3.160   0.024  16.289 -0.8070 -0.1390 -0.4493
  848MPD2    C512459   3.144   4.616  16.324 -0.0488  0.0135  0.6617
  848MPD2     H12460   3.302   0.116  16.579 -0.6929  2.3463 -1.3351
  848MPD2    H112461   3.133   0.058  16.190  2.2548 -1.8626 -1.8730
  848MPD2    H212462   3.142   4.468  16.483  1.6856 -0.4602 -0.1859
  848MPD2    H312463   3.107   4.543  16.253  1.8357  0.1099 -0.4179
  848MPD2     N12464   3.233   0.240  16.341 -0.3608 -0.6680  0.3548
  848MPD2    H512465   3.209   0.268  16.246  2.0031 -1.8643 -0.5848
  848MPD2    N112466   3.234   4.637  16.681  0.0806 -0.4024 -0.9529
  848MPD2    H712467   3.288   4.699  16.741 -0.0658  1.3832 -2.6777
  849MPD2     C12468   2.873   3.801  13.591  0.0891 -0.4481 -0.4719
  849MPD2    C112469   2.984   3.789  13.666 -0.4735  0.0608 -0.1342
  849MPD2    C212470   2.966   3.750  13.797  0.3219  0.4252  0.5305
  849MPD2    C312471   2.838   3.713  13.835 -0.1356  0.3956 -0.2856
  849MPD2    C412472   2.729   3.715  13.750 -0.1715 -0.4713  0.1644
  849MPD2    C512473   2.750   3.759  13.627 -0.3004 -0.0849  0.2584
  849MPD2     H12474   3.044   3.748  13.873 -0.0643 -0.3812  0.9056
  849MPD2    H112475   2.627   3.693  13.777  0.1219 -2.4514 -0.3617
  849MPD2    H212476   2.858   3.852  13.496  0.3174  0.1922 -0.1631
  849MPD2    H312477   2.669   3.785  13.559 -0.7837 -1.8774  0.1475
  849MPD2     N12478   2.834   3.672  13.967  0.8507  0.2258 -0.7859
  849MPD2    H512479   2.916   3.679  14.027  0.0730  0.2447  0.2722
  849MPD2    N112480   3.117   3.820  13.621  0.2545 -0.0714 -0.2239
  849MPD2    H712481   3.192   3.810  13.689  0.2171 -0.8804 -0.2931
  850MPD2     C12482   0.303   2.075  14.336  0.3181  0.2091 -0.6895
  850MPD2    C112483   0.343   2.088  14.470 -0.1627  0.5459 -0.6066
  850MPD2    C212484   0.453   2.168  14.497 -0.1218 -0.5014  0.0628
  850MPD2    C312485   0.529   2.224  14.395 -0.2065 -0.2951  0.0463
  850MPD2    C412486   0.489   2.205  14.261 -0.3512  0.3287  0.5194
  850MPD2    C512487   0.375   2.133  14.233 -0.3019  0.1382 -0.3786
  850MPD2     H12488   0.471   2.186  14.602  1.5388  4.0335 -0.9862
  850MPD2    H112489   0.540   2.247  14.176 -1.3098 -0.7490 -0.5950
  850MPD2    H212490   0.212   2.026  14.304  2.1284 -4.1517  0.7160
  850MPD2    H312491   0.331   2.124  14.134  0.1489 -0.6989 -0.4999
  850MPD2     N12492   0.638   2.304  14.429  0.4355 -0.0417  0.2301
  850MPD2    H512493   0.661   2.316  14.527 -1.1793  0.1227  0.5849
  850MPD2    N112494   0.272   2.028  14.577  0.0143 -0.0872 -0.4532
  850MPD2    H712495   0.204   1.958  14.548 -2.7671  2.6965 -0.6392
  851MPD2     C12496   0.740   1.751  14.926  0.1444 -0.7023 -0.6272
  851MPD2    C112497   0.637   1.662  14.924  0.5628 -0.3607  0.1170
  851MPD2    C212498   0.659   1.528  14.947  0.6650 -0.1687  0.1698
  851MPD2    C312499   0.789   1.482  14.967  0.3553  1.0887  0.5151
  851MPD2    C412500   0.891   1.575  14.973 -0.4769  0.3191  0.7052
  851MPD2    C512501   0.871   1.709  14.952 -0.0393  0.4024 -0.4302
  851MPD2     H12502   0.574   1.462  14.956  1.5791 -1.2745  0.8176
  851MPD2    H112503   0.990   1.533  14.989 -0.0914  0.1794 -2.1894
  851MPD2    H212504   0.718   1.854  14.902  2.2553 -0.5219 -1.8076
  851MPD2    H312505   0.951   1.782  14.949 -0.3664  0.8095  0.7291
  851MPD2     N12506   0.808   1.342  14.987  0.5574 -0.2736  0.3929
  851MPD2    H512507   0.734   1.274  14.973  1.4575 -0.9630 -1.0231
  851MPD2    N112508   0.515   1.725  14.905  0.5523 -0.2240  0.2051
  851MPD2    H712509   0.517   1.826  14.900 -0.4922 -0.1487  1.4283
  852MPD2     C12510   0.452   3.885   9.640  0.1249 -0.4979  0.5121
  852MPD2    C112511   0.508   3.914   9.763  0.7851 -0.0138 -0.7688
  852MPD2    C212512   0.595   4.016   9.776  0.1417  0.3528 -0.0428
  852MPD2    C312513   0.623   4.096   9.669  0.7913 -0.3484  0.6446
  852MPD2    C412514   0.561   4.071   9.546 -0.1765  0.2006 -0.3231
  852MPD2    C512515   0.477   3.964   9.534  0.6178 -0.3547  0.1309
  852MPD2     H12516   0.627   4.039   9.877 -2.4168 -1.0767  1.0734
  852MPD2    H112517   0.574   4.134   9.459  2.2634 -0.3088 -0.3275
  852MPD2    H212518   0.384   3.803   9.620 -0.7523  0.0374  1.3546
  852MPD2    H312519   0.437   3.934   9.438  0.0071 -0.9012  0.5604
  852MPD2     N12520   0.720   4.199   9.686  0.4992  0.8255  0.1357
  852MPD2    H512521   0.753   4.209   9.781  0.3567 -1.6715  0.4421
  852MPD2    N112522   0.477   3.840   9.876  0.2080 -0.7472  0.4355
  852MPD2    H712523   0.516   3.877   9.962 -0.9859  1.0673  0.2143
  853MPD2     C12524   2.574   4.465  12.467 -0.2195  0.0703  0.3036
  853MPD2    C112525   2.701   4.470  12.412 -0.1275  0.5206 -0.0744
  853MPD2    C212526   2.722   4.474  12.274  0.0318  0.7106  0.4639
  853MPD2    C312527   2.617   4.450  12.186 -0.0559  0.5748  0.0061
  853MPD2    C412528   2.492   4.439  12.242 -0.4919 -0.2799  0.6362
  853MPD2    C512529   2.475   4.454  12.378 -0.7377  0.5057 -0.0533
  853MPD2     H12530   2.825   4.473  12.238 -0.0174 -0.4327  0.3355
  853MPD2    H112531   2.406   4.411  12.182 -2.2107  3.7993  1.1851
  853MPD2    H212532   2.549   4.454  12.572  0.7658  0.8430  0.6101
  853MPD2    H312533   2.376   4.449  12.422 -0.2706 -1.4300  0.7590
  853MPD2     N12534   2.627   4.451  12.047  0.2675 -0.2587  0.1539
  853MPD2    H512535   2.541   4.433  11.996  0.1914  1.2781 -0.2671
  853MPD2    N112536   2.811   4.473  12.503 -0.1201  0.4284 -0.1643
  853MPD2    H712537   2.784   4.459  12.600 -4.0031  1.2661 -1.1069
  854MPD2     C12538   3.819   4.349  12.300 -0.3515 -0.8122  0.1209
  854MPD2    C112539   3.901   4.430  12.373 -0.3092 -0.6366  1.4623
  854MPD2    C212540   3.982   4.382  12.478 -0.1993  0.4522 -0.3235
  854MPD2    C312541   3.977   4.242  12.501 -0.5289  0.1343 -0.3920
  854MPD2    C412542   3.892   4.164  12.428  0.1479  0.2673  0.0932
  854MPD2    C512543   3.812   4.221  12.334 -0.0181  0.5199 -0.3702
  854MPD2     H12544   4.048   4.438  12.544  0.0487  1.3217 -1.3093
  854MPD2    H112545   3.872   4.059  12.447  1.8693 -0.0462  0.1793
  854MPD2    H212546   3.747   4.388  12.229 -1.6348 -1.5068  1.0447
  854MPD2    H312547   3.735   4.166  12.281  0.8704 -0.9172 -0.1799
  854MPD2     N12548   4.059   4.176  12.598  0.4428 -0.2493  0.0190
  854MPD2    H512549   4.046   4.076  12.604  0.3531 -0.2327  0.0837
  854MPD2    N112550   3.923   4.573  12.352 -0.6916 -0.5197  0.4107
  854MPD2    H712551   4.000   4.614  12.404  0.3944 -2.1950  0.1242
  855MPD2     C12552   4.414   4.268  13.516  0.5100 -0.1499 -0.1413
  855MPD2    C112553   4.416   4.144  13.466  0.2218  1.1939  0.2189
  855MPD2    C212554   4.416   4.129  13.329  0.2722  0.3076  0.0277
  855MPD2    C312555   4.420   4.232  13.247  0.0008 -0.0255  0.0804
  855MPD2    C412556   4.423   4.361  13.300  0.0694 -0.2038  0.3655
  855MPD2    C512557   4.423   4.377  13.430  0.1380 -0.2249 -0.3387
  855MPD2     H12558   4.425   4.028  13.290  1.6356  0.6269 -0.4670
  855MPD2    H112559   4.448   4.444  13.234  0.0289 -1.4383 -1.2062
  855MPD2    H212560   4.416   4.287  13.623 -1.6129  0.6856 -0.2498
  855MPD2    H312561   4.425   4.479  13.467  1.8783 -0.6612  0.7984
  855MPD2     N12562   4.419   4.227  13.103 -0.0426  0.1835 -0.5671
  855MPD2    H512563   4.412   4.315  13.052  0.5608 -0.2820 -1.4666
  855MPD2    N112564   4.412   4.026  13.541 -0.6465 -0.2290 -0.0643
  855MPD2    H712565   4.385   3.944  13.487  1.4026 -2.0003  1.6184
  856MPD2     C12566   1.201   0.452  13.562  0.4823 -0.1896  0.2655
  856MPD2    C112567   1.269   0.556  13.620  0.2398  0.2675 -0.2303
  856MPD2    C212568   1.214   0.684  13.614  0.8522 -0.0252  0.7994
  856MPD2    C312569   1.087   0.711  13.576  0.3710 -0.3035 -0.7334
  856MPD2    C412570   1.015   0.601  13.527 -0.9517  0.3491 -0.0483
  856MPD2    C512571   1.075   0.479  13.519  0.3360 -1.0178  0.2140
  856MPD2     H12572   1.275   0.766  13.650  1.3526 -0.4753  0.9865
  856MPD2    H112573   0.911   0.616  13.500 -1.4188 -1.1162  0.9546
  856MPD2    H212574   1.244   0.354  13.542  1.4741  0.2552  0.1913
  856MPD2    H312575   1.016   0.397  13.480 -1.6101  0.3308  0.3429
  856MPD2     N12576   1.030   0.839  13.601  0.5519  0.1279  0.3444
  856MPD2    H512577   0.951   0.858  13.540 -0.0741  1.3712  1.5521
  856MPD2    N112578   1.397   0.540  13.681 -0.1082  0.3473  0.1170
  856MPD2    H712579   1.453   0.624  13.696  0.0698  0.8526 -3.5270
  857MPD2     C12580   3.875   2.374  12.254 -0.6957  0.3976  0.3759
  857MPD2    C112581   3.833   2.404  12.381  0.8770  0.2770  0.1728
  857MPD2    C212582   3.854   2.533  12.436  0.0920 -0.1685  0.8290
  857MPD2    C312583   3.906   2.632  12.358 -0.1215  0.8839  0.0110
  857MPD2    C412584   3.936   2.604  12.226 -0.2672  0.2247  0.9089
  857MPD2    C512585   3.923   2.479  12.180 -0.2955  0.3125  0.4038
  857MPD2     H12586   3.822   2.549  12.538  1.2259 -3.0895  1.6486
  857MPD2    H112587   4.012   2.664  12.179 -1.2885  3.1030  2.9078
  857MPD2    H212588   3.870   2.272  12.217  1.0362 -0.2502  1.9328
  857MPD2    H312589   3.967   2.450  12.085  0.9058  0.2786  0.9643
  857MPD2     N12590   3.943   2.754  12.414 -0.2028 -0.1253  0.5302
  857MPD2    H512591   3.948   2.760  12.515  1.0768 -0.4022  0.4741
  857MPD2    N112592   3.782   2.291  12.453  0.1535  0.7501 -0.4156
  857MPD2    H712593   3.761   2.206  12.401 -1.4422  1.2724 -0.6129
  858MPD2     C12594   3.350   1.797  16.339  0.5164 -0.3727  0.0213
  858MPD2    C112595   3.482   1.839  16.338 -1.0250  0.7945  0.3206
  858MPD2    C212596   3.533   1.921  16.437 -0.0551  0.0220  1.0949
  858MPD2    C312597   3.448   1.976  16.532  0.4369 -0.2627  0.3489
  858MPD2    C412598   3.315   1.945  16.521 -0.2890  0.5190 -0.4378
  858MPD2    C512599   3.266   1.869  16.425 -0.3581 -0.1745 -0.5833
  858MPD2     H12600   3.637   1.949  16.428 -0.1883  0.5441  1.2075
  858MPD2    H112601   3.248   2.003  16.584 -0.6569  0.0006 -0.3570
  858MPD2    H212602   3.311   1.736  16.257 -1.2381 -0.9343  1.2612
  858MPD2    H312603   3.158   1.865  16.411 -0.2183 -0.2087 -1.6190
  858MPD2     N12604   3.498   2.076  16.624 -0.6853 -0.4121  0.0190
  858MPD2    H512605   3.422   2.108  16.684 -0.4772  0.6770 -0.2968
  858MPD2    N112606   3.556   1.770  16.243  0.3785 -0.2968  0.1319
  858MPD2    H712607   3.515   1.683  16.211 -0.3875 -0.1625  0.7246
  859MPD2     C12608   2.163   3.652  15.133 -1.0686 -0.7799 -0.0300
  859MPD2    C112609   2.298   3.664  15.095 -0.6135 -0.3590  0.5289
  859MPD2    C212610   2.377   3.555  15.069  0.5933  0.0393 -0.8416
  859MPD2    C312611   2.314   3.431  15.079 -1.1480 -0.4007  0.1074
  859MPD2    C412612   2.178   3.424  15.109 -0.2115  0.3922  0.3696
  859MPD2    C512613   2.104   3.533  15.146 -0.1309 -0.5852  0.0773
  859MPD2     H12614   2.483   3.563  15.049  0.7305 -0.8073 -0.4223
  859MPD2    H112615   2.131   3.326  15.106  1.2355 -0.3174  0.6010
  859MPD2    H212616   2.101   3.739  15.152 -0.1665  0.1106 -1.1235
  859MPD2    H312617   1.998   3.520  15.165 -0.3374  2.2739  0.8910
  859MPD2     N12618   2.386   3.308  15.072  0.3137  0.2402 -0.4426
  859MPD2    H512619   2.331   3.225  15.094 -0.7301  0.7819 -0.9679
  859MPD2    N112620   2.339   3.793  15.076 -0.2567 -0.8951 -0.8490
  859MPD2    H712621   2.272   3.865  15.099  1.9295  0.4949  1.1429
  860MPD2     C12622   0.143   3.834  11.100  0.0523 -0.2317  0.5378
  860MPD2    C112623   0.155   3.936  11.190 -0.0324  0.5217  0.5812
  860MPD2    C212624   0.057   3.958  11.290  0.9053 -0.0563 -1.1558
  860MPD2    C312625   4.681   3.867  11.297 -0.1090  0.5319 -0.0506
  860MPD2    C412626   4.669   3.767  11.206 -0.1815 -0.2989  0.9826
  860MPD2    C512627   0.039   3.753  11.109  0.0373  0.4667 -0.4926
  860MPD2     H12628   0.065   4.040  11.361 -0.7400  0.6054 -1.7200
  860MPD2    H112629   4.582   3.702  11.204 -1.2471  1.1789 -0.5721
  860MPD2    H212630   0.212   3.810  11.020  0.8907  1.5956  0.7093
  860MPD2    H312631   0.049   3.673  11.037 -1.6650  1.5920 -2.0029
  860MPD2     N12632   4.595   3.887  11.406  0.2669  0.0874  0.1770
  860MPD2    H512633   4.614   3.970  11.461  0.5581  1.9921 -2.8197
  860MPD2    N112634   0.258   4.020  11.199 -0.0749  0.1618  0.3770
  860MPD2    H712635   0.245   4.091  11.270  0.7988  1.5635 -0.8551
  861MPD2     C12636   4.249   2.365  10.681  0.1820 -0.8014 -0.9286
  861MPD2    C112637   4.159   2.398  10.774  0.7150 -0.2526 -0.3769
  861MPD2    C212638   4.049   2.466  10.728  0.0865 -0.2471  0.3667
  861MPD2    C312639   4.016   2.469  10.591 -0.6139 -0.1026 -0.6294
  861MPD2    C412640   4.105   2.421  10.498  0.5027 -0.0143  0.2225
  861MPD2    C512641   4.215   2.359  10.547  0.1433 -0.4645 -0.2821
  861MPD2     H12642   3.977   2.490  10.805  0.3308  3.2647 -0.5190
  861MPD2    H112643   4.069   2.413  10.396  1.6296 -0.0015 -0.1742
  861MPD2    H212644   4.344   2.321  10.708 -0.4702 -1.6658 -0.0747
  861MPD2    H312645   4.290   2.309  10.488  0.4219  0.2893 -0.5630
  861MPD2     N12646   3.909   2.536  10.531 -0.2586 -0.6318  0.3756
  861MPD2    H512647   3.904   2.516  10.432 -0.5851 -3.2326  0.9115
  861MPD2    N112648   4.176   2.372  10.913 -0.4026 -0.8069 -0.1624
  861MPD2    H712649   4.095   2.390  10.971 -0.2872  0.7372 -0.4938
  862MPD2     C12650   3.558   2.773   9.968  0.2266  0.3025 -0.9014
  862MPD2    C112651   3.635   2.679  10.031  0.5678  0.3648 -0.2611
  862MPD2    C212652   3.650   2.554   9.981  0.3265 -0.7524  0.4158
  862MPD2    C312653   3.571   2.511   9.870  0.2627 -0.0384 -0.0860
  862MPD2    C412654   3.472   2.600   9.827 -0.2695  0.1146  0.0420
  862MPD2    C512655   3.478   2.731   9.868 -0.1174  0.1404  0.1067
  862MPD2     H12656   3.726   2.485  10.017  2.3656  0.9844 -0.5568
  862MPD2    H112657   3.400   2.564   9.754 -0.9644  0.0042  0.7800
  862MPD2    H212658   3.548   2.873  10.007 -1.5698  0.0559 -0.7232
  862MPD2    H312659   3.410   2.804   9.826  0.6493  0.1866 -1.0716
  862MPD2     N12660   3.565   2.384   9.813  0.1928  0.2419 -0.3090
  862MPD2    H512661   3.485   2.372   9.753 -0.1705  1.6772 -0.1035
  862MPD2    N112662   3.706   2.707  10.152  0.5313 -0.1131 -0.6998
  862MPD2    H712663   3.750   2.632  10.204  1.0372 -1.1586 -2.6235
  863MPD2     C12664   2.089   0.402  16.382 -0.3152 -0.5549 -0.4846
  863MPD2    C112665   2.107   0.533  16.411 -0.2872  0.4675  0.0813
  863MPD2    C212666   2.190   0.566  16.517  0.3070  0.3325  0.0861
  863MPD2    C312667   2.239   0.471  16.603  0.5674  0.1737 -0.3996
  863MPD2    C412668   2.198   0.341  16.583  0.3925  0.2021  0.0712
  863MPD2    C512669   2.130   0.309  16.470 -0.0441 -0.2530  0.5069
  863MPD2     H12670   2.203   0.672  16.535  3.5261 -0.2463  1.2525
  863MPD2    H112671   2.242   0.267  16.648  0.2253 -0.9298 -1.1079
  863MPD2    H212672   2.027   0.377  16.297 -0.3486  0.1432 -0.6623
  863MPD2    H312673   2.101   0.208  16.443  1.3932 -0.5112 -0.0705
  863MPD2     N12674   2.317   0.504  16.714 -0.8912 -0.0804  0.0941
  863MPD2    H512675   2.335   0.427  16.779 -2.2152  0.0541  0.6182
  863MPD2    N112676   2.040   0.627  16.326  0.2310 -0.4314 -0.5272
  863MPD2    H712677   1.970   0.584  16.267 -0.0068 -0.4494 -0.2364
  864MPD2     C12678   2.544   1.712  17.088  0.4604 -0.1222 -0.1852
  864MPD2    C112679   2.629   1.673  16.985 -0.5535 -0.4648  0.0690
  864MPD2    C212680   2.693   1.771  16.904  0.3048 -0.0416 -0.9923
  864MPD2    C312681   2.681   1.901  16.943  0.5293 -0.4581 -0.0126
  864MPD2    C412682   2.578   1.931  17.025  0.2210  0.3643 -0.3721
  864MPD2    C512683   2.518   1.841  17.105 -0.2302 -0.2899 -0.0222
  864MPD2     H12684   2.753   1.744  16.818  0.0827 -0.2414 -1.0854
  864MPD2    H112685   2.554   2.037  17.035  1.2815  0.3043  2.8152
  864MPD2    H212686   2.487   1.641  17.147 -2.2882  1.5347 -0.8943
  864MPD2    H312687   2.444   1.877  17.175  1.0498 -1.7606  2.0930
  864MPD2     N12688   2.753   2.010  16.891  0.2146 -0.0791 -0.0569
  864MPD2    H512689   2.730   2.102  16.927  1.7665  1.2363 -2.4183
  864MPD2    N112690   2.627   1.533  16.958 -0.6717 -0.0717  0.8421
  864MPD2    H712691   2.582   1.474  17.027  0.2497 -2.4800 -0.6184
  865MPD2     C12692   2.705   2.370  16.127 -0.4888 -0.6907 -0.0251
  865MPD2    C112693   2.709   2.246  16.179  0.1492 -0.5197 -0.5294
  865MPD2    C212694   2.728   2.233  16.315  0.0695  0.1026  0.2153
  865MPD2    C312695   2.757   2.343  16.389 -0.2696  0.1894  0.2936
  865MPD2    C412696   2.765   2.465  16.328  0.3432 -0.7812  0.0554
  865MPD2    C512697   2.732   2.484  16.197 -0.4178  0.0560  0.0857
  865MPD2     H12698   2.705   2.141  16.368  1.8809 -0.9818 -0.8794
  865MPD2    H112699   2.798   2.555  16.380 -0.1663  0.4084 -1.6927
  865MPD2    H212700   2.676   2.382  16.023 -2.0730  1.1158  0.6260
  865MPD2    H312701   2.731   2.580  16.146 -1.9683  0.3742  0.7085
  865MPD2     N12702   2.783   2.330  16.528 -0.5509 -0.3597 -0.0803
  865MPD2    H512703   2.796   2.235  16.560  0.5943  0.1467  0.9657
  865MPD2    N112704   2.690   2.140  16.083 -0.8594  0.7045 -0.2721
  865MPD2    H712705   2.681   2.172  15.987 -1.2122 -2.0802 -1.1469
  866MPD2     C12706   4.627   2.522  11.390 -0.2631 -0.0872  0.9684
  866MPD2    C112707   4.667   2.549  11.264 -0.1977  0.0969  0.1599
  866MPD2    C212708   4.575   2.614  11.174 -0.6422 -0.1738  0.0409
  866MPD2    C312709   4.460   2.666  11.224 -0.9133 -0.7813 -0.6848
  866MPD2    C412710   4.436   2.657  11.365 -0.8313  0.2112  0.2942
  866MPD2    C512711   4.517   2.575  11.439 -0.6171  0.3202  0.5178
  866MPD2     H12712   4.597   2.619  11.068 -0.6473 -1.1996 -0.0156
  866MPD2    H112713   4.344   2.705  11.396 -0.9294  1.8303 -2.4476
  866MPD2    H212714   4.691   2.458  11.450  1.1955  2.4333  2.1068
  866MPD2    H312715   4.488   2.551  11.541 -0.9474 -0.2237  0.2924
  866MPD2     N12716   4.354   2.711  11.144 -0.5817  0.5222 -0.1462
  866MPD2    H512717   4.271   2.743  11.194 -1.8076 -1.8439 -0.6420
  866MPD2    N112718   0.058   2.492  11.229 -0.4813  0.5953  0.3126
  866MPD2    H712719   0.106   2.439  11.301 -3.9903 -2.4862  0.3843
  867MPD2     C12720   1.228   1.970  16.280  0.4636 -0.3430 -1.0840
  867MPD2    C112721   1.297   1.932  16.393 -0.3983 -0.2831  0.4442
  867MPD2    C212722   1.304   2.016  16.504  0.1416  0.3208 -0.2664
  867MPD2    C312723   1.242   2.140  16.500 -0.1669 -0.3387  0.7189
  867MPD2    C412724   1.180   2.183  16.384  0.2366  0.3881  0.4327
  867MPD2    C512725   1.167   2.093  16.278  0.4734 -0.0021  0.1010
  867MPD2     H12726   1.351   1.989  16.598  0.6921 -0.4843 -0.7732
  867MPD2    H112727   1.131   2.279  16.389 -2.1818 -0.7793 -0.5605
  867MPD2    H212728   1.223   1.906  16.193  0.4756 -1.4669 -0.2556
  867MPD2    H312729   1.126   2.136  16.188 -1.7584 -1.0645  0.6057
  867MPD2     N12730   1.249   2.239  16.601 -0.3278 -0.2002 -0.3739
  867MPD2    H512731   1.213   2.331  16.580  1.9631  0.9551  0.7069
  867MPD2    N112732   1.352   1.806  16.394  0.0789  0.4683  0.7976
  867MPD2    H712733   1.340   1.751  16.309 -2.4740  0.1939  1.3372
  868MPD2     C12734   3.574   1.005  13.024  0.8087 -0.4260  0.3654
  868MPD2    C112735   3.594   0.900  13.110 -0.0158 -0.1711 -0.4670
  868MPD2    C212736   3.497   0.877  13.206 -0.3313 -0.6779 -0.1317
  868MPD2    C312737   3.383   0.953  13.216  0.0232 -0.0084  0.0053
  868MPD2    C412738   3.363   1.063  13.130  0.5175  0.3645  0.4877
  868MPD2    C512739   3.463   1.089  13.040 -0.0129  0.1873 -0.0479
  868MPD2     H12740   3.509   0.797  13.278 -0.9027  1.8399  2.7563
  868MPD2    H112741   3.274   1.125  13.125  1.2290  1.5077  1.9708
  868MPD2    H212742   3.660   1.019  12.959  0.0476  2.6759  0.0444
  868MPD2    H312743   3.447   1.175  12.977 -0.1730  2.9556  3.7970
  868MPD2     N12744   3.295   0.924  13.324 -0.0714 -0.0351 -0.0757
  868MPD2    H512745   3.314   0.837  13.372 -0.5522 -1.0271 -1.6980
  868MPD2    N112746   3.716   0.829  13.085 -0.0164 -0.3159  0.3481
  868MPD2    H712747   3.771   0.876  13.014  0.2056  2.5044  2.3668
  869MPD2     C12748   0.156   3.913   1.540  0.6064  0.1768 -0.2452
  869MPD2    C112749   0.057   3.816   1.525  0.3372 -0.9837 -0.3612
  869MPD2    C212750   4.690   3.829   1.421 -0.7545  0.0860  0.1603
  869MPD2    C312751   4.700   3.929   1.332  0.6630 -0.1556  0.4759
  869MPD2    C412752   0.078   4.015   1.336 -0.3321  0.3405  0.0012
  869MPD2    C512753   0.166   4.011   1.439 -0.0082 -0.2403 -0.4225
  869MPD2     H12754   4.615   3.755   1.399 -1.8655  1.4624 -0.6307
  869MPD2    H112755   0.093   4.091   1.260 -1.7127  0.1234 -0.4931
  869MPD2    H212756   0.223   3.916   1.625 -0.8619  2.8686  0.8212
  869MPD2    H312757   0.246   4.082   1.454  4.4965 -5.2695 -0.6638
  869MPD2     N12758   4.610   3.942   1.222 -0.0263  0.2606 -0.1034
  869MPD2    H512759   4.625   4.027   1.168  1.7930  0.1753  0.2786
  869MPD2    N112760   0.057   3.712   1.625 -0.5953  0.6943 -0.3444
  869MPD2    H712761   0.110   3.732   1.709 -1.2478  0.0529  0.2258
  870MPD2     C12762   4.234   2.815   1.200 -0.0527  0.0856 -0.0718
  870MPD2    C112763   4.140   2.767   1.282 -0.2363  0.0954  0.5112
  870MPD2    C212764   4.009   2.736   1.237  0.1327 -0.4282  0.2064
  870MPD2    C312765   3.973   2.757   1.106 -0.0585  0.3128 -0.1911
  870MPD2    C412766   4.070   2.796   1.021 -0.2239  0.0267  0.7732
  870MPD2    C512767   4.206   2.807   1.067 -0.5536 -0.3158 -0.1688
  870MPD2     H12768   3.934   2.709   1.311  1.5080 -0.0490  1.7491
  870MPD2    H112769   4.052   2.817   0.916  0.4436  0.1541  0.6797
  870MPD2    H212770   4.332   2.839   1.240 -0.2924 -0.6557  0.9599
  870MPD2    H312771   4.282   2.844   0.999 -0.6715 -0.5034 -0.4061
  870MPD2     N12772   3.840   2.738   1.056 -0.7153 -0.5268  0.5526
  870MPD2    H512773   3.823   2.748   0.957 -1.0014 -0.0630  0.6494
  870MPD2    N112774   4.178   2.753   1.420 -0.1432 -0.3151  0.5812
  870MPD2    H712775   4.278   2.756   1.436 -0.3517 -0.1313  1.9335
  871MPD2     C12776   0.568   2.182  16.233  0.5249  0.0777  0.0986
  871MPD2    C112777   0.517   2.153  16.357 -0.5207  0.0080  0.1417
  871MPD2    C212778   0.520   2.019  16.397 -0.6961 -0.0022 -0.3072
  871MPD2    C312779   0.569   1.923  16.313 -0.0273 -0.7066 -0.3748
  871MPD2    C412780   0.621   1.954  16.193  0.5905  0.4422  0.3453
  871MPD2    C512781   0.616   2.086  16.149 -0.3223  0.6079  0.2529
  871MPD2     H12782   0.488   1.994  16.497 -1.3813 -3.9287 -1.5147
  871MPD2    H112783   0.672   1.896  16.118 -1.0361 -0.4640 -0.0641
  871MPD2    H212784   0.567   2.286  16.202 -2.3616 -0.3679 -1.3627
  871MPD2    H312785   0.645   2.127  16.053  2.7069  1.3777  1.4877
  871MPD2     N12786   0.570   1.791  16.363  0.4968 -0.3419 -0.4714
  871MPD2    H512787   0.530   1.784  16.456 -4.1937  1.3986 -2.3478
  871MPD2    N112788   0.485   2.264  16.437  0.6737 -0.3632  0.1213
  871MPD2    H712789   0.507   2.352  16.392 -0.8441 -0.0104  0.0828
  872MPD2     C12790   1.715   4.256  14.040  0.4419 -0.0824 -0.1153
  872MPD2    C112791   1.661   4.300  13.924 -0.3316  0.4940 -0.3974
  872MPD2    C212792   1.521   4.320  13.921 -0.1027  0.5535 -0.1688
  872MPD2    C312793   1.434   4.290  14.026  0.0798  0.2421 -0.3079
  872MPD2    C412794   1.496   4.237  14.138  0.5204 -0.2364  0.2629
  872MPD2    C512795   1.634   4.223  14.143  0.0463  0.1065  0.0742
  872MPD2     H12796   1.484   4.365  13.830 -1.6007  0.8701  0.5962
  872MPD2    H112797   1.449   4.225  14.235 -1.2351 -3.0206 -0.9206
  872MPD2    H212798   1.823   4.249  14.048  0.6178  1.2651 -1.2082
  872MPD2    H312799   1.682   4.184  14.231 -0.0769  1.8054  0.8839
  872MPD2     N12800   1.294   4.315  14.013 -0.3500  0.1352 -0.0100
  872MPD2    H512801   1.243   4.297  14.099 -0.5056 -0.2111 -0.1747
  872MPD2    N112802   1.736   4.329  13.812  0.7278 -0.3787  0.1480
  872MPD2    H712803   1.692   4.384  13.738 -0.6631  1.1710  2.1029
  873MPD2     C12804   3.513   4.428   1.039 -0.0804  0.3237  0.2609
  873MPD2    C112805   3.391   4.468   0.997  0.2744  0.5486 -0.7349
  873MPD2    C212806   3.301   4.372   0.940 -0.9765  0.4407  0.1884
  873MPD2    C312807   3.345   4.244   0.901 -0.5270 -0.4739  0.2211
  873MPD2    C412808   3.479   4.214   0.928  0.3111  0.0826 -0.0820
  873MPD2    C512809   3.561   4.307   0.993 -0.0696 -0.0579  0.6216
  873MPD2     H12810   3.197   4.396   0.921 -0.6489  2.1098  0.5389
  873MPD2    H112811   3.516   4.115   0.907 -1.3618 -0.5792  0.1476
  873MPD2    H212812   3.576   4.497   1.093 -0.0491  0.1837  0.4022
  873MPD2    H312813   3.666   4.288   1.015  0.4732  2.2139 -0.0169
  873MPD2     N12814   3.265   4.147   0.829 -0.7102  0.2792 -0.9044
  873MPD2    H512815   3.317   4.064   0.801 -2.0039 -0.8089 -0.0765
  873MPD2    N112816   3.348   4.592   1.045  0.6291 -0.7533 -0.0282
  873MPD2    H712817   3.410   4.642   1.108 -1.0953 -0.9558  1.8530
  874MPD2     C12818   2.771   0.149  15.943 -0.4281  0.4068  0.2662
  874MPD2    C112819   2.784   0.123  16.078  0.1642  0.5212 -0.0487
  874MPD2    C212820   2.822   0.231  16.165  0.2158 -0.3974 -0.6178
  874MPD2    C312821   2.856   0.352  16.108  0.5159  0.8262  0.2716
  874MPD2    C412822   2.833   0.378  15.975 -0.2832 -0.1475  0.3360
  874MPD2    C512823   2.792   0.279  15.896  0.0854 -0.1052 -0.1440
  874MPD2     H12824   2.842   0.224  16.271  2.6906  0.7430 -1.0155
  874MPD2    H112825   2.854   0.473  15.928  0.5462 -1.1144 -1.2664
  874MPD2    H212826   2.751   0.076  15.865  0.6627 -0.6538  0.9812
  874MPD2    H312827   2.770   0.296  15.791 -0.4937 -0.9325 -0.1504
  874MPD2     N12828   2.916   0.449  16.195 -0.4724  0.0044 -0.1793
  874MPD2    H512829   2.960   0.426  16.283  0.8838 -0.4462 -0.9705
  874MPD2    N112830   2.765   4.716  16.123  0.1934 -0.5094  0.4395
  874MPD2    H712831   2.739   4.645  16.056 -0.6974  0.0289  0.2222
  875MPD2     C12832   4.073   2.905  14.674  0.7846  0.4364  0.1211
  875MPD2    C112833   3.937   2.935  14.679 -0.0091 -0.0853 -0.3836
  875MPD2    C212834   3.885   2.978  14.800  0.5572  0.4960  0.6430
  875MPD2    C312835   3.971   3.020  14.902  0.2337  0.3109 -0.6258
  875MPD2    C412836   4.105   3.002  14.897  0.8959  0.2492  0.0271
  875MPD2    C512837   4.150   2.934  14.783  0.5767  0.1072  0.0159
  875MPD2     H12838   3.778   2.993  14.811  0.8951  2.6446  1.0573
  875MPD2    H112839   4.180   3.039  14.966  0.6442  1.8182 -0.5644
  875MPD2    H212840   4.126   2.871  14.586 -1.3686  0.4123 -1.1826
  875MPD2    H312841   4.257   2.933  14.769  0.7320 -2.0334  1.3641
  875MPD2     N12842   3.918   3.085  15.019 -0.1799  0.0150  0.1424
  875MPD2    H512843   3.996   3.117  15.076  1.2503 -0.5671 -1.4981
  875MPD2    N112844   3.854   2.907  14.567 -0.2515  0.5366 -0.3535
  875MPD2    H712845   3.755   2.927  14.580 -0.0979 -0.4344  2.1746
  876MPD2     C12846   2.526   4.231  15.774 -0.1492 -0.0822  0.5018
  876MPD2    C112847   2.641   4.190  15.721  0.3472  0.0963  0.3452
  876MPD2    C212848   2.708   4.093  15.787  0.1528  0.6670 -0.8665
  876MPD2    C312849   2.658   4.034  15.900 -0.3708  0.1159 -0.0968
  876MPD2    C412850   2.537   4.075  15.945  0.1526  0.6468  0.1306
  876MPD2    C512851   2.475   4.180  15.884 -0.1780 -0.7379 -0.0163
  876MPD2     H12852   2.799   4.056  15.741 -1.4286 -1.0128 -2.6183
  876MPD2    H112853   2.491   4.033  16.033 -2.4473  0.8717 -1.1351
  876MPD2    H212854   2.479   4.320  15.732  0.0118  0.2760  1.0736
  876MPD2    H312855   2.380   4.205  15.928 -0.0040 -0.2338  0.0706
  876MPD2     N12856   2.734   3.931  15.963  0.5555 -0.5058 -0.0412
  876MPD2    H512857   2.817   3.900  15.913  0.1054 -1.3992 -0.2291
  876MPD2    N112858   2.691   4.271  15.615  0.0527 -0.1317 -0.2671
  876MPD2    H712859   2.626   4.337  15.573  0.2417 -0.2034 -0.6780
  877MPD2     C12860   2.537   0.036  15.055 -0.4754 -0.6463  0.5710
  877MPD2    C112861   2.659   4.713  15.034 -0.5552 -0.3294 -0.3214
  877MPD2    C212862   2.718   4.720  14.912 -0.0070 -0.4794  0.2842
  877MPD2    C312863   2.654   0.050  14.806  0.1326  0.0305  0.2880
  877MPD2    C412864   2.524   0.103  14.825  0.7582  0.2876 -0.4289
  877MPD2    C512865   2.469   0.090  14.947  0.0757 -0.8383 -0.2389
  877MPD2     H12866   2.807   4.662  14.891 -0.3677 -0.4924 -1.2421
  877MPD2    H112867   2.462   0.125  14.739  0.2117 -1.8443 -0.5880
  877MPD2    H212868   2.494   0.050  15.153  0.8000  1.6210  0.8003
  877MPD2    H312869   2.371   0.136  14.958  1.8731  3.1857 -0.9618
  877MPD2     N12870   2.710   0.057  14.678 -0.1946  0.0600 -0.7124
  877MPD2    H512871   2.648   0.090  14.605 -1.1146 -1.2269 -0.5040
  877MPD2    N112872   2.741   4.663  15.133  0.6309  0.2937  0.5594
  877MPD2    H712873   2.835   4.640  15.102 -0.2495 -2.6395  0.0893
  878MPD2     C12874   3.455   3.703  12.657  0.5793 -0.3401 -0.0700
  878MPD2    C112875   3.381   3.796  12.717  0.1391  0.3385 -1.0034
  878MPD2    C212876   3.368   3.803  12.854 -0.0608  0.0453 -0.1371
  878MPD2    C312877   3.424   3.710  12.938 -0.2466  0.0199 -0.2013
  878MPD2    C412878   3.496   3.608  12.875  0.5150 -0.2437  0.0474
  878MPD2    C512879   3.505   3.601  12.737  0.3386 -0.5857  0.0439
  878MPD2     H12880   3.308   3.877  12.906 -0.1507 -0.2202  0.1393
  878MPD2    H112881   3.532   3.520  12.926  1.1798  0.1313  0.2287
  878MPD2    H212882   3.456   3.696  12.549  1.3922  2.2814 -0.2140
  878MPD2    H312883   3.558   3.511  12.707 -2.5134 -1.8420 -1.3007
  878MPD2     N12884   3.408   3.718  13.075  0.3856 -0.0313 -0.5407
  878MPD2    H512885   3.326   3.774  13.097 -0.1581 -0.8343 -0.5215
  878MPD2    N112886   3.304   3.888  12.648 -0.1837  0.1876 -0.2025
  878MPD2    H712887   3.230   3.945  12.688 -0.2160 -1.3530  1.8990
  879MPD2     C12888   2.895   0.933  16.640  0.0551  0.0518 -0.0437
  879MPD2    C112889   2.901   0.798  16.656 -0.0487 -0.6467  0.5207
  879MPD2    C212890   2.815   0.720  16.588  0.6135 -0.2254  0.3815
  879MPD2    C312891   2.726   0.775  16.497 -0.8039  0.0506 -0.6338
  879MPD2    C412892   2.726   0.913  16.481  0.7923 -0.4390  0.2106
  879MPD2    C512893   2.807   0.996  16.558 -0.7262  0.2487  0.5100
  879MPD2     H12894   2.813   0.614  16.607 -0.6300 -0.1203  0.8289
  879MPD2    H112895   2.670   0.958  16.400  0.0148  1.3167  1.7345
  879MPD2    H212896   2.962   0.993  16.700  1.9839 -1.2050 -0.9419
  879MPD2    H312897   2.811   1.102  16.532 -0.8413 -0.2601 -1.6256
  879MPD2     N12898   2.637   0.710  16.413  0.6366 -0.0533 -0.0936
  879MPD2    H512899   2.570   0.756  16.353  2.9943  1.3472 -1.6872
  879MPD2    N112900   3.006   0.754  16.744 -0.2901  0.3383 -0.0453
  879MPD2    H712901   3.065   0.823  16.789 -1.4986  0.3589  1.4918
  880MPD2     C12902   3.431   2.322   0.605 -0.1314  0.2305  0.1625
  880MPD2    C112903   3.549   2.333   0.538  0.1325 -0.0436  0.6058
  880MPD2    C212904   3.671   2.336   0.602  0.3838  0.4207 -0.0080
  880MPD2    C312905   3.676   2.318   0.740  0.7307 -0.0903  0.9326
  880MPD2    C412906   3.557   2.303   0.804 -0.3078 -0.2843 -0.7035
  880MPD2    C512907   3.437   2.307   0.738  0.2153 -0.0168 -0.4542
  880MPD2     H12908   3.765   2.349   0.549  0.6214 -0.4677  0.1901
  880MPD2    H112909   3.557   2.290   0.911 -1.2667  1.8718 -0.4558
  880MPD2    H212910   3.336   2.330   0.553 -1.9703 -1.0332  3.3394
  880MPD2    H312911   3.342   2.304   0.792 -0.5114  2.5505 -1.6044
  880MPD2     N12912   3.805   2.311   0.799  0.5615  0.1281 -0.1643
  880MPD2    H512913   3.887   2.329   0.742  0.7788  0.0118  0.1087
  880MPD2    N112914   3.534   2.362   0.398 -0.3382 -0.3456 -0.1267
  880MPD2    H712915   3.438   2.356   0.365 -0.3353  0.4133 -0.2689
  881MPD2     C12916   4.101   2.998  17.423 -0.2134 -0.1747  0.0304
  881MPD2    C112917   4.015   2.910  17.373  0.4487  1.2427  0.2907
  881MPD2    C212918   3.934   2.844  17.464  0.1020  0.0236 -0.1981
  881MPD2    C312919   3.923   2.882  17.601  0.4700  0.0997 -0.4782
  881MPD2    C412920   3.993   2.995  17.639 -0.0519  0.2621 -0.3140
  881MPD2    C512921   4.085   3.050  17.550 -0.7791  0.9979 -0.0883
  881MPD2     H12922   3.866   2.768  17.428 -0.8137  1.1911 -0.9761
  881MPD2    H112923   3.984   3.033   0.032  1.5436 -0.5280  0.1342
  881MPD2    H212924   4.170   3.057  17.364 -0.9359 -1.0930 -1.7225
  881MPD2    H312925   4.145   3.133  17.585  1.0018 -1.1665  1.9619
  881MPD2     N12926   3.842   2.819  17.694 -0.7592  0.2314 -0.0475
  881MPD2    H512927   3.831   2.862   0.077  0.5292 -0.7512  0.5714
  881MPD2    N112928   4.039   2.875  17.235 -0.1184  0.2730  0.6278
  881MPD2    H712929   4.091   2.937  17.174 -1.4882 -0.1697 -0.9882
  882MPD2     C12930   2.553   0.321  14.093  0.4949  0.3446  0.1784
  882MPD2    C112931   2.582   0.189  14.095  0.3112  0.5721 -0.1682
  882MPD2    C212932   2.506   0.112  14.003 -0.9592 -0.7441  0.4529
  882MPD2    C312933   2.425   0.166  13.909  0.0260  0.0063  0.2329
  882MPD2    C412934   2.405   0.300  13.897 -0.1088 -0.5128 -0.7095
  882MPD2    C512935   2.469   0.373  13.996 -0.0511 -0.6263  0.1773
  882MPD2     H12936   2.519   0.004  14.010  3.3465 -0.3466 -1.6584
  882MPD2    H112937   2.330   0.342  13.831  0.0817 -1.0450 -1.2669
  882MPD2    H212938   2.598   0.390  14.164 -0.3464  0.2629  0.7911
  882MPD2    H312939   2.462   0.481  13.992  2.8382 -0.4244  0.8985
  882MPD2     N12940   2.343   0.081  13.831  0.2461  0.3856 -1.1942
  882MPD2    H512941   2.260   0.121  13.787 -1.0290 -0.5488  0.3449
  882MPD2    N112942   2.674   0.140  14.192  0.2045 -0.0686 -0.0002
  882MPD2    H712943   2.714   0.200  14.264  3.0720 -0.6325 -1.0985
  883MPD2     C12944   0.190   4.657  16.527  0.6368  0.3115 -0.0675
  883MPD2    C112945   0.213   4.691  16.392 -0.1523 -0.0477 -0.4069
  883MPD2    C212946   0.329   0.034  16.354  0.2430 -0.1272 -0.2732
  883MPD2    C312947   0.415   0.062  16.454  0.6966  0.7315  0.1273
  883MPD2    C412948   0.397   0.036  16.587 -0.3151 -0.2999 -0.4382
  883MPD2    C512949   0.283   4.695  16.617  0.0726  0.1509  0.4201
  883MPD2     H12950   0.360   0.057  16.253 -0.4004 -0.8946 -0.6543
  883MPD2    H112951   0.461   0.075  16.665  0.8342 -0.0740 -1.4946
  883MPD2    H212952   0.099   4.611  16.564  2.7980 -2.1281  2.2248
  883MPD2    H312953   0.266   4.665  16.720 -0.4633  2.4564  1.0041
  883MPD2     N12954   0.535   0.121  16.408  0.2804  1.5701  0.1216
  883MPD2    H512955   0.539   0.158  16.314 -1.3226 -1.4764 -1.1278
  883MPD2    N112956   0.123   4.651  16.291  0.6104  0.5582  0.4470
  883MPD2    H712957   0.141   4.683  16.196 -1.9823  1.1853  0.1530
  884MPD2     C12958   1.820   0.318  14.862 -0.8199  0.6140 -0.2139
  884MPD2    C112959   1.773   0.338  14.733 -0.0988 -0.6763  0.2904
  884MPD2    C212960   1.643   0.370  14.713  0.0342  0.0760 -0.6294
  884MPD2    C312961   1.565   0.405  14.824 -0.3278 -0.5557 -0.2040
  884MPD2    C412962   1.609   0.381  14.955 -0.0846 -0.1893  0.3583
  884MPD2    C512963   1.739   0.341  14.970 -0.4015  0.6447  0.2839
  884MPD2     H12964   1.610   0.382  14.610  1.9905 -0.1380 -1.2654
  884MPD2    H112965   1.548   0.386  15.045 -0.7186  2.5224 -0.2103
  884MPD2    H212966   1.921   0.282  14.879 -1.2250 -0.3046  0.2685
  884MPD2    H312967   1.796   0.347  15.062  0.6925 -1.5038 -0.2603
  884MPD2     N12968   1.438   0.449  14.804 -0.6148 -0.3158  0.3484
  884MPD2    H512969   1.404   0.442  14.709 -0.8468 -1.8974  0.5542
  884MPD2    N112970   1.858   0.325  14.619 -0.1221  0.1473  0.0639
  884MPD2    H712971   1.824   0.337  14.524 -2.0751  1.7278  0.9572
  885MPD2     C12972   0.157   0.909   0.373  0.5241 -0.3984  0.6142
  885MPD2    C112973   0.164   0.813   0.274  0.1783  0.4954 -0.5242
  885MPD2    C212974   0.133   0.833   0.146  0.1134 -0.4821  0.0213
  885MPD2    C312975   0.088   0.957   0.106 -0.2024 -0.3059  0.1945
  885MPD2    C412976   0.078   1.058   0.200  0.2221 -0.1485  0.2218
  885MPD2    C512977   0.109   1.033   0.335  0.4687 -0.3652  0.2223
  885MPD2     H12978   0.145   0.756   0.071 -0.0317  0.7978 -1.3220
  885MPD2    H112979   0.055   1.161   0.178  0.5109 -0.5830 -2.0811
  885MPD2    H212980   0.187   0.893   0.476  1.0803 -2.6341  0.1162
  885MPD2    H312981   0.094   1.107   0.413  1.1047  1.8181 -1.7584
  885MPD2     N12982   0.065   0.965  17.678 -0.0535 -0.0550 -0.3305
  885MPD2    H512983   0.100   0.889  17.621  1.7786  0.4424  0.1540
  885MPD2    N112984   0.209   0.685   0.316 -0.1724 -0.0624  0.1135
  885MPD2    H712985   0.243   0.672   0.411 -2.6594 -0.8913  0.9007
  886MPD2     C12986   1.418   3.578  14.807  0.3912 -0.9039 -0.0296
  886MPD2    C112987   1.481   3.652  14.898 -1.3015  0.9183  0.2922
  886MPD2    C212988   1.484   3.789  14.880  0.7663  0.6311 -0.2597
  886MPD2    C312989   1.407   3.860  14.785 -0.1011  0.7900  0.1972
  886MPD2    C412990   1.340   3.778  14.696  0.0869  0.3461  0.0243
  886MPD2    C512991   1.341   3.639  14.709 -0.3517  0.0942  0.0989
  886MPD2     H12992   1.529   3.851  14.957 -1.2135  0.4228  1.0727
  886MPD2    H112993   1.279   3.826  14.619 -0.2013 -0.3959 -0.2102
  886MPD2    H212994   1.402   3.472  14.823  1.9270 -1.1714 -0.2331
  886MPD2    H312995   1.255   3.586  14.671  0.1010  0.8197 -1.9415
  886MPD2     N12996   1.398   4.000  14.778 -0.2645 -0.1308  0.3327
  886MPD2    H512997   1.339   4.042  14.707 -1.8825  0.6447  2.1368
  886MPD2    N112998   1.567   3.596  14.996 -0.2434  1.0041  0.0314
  886MPD2    H712999   1.632   3.661  15.039 -0.9137  0.9981  1.0691
  887MPD2     C13000   1.982   3.799  15.559  0.3780 -0.3618  0.4831
  887MPD2    C113001   1.887   3.818  15.463  0.0040 -0.0710 -0.1392
  887MPD2    C213002   1.852   3.938  15.415  0.2297  0.3142 -0.8603
  887MPD2    C313003   1.933   4.045  15.446  0.2674  0.6686 -0.5106
  887MPD2    C413004   2.022   4.039  15.551 -0.8613 -0.3565  0.7978
  887MPD2    C513005   2.049   3.914  15.598 -0.3292 -0.2952  0.2133
  887MPD2     H13006   1.771   3.937  15.343 -1.4916  1.3115  1.0718
  887MPD2    H113007   2.083   4.117  15.595 -1.0792 -0.9879  2.2242
  887MPD2    H213008   2.014   3.707  15.607  1.5000 -1.3411 -2.1398
  887MPD2    H313009   2.118   3.909  15.682  0.1141  1.0733 -0.0687
  887MPD2     N13010   1.895   4.162  15.383  0.1650 -0.8577 -0.5074
  887MPD2    H513011   1.813   4.156  15.323 -0.2362 -3.1775  0.2616
  887MPD2    N113012   1.821   3.706  15.402  0.3847 -0.0263  0.3985
  887MPD2    H713013   1.743   3.740  15.348  0.4642  1.7473  1.3920
  888MPD2     C13014   3.878   4.115  14.691 -0.3304  0.0354  0.0347
  888MPD2    C113015   3.880   4.190  14.811  0.2778 -0.7624  0.0003
  888MPD2    C213016   3.938   4.313  14.806  0.3584  0.1644 -0.0094
  888MPD2    C313017   3.981   4.372  14.690  0.6407  0.9083  0.4557
  888MPD2    C413018   3.987   4.289  14.582  0.5552 -0.4543 -0.4830
  888MPD2    C513019   3.940   4.164  14.580 -0.3470 -0.1577 -0.3952
  888MPD2     H13020   3.943   4.375  14.895  0.6122 -0.7205  0.5853
  888MPD2    H113021   4.041   4.328  14.497  1.0208 -0.8963 -0.3903
  888MPD2    H213022   3.855   4.009  14.695 -2.8073  0.6038  1.3943
  888MPD2    H313023   3.956   4.095  14.498 -2.4691 -0.9046 -0.1624
  888MPD2     N13024   4.013   4.510  14.682 -0.2488 -0.4055  0.7020
  888MPD2    H513025   4.012   4.551  14.775  1.2507  1.2356 -0.0241
  888MPD2    N113026   3.827   4.137  14.934 -0.4552 -0.2329 -0.6479
  888MPD2    H713027   3.865   4.167  15.023 -0.8882  0.2690 -0.6275
  889MPD2     C13028   3.778   3.616  12.388 -0.1700 -0.3637  0.2407
  889MPD2    C113029   3.810   3.574  12.514  0.4727 -0.2155  0.0021
  889MPD2    C213030   3.775   3.660  12.610 -1.0079 -0.1758  0.4672
  889MPD2    C313031   3.743   3.799  12.580 -0.6294  0.1076  0.1214
  889MPD2    C413032   3.718   3.834  12.454 -0.3880 -0.7922  0.3861
  889MPD2    C513033   3.725   3.743  12.366 -0.3410 -0.5766 -0.3559
  889MPD2     H13034   3.809   3.630  12.708 -0.6037 -0.0301  0.3739
  889MPD2    H113035   3.674   3.927  12.420 -3.6257 -2.9424 -1.2941
  889MPD2    H213036   3.790   3.553  12.301  0.8926  0.3486 -0.1295
  889MPD2    H313037   3.706   3.768  12.262 -0.8922 -1.3381 -0.4367
  889MPD2     N13038   3.727   3.886  12.695  0.1789  0.1721  0.6601
  889MPD2    H513039   3.722   3.848  12.789  0.1324 -0.9368  0.2111
  889MPD2    N113040   3.853   3.439  12.538 -0.4837 -0.0433  0.1010
  889MPD2    H713041   3.862   3.408  12.634  0.5218 -0.1537 -0.0260
  890MPD2     C13042   3.232   0.925  15.354  0.1034 -0.1877 -0.4747
  890MPD2    C113043   3.147   0.894  15.256  0.1486 -0.2629 -0.2222
  890MPD2    C213044   3.080   0.782  15.252  0.0686 -0.1666 -0.3925
  890MPD2    C313045   3.089   0.691  15.361  0.3693 -0.0766  0.1645
  890MPD2    C413046   3.162   0.732  15.477 -0.1942 -0.1637  0.2678
  890MPD2    C513047   3.229   0.848  15.463 -0.2109  0.4159  0.1715
  890MPD2     H13048   3.009   0.759  15.173 -2.1087 -0.0851  1.5465
  890MPD2    H113049   3.178   0.679  15.569  0.8516  1.8681  1.2700
  890MPD2    H213050   3.284   1.019  15.343 -0.3751  0.2325  0.9252
  890MPD2    H313051   3.300   0.880  15.538 -0.9382 -1.9714  1.9189
  890MPD2     N13052   3.009   0.573  15.363 -0.5644  0.4640  0.2701
  890MPD2    H513053   2.952   0.548  15.282 -0.8356  0.2505  0.5290
  890MPD2    N113054   3.128   0.995  15.159  0.0654  0.1018 -0.0012
  890MPD2    H713055   3.167   1.086  15.181 -0.7685  0.8339 -1.6079
  891MPD2     C13056   0.844   4.092  16.163  0.2140 -0.2040 -0.0342
  891MPD2    C113057   0.763   4.037  16.256  0.3059  0.2295  0.0303
  891MPD2    C213058   0.811   3.954  16.351  0.1202 -0.2451  0.3776
  891MPD2    C313059   0.949   3.932  16.358 -0.0496 -0.3523 -0.0712
  891MPD2    C413060   1.039   3.989  16.272  0.4496 -0.2378 -0.4671
  891MPD2    C513061   0.982   4.064  16.166 -0.1446  0.3288  0.6645
  891MPD2     H13062   0.749   3.913  16.430  0.3177  2.1786  1.8120
  891MPD2    H113063   1.146   3.978  16.278  0.4160  0.6856  1.5606
  891MPD2    H213064   0.803   4.144  16.078  1.6502  1.1023  0.0693
  891MPD2    H313065   1.045   4.110  16.091  0.0908 -2.3564 -0.7672
  891MPD2     N13066   0.997   3.856  16.468  0.2592 -0.0070 -0.0541
  891MPD2    H513067   0.930   3.808  16.527  0.4087  0.9345  0.8885
  891MPD2    N113068   0.622   4.065  16.244  0.2941  0.1533 -0.7799
  891MPD2    H713069   0.588   4.107  16.158  1.6926 -0.0090 -1.4005
  892MPD2     C13070   1.856   4.691  14.534  0.9477 -0.5127  0.6023
  892MPD2    C113071   1.790   0.004  14.420 -0.4440  0.5415  0.3611
  892MPD2    C213072   1.855   4.707  14.305 -0.1424  0.3196  0.3544
  892MPD2    C313073   1.977   4.639  14.296  0.4035 -0.6992 -0.0590
  892MPD2    C413074   2.040   4.606  14.407  0.1243 -0.5730 -0.1807
  892MPD2    C513075   1.979   4.634  14.527  0.1448  0.3697  0.5871
  892MPD2     H13076   1.803   4.725  14.211  0.4783  1.0284  0.1443
  892MPD2    H113077   2.140   4.564  14.407  0.4462  0.1913 -2.3337
  892MPD2    H213078   1.813   4.705  14.633 -1.2138 -0.8027 -0.3137
  892MPD2    H313079   2.032   4.616  14.620 -2.8167 -2.8178  1.6894
  892MPD2     N13080   2.033   4.601  14.172 -0.0471  0.0146 -0.0401
  892MPD2    H513081   2.118   4.545  14.177  0.4932  0.9890  1.6717
  892MPD2    N113082   1.653   0.050  14.421 -0.3988  0.0304 -0.2033
  892MPD2    H713083   1.609   0.078  14.335  2.2917  2.2167 -0.8634
  893MPD2     C13084   3.476   3.112   1.742 -0.6002 -0.5230  0.0382
  893MPD2    C113085   3.444   3.132   1.607  0.4228  0.1632 -0.2112
  893MPD2    C213086   3.317   3.167   1.571 -0.5960  0.0987  0.3619
  893MPD2    C313087   3.211   3.172   1.663 -0.4624  0.1440  0.0309
  893MPD2    C413088   3.246   3.161   1.800  0.1218  0.5830 -0.3192
  893MPD2    C513089   3.375   3.133   1.833 -0.4644  0.7712 -0.7883
  893MPD2     H13090   3.306   3.183   1.465 -1.2259  1.2852  0.6132
  893MPD2    H113091   3.175   3.178   1.881 -0.1127 -2.9287  0.2147
  893MPD2    H213092   3.579   3.086   1.765  0.8079  3.3603 -1.8157
  893MPD2    H313093   3.405   3.124   1.937  0.0563 -0.5296 -1.0487
  893MPD2     N13094   3.069   3.189   1.639 -0.3282  0.1340 -0.0679
  893MPD2    H513095   3.018   3.183   1.727  0.9337  1.4698  0.7455
  893MPD2    N113096   3.555   3.125   1.510  0.1623 -0.0040  0.7132
  893MPD2    H713097   3.645   3.123   1.557  1.8049 -0.1717 -2.4302
  894MPD2     C13098   1.776   1.133   0.628  0.2681 -0.5181 -0.6412
  894MPD2    C113099   1.747   1.166   0.764 -0.1055 -0.4281 -0.8885
  894MPD2    C213100   1.847   1.218   0.848  0.2391  0.1538 -0.0886
  894MPD2    C313101   1.967   1.257   0.790 -1.1777 -0.2278 -0.1429
  894MPD2    C413102   1.989   1.238   0.651  0.0181 -0.3699  0.2994
  894MPD2    C513103   1.899   1.162   0.579 -0.2466  0.2797 -0.2624
  894MPD2     H13104   1.820   1.235   0.952 -1.7325 -1.7064 -0.3137
  894MPD2    H113105   2.087   1.252   0.607 -0.3565  0.3652 -0.2971
  894MPD2    H213106   1.704   1.094   0.557 -0.0718 -1.4168  0.1905
  894MPD2    H313107   1.931   1.138   0.478 -0.8226 -1.5639 -0.0039
  894MPD2     N13108   2.060   1.322   0.874 -0.4556  0.2470 -0.2308
  894MPD2    H513109   2.032   1.332   0.971  0.8292  0.7132  0.0917
  894MPD2    N113110   1.619   1.153   0.820  0.2333 -0.1534 -0.3436
  894MPD2    H713111   1.603   1.199   0.909  0.0784 -1.4180  0.2728
  895MPD2     C13112   1.586   3.757  12.921 -0.8998  0.0091 -0.3397
  895MPD2    C113113   1.497   3.729  12.822  0.4287 -0.1911 -0.2986
  895MPD2    C213114   1.451   3.599  12.798 -0.3627 -0.0524 -0.2502
  895MPD2    C313115   1.479   3.497  12.884  0.1056  0.3592 -0.0537
  895MPD2    C413116   1.575   3.518  12.979 -0.4003  0.0704  0.1876
  895MPD2    C513117   1.624   3.646  13.000 -0.0767 -0.7891 -0.5037
  895MPD2     H13118   1.383   3.583  12.715  0.2843  0.2627 -0.8435
  895MPD2    H113119   1.625   3.445  13.042 -1.4382 -0.3306  0.5541
  895MPD2    H213120   1.634   3.851  12.945  0.9944 -0.9323 -0.4932
  895MPD2    H313121   1.703   3.646  13.075  0.0192 -1.9683 -0.5919
  895MPD2     N13122   1.413   3.370  12.889 -0.0329 -0.1697  0.3417
  895MPD2    H513123   1.464   3.303  12.946 -0.4520  0.4386  1.4492
  895MPD2    N113124   1.446   3.825  12.733  0.0597  0.4429 -0.8667
  895MPD2    H713125   1.393   3.789  12.654 -0.7340 -1.4348  0.5100
  896MPD2     C13126   3.277   1.721   2.037  0.1871 -0.3466 -0.0620
  896MPD2    C113127   3.266   1.698   1.900  0.8942 -0.3001  0.4606
  896MPD2    C213128   3.170   1.621   1.850 -0.4793  0.3310 -0.5723
  896MPD2    C313129   3.072   1.585   1.935  0.0939  0.9175  0.0381
  896MPD2    C413130   3.079   1.607   2.075 -0.3081 -0.1578 -0.2756
  896MPD2    C513131   3.189   1.674   2.126  0.0314  0.3519  0.4083
  896MPD2     H13132   3.151   1.593   1.747  1.2434 -0.3985 -0.6723
  896MPD2    H113133   3.006   1.572   2.146 -0.4022 -1.2551 -0.9118
  896MPD2    H213134   3.363   1.777   2.074  0.7111 -1.3028  0.1506
  896MPD2    H313135   3.205   1.697   2.231 -1.9302  2.6103  0.1940
  896MPD2     N13136   2.969   1.497   1.880 -0.4157  0.1659  0.0771
  896MPD2    H513137   2.978   1.457   1.787 -2.9314 -1.1721  0.4135
  896MPD2    N113138   3.353   1.773   1.816  0.3624  0.5107  0.1268
  896MPD2    H713139   3.427   1.822   1.866  2.1117 -0.1889 -1.7338
  897MPD2     C13140   4.656   3.419  10.005  0.1481  0.0192 -0.7263
  897MPD2    C113141   4.533   3.478  10.005  0.1057  0.2910  0.3463
  897MPD2    C213142   4.434   3.415  10.075 -0.3840  0.7112 -0.2398
  897MPD2    C313143   4.472   3.325  10.173 -0.6373 -0.7848 -0.3140
  897MPD2    C413144   4.600   3.277  10.191 -0.3570  0.3763 -0.0703
  897MPD2    C513145   4.694   3.319  10.094  0.1343 -0.1936 -0.7455
  897MPD2     H13146   4.332   3.453  10.078  0.4743  3.0267 -0.6482
  897MPD2    H113147   4.632   3.212  10.272  0.8044  1.4212  0.3292
  897MPD2    H213148   0.007   3.466   9.946 -0.2117 -1.2478 -2.2031
  897MPD2    H313149   0.073   3.296  10.091  0.2081  0.0540 -0.0742
  897MPD2     N13150   4.365   3.279  10.261 -0.1733 -0.8604  0.2928
  897MPD2    H513151   4.272   3.317  10.249 -0.5162 -1.9588 -0.5150
  897MPD2    N113152   4.524   3.597   9.931 -0.3738  0.4411  0.4458
  897MPD2    H713153   4.610   3.640   9.899 -0.0726 -0.8698 -0.5039
  898MPD2     C13154   1.819   3.966  17.245  0.2404 -0.4321 -0.4273
  898MPD2    C113155   1.865   4.100  17.243  0.6452  0.7304 -0.2312
  898MPD2    C213156   1.823   4.185  17.145  0.4575 -0.3140 -0.2095
  898MPD2    C313157   1.740   4.145  17.043  0.1582 -0.7065  0.5763
  898MPD2    C413158   1.693   4.020  17.046  0.2502  0.3231 -0.0048
  898MPD2    C513159   1.729   3.934  17.142  0.8565  0.2941  0.7581
  898MPD2     H13160   1.855   4.289  17.145 -1.0146  0.1363  1.8012
  898MPD2    H113161   1.654   3.982  16.952  0.4843  0.0474  0.0110
  898MPD2    H213162   1.852   3.888  17.312  0.6459 -1.8933 -2.3123
  898MPD2    H313163   1.696   3.831  17.134 -0.1782  0.8136 -1.7706
  898MPD2     N13164   1.702   4.234  16.943  0.1678 -0.1943  0.0910
  898MPD2    H513165   1.728   4.329  16.968  0.0268  0.5503 -2.5690
  898MPD2    N113166   1.968   4.151  17.326 -0.2651  0.2791  0.3086
  898MPD2    H713167   1.990   4.247  17.304  2.3717 -0.5544 -0.6585
  899MPD2     C13168   2.202   0.236  17.193 -0.5476  0.5377  0.9478
  899MPD2    C113169   2.263   0.352  17.245  0.1976  0.4629  0.3000
  899MPD2    C213170   2.218   0.398  17.369  0.2662  0.0155  0.0750
  899MPD2    C313171   2.117   0.330  17.434  0.5473 -0.2920 -0.1752
  899MPD2    C413172   2.049   0.221  17.382 -0.3214  0.8909 -0.6157
  899MPD2    C513173   2.103   0.174  17.262 -0.1750 -0.6377  0.0686
  899MPD2     H13174   2.256   0.489  17.414  0.0268 -0.1201  0.5509
  899MPD2    H113175   1.960   0.169  17.414  0.1955 -0.0802 -0.7537
  899MPD2    H213176   2.220   0.185  17.099  0.5593  0.4147  1.2279
  899MPD2    H313177   2.051   0.090  17.217 -1.4633  0.7459 -1.0442
  899MPD2     N13178   2.069   0.372  17.563  1.0114 -0.0023  0.0728
  899MPD2    H513179   1.988   0.321  17.598  1.3751 -1.8590 -1.8167
  899MPD2    N113180   2.356   0.418  17.164 -0.0844 -0.0986  0.3261
  899MPD2    H713181   2.373   0.377  17.073 -0.1368 -0.3939  0.4492
  900MPD2     C13182   2.388   1.843  12.187  0.7409  0.4375 -0.8044
  900MPD2    C113183   2.366   1.708  12.184 -0.0196  0.8809  1.2135
  900MPD2    C213184   2.276   1.663  12.085 -0.5509 -0.3282 -0.9422
  900MPD2    C313185   2.230   1.752  11.987 -0.5602 -0.8500  0.1064
  900MPD2    C413186   2.269   1.890  11.994  0.3170  0.1881 -0.0672
  900MPD2    C513187   2.348   1.928  12.090  0.4901 -0.5003 -0.5677
  900MPD2     H13188   2.251   1.558  12.080 -0.3109 -0.5004  1.1893
  900MPD2    H113189   2.247   1.972  11.927 -1.2065  0.1364  0.3805
  900MPD2    H213190   2.441   1.888  12.271 -0.4109  1.5343 -0.6658
  900MPD2    H313191   2.388   2.029  12.093  2.2255 -1.2043  0.1673
  900MPD2     N13192   2.144   1.704  11.883 -0.4661 -0.1754  0.4257
  900MPD2    H513193   2.114   1.608  11.897 -2.0911  0.5246  1.6688
  900MPD2    N113194   2.435   1.630  12.280  0.5487 -0.3202  0.0503
  900MPD2    H713195   2.505   1.674  12.338  1.4739 -0.8493 -0.6684
  901MPD2     C13196   2.624   0.651  12.741 -0.0055  0.0853 -0.8658
  901MPD2    C113197   2.712   0.680  12.638 -0.2038 -0.0638  0.2051
  901MPD2    C213198   2.715   0.805  12.577 -0.0981 -0.1086  0.2097
  901MPD2    C313199   2.627   0.900  12.616  0.4339 -0.2611 -0.2977
  901MPD2    C413200   2.540   0.867  12.718 -0.4335  0.7081  0.1053
  901MPD2    C513201   2.536   0.744  12.786  0.3428 -0.0221 -0.9777
  901MPD2     H13202   2.783   0.830  12.496 -1.3477 -0.8386 -1.0629
  901MPD2    H113203   2.460   0.931  12.755 -1.5126  0.1564 -1.2842
  901MPD2    H213204   2.633   0.555  12.789 -0.4839 -0.2527 -1.4505
  901MPD2    H313205   2.475   0.712  12.870 -0.6314 -2.0957 -2.4635
  901MPD2     N13206   2.634   1.023  12.556  0.3779  0.6801  0.1312
  901MPD2    H513207   2.711   1.036  12.491  1.1587  0.4814  1.0230
  901MPD2    N113208   2.782   0.570  12.587  0.6916 -0.6830  0.7725
  901MPD2    H713209   2.772   0.479  12.631 -0.1597 -0.7501  0.4248
  902MPD2     C13210   1.658   4.393  12.659  0.3333 -0.2299 -0.0616
  902MPD2    C113211   1.637   4.465  12.542 -0.3623  0.4441  0.2993
  902MPD2    C213212   1.639   4.393  12.425 -0.5804  0.3254  0.2214
  902MPD2    C313213   1.656   4.253  12.419 -0.5602  0.1835 -0.1219
  902MPD2    C413214   1.695   4.187  12.537  0.3706  0.0180 -0.7767
  902MPD2    C513215   1.697   4.258  12.658 -0.5119 -0.5239 -0.2113
  902MPD2     H13216   1.619   4.442  12.330 -2.4081 -1.2017 -0.1974
  902MPD2    H113217   1.707   4.079  12.543  0.6714  0.0763 -0.3395
  902MPD2    H213218   1.649   4.428  12.761 -1.5487 -1.0188  0.0546
  902MPD2    H313219   1.716   4.209  12.753 -0.6904 -0.9077 -0.3724
  902MPD2     N13220   1.624   4.167  12.306 -0.1217  0.6457 -0.2377
  902MPD2    H513221   1.614   4.067  12.322 -0.4316  0.6094 -0.6593
  902MPD2    N113222   1.602   4.604  12.546 -0.1544 -0.3810  0.0153
  902MPD2    H713223   1.600   4.649  12.637 -1.2663 -0.7617  0.1842
  903MPD2     C13224   1.291   4.061  11.487 -0.2471  0.2068 -0.3300
  903MPD2    C113225   1.200   4.102  11.585 -0.2234 -0.0849  0.3133
  903MPD2    C213226   1.064   4.107  11.554 -0.5615  0.2873  0.6061
  903MPD2    C313227   1.025   4.098  11.420  0.1101  0.3434 -0.2182
  903MPD2    C413228   1.119   4.062  11.328 -0.3090  0.5609  0.3630
  903MPD2    C513229   1.247   4.042  11.364  0.5120 -0.4240  0.3377
  903MPD2     H13230   0.992   4.122  11.634  1.1418  1.2273  1.9921
  903MPD2    H113231   1.099   4.056  11.222  1.0032  0.5097  0.1140
  903MPD2    H213232   1.396   4.048  11.507 -0.4142  1.6286  1.4036
  903MPD2    H313233   1.318   4.010  11.288 -0.0649 -1.2381  0.1454
  903MPD2     N13234   0.889   4.116  11.395  0.2826 -0.1526 -0.3998
  903MPD2    H513235   0.829   4.170  11.458  0.2259 -1.7864  0.9375
  903MPD2    N113236   1.240   4.107  11.719 -0.1941 -0.3905  0.2893
  903MPD2    H713237   1.169   4.093  11.790 -0.8449  2.0783  0.1228
  904MPD2     C13238   1.099   3.501  13.268  0.1985  0.2336 -0.0676
  904MPD2    C113239   1.090   3.457  13.398  0.6148  0.2440  0.1067
  904MPD2    C213240   1.206   3.402  13.456 -0.7161  0.3752 -1.3913
  904MPD2    C313241   1.320   3.372  13.381  0.6706 -0.2704  0.7573
  904MPD2    C413242   1.319   3.405  13.250  0.0688 -0.3794  0.5376
  904MPD2    C513243   1.217   3.479  13.198 -0.0616  0.5467 -0.3045
  904MPD2     H13244   1.201   3.381  13.562  1.0260  0.7353 -1.2308
  904MPD2    H113245   1.402   3.386  13.184 -1.1351  2.4044 -1.7753
  904MPD2    H213246   1.011   3.547  13.224 -0.7167 -1.0231  0.4371
  904MPD2    H313247   1.229   3.527  13.102  0.0976 -0.2937 -0.7023
  904MPD2     N13248   1.430   3.305  13.438 -0.2476 -0.0998 -0.5930
  904MPD2    H513249   1.411   3.282  13.535 -0.4792  0.7173 -0.4433
  904MPD2    N113250   0.979   3.484  13.477 -0.5551  0.0472 -0.0470
  904MPD2    H713251   1.004   3.505  13.573  1.2288  3.5743 -1.2705
  905MPD2     C13252   0.694   3.703  12.928  0.4947  0.0369  0.0697
  905MPD2    C113253   0.756   3.630  13.030  0.9169  0.0218 -0.0904
  905MPD2    C213254   0.804   3.506  13.007 -0.1678 -0.1687 -0.5482
  905MPD2    C313255   0.808   3.457  12.879  1.3334 -0.2740  0.2645
  905MPD2    C413256   0.762   3.532  12.779 -0.2359  0.2504 -0.1248
  905MPD2    C513257   0.705   3.653  12.799  0.5287  0.6373  0.4553
  905MPD2     H13258   0.834   3.454  13.098  0.2847  1.5289  0.2896
  905MPD2    H113259   0.773   3.496  12.678  1.5519 -0.6178  0.3705
  905MPD2    H213260   0.644   3.798  12.946  1.3554  0.8341 -1.7520
  905MPD2    H313261   0.659   3.706  12.717 -2.3317 -0.0607  1.6192
  905MPD2     N13262   0.873   3.336  12.848  0.2894  1.3105 -0.4867
  905MPD2    H513263   0.893   3.314  12.751  1.1328  0.9546 -0.2273
  905MPD2    N113264   0.738   3.673  13.163  0.0017  0.1773 -0.3225
  905MPD2    H713265   0.753   3.607  13.239  0.8976  0.5349 -0.1925
  906MPD2     C13266   3.601   3.435  11.199  0.2781 -0.1764  0.2325
  906MPD2    C113267   3.511   3.389  11.106  1.0767 -0.0414 -0.3750
  906MPD2    C213268   3.452   3.266  11.121 -0.7673  0.3698 -0.1480
  906MPD2    C313269   3.474   3.190  11.233  0.1568 -0.2480  0.4410
  906MPD2    C413270   3.558   3.234  11.330 -0.0711 -0.0219 -0.0519
  906MPD2    C513271   3.626   3.350  11.311 -0.0088 -0.1203  0.6501
  906MPD2     H13272   3.397   3.226  11.037  0.0137 -0.3361 -0.3317
  906MPD2    H113273   3.585   3.177  11.418  1.5716 -0.8688 -1.0992
  906MPD2    H213274   3.640   3.536  11.192  0.6275 -0.2964  0.4577
  906MPD2    H313275   3.708   3.374  11.378  1.0969  0.4005 -0.8874
  906MPD2     N13276   3.414   3.058  11.228 -0.0390 -0.5621  0.7326
  906MPD2    H513277   3.353   3.043  11.149  0.2919 -0.2635  0.4203
  906MPD2    N113278   3.487   3.461  10.986 -0.3648 -0.8828  0.4674
  906MPD2    H713279   3.440   3.402  10.918 -0.0718 -0.4261 -0.1310
  907MPD2     C13280   1.488   2.872  15.762  0.6263  0.3419  0.3599
  907MPD2    C113281   1.559   2.759  15.722  0.8473  0.3447 -0.1907
  907MPD2    C213282   1.613   2.681  15.817  0.3717 -0.2336  0.4137
  907MPD2    C313283   1.608   2.711  15.952  0.5864 -0.4215 -0.3739
  907MPD2    C413284   1.541   2.824  15.989  0.3228 -1.1465 -0.0370
  907MPD2    C513285   1.478   2.897  15.892  0.0547 -0.2889 -0.0698
  907MPD2     H13286   1.662   2.593  15.777  0.5005  0.7670 -1.6022
  907MPD2    H113287   1.520   2.864  16.088 -0.8977 -0.0590 -0.7363
  907MPD2    H213288   1.444   2.934  15.686  1.1389  1.0524  0.6405
  907MPD2    H313289   1.401   2.967  15.925  1.1305 -0.0577  1.9744
  907MPD2     N13290   1.684   2.628  16.037  0.2430 -0.1203  0.0949
  907MPD2    H513291   1.746   2.556  16.001 -0.9487 -1.7671  1.3142
  907MPD2    N113292   1.569   2.726  15.585 -0.4257  0.0713 -1.1437
  907MPD2    H713293   1.627   2.645  15.567  0.3503  0.2588  0.5222
  908MPD2     C13294   3.860   3.673   9.212  0.7713  0.0746 -0.7933
  908MPD2    C113295   3.981   3.616   9.196  0.2011  0.2478  0.2725
  908MPD2    C213296   4.088   3.653   9.278 -0.6674 -0.1809  0.0857
  908MPD2    C313297   4.066   3.749   9.375 -0.0361 -0.0992 -0.2120
  908MPD2    C413298   3.944   3.810   9.390 -0.7577 -0.0828  0.8170
  908MPD2    C513299   3.845   3.778   9.302  0.0746  0.0928  0.3626
  908MPD2     H13300   4.181   3.597   9.270 -1.2521 -1.0627 -0.5877
  908MPD2    H113301   3.924   3.888   9.462  0.9223 -0.0487  1.2671
  908MPD2    H213302   3.776   3.642   9.150 -1.1098  1.9888  0.7805
  908MPD2    H313303   3.748   3.826   9.307 -0.9247 -1.6488 -2.2931
  908MPD2     N13304   4.172   3.773   9.465 -0.0041  0.1810  0.6246
  908MPD2    H513305   4.257   3.717   9.465 -0.0542  0.0921 -0.7867
  908MPD2    N113306   4.012   3.525   9.088 -0.7247  0.0804  0.3173
  908MPD2    H713307   4.106   3.524   9.051 -1.2040  2.2020 -0.9299
  909MPD2     C13308   0.216   1.206  11.566  0.4332 -0.5647  0.3187
  909MPD2    C113309   0.264   1.327  11.526  0.2650  0.1116  0.1949
  909MPD2    C213310   0.228   1.441  11.598 -0.4772 -0.9201 -0.0749
  909MPD2    C313311   0.161   1.436  11.721 -0.0721 -0.3854  0.6932
  909MPD2    C413312   0.119   1.312  11.770  0.3012  0.3409 -0.3382
  909MPD2    C513313   0.141   1.198  11.686 -1.1459 -0.0619 -0.6414
  909MPD2     H13314   0.254   1.539  11.560 -0.1257 -0.6113  0.9714
  909MPD2    H113315   0.050   1.304  11.853  1.0895  1.4472  0.4204
  909MPD2    H213316   0.233   1.113  11.512 -0.6438 -0.8986  0.5541
  909MPD2    H313317   0.119   1.097  11.717  0.7489 -1.3000 -3.2646
  909MPD2     N13318   0.151   1.560  11.794  0.0441 -0.1422  0.6585
  909MPD2    H513319   0.202   1.638  11.754 -2.0902  1.0134  0.1997
  909MPD2    N113320   0.350   1.350  11.422  0.1933  0.2591 -0.2407
  909MPD2    H713321   0.394   1.442  11.426  1.0819 -0.1346 -0.9088
  910MPD2     C13322   0.999   3.145  15.362  0.0061  0.0015 -0.5670
  910MPD2    C113323   1.098   3.042  15.355 -0.1646  0.3122 -0.2689
  910MPD2    C213324   1.115   2.980  15.227  0.0473  0.3423  0.0820
  910MPD2    C313325   1.037   3.018  15.115 -0.7668  0.1785 -0.5332
  910MPD2    C413326   0.935   3.116  15.130 -0.6788  0.4404 -0.2026
  910MPD2    C513327   0.925   3.179  15.249 -0.4507  0.8286  0.3345
  910MPD2     H13328   1.178   2.892  15.218 -0.1336  0.1822  0.3689
  910MPD2    H113329   0.859   3.138  15.056 -0.4720  0.0205 -0.5404
  910MPD2    H213330   0.970   3.187  15.458  1.6330 -0.0211 -0.0639
  910MPD2    H313331   0.846   3.252  15.260 -0.2384  1.2562 -1.0594
  910MPD2     N13332   1.053   2.955  14.987 -0.4687 -0.0282 -0.4100
  910MPD2    H513333   0.976   2.966  14.922  1.1182  0.5603 -2.1840
  910MPD2    N113334   1.154   2.981  15.469  0.3575 -0.1341 -0.2405
  910MPD2    H713335   1.216   2.901  15.463  1.4707  0.6187  1.2616
  911MPD2     C13336   3.567   3.743  16.229 -0.2973 -0.6181 -0.4358
  911MPD2    C113337   3.638   3.862  16.243  0.8083  0.7684  0.3021
  911MPD2    C213338   3.594   3.985  16.190 -0.0401 -0.1105 -1.1143
  911MPD2    C313339   3.477   3.985  16.123 -0.4517 -0.1242  0.5186
  911MPD2    C413340   3.399   3.873  16.114  0.2037 -0.0904  0.3832
  911MPD2    C513341   3.450   3.752  16.161 -0.6299 -0.3686  0.0902
  911MPD2     H13342   3.655   4.073  16.205 -0.4714  0.0027 -0.0766
  911MPD2    H113343   3.312   3.879  16.050  2.0045  0.3841 -2.0017
  911MPD2    H213344   3.601   3.648  16.270  0.0486 -1.2342 -2.1622
  911MPD2    H313345   3.386   3.667  16.137 -0.0684 -1.2009  1.5528
  911MPD2     N13346   3.426   4.091  16.060 -0.4492 -0.2469 -0.0098
  911MPD2    H513347   3.337   4.076  16.013 -1.6359  1.3882  1.6674
  911MPD2    N113348   3.755   3.844  16.319  0.3456 -0.3688 -0.4995
  911MPD2    H713349   3.782   3.755  16.359  0.9089  0.3404  0.6827
  912MPD2     C13350   2.989   3.833  15.683 -0.1606 -0.2002 -0.4235
  912MPD2    C113351   3.040   3.896  15.794 -0.1284 -0.1365  0.6751
  912MPD2    C213352   3.073   3.817  15.908 -0.4809  0.4792  0.5784
  912MPD2    C313353   3.062   3.684  15.907  0.3290 -0.6547 -0.4300
  912MPD2    C413354   3.034   3.623  15.785  0.5160 -0.4460  0.1211
  912MPD2    C513355   3.000   3.697  15.672 -0.0111 -0.1907  0.9958
  912MPD2     H13356   3.099   3.866  16.001 -0.1289 -3.0943  2.3798
  912MPD2    H113357   3.020   3.516  15.779  3.2285 -0.9397  2.6304
  912MPD2    H213358   2.947   3.888  15.600 -1.1348  0.1297  0.2881
  912MPD2    H313359   2.967   3.652  15.579 -1.2003 -1.7297  2.1738
  912MPD2     N13360   3.069   3.621  16.031  0.1882 -0.0672  0.1320
  912MPD2    H513361   3.056   3.674  16.116  1.0447  2.1031 -1.0687
  912MPD2    N113362   3.057   4.035  15.787 -0.4150 -0.1368  0.3579
  912MPD2    H713363   3.019   4.082  15.705  0.6644  0.8567  0.4260
  913MPD2     C13364   4.406   4.372  10.323 -0.1799 -0.2409  0.0165
  913MPD2    C113365   4.485   4.482  10.331 -0.1529 -0.8158  0.9826
  913MPD2    C213366   4.459   4.586  10.248 -0.0014  0.7126  0.1720
  913MPD2    C313367   4.366   4.577  10.144  0.3199 -0.2505 -0.2507
  913MPD2    C413368   4.303   4.460  10.120  0.5813 -0.3041 -0.7120
  913MPD2    C513369   4.315   4.363  10.213 -0.2298  0.2213  0.0637
  913MPD2     H13370   4.511   4.680  10.260 -0.1735  0.7482  0.6152
  913MPD2    H113371   4.223   4.447  10.048 -0.1592 -3.3072  0.6704
  913MPD2    H213372   4.422   4.287  10.388 -1.2459 -0.0751  0.4894
  913MPD2    H313373   4.248   4.279  10.219  0.2536 -0.3861 -3.0193
  913MPD2     N13374   4.324   4.691  10.065  0.0232 -0.4242 -0.1970
  913MPD2    H513375   4.247   4.679  10.001  0.0989  1.9606 -0.7363
  913MPD2    N113376   4.569   4.492  10.444 -0.3614  0.0178  0.1470
  913MPD2    H713377   4.537   4.432  10.519  0.2846 -1.7425 -0.9778
  914MPD2     C13378   2.156   0.240  12.241  0.0513 -0.4411  0.3594
  914MPD2    C113379   2.219   0.356  12.230  1.0773 -0.0428  0.6789
  914MPD2    C213380   2.351   0.369  12.251 -0.4184  0.0730  0.2364
  914MPD2    C313381   2.434   0.264  12.261 -0.5475  0.0506 -0.3397
  914MPD2    C413382   2.372   0.145  12.267  0.1286  0.1979  0.6041
  914MPD2    C513383   2.231   0.132  12.258  0.1284 -0.0963 -0.2510
  914MPD2     H13384   2.395   0.468  12.250  0.5322 -0.3920 -3.4242
  914MPD2    H113385   2.433   0.059  12.293 -0.5271 -0.4487  0.0223
  914MPD2    H213386   2.048   0.238  12.239  0.0899  0.8248 -2.0380
  914MPD2    H313387   2.185   0.034  12.252 -0.5309  0.1242  1.3403
  914MPD2     N13388   2.574   0.288  12.249  0.1124 -0.0278  0.9237
  914MPD2    H513389   2.605   0.380  12.220  0.9397 -0.7598 -0.5113
  914MPD2    N113390   2.142   0.465  12.197 -0.3811 -0.4113  0.2261
  914MPD2    H713391   2.044   0.450  12.175 -0.2746 -1.3774  0.4122
  915MPD2     C13392   0.377   0.411  15.633 -0.1368 -0.0225 -0.0161
  915MPD2    C113393   0.241   0.392  15.624 -0.4161  0.3310 -0.0759
  915MPD2    C213394   0.166   0.443  15.726  0.4597  0.2760 -0.3920
  915MPD2    C313395   0.216   0.510  15.836 -0.3213  0.0879  0.5935
  915MPD2    C413396   0.355   0.530  15.841  0.2459 -0.0609  0.4157
  915MPD2    C513397   0.430   0.480  15.738  0.1987  0.3520  0.0389
  915MPD2     H13398   0.062   0.413  15.729  0.2889  0.9285  0.4427
  915MPD2    H113399   0.403   0.576  15.926 -1.5143  0.1697  1.2946
  915MPD2    H213400   0.448   0.358  15.571 -0.2425  0.2631 -0.3798
  915MPD2    H313401   0.535   0.504  15.749  0.1134  1.1048 -0.7717
  915MPD2     N13402   0.123   0.572  15.926  0.0337  0.3243 -0.5430
  915MPD2    H513403   0.024   0.562  15.906  0.2759 -1.4532 -0.8475
  915MPD2    N113404   0.204   0.306  15.518  0.2682  0.4014  0.6010
  915MPD2    H713405   0.274   0.267  15.455 -0.5608  1.5375 -1.0311
  916MPD2     C13406   2.685   3.447  15.515  0.5161 -0.1151  0.5848
  916MPD2    C113407   2.748   3.407  15.632 -0.7763 -0.8245 -0.5008
  916MPD2    C213408   2.843   3.305  15.625 -0.7512 -0.3376  0.0240
  916MPD2    C313409   2.876   3.253  15.504  0.3204 -0.2620 -0.7746
  916MPD2    C413410   2.796   3.283  15.392  0.1938 -0.5041 -0.0707
  916MPD2    C513411   2.703   3.384  15.393  0.4876  0.3102  0.0631
  916MPD2     H13412   2.893   3.272  15.715 -1.1171 -0.7306  0.0802
  916MPD2    H113413   2.805   3.236  15.295 -0.3125  1.9056 -1.2780
  916MPD2    H213414   2.608   3.523  15.525  2.8986  2.1052  2.0187
  916MPD2    H313415   2.636   3.407  15.311 -1.2088  1.4513  1.7620
  916MPD2     N13416   2.983   3.156  15.506  0.1609  0.1311  0.3307
  916MPD2    H513417   3.024   3.129  15.594 -2.8171 -1.5516  1.1978
  916MPD2    N113418   2.731   3.471  15.755 -0.0303  0.5676 -1.1507
  916MPD2    H713419   2.673   3.553  15.750 -0.4825  0.2984 -0.2865
  917MPD2     C13420   4.058   1.174  11.210  0.0057  0.9215 -0.1668
  917MPD2    C113421   3.972   1.277  11.174  0.1899  0.4564 -0.7236
  917MPD2    C213422   4.010   1.363  11.072 -0.1537  0.1334  0.9545
  917MPD2    C313423   4.136   1.349  11.010 -0.1721  0.5513  0.3658
  917MPD2    C413424   4.217   1.244  11.046  0.3337  0.4240 -0.1230
  917MPD2    C513425   4.175   1.160  11.143 -0.0504  0.2785  0.0351
  917MPD2     H13426   3.940   1.441  11.045 -0.6121 -0.3485  0.7634
  917MPD2    H113427   4.310   1.218  10.997  0.4076  0.2466  0.1053
  917MPD2    H213428   4.043   1.102  11.290  1.6571  1.6552  0.7944
  917MPD2    H313429   4.248   1.082  11.161 -2.1369 -2.1190 -1.9418
  917MPD2     N13430   4.181   1.424  10.900 -0.2017  0.4882  0.2093
  917MPD2    H513431   4.267   1.379  10.868 -0.0894  1.5996 -1.0584
  917MPD2    N113432   3.848   1.274  11.243  0.2284  0.5210  0.3237
  917MPD2    H713433   3.850   1.231  11.335  0.9334  2.5297  1.2312
  918MPD2     C13434   3.936   1.423  12.040  0.3741  0.9377 -0.6184
  918MPD2    C113435   3.966   1.309  11.979 -0.1524  0.1368  0.5576
  918MPD2    C213436   3.904   1.290  11.851  0.1192 -0.6559  0.2246
  918MPD2    C313437   3.811   1.381  11.805 -0.3562 -0.6959 -0.1060
  918MPD2    C413438   3.785   1.499  11.871  0.4208 -0.5760  0.1643
  918MPD2    C513439   3.853   1.518  11.988 -0.1484 -0.3919 -0.0208
  918MPD2     H13440   3.922   1.192  11.807 -1.6886 -0.4576 -0.9314
  918MPD2    H113441   3.729   1.585  11.838 -0.6003 -2.1209 -2.1262
  918MPD2    H213442   3.984   1.452  12.133 -1.2368 -0.5800  0.6844
  918MPD2    H313443   3.841   1.611  12.042 -1.4397 -0.7978  0.3855
  918MPD2     N13444   3.737   1.353  11.688  0.0281  0.1400  0.4809
  918MPD2    H513445   3.770   1.285  11.620  1.3018 -1.0183  2.2927
  918MPD2    N113446   4.050   1.213  12.034  0.3592 -0.4558  0.5714
  918MPD2    H713447   4.071   1.133  11.975 -0.4625  1.3857 -2.1793
  919MPD2     C13448   4.450   0.252  11.229  0.1938 -0.1555 -0.1137
  919MPD2    C113449   4.426   0.123  11.190 -0.0525 -0.8200 -0.0091
  919MPD2    C213450   4.435   0.096  11.051  0.3716 -0.0558  0.1977
  919MPD2    C313451   4.446   0.197  10.958 -0.2564 -0.5011  0.6259
  919MPD2    C413452   4.466   0.324  11.008  0.1881 -0.7657 -0.7031
  919MPD2    C513453   4.492   0.344  11.141  0.6481  0.0241 -0.2983
  919MPD2     H13454   4.420   4.718  11.029  1.4525 -0.3895  1.0641
  919MPD2    H113455   4.476   0.403  10.934 -1.9178  0.5812  0.4503
  919MPD2    H213456   4.457   0.282  11.333 -0.6848 -1.9243  0.4684
  919MPD2    H313457   4.494   0.445  11.181  1.5900 -0.1242  0.0145
  919MPD2     N13458   4.428   0.189  10.814  0.1205  0.0342 -0.4840
  919MPD2    H513459   4.448   0.272  10.759 -0.8787 -0.2541 -1.2886
  919MPD2    N113460   4.379   0.019  11.282  0.3335 -0.2160 -0.3333
  919MPD2    H713461   4.365   4.658  11.232  0.8640 -0.5712  0.1450
  920MPD2     C13462   4.123   0.731  10.045 -0.0471 -0.2389  0.4529
  920MPD2    C113463   4.012   0.680  10.105  0.1418 -0.2136 -0.3435
  920MPD2    C213464   4.040   0.573  10.194 -0.1246 -0.8044  0.0029
  920MPD2    C313465   4.169   0.537  10.233 -0.2060  0.5198 -1.0214
  920MPD2    C413466   4.282   0.600  10.182  0.4943 -0.1799 -0.6664
  920MPD2    C513467   4.253   0.695  10.085  0.4322  0.0250  0.1940
  920MPD2     H13468   3.957   0.512  10.229  0.8084 -0.7437  2.3245
  920MPD2    H113469   4.386   0.576  10.204 -0.5964 -1.4387  3.1985
  920MPD2    H213470   4.122   0.817   9.979  0.8804 -0.5163  0.0814
  920MPD2    H313471   4.337   0.744  10.038  0.3455 -1.7913 -1.8795
  920MPD2     N13472   4.176   0.433  10.335  0.2751  0.4220  0.2587
  920MPD2    H513473   4.089   0.393  10.369  0.7582 -1.6821 -0.9665
  920MPD2    N113474   3.877   0.721  10.075 -0.4345  0.1778  0.1446
  920MPD2    H713475   3.800   0.670  10.119 -1.8884  3.6831  1.6507
  921MPD2     C13476   0.019   3.987  16.776 -0.8664  1.0184 -0.3866
  921MPD2    C113477   4.712   3.998  16.641 -0.1365  0.0997 -0.0165
  921MPD2    C213478   4.576   3.980  16.599 -0.4945  0.5658 -0.3667
  921MPD2    C313479   4.482   3.947  16.693  0.4250  0.2001  0.5383
  921MPD2    C413480   4.525   3.916  16.821  0.0163  0.3034  0.1861
  921MPD2    C513481   4.656   3.929  16.862  0.5894  0.4132  0.0229
  921MPD2     H13482   4.552   3.997  16.495 -1.5977 -1.5767 -0.4685
  921MPD2    H113483   4.454   3.880  16.894 -1.0204 -1.2277 -1.5825
  921MPD2    H213484   0.121   4.003  16.808 -0.4014 -0.2605 -1.2371
  921MPD2    H313485   4.683   3.912  16.965 -0.4057 -2.2168 -0.1435
  921MPD2     N13486   4.349   3.921  16.665  0.1333 -0.2121 -0.3581
  921MPD2    H513487   4.289   3.878  16.735 -0.3320 -0.0306 -0.6504
  921MPD2    N113488   0.092   4.035  16.553 -0.1373 -0.3212  0.8416
  921MPD2    H713489   0.184   4.023  16.594  0.0311 -2.8413 -0.2742
  922MPD2     C13490   0.104   1.555   0.220  0.1147 -0.6276 -0.1611
  922MPD2    C113491   0.134   1.678   0.171 -0.3577 -0.1157 -0.5463
  922MPD2    C213492   0.105   1.704   0.040  0.1857  0.1483 -0.0967
  922MPD2    C313493   0.035   1.620  17.662  0.2456  0.0200  0.3312
  922MPD2    C413494   0.006   1.495   0.003 -0.0350  0.9172  0.1959
  922MPD2    C513495   0.046   1.464   0.132 -0.4850 -0.6181 -0.1363
  922MPD2     H13496   0.130   1.803   0.002 -0.2079  0.5509  0.6812
  922MPD2    H113497   4.701   1.413  17.647  1.1566  1.4544 -1.0757
  922MPD2    H213498   0.121   1.522   0.321 -0.0095  0.1326  0.1131
  922MPD2    H313499   0.026   1.368   0.177 -1.5245 -0.7677 -0.9014
  922MPD2     N13500   0.008   1.660  17.530 -0.2106  0.5358 -0.2124
  922MPD2    H513501   0.038   1.756  17.515  1.0289  0.4607  1.6701
  922MPD2    N113502   0.216   1.779   0.231 -0.1310  0.0477 -0.0424
  922MPD2    H713503   0.229   1.865   0.180  0.8946  1.4416  2.5906
  923MPD2     C13504   2.991   3.689   8.547  0.0781  0.1706  0.4459
  923MPD2    C113505   2.958   3.747   8.669 -0.3592  0.2256  0.4253
  923MPD2    C213506   3.013   3.701   8.795 -0.3186  0.0751  0.2310
  923MPD2    C313507   3.104   3.596   8.789  0.4007 -0.2468 -0.0214
  923MPD2    C413508   3.129   3.534   8.674 -0.2351 -0.4113  0.0634
  923MPD2    C513509   3.073   3.578   8.551 -0.5236 -1.1044 -0.2301
  923MPD2     H13510   2.965   3.721   8.890 -0.0275  0.1416  0.3624
  923MPD2    H113511   3.196   3.451   8.657 -0.3137 -0.9703  2.4023
  923MPD2    H213512   2.943   3.719   8.455  0.9374 -0.9616 -0.3542
  923MPD2    H313513   3.109   3.530   8.461 -0.3077 -0.4183 -0.5098
  923MPD2     N13514   3.154   3.541   8.903  0.4157  0.1026  0.2741
  923MPD2    H513515   3.204   3.454   8.889 -0.3136 -0.3799  0.6879
  923MPD2    N113516   2.865   3.852   8.665 -0.0127 -0.5590 -0.9757
  923MPD2    H713517   2.834   3.889   8.576  1.4067 -0.7286 -1.5258
  924MPD2     C13518   1.960   1.829  16.011  0.1964  0.5379 -1.1845
  924MPD2    C113519   1.965   1.865  16.141  0.2256 -0.0093 -0.1643
  924MPD2    C213520   1.972   1.998  16.170 -0.1911 -0.0146  0.5463
  924MPD2    C313521   1.989   2.092  16.071  0.4496 -0.8207  0.5476
  924MPD2    C413522   1.983   2.056  15.940  0.2336 -0.3051 -0.3045
  924MPD2    C513523   1.965   1.924  15.904 -0.1379 -0.5682 -0.0766
  924MPD2     H13524   1.969   2.024  16.275  2.6141 -3.4670  1.4787
  924MPD2    H113525   1.988   2.127  15.859 -2.2449  1.7242  1.3118
  924MPD2    H213526   1.952   1.723  15.988 -0.3790  0.3660 -0.1703
  924MPD2    H313527   1.964   1.891  15.801 -0.6940  2.7059 -1.1193
  924MPD2     N13528   1.989   2.230  16.107  0.0656  0.1391  0.1210
  924MPD2    H513529   2.000   2.294  16.029  1.8104 -3.1378 -2.3325
  924MPD2    N113530   1.941   1.768  16.244  0.1962  0.6346  0.3979
  924MPD2    H713531   1.987   1.680  16.224 -1.2484 -0.5575  2.3925
  925MPD2     C13532   0.519   4.602  14.254  0.1976 -0.4350  0.2867
  925MPD2    C113533   0.634   4.532  14.285  0.9873  0.0585  0.4130
  925MPD2    C213534   0.660   4.499  14.419  0.5354  0.0372  0.6048
  925MPD2    C313535   0.566   4.541  14.518 -0.2309  0.3286  0.5501
  925MPD2    C413536   0.457   4.618  14.480  0.0602 -0.0885  0.4600
  925MPD2    C513537   0.440   4.650  14.348 -0.0945 -0.2213  0.2094
  925MPD2     H13538   0.737   4.428  14.446  0.1341 -0.4416  0.4814
  925MPD2    H113539   0.384   4.652  14.552 -0.3314 -1.2419  0.6049
  925MPD2    H213540   0.494   4.633  14.153  0.8261 -0.4778  0.1169
  925MPD2    H313541   0.361   4.721  14.324 -0.3140 -0.5233  0.0342
  925MPD2     N13542   0.584   4.494  14.651 -0.2335 -0.9029 -1.2481
  925MPD2    H513543   0.664   4.434  14.668  2.3132  2.9558  0.3574
  925MPD2    N113544   0.714   4.488  14.177 -0.1775 -0.1066 -0.8440
  925MPD2    H713545   0.681   4.522  14.087  1.9925  0.1928 -1.5319
  926MPD2     C13546   4.584   2.637  13.619 -0.4390 -0.8778 -0.1613
  926MPD2    C113547   4.496   2.633  13.516  0.4854  0.8496 -0.0826
  926MPD2    C213548   4.545   2.648  13.394  0.1003  0.2155 -0.2659
  926MPD2    C313549   4.675   2.689  13.361 -0.0278  0.1086 -0.2406
  926MPD2    C413550   0.034   2.695  13.467 -0.4269 -0.1464  0.2797
  926MPD2    C513551   4.718   2.665  13.593  0.8450  0.1370 -0.6033
  926MPD2     H13552   4.475   2.645  13.311 -1.0189 -1.5103  0.7238
  926MPD2    H113553   0.135   2.735  13.456 -0.9081  0.5521 -1.4943
  926MPD2    H213554   4.555   2.620  13.722 -1.3600 -0.9958 -0.4419
  926MPD2    H313555   0.062   2.683  13.674 -0.2989  0.9818  0.2104
  926MPD2     N13556   4.722   2.734  13.233  0.4430  0.8659 -0.0751
  926MPD2    H513557   0.079   2.790  13.222  1.1179 -0.2056 -0.3677
  926MPD2    N113558   4.358   2.636  13.538  0.7717  0.3612  0.2448
  926MPD2    H713559   4.304   2.637  13.452  0.9905 -1.4303  0.0867
  927MPD2     C13560   4.396   1.134   0.862 -0.3716  0.3514 -0.2898
  927MPD2    C113561   4.513   1.056   0.887  0.3310  1.0029 -0.4921
  927MPD2    C213562   4.546   0.953   0.797 -0.3029 -0.6183 -0.0298
  927MPD2    C313563   4.489   0.951   0.672  0.1267  0.1536 -0.0759
  927MPD2    C413564   4.382   1.039   0.644  0.3485 -0.1535 -0.6697
  927MPD2    C513565   4.337   1.124   0.740  0.0860 -0.2507  0.1412
  927MPD2     H13566   4.633   0.894   0.823  0.2146  0.8493  1.5684
  927MPD2    H113567   4.321   1.037   0.554 -1.8022  3.3597  0.6932
  927MPD2    H213568   4.361   1.217   0.923  2.2401  0.9952  0.3281
  927MPD2    H313569   4.249   1.184   0.721 -0.0987 -0.2959  0.8265
  927MPD2     N13570   4.549   0.872   0.569  0.3546  0.2196  0.5355
  927MPD2    H513571   4.616   0.800   0.594  0.1688 -0.5747 -1.2765
  927MPD2    N113572   4.598   1.076   0.994  0.2786  0.0754 -0.1526
  927MPD2    H713573   4.671   1.007   1.001  2.2222  2.2604  1.1173
  928MPD2     C13574   2.062   3.718   0.832  0.3312 -0.4482 -0.2495
  928MPD2    C113575   2.182   3.764   0.877  0.7508  0.1251  0.5116
  928MPD2    C213576   2.268   3.794   0.780  0.0305 -0.5535  0.0649
  928MPD2    C313577   2.250   3.794   0.645 -0.7234  0.2393 -0.8299
  928MPD2    C413578   2.126   3.736   0.611  0.5904  0.2824 -0.2288
  928MPD2    C513579   2.034   3.702   0.703 -0.1635 -0.2471 -0.6164
  928MPD2     H13580   2.369   3.811   0.816 -1.0180  2.6843  1.4252
  928MPD2    H113581   2.105   3.716   0.506 -0.7794  0.0377  0.1014
  928MPD2    H213582   1.982   3.702   0.904  1.2415  0.7959  1.0398
  928MPD2    H313583   1.936   3.663   0.677 -0.9272  1.6449 -0.6240
  928MPD2     N13584   2.342   3.821   0.549  0.8753 -0.0996  0.0441
  928MPD2    H513585   2.319   3.800   0.452 -3.8512  1.1504  0.9006
  928MPD2    N113586   2.209   3.763   1.016  0.3142 -0.0448 -0.1049
  928MPD2    H713587   2.144   3.719   1.081  0.9853  0.4692  0.9061
  929MPD2     C13588   2.930   3.457  10.422 -0.5340  0.4920 -0.2746
  929MPD2    C113589   2.861   3.339  10.437 -0.0740  0.2923 -0.3130
  929MPD2    C213590   2.782   3.287  10.335 -0.3233 -0.0468  0.5239
  929MPD2    C313591   2.773   3.353  10.210 -0.1855 -0.3668  0.3604
  929MPD2    C413592   2.850   3.464  10.195 -0.7075  0.2227 -0.1836
  929MPD2    C513593   2.935   3.508  10.299 -0.2992  0.4782 -0.4068
  929MPD2     H13594   2.711   3.208  10.356  1.9943 -2.6338 -1.3450
  929MPD2    H113595   2.846   3.519  10.102 -2.5332 -0.1345 -0.3129
  929MPD2    H213596   2.980   3.503  10.506  1.8966 -1.8938 -0.4246
  929MPD2    H313597   2.992   3.596  10.274 -1.2932  1.1000 -0.4935
  929MPD2     N13598   2.680   3.318  10.112 -0.8532 -0.7562  0.0232
  929MPD2    H513599   2.672   3.366  10.022  1.9406  0.2024  0.2948
  929MPD2    N113600   2.874   3.287  10.569  0.9107  0.3599 -0.0135
  929MPD2    H713601   2.936   3.340  10.629 -1.5077  2.2750  0.7837
  930MPD2     C13602   3.822   1.233  13.994  0.2425  0.1343 -0.0683
  930MPD2    C113603   3.880   1.133  13.922  0.3412 -0.7693 -0.5502
  930MPD2    C213604   3.827   1.104  13.794  0.0112  0.1589 -0.4764
  930MPD2    C313605   3.724   1.187  13.740  0.3505  0.4647 -0.2018
  930MPD2    C413606   3.673   1.281  13.819  1.0894 -0.0524 -0.1644
  930MPD2    C513607   3.725   1.312  13.941 -1.2148 -0.1053  0.2885
  930MPD2     H13608   3.873   1.031  13.728  0.8292  1.7811 -1.6951
  930MPD2    H113609   3.597   1.352  13.788 -0.1783 -1.7786 -0.9932
  930MPD2    H213610   3.845   1.244  14.099 -1.1932  1.8729  0.0619
  930MPD2    H313611   3.677   1.396  13.990  1.6514  1.1468  0.9437
  930MPD2     N13612   3.659   1.168  13.614  0.0789  0.5616 -0.5815
  930MPD2    H513613   3.600   1.237  13.570  0.0598  1.8952  1.5094
  930MPD2    N113614   3.992   1.062  13.976  0.0497  0.1774 -0.1012
  930MPD2    H713615   4.014   1.067  14.075  1.7280  1.1869 -0.5275
  931MPD2     C13616   0.201   0.648   1.364 -0.0916  0.3953 -0.5487
  931MPD2    C113617   0.089   0.723   1.362  0.4945 -0.5003 -0.5702
  931MPD2    C213618   4.691   0.649   1.364 -0.6860 -0.3477 -0.0948
  931MPD2    C313619   4.686   0.511   1.405  0.4720 -0.4137 -0.1192
  931MPD2    C413620   0.076   0.444   1.422  0.0515  0.3273 -0.2323
  931MPD2    C513621   0.192   0.515   1.399 -0.3546 -0.7967 -0.5025
  931MPD2     H13622   4.599   0.705   1.353 -0.6049 -0.1062  0.4540
  931MPD2    H113623   0.088   0.338   1.440 -0.6676  0.1850 -0.6110
  931MPD2    H213624   0.298   0.697   1.357  0.7917 -1.2496  0.3017
  931MPD2    H313625   0.289   0.469   1.412 -1.4185 -3.6846 -2.5744
  931MPD2     N13626   4.570   0.428   1.403  0.2295 -0.0712  0.4609
  931MPD2    H513627   4.574   0.327   1.412 -0.2449  0.1236  2.9981
  931MPD2    N113628   0.084   0.858   1.348 -0.3972 -0.6293 -0.8001
  931MPD2    H713629   4.715   0.892   1.349 -0.0888  0.0782  2.4634
  932MPD2     C13630   1.248   4.003  10.971  0.2607 -0.5620 -0.1076
  932MPD2    C113631   1.382   4.003  11.015  0.5334 -0.5279  0.1247
  932MPD2    C213632   1.455   3.883  11.021 -0.0108 -0.0510  0.1860
  932MPD2    C313633   1.397   3.762  10.994  1.0232  0.4211  0.3133
  932MPD2    C413634   1.264   3.762  10.951 -0.3612 -0.0071  0.5892
  932MPD2    C513635   1.193   3.882  10.933  0.3390 -0.2184  0.6559
  932MPD2     H13636   1.556   3.892  11.061  0.1938  0.5255 -0.4467
  932MPD2    H113637   1.215   3.670  10.922 -0.2878 -0.1129  0.8025
  932MPD2    H213638   1.193   4.096  10.974  0.0856 -0.6702 -0.0025
  932MPD2    H313639   1.094   3.889  10.888  0.8952 -0.1758 -0.5361
  932MPD2     N13640   1.453   3.636  11.032 -0.6193  0.1746  0.4630
  932MPD2    H513641   1.398   3.551  11.046  2.2615 -1.6544  0.7322
  932MPD2    N113642   1.453   4.123  11.053 -0.0673  0.7773 -0.0091
  932MPD2    H713643   1.553   4.115  11.068  0.2446  0.4668 -2.3243
  933MPD2     C13644   1.782   3.755   1.558 -0.0399 -0.4622  0.9232
  933MPD2    C113645   1.860   3.859   1.514  0.0902  0.0060  0.2584
  933MPD2    C213646   1.805   3.985   1.496 -0.5838 -0.1864  0.7186
  933MPD2    C313647   1.664   4.003   1.500 -0.1912 -0.3092 -0.3239
  933MPD2    C413648   1.586   3.893   1.525  0.0653  0.2155 -0.2464
  933MPD2    C513649   1.643   3.772   1.564  0.2162 -0.4914 -1.0644
  933MPD2     H13650   1.864   4.069   1.463 -3.2079  1.1481 -0.5747
  933MPD2    H113651   1.480   3.912   1.534  0.1338  0.0668  0.8819
  933MPD2    H213652   1.816   3.654   1.575 -0.0745 -0.6067  0.1193
  933MPD2    H313653   1.586   3.685   1.596 -0.2760  0.1731 -0.1213
  933MPD2     N13654   1.607   4.128   1.467 -0.6911  0.7266 -0.1101
  933MPD2    H513655   1.671   4.205   1.452 -1.2977  0.9927 -1.2826
  933MPD2    N113656   1.997   3.848   1.487  0.1008  0.3194  0.1244
  933MPD2    H713657   2.050   3.931   1.461  0.6183 -0.3914 -1.1312
  934MPD2     C13658   2.957   1.247   2.192 -0.2002 -0.7022 -0.4988
  934MPD2    C113659   3.048   1.210   2.094 -0.2816  0.8842  0.1858
  934MPD2    C213660   3.011   1.119   1.989  0.1082 -0.9036  0.0551
  934MPD2    C313661   2.877   1.072   1.987 -0.4088  0.0150  0.2141
  934MPD2    C413662   2.789   1.107   2.089 -0.0752 -0.1297  0.3658
  934MPD2    C513663   2.825   1.195   2.182  0.1627  0.1634  0.0718
  934MPD2     H13664   3.088   1.083   1.923  0.5335  0.7634 -0.3550
  934MPD2    H113665   2.691   1.064   2.077  0.4384 -1.4913  0.9935
  934MPD2    H213666   2.969   1.327   2.265 -2.9411  0.3542 -1.1856
  934MPD2    H313667   2.754   1.234   2.254 -0.2423  0.4750 -0.4962
  934MPD2     N13668   2.836   0.975   1.891  0.9540 -0.2957  0.1751
  934MPD2    H513669   2.738   0.946   1.890  1.2821 -1.3518 -1.8008
  934MPD2    N113670   3.180   1.253   2.083  0.2328 -0.0953 -0.0729
  934MPD2    H713671   3.228   1.231   1.996 -1.4385  0.7613 -1.2233
  935MPD2     C13672   3.279   0.526   1.091 -0.1511 -0.0493 -0.3547
  935MPD2    C113673   3.145   0.542   1.051  0.2830 -0.2685  0.0762
  935MPD2    C213674   3.061   0.597   1.146 -0.1890  0.8897 -0.3194
  935MPD2    C313675   3.099   0.636   1.271  0.5312  0.2145 -0.1033
  935MPD2    C413676   3.233   0.618   1.307  0.6169  0.3061  0.4206
  935MPD2    C513677   3.316   0.548   1.222  0.1416 -0.0614  0.1949
  935MPD2     H13678   2.960   0.614   1.111 -1.3245 -2.0410  1.4861
  935MPD2    H113679   3.266   0.647   1.406  1.0063 -0.8875  0.6431
  935MPD2    H213680   3.362   0.499   1.026 -0.6984 -2.4321 -0.0532
  935MPD2    H313681   3.414   0.527   1.264 -0.9589 -3.0339  1.2444
  935MPD2     N13682   3.018   0.694   1.363  0.1121 -0.2539 -0.0071
  935MPD2    H513683   3.064   0.733   1.444 -1.2636 -1.2361  1.2305
  935MPD2    N113684   3.092   0.521   0.921  0.0428  0.0448  0.3040
  935MPD2    H713685   3.002   0.563   0.904  1.8668  3.2836 -1.2103
  936MPD2     C13686   1.693   3.139  12.290  0.7192  0.5671 -0.4392
  936MPD2    C113687   1.781   3.051  12.353 -0.3810 -0.0927  0.8845
  936MPD2    C213688   1.890   3.109  12.402 -0.2648  0.6166 -0.2775
  936MPD2    C313689   1.916   3.248  12.400  0.0228  0.2841  0.4259
  936MPD2    C413690   1.828   3.336  12.337  0.1174  0.4948  0.0636
  936MPD2    C513691   1.718   3.275  12.278 -0.0645  0.1599 -0.6265
  936MPD2     H13692   1.956   3.051  12.466 -1.3883 -0.3472  0.0142
  936MPD2    H113693   1.838   3.444  12.331 -1.3269  0.7042  1.3183
  936MPD2    H213694   1.602   3.102  12.244  2.4813 -1.1012 -2.5780
  936MPD2    H313695   1.635   3.335  12.244 -0.1846 -0.2638 -1.0923
  936MPD2     N13696   2.029   3.294  12.475 -0.0612  0.0188 -0.6505
  936MPD2    H513697   2.075   3.225  12.533 -0.0973  0.3112 -0.2717
  936MPD2    N113698   1.768   2.913  12.370  0.3819  0.1143 -0.5156
  936MPD2    H713699   1.842   2.856  12.410  1.2775  1.8558  0.3457
  937MPD2     C13700   4.280   4.066  11.228  0.3725 -0.1111  0.6730
  937MPD2    C113701   4.322   4.193  11.202  0.0006  0.0512  0.5070
  937MPD2    C213702   4.428   4.203  11.109 -0.0457 -0.5831 -0.0856
  937MPD2    C313703   4.463   4.093  11.031  0.2662 -0.2119  0.1890
  937MPD2    C413704   4.397   3.978  11.043 -0.2388 -0.5396 -0.1004
  937MPD2    C513705   4.313   3.958  11.151 -0.3493  0.1515 -1.1006
  937MPD2     H13706   4.470   4.302  11.092 -3.5264  0.8440 -0.3663
  937MPD2    H113707   4.414   3.889  10.983  3.1205  0.2043 -0.2867
  937MPD2    H213708   4.224   4.046  11.319  3.7361 -2.1569  2.2665
  937MPD2    H313709   4.269   3.861  11.167  2.7985 -0.9851  0.7359
  937MPD2     N13710   4.555   4.120  10.927  0.4557 -0.1552 -0.0443
  937MPD2    H513711   4.596   4.213  10.925 -1.2792  0.6467  1.9656
  937MPD2    N113712   4.313   4.298  11.292 -0.3597 -0.5809  0.5179
  937MPD2    H713713   4.351   4.385  11.257 -0.3174 -0.3882  1.0333
  938MPD2     C13714   1.708   0.771   0.771  0.3091  0.5412  0.0929
  938MPD2    C113715   1.805   0.762   0.869  0.9763  0.3127 -0.2267
  938MPD2    C213716   1.789   0.670   0.968  0.3271 -0.7310 -0.1561
  938MPD2    C313717   1.688   0.577   0.971 -0.3626  0.6747 -0.2226
  938MPD2    C413718   1.582   0.595   0.881 -0.4673 -0.6064  0.2495
  938MPD2    C513719   1.595   0.688   0.781  0.0852  0.7454  1.1171
  938MPD2     H13720   1.860   0.666   1.050  1.1879  3.3478 -0.7173
  938MPD2    H113721   1.489   0.539   0.880  0.8791 -2.8123 -0.5915
  938MPD2    H213722   1.716   0.846   0.693 -1.4234 -1.6599 -2.2234
  938MPD2    H313723   1.512   0.706   0.713  1.6088  0.8078 -0.7211
  938MPD2     N13724   1.681   0.473   1.073 -0.4045  0.6639  0.0866
  938MPD2    H513725   1.594   0.424   1.094  0.7260 -1.0185  0.9122
  938MPD2    N113726   1.912   0.853   0.860 -0.3885  0.9321 -0.5891
  938MPD2    H713727   1.920   0.923   0.787 -0.8321  0.1996 -1.3520
  939MPD2     C13728   2.837   1.535   0.708 -0.4404  0.0855  0.2750
  939MPD2    C113729   2.882   1.659   0.752  0.5691 -0.4797 -0.8952
  939MPD2    C213730   2.930   1.752   0.656  0.6329 -0.0934  0.2611
  939MPD2    C313731   2.946   1.716   0.527 -1.1954 -1.0516 -0.5989
  939MPD2    C413732   2.901   1.591   0.484 -0.3392 -1.2000 -0.0833
  939MPD2    C513733   2.844   1.506   0.572 -0.4096 -0.0591  0.3474
  939MPD2     H13734   2.975   1.845   0.687  0.2553  0.1488  0.0765
  939MPD2    H113735   2.903   1.573   0.377  0.5495 -0.0356 -0.2614
  939MPD2    H213736   2.816   1.451   0.772  1.4840 -1.0299 -0.5656
  939MPD2    H313737   2.806   1.411   0.537 -0.0544 -0.5022  1.1597
  939MPD2     N13738   3.020   1.802   0.447  0.2182 -0.0614 -0.1768
  939MPD2    H513739   3.049   1.890   0.490  1.6513  0.4920 -2.2741
  939MPD2    N113740   2.884   1.676   0.891 -0.0666 -0.1572  0.1181
  939MPD2    H713741   2.857   1.596   0.948 -0.7331  0.4197  0.6158
  940MPD2     C13742   2.407   2.547  12.898 -0.1632  0.3616  0.4603
  940MPD2    C113743   2.474   2.668  12.909 -0.3737 -0.5200 -0.3316
  940MPD2    C213744   2.508   2.738  12.794  0.0061  0.0157  0.3660
  940MPD2    C313745   2.463   2.704  12.669 -0.3444  0.7755  0.7054
  940MPD2    C413746   2.398   2.583  12.658  0.4173  0.0278 -0.2665
  940MPD2    C513747   2.373   2.508  12.770 -0.0161 -0.1352 -0.3479
  940MPD2     H13748   2.559   2.833  12.809 -2.4013  1.4650 -0.7144
  940MPD2    H113749   2.359   2.554  12.561  1.9165 -0.6134 -0.6783
  940MPD2    H213750   2.368   2.487  12.980 -1.5602 -2.0228 -1.9463
  940MPD2    H313751   2.326   2.413  12.751  0.6367 -0.6189  0.4808
  940MPD2     N13752   2.493   2.777  12.553  0.0540  0.0985  0.0638
  940MPD2    H513753   2.445   2.746  12.469 -1.9041  1.0992  0.8081
  940MPD2    N113754   2.496   2.723  13.034  0.6873  0.0685  0.2612
  940MPD2    H713755   2.544   2.812  13.035 -0.7845  0.8502  1.1163
  941MPD2     C13756   1.878   1.796   9.206 -0.5725  0.8595  0.5807
  941MPD2    C113757   1.936   1.774   9.332  0.5266 -0.5409  0.6920
  941MPD2    C213758   1.861   1.703   9.431 -0.0730  0.3420  0.0099
  941MPD2    C313759   1.742   1.643   9.396  0.3890  0.0399  0.5140
  941MPD2    C413760   1.684   1.665   9.275  0.3228  0.7211 -0.2243
  941MPD2    C513761   1.752   1.744   9.183  1.1164 -0.8826  0.0013
  941MPD2     H13762   1.893   1.707   9.534 -1.2754  1.1607  0.3544
  941MPD2    H113763   1.584   1.624   9.267  0.6665  0.0147 -0.8652
  941MPD2    H213764   1.938   1.832   9.123 -2.0361 -0.0167 -0.8630
  941MPD2    H313765   1.710   1.747   9.083  1.9244 -1.1127 -0.3469
  941MPD2     N13766   1.650   1.583   9.492  0.2144 -0.0039 -0.0728
  941MPD2    H513767   1.557   1.562   9.458 -1.4487  0.4745  4.2165
  941MPD2    N113768   2.068   1.815   9.360  0.5402 -0.2415  0.1044
  941MPD2    H713769   2.105   1.777   9.447  0.6475 -0.4310 -0.0226
  942MPD2     C13770   1.744   3.353   9.307 -0.0376 -0.5539  0.2251
  942MPD2    C113771   1.698   3.462   9.235  0.0193 -0.8414  0.4018
  942MPD2    C213772   1.777   3.511   9.133  0.5854  0.3584 -0.1415
  942MPD2    C313773   1.897   3.446   9.099 -0.7543 -0.1779 -0.5801
  942MPD2    C413774   1.948   3.339   9.168  0.4591  0.0705 -0.3830
  942MPD2    C513775   1.865   3.297   9.270  0.1936  0.0632  0.2710
  942MPD2     H13776   1.741   3.601   9.084 -0.8951  0.2338  0.7042
  942MPD2    H113777   2.045   3.292   9.155  0.3404 -0.6222  1.2095
  942MPD2    H213778   1.678   3.309   9.381  0.2509 -1.8706 -0.3103
  942MPD2    H313779   1.892   3.210   9.328  0.3830 -0.2000 -0.2099
  942MPD2     N13780   1.988   3.489   9.003  0.0834 -0.6626 -0.1080
  942MPD2    H513781   2.083   3.454   8.994  0.0765 -1.4260  2.7524
  942MPD2    N113782   1.577   3.529   9.251  0.0555 -0.0645  0.1664
  942MPD2    H713783   1.550   3.589   9.174  1.3937  0.6452  0.2515
  943MPD2     C13784   0.582   1.497   9.661 -0.0180  0.0818 -0.1469
  943MPD2    C113785   0.444   1.466   9.680 -0.0093  0.5293  0.6509
  943MPD2    C213786   0.346   1.551   9.626 -0.5112 -0.4446  0.4715
  943MPD2    C313787   0.388   1.673   9.567  0.3986  0.6274 -0.0579
  943MPD2    C413788   0.519   1.709   9.568  0.3366 -0.0964 -0.6965
  943MPD2    C513789   0.613   1.619   9.608 -0.7214  0.5564  0.2223
  943MPD2     H13790   0.243   1.523   9.644 -0.7748 -0.4314 -1.0258
  943MPD2    H113791   0.550   1.799   9.517  2.1851  0.6634  1.7935
  943MPD2    H213792   0.659   1.434   9.704  1.2702  1.0509 -1.0315
  943MPD2    H313793   0.718   1.644   9.608  0.1163 -2.9995 -1.1837
  943MPD2     N13794   0.295   1.749   9.496  0.7589  0.0076 -0.7257
  943MPD2    H513795   0.340   1.824   9.445  0.0998 -0.3866 -1.8750
  943MPD2    N113796   0.418   1.340   9.746  0.1153 -0.1959 -0.3273
  943MPD2    H713797   0.503   1.284   9.746  0.2940  0.0772 -1.2670
  944MPD2     C13798   0.661   0.343  10.929  0.6807 -0.4561 -0.5850
  944MPD2    C113799   0.543   0.331  10.849  0.0375 -0.4192  0.6108
  944MPD2    C213800   0.425   0.393  10.895 -0.0849  0.7283  0.2314
  944MPD2    C313801   0.420   0.449  11.025  0.2665  0.1785  0.7171
  944MPD2    C413802   0.538   0.461  11.101 -0.0206  0.2527 -0.3370
  944MPD2    C513803   0.656   0.408  11.050 -0.2067 -0.0019 -0.6790
  944MPD2     H13804   0.338   0.400  10.831 -0.2593 -1.1233  0.2623
  944MPD2    H113805   0.544   0.498  11.203 -0.1640 -1.6961  0.3685
  944MPD2    H213806   0.750   0.284  10.910  1.0704  0.5624 -1.8486
  944MPD2    H313807   0.744   0.404  11.113 -0.4384 -0.5783 -0.3896
  944MPD2     N13808   0.298   0.487  11.075  0.7301 -0.4721 -0.4345
  944MPD2    H513809   0.215   0.486  11.018 -0.8488  0.2396  1.8466
  944MPD2    N113810   0.556   0.276  10.719 -0.1825 -0.8519 -0.3762
  944MPD2    H713811   0.648   0.247  10.688  0.7071  0.8230  0.7217
    1TCq1    O113812   2.666   2.195  13.462 -0.7237 -0.2025 -0.3536
    1TCq1    C113813   2.593   2.296  13.514 -0.7504  0.4764 -0.5145
    1TCq1    O213814   2.639   2.410  13.529 -0.3491  0.4520  0.0273
    1TCq1    C213815   2.504   2.228  13.613 -0.0899  0.5608  0.1308
    1TCq1    C313816   2.409   2.136  13.571  0.1779  0.4063 -0.0742
    1TCq1    C413817   2.348   2.069  13.675 -0.3051 -0.5431  0.6431
    1TCq1    C513818   2.375   2.091  13.808  0.9116 -0.4760 -0.0560
    1TCq1    C613819   2.453   2.194  13.840  0.7386  0.1276  0.2955
    1TCq1    C713820   2.521   2.264  13.742  0.3168 -0.0609 -0.1273
    1TCq1    C813821   2.508   2.199  13.976  0.1260  0.9302 -0.2404
    1TCq1    O413822   2.486   2.107  14.055  0.0808 -0.6567  0.2456
    1TCq1    C913823   2.258   1.972  13.636  0.1227  0.3010 -0.1983
    1TCq1    O513824   2.189   1.922  13.732 -0.2273  0.4599 -0.2582
    1TCq1    O613825   2.241   1.948  13.514 -0.5822 -0.3421  0.6743
    1TCq1    H113826   2.621   2.109  13.452 -0.8221  0.0700 -2.2746
    1TCq1    H213827   2.394   2.112  13.467 -1.8642  3.4146 -0.4443
    1TCq1    H313828   2.312   2.036  13.877 -1.3592  1.8498 -0.2804
    1TCq1    H413829   2.583   2.351  13.763  0.1217  0.0284  0.0790
    2MPD2     C13830   2.750   2.439  14.353  0.3525 -0.0607  0.2192
    2MPD2    C113831   2.757   2.520  14.242  0.4167 -0.3383 -0.1824
    2MPD2    C213832   2.698   2.471  14.133 -0.0147  0.4025  0.0873
    2MPD2    C313833   2.639   2.348  14.126  0.7204  0.3630  0.2556
    2MPD2    C413834   2.622   2.270  14.239  0.4547  0.3645 -0.1554
    2MPD2    C513835   2.689   2.313  14.351  0.3162  0.2821  0.2891
    2MPD2     H13836   2.728   2.527  14.045  1.4029 -0.9400 -0.2935
    2MPD2    H113837   2.596   2.165  14.242  1.5928  0.1108  0.8951
    2MPD2    H213838   2.810   2.456  14.442  1.4122  1.4002 -0.7731
    2MPD2    H313839   2.713   2.248  14.434  0.2780  1.3499  1.1343
    2MPD2     N13840   2.585   2.309  14.003 -0.0401  0.1159  0.8907
    2MPD2    H513841   2.596   2.364  13.918 -0.5574  0.0756  0.8011
    2MPD2    N113842   2.830   2.639  14.233 -0.5285  0.2145  0.6664
    2MPD2    H713843   2.852   2.684  14.144  1.7306  1.4854  1.8675
    3TMC2    C113844   2.937   2.828  14.299 -0.0303 -0.3674 -0.1269
    3TMC2    C213845   2.913   2.949  14.362 -0.6048 -0.0283  0.7023
    3TMC2    C313846   2.967   3.066  14.307  0.2324  0.0377 -0.2490
    3TMC2    C413847   3.010   2.825  14.185  0.2564  0.2907  0.1769
    3TMC2    C513848   3.060   2.941  14.132  0.4689  0.3943  0.1292
    3TMC2    C613849   3.036   3.066  14.189 -0.2349 -0.2409  0.1318
    3TMC2     C13850   2.868   2.712  14.344  0.1816  0.3132 -0.2296
    3TMC2     O13851   2.844   2.695  14.461 -0.3221  0.2453 -0.1928
    3TMC2     H13852   2.876   2.947  14.464  1.1286 -0.2013  1.3371
    3TMC2    H113853   3.023   2.728  14.139 -1.4251 -0.7703  1.9355
    3TMC2    H213854   3.072   3.162  14.155  0.6586 -0.6581 -0.0997
    3TMC2    C713855   3.149   2.935  14.014  0.5438  0.0766 -0.2778
    3TMC2    C813856   2.886   3.186  14.321 -0.1730  0.1064  0.4073
    3TMC2    O113857   3.217   2.836  14.008  0.0533 -0.2853  0.4218
    3TMC2    O213858   2.945   3.291  14.342 -0.2036  0.3772  0.2916
    3TMC2    O513859   2.787   3.178  14.234  0.4338  0.1877 -0.1530
    3TMC2    H513860   2.787   3.087  14.197  0.2055 -0.3843  1.2758
    4MPD2     C13861   2.261   3.459  13.094 -0.0305 -0.5140 -0.4019
    4MPD2    C113862   2.334   3.545  13.005  0.1060  0.3569  0.1064
    4MPD2    C213863   2.472   3.561  13.022  0.1975  1.0645 -0.2445
    4MPD2    C313864   2.540   3.509  13.137  0.2008  0.0460 -0.6759
    4MPD2    C413865   2.459   3.434  13.224  0.5791 -0.4413 -0.4507
    4MPD2    C513866   2.324   3.417  13.203  0.3016 -0.2108  0.2714
    4MPD2     H13867   2.533   3.634  12.970  1.1970  0.4774  0.1055
    4MPD2    H113868   2.501   3.398  13.317 -0.6559  0.7202  0.5551
    4MPD2    H213869   2.153   3.453  13.099 -0.1095  2.1415  0.8055
    4MPD2    H313870   2.271   3.365  13.283  0.1894 -2.3038 -1.1676
    4MPD2     N13871   2.677   3.532  13.160 -0.5682  0.0950  0.2500
    4MPD2    H513872   2.731   3.589  13.095  0.4493 -0.5102  0.5700
    4MPD2    N113873   2.261   3.624  12.918 -0.0446 -0.4834  0.4088
    4MPD2    H713874   2.161   3.610  12.922 -0.1228 -0.3932 -1.2713
    5TCq2    C113875   2.740   3.505  13.280 -0.6763  0.8526 -0.2316
    5TCq2    O213876   2.701   3.454  13.384 -0.7192 -0.3029  0.5861
    5TCq2    C213877   2.886   3.522  13.276 -0.2490  0.6265 -0.2467
    5TCq2    C313878   2.945   3.483  13.158  0.1314  0.4445 -0.3066
    5TCq2    C413879   3.070   3.437  13.160 -0.9115 -0.2615  0.0188
    5TCq2    C513880   3.133   3.419  13.277  0.0036  0.3493  0.0576
    5TCq2    C613881   3.072   3.445  13.396  0.0068 -0.0445  0.2574
    5TCq2    C713882   2.951   3.514  13.397  0.2077 -0.7238 -0.9547
    5TCq2    C813883   3.094   3.363  13.514 -0.5235 -0.4297 -0.0650
    5TCq2    O413884   3.048   3.402  13.615 -0.0232 -0.0394 -0.7453
    5TCq2    C913885   3.134   3.377  13.043  0.0036 -0.2925  0.0636
    5TCq2    O513886   3.249   3.335  13.062  0.0128  0.0594  0.3776
    5TCq2    O613887   3.066   3.352  12.940 -0.0181  0.4461 -0.3187
    5TCq2    H213888   2.893   3.496  13.064 -1.4393 -2.9428  0.1038
    5TCq2    H313889   3.229   3.369  13.270  0.3112  1.0558 -0.8268
    5TCq2    H413890   2.909   3.542  13.493 -0.6534  0.1395 -1.5753
    6MPD1     C13891   2.198   0.640  13.251  0.4414 -0.3116  0.3196
    6MPD1    C113892   2.281   0.557  13.175 -1.0037  0.1505 -0.1710
    6MPD1    C213893   2.227   0.451  13.111 -0.2637 -0.3466  0.0974
    6MPD1    C313894   2.094   0.405  13.135  0.1407  0.0911  0.9874
    6MPD1    C413895   2.012   0.479  13.212  0.1311 -0.0910  0.4187
    6MPD1    C513896   2.067   0.596  13.273  0.0570  0.3843  0.2131
    6MPD1     H13897   2.301   0.394  13.056  0.4078  0.2367  0.3962
    6MPD1    H113898   1.908   0.458  13.234 -0.1319 -0.8344 -1.5459
    6MPD1    H213899   2.246   0.726  13.296  0.0297  1.2600 -2.2889
    6MPD1    H313900   2.001   0.652  13.337  0.1243 -0.1916  0.7855
    6MPD1     N13901   2.039   0.287  13.077  0.2132  0.4489 -0.1592
    6MPD1    H513902   1.942   0.268  13.100  0.2279  0.0737 -0.4183
    6MPD1    N113903   2.406   0.613  13.141 -0.8142 -0.4830  0.2129
    6MPD1    H613904   2.437   0.660  13.226 -0.3911 -1.3498  0.5295
    6MPD1    H713905   2.476   0.547  13.109  1.6321  1.4219  1.6877
    7MPD2     C13906   1.801   4.255  13.182  0.6316 -0.0061  0.4725
    7MPD2    C113907   1.867   4.271  13.066  0.4220 -0.6477  0.5998
    7MPD2    C213908   1.895   4.169  12.988 -0.0474 -0.7192 -0.7366
    7MPD2    C313909   1.855   4.038  13.017  0.0876  0.3288  0.3211
    7MPD2    C413910   1.800   4.020  13.141 -0.1921 -0.2821  0.8267
    7MPD2    C513911   1.773   4.128  13.221  0.0829  0.0976  0.1310
    7MPD2     H13912   1.958   4.196  12.905  0.2194 -2.3799 -1.0733
    7MPD2    H113913   1.761   3.925  13.176 -0.8057  0.3223  1.7650
    7MPD2    H213914   1.778   4.332  13.255 -1.5638  1.0046 -1.2870
    7MPD2    H313915   1.731   4.095  13.315  0.9005  0.0397  0.4759
    7MPD2     N13916   1.889   3.923  12.937  0.6825 -0.2508  0.6089
    7MPD2    H513917   1.883   3.833  12.982  2.8052  0.4507  2.2877
    7MPD2    N113918   1.902   4.402  13.019  0.6201  0.3563  0.1425
    7MPD2    H713919   1.961   4.408  12.937 -0.0100  1.6117 -0.2202
    8TMC3    C113920   1.959   3.805  12.743 -0.4553  0.0859  0.0494
    8TMC3    C213921   2.069   3.759  12.805  0.2309 -0.3766  0.2499
    8TMC3    C313922   2.181   3.746  12.731 -0.4083 -0.6766  0.5253
    8TMC3    C413923   1.962   3.830  12.607 -0.1645  0.4626 -0.6061
    8TMC3    C513924   2.079   3.829  12.542 -1.0945 -0.3444 -1.5379
    8TMC3    C613925   2.191   3.787  12.598  0.1981  0.1140  0.1663
    8TMC3     C13926   1.922   3.934  12.808  0.1372  0.3330 -0.0280
    8TMC3     O13927   1.911   4.038  12.741  0.1028 -0.1427 -0.3332
    8TMC3     H13928   2.078   3.766  12.912 -1.5070  3.0012  0.1743
    8TMC3    H113929   1.874   3.870  12.557  0.8482 -0.3904 -3.0533
    8TMC3    H213930   2.290   3.792  12.556  0.5041 -0.3268  0.8323
    8TMC3    C713931   2.099   3.942  12.448 -0.2674  0.0642 -0.4633
    8TMC3    C813932   2.297   3.694  12.801  0.6369  0.3136 -0.3369
    8TMC3    O113933   2.197   3.940  12.384  0.0032 -0.2251 -0.3787
    8TMC3    O213934   2.406   3.704  12.743  1.2821 -0.0521  0.2436
    9TMC3    C113935   2.020   0.099  12.946 -0.2299  0.1093 -0.1106
    9TMC3    C213936   2.056   0.053  12.824  0.4212  0.3722 -0.1390
    9TMC3    C313937   2.009   4.665  12.773 -0.4201 -0.1720 -0.4727
    9TMC3    C413938   1.949   0.017  13.032  0.4949  0.0237 -0.0443
    9TMC3    C513939   1.895   4.630  12.971  0.6130 -0.3983 -0.5225
    9TMC3    C613940   1.916   4.589  12.844  0.0929  0.2598 -0.6648
    9TMC3     C13941   2.112   0.197  12.997 -0.1220 -0.1518 -0.0936
    9TMC3     O13942   2.220   0.202  12.938 -0.9467  0.1560 -0.3493
    9TMC3     H13943   2.116   0.112  12.755  0.2903  1.0377  0.3110
    9TMC3    H113944   1.926   0.046  13.134  2.1328 -0.9336  0.5955
    9TMC3    H213945   1.864   4.503  12.802 -0.0720 -0.1919  0.4744
    9TMC3    C713946   1.857   4.524  13.063 -0.2893  0.2518  0.0571
    9TMC3    C813947   2.036   4.626  12.641  0.5117 -0.3304 -0.2710
    9TMC3    O113948   1.801   4.549  13.167 -0.1645  0.3378 -0.0010
    9TMC3    O213949   2.062   4.711  12.555 -0.2580  0.0753 -0.1306
   10MPD2     C13950   2.110   4.211  12.330 -0.5229  0.3390  0.5848
   10MPD2    C113951   2.059   4.180  12.458  0.4051 -0.1047  0.6229
   10MPD2    C213952   2.035   4.279  12.556 -0.5084 -0.6231 -0.0715
   10MPD2    C313953   2.056   4.407  12.526 -0.3792 -1.0306  0.2903
   10MPD2    C413954   2.103   4.447  12.400 -0.0994 -0.8861  0.1352
   10MPD2    C513955   2.136   4.346  12.304  0.4191 -0.4891  0.2864
   10MPD2     H13956   1.991   4.259  12.653 -2.8109  2.2433 -0.5216
   10MPD2    H113957   2.131   4.550  12.378  1.2590 -1.7210 -2.0824
   10MPD2    H213958   2.130   4.137  12.254  2.4687  0.9215  0.8151
   10MPD2    H313959   2.164   4.372  12.203 -3.3511 -1.4074 -1.0142
   10MPD2     N13960   2.035   4.493  12.636  0.5543 -0.8396  0.0563
   10MPD2    H513961   2.050   4.448  12.726 -0.9072  0.9551  1.2036
   10MPD2    N113962   2.033   4.048  12.493  0.2458  0.4566  0.3693
   10MPD2    H713963   2.000   4.041  12.589 -2.6186  2.9364 -0.4248
   11MPD2     C13964   3.292   2.959  13.751 -0.3018  0.2395 -0.0988
   11MPD2    C113965   3.198   3.049  13.794  0.6543  0.2232 -0.3463
   11MPD2    C213966   3.166   3.146  13.704 -0.0589  0.2894  0.1833
   11MPD2    C313967   3.212   3.153  13.572 -0.2240  0.1423 -0.5095
   11MPD2    C413968   3.293   3.048  13.531  0.4129 -0.4455 -0.7033
   11MPD2    C513969   3.333   2.947  13.618  0.2007  0.0458  0.1656
   11MPD2     H13970   3.092   3.217  13.738  0.2243  1.0036 -0.6966
   11MPD2    H113971   3.324   3.045  13.427  1.9317  2.7179 -0.3534
   11MPD2    H213972   3.320   2.883  13.822 -0.3701 -0.2238 -0.5702
   11MPD2    H313973   3.401   2.867  13.592 -0.5634 -0.8096  0.8181
   11MPD2     N13974   3.180   3.256  13.486 -0.1346 -0.0491 -0.5458
   11MPD2    H513975   3.212   3.249  13.390 -2.3316  1.6143 -1.4010
   11MPD2    N113976   3.131   3.036  13.920 -0.2024  0.0812 -0.7803
   11MPD2    H713977   3.053   3.100  13.933 -1.4803 -1.3814 -1.3529
    1MPD1     C13978   0.131   4.289  17.176 -0.5247  0.1496 -0.1288
    1MPD1    C113979   0.082   4.237  17.053  0.1125  0.9189 -0.1041
    1MPD1    C213980   0.169   4.253  16.946  0.0714  0.4491 -1.2000
    1MPD1    C313981   0.298   4.304  16.965 -0.4553  0.1433 -0.8332
    1MPD1    C413982   0.345   4.336  17.086  0.7323  0.1642 -0.1317
    1MPD1    C513983   0.262   4.330  17.189 -0.2217 -0.3872 -0.4334
    1MPD1     H13984   0.139   4.211  16.851 -0.2959  0.2939 -1.0129
    1MPD1    H113985   0.451   4.357  17.099  0.9951 -0.9629 -0.4015
    1MPD1    H213986   0.069   4.279  17.264  0.6119 -1.0890  0.5399
    1MPD1    H313987   0.298   4.366  17.285 -0.5774 -0.4433 -0.2761
    1MPD1     N13988   0.387   4.330  16.860  0.3077  0.1675  0.4966
    1MPD1    H513989   0.476   4.366  16.893  0.2280  3.4712 -2.9385
    1MPD1    N113990   4.679   4.180  17.040  0.0499  0.4853 -0.0621
    1MPD1    H613991   4.605   4.211  17.103 -0.8203 -1.4621 -0.1236
    1MPD1    H713992   4.635   4.174  16.949 -0.9098  0.6498  0.3920
    2MPD1     C13993   1.332   4.209  16.542 -0.1600 -0.2795 -0.0079
    2MPD1    C113994   1.274   4.289  16.448 -0.3884  0.2114  0.0723
    2MPD1    C213995   1.137   4.309  16.461  0.3144 -0.1601  0.4006
    2MPD1    C313996   1.062   4.260  16.566  0.6194 -0.3937  0.5042
    2MPD1    C413997   1.124   4.179  16.660 -0.0984  0.7328 -0.6735
    2MPD1    C513998   1.259   4.155  16.644 -0.3267  0.2104  0.3412
    2MPD1     H13999   1.089   4.376  16.391  0.0873 -1.9136 -1.1190
    2MPD1    H114000   1.082   4.133  16.748  0.5267  1.6803  0.1132
    2MPD1    H214001   1.436   4.181  16.540  0.0697  0.3266  2.6320
    2MPD1    H314002   1.309   4.102  16.724 -0.2342  0.6404  0.5644
    2MPD1     N14003   0.920   4.281  16.557  0.8276  0.4219  0.5007
    2MPD1    H514004   0.880   4.340  16.484 -1.2703  1.2285  2.2911
    2MPD1    N114005   1.340   4.340  16.337  0.2192 -0.3702 -0.2840
    2MPD1    H614006   1.441   4.337  16.350  0.0915  0.4681  0.9376
    2MPD1    H714007   1.319   4.438  16.323  1.1106  0.1785  2.2184
    3TMC3    C114008   0.691   4.283  16.597 -0.2775 -0.9143 -0.3284
    3TMC3    C214009   0.673   4.333  16.466 -0.1553 -0.1196 -0.0557
    3TMC3    C314010   0.559   4.392  16.431 -0.1213  1.0677  0.7017
    3TMC3    C414011   0.596   4.303  16.694  0.1812 -0.2892 -0.6148
    3TMC3    C514012   0.479   4.357  16.646 -0.3583  0.9411 -0.6704
    3TMC3    C614013   0.453   4.399  16.520 -0.1163  0.3949 -0.6754
    3TMC3     C14014   0.822   4.242  16.642 -0.6887  0.3128 -0.2057
    3TMC3     O14015   0.837   4.175  16.745  0.1250  0.1938  0.0793
    3TMC3     H14016   0.745   4.319  16.386  0.3040  1.8032  0.0185
    3TMC3    H114017   0.604   4.274  16.798 -0.3038  0.4344 -0.3760
    3TMC3    H214018   0.358   4.439  16.487  0.9071  1.4315 -2.3620
    3TMC3    C714019   0.357   4.343  16.728 -0.3418 -0.2229 -0.3342
    3TMC3    C814020   0.526   4.415  16.286 -0.2437 -0.0048  0.0837
    3TMC3    O114021   0.253   4.347  16.663  0.0425  0.1117  0.0892
    3TMC3    O214022   0.406   4.411  16.251 -0.0656 -0.2215 -0.3089
    4MPD1     C14023   0.672   4.388  15.792  0.5111  0.2823  0.0325
    4MPD1    C114024   0.771   4.451  15.861 -0.2305  0.3404 -0.1275
    4MPD1    C214025   0.762   4.456  15.995 -0.0933  0.1804 -0.4123
    4MPD1    C314026   0.647   4.415  16.067 -0.2152 -0.0416 -0.0593
    4MPD1    C414027   0.545   4.367  15.991  0.3641  0.3755 -0.0128
    4MPD1    C514028   0.557   4.356  15.857 -0.3716  0.5065  0.4117
    4MPD1     H14029   0.842   4.508  16.046 -0.3332  1.0410 -0.9120
    4MPD1    H114030   0.444   4.353  16.027  0.3144 -0.7361 -0.5711
    4MPD1    H214031   0.681   4.383  15.684 -3.1412  0.1281 -0.2914
    4MPD1    H314032   0.475   4.321  15.796  1.2504 -0.7073 -1.1039
    4MPD1     N14033   0.637   4.431  16.211  0.1863 -1.1566  0.3728
    4MPD1    H514034   0.722   4.450  16.263 -0.1040  1.4980 -0.1130
    4MPD1    N114035   0.887   4.490  15.793 -0.0103  0.2883  0.6021
    4MPD1    H614036   0.868   4.501  15.694  0.5848 -0.1535  0.4380
    4MPD1    H714037   0.947   4.561  15.835 -0.1427  0.0988  1.1138
    1TCq1    O114038   2.288   3.242  12.291  0.4040 -0.4490 -0.0500
    1TCq1    C114039   2.229   3.149  12.208 -0.0039 -0.1697 -0.6517
    1TCq1    O214040   2.230   3.026  12.221 -1.1238 -0.3072  0.3969
    1TCq1    C214041   2.185   3.216  12.084  0.3686 -0.1566 -0.1270
    1TCq1    C314042   2.176   3.130  11.976 -0.0037  0.5477 -0.1044
    1TCq1    C414043   2.087   3.161  11.880  0.2069  0.3887 -0.5487
    1TCq1    C514044   2.034   3.287  11.873  0.5441 -0.1729  0.0803
    1TCq1    C614045   2.054   3.376  11.976  0.4110  0.7124 -0.3413
    1TCq1    C714046   2.122   3.340  12.087 -0.2188  0.0026  0.3621
    1TCq1    C814047   2.009   3.512  11.972  0.3111  0.1339 -0.0685
    1TCq1    O414048   2.015   3.588  12.068  0.1455  0.3120 -0.1212
    1TCq1    C914049   2.099   3.085  11.758 -0.2857 -0.1350  0.0285
    1TCq1    O514050   2.054   3.136  11.656 -0.3029  0.2238 -0.0032
    1TCq1    O614051   2.195   3.003  11.752  0.1625  0.1814 -0.2152
    1TCq1    H114052   2.280   3.323  12.236 -1.1492 -0.5322  0.0723
    1TCq1    H214053   2.219   3.030  11.979  1.1586  0.9915 -1.7233
    1TCq1    H314054   1.974   3.315  11.787 -0.2702 -0.0454  0.6907
    1TCq1    H414055   2.114   3.399  12.177  0.4350  2.5413 -1.2354
    2MPD1     C14056   1.757   3.864  11.677  0.5236  0.1039  0.0086
    2MPD1    C114057   1.783   3.755  11.598  0.6644 -0.2826 -0.2569
    2MPD1    C214058   1.842   3.648  11.656 -0.0683  0.1195  0.8262
    2MPD1    C314059   1.891   3.654  11.791 -0.8198 -0.2080 -0.2732
    2MPD1    C414060   1.867   3.769  11.865 -0.2117  0.0400 -0.3026
    2MPD1    C514061   1.797   3.874  11.809  0.7335 -0.8205  0.2828
    2MPD1     H14062   1.844   3.553  11.605 -0.9513  0.4550  0.1605
    2MPD1    H114063   1.890   3.787  11.969 -0.2120 -1.2344 -0.0750
    2MPD1    H214064   1.703   3.950  11.641  0.0240 -0.3237 -0.2578
    2MPD1    H314065   1.769   3.956  11.874 -2.7614 -1.5068 -0.3574
    2MPD1     N14066   1.962   3.544  11.844 -0.0170 -0.0580 -0.2045
    2MPD1    H514067   1.976   3.471  11.775  0.8808 -0.2498  0.1799
    2MPD1    N114068   1.713   3.749  11.479 -0.7539 -0.1403 -0.5064
    2MPD1    H614069   1.749   3.674  11.421  0.6162 -0.5103  0.8090
    2MPD1    H714070   1.702   3.840  11.435 -1.7436 -0.2925 -0.5742
    1TCq1    O114071   0.269   0.225   1.231  0.3948  0.3185 -0.1956
    1TCq1    C114072   0.188   0.159   1.144 -0.4312  0.1026 -0.0043
    1TCq1    O214073   0.102   0.077   1.174 -0.1321 -0.0787 -0.2861
    1TCq1    C214074   0.140   0.273   1.063  0.0484 -0.2491  0.0708
    1TCq1    C314075   0.224   0.359   0.998 -0.1363  0.1247  0.0388
    1TCq1    C414076   0.168   0.457   0.919  0.2811 -0.2397  0.5447
    1TCq1    C514077   0.044   0.502   0.948  1.0781 -0.2311 -0.0489
    1TCq1    C614078   4.696   0.424   1.023 -0.0167 -0.3183  0.5643
    1TCq1    C714079   0.004   0.305   1.072 -0.0613 -0.7316  0.7502
    1TCq1    C814080   4.557   0.465   1.047 -0.6661  0.5041 -0.1035
    1TCq1    O414081   4.476   0.374   1.070  0.1235  1.0851 -0.4034
    1TCq1    C914082   0.270   0.538   0.848 -0.2517  0.2638  0.2768
    1TCq1    O514083   0.237   0.656   0.818 -0.1446  0.8243 -0.1688
    1TCq1    O614084   0.387   0.483   0.837  0.0927  0.4506  0.4033
    1TCq1    H114085   0.309   0.296   1.176 -2.2386 -0.5137 -3.1890
    1TCq1    H214086   0.329   0.336   0.983 -0.0347  0.4533  0.2507
    1TCq1    H314087   0.008   0.592   0.898  0.4209 -0.3807  0.1518
    1TCq1    H414088   4.654   0.244   1.117  0.0158 -1.7243 -0.4457
    2MPD1     C14089   4.182   0.824   1.104 -0.0313 -0.5557 -0.1210
    2MPD1    C114090   4.302   0.890   1.103  0.4763 -0.9949 -0.3788
    2MPD1    C214091   4.423   0.808   1.089  0.5511  0.0857 -0.0189
    2MPD1    C314092   4.417   0.668   1.072 -0.8669  0.2290 -0.1095
    2MPD1    C414093   4.290   0.612   1.073  0.4105  0.3161 -1.2103
    2MPD1    C514094   4.174   0.688   1.089  0.4025 -0.3877 -0.3224
    2MPD1     H14095   4.518   0.858   1.103 -0.0033  1.1681 -0.1716
    2MPD1    H114096   4.271   0.506   1.062 -2.0032  0.6861 -0.5134
    2MPD1    H214097   4.095   0.873   1.145 -1.4249  0.0119 -3.7823
    2MPD1    H314098   4.078   0.640   1.104 -0.1366  0.4727 -1.0786
    2MPD1     N14099   4.540   0.598   1.048  0.4208  0.6769  1.1978
    2MPD1    H514100   4.619   0.660   1.028  1.3103 -0.2534  1.8127
    2MPD1    N114101   4.314   1.017   1.152 -0.4205  0.8445  0.2170
    2MPD1    H614102   4.241   1.087   1.141  1.1868  2.4511 -0.1573
    2MPD1    H714103   4.402   1.059   1.123  0.5056 -1.3188 -0.0953
    1MPD1     C14104   2.868   3.463  11.914 -0.0115  0.3276  0.7934
    1MPD1    C114105   2.869   3.582  11.989 -1.2123  0.5690  0.4034
    1MPD1    C214106   2.918   3.696  11.933  0.0450  0.4083  0.4316
    1MPD1    C314107   2.963   3.696  11.805 -0.2209 -0.4355  0.2873
    1MPD1    C414108   2.949   3.579  11.735 -0.3343 -0.8343  0.2284
    1MPD1    C514109   2.912   3.462  11.789  0.1641  0.2750 -0.6567
    1MPD1     H14110   2.925   3.786  11.994  0.2604  0.6351  0.0665
    1MPD1    H114111   2.991   3.567  11.636  2.8140  1.3554  1.3276
    1MPD1    H214112   2.854   3.368  11.965  1.2105 -0.6785 -0.7500
    1MPD1    H314113   2.923   3.370  11.733 -1.0769 -0.7064  0.7169
    1MPD1     N14114   3.035   3.804  11.760  0.2718 -0.4084 -0.2663
    1MPD1    H514115   3.062   3.868  11.834 -0.4808 -0.5658  0.1364
    1MPD1    N114116   2.792   3.587  12.107 -0.7443 -0.1834 -0.5401
    1MPD1    H614117   2.772   3.499  12.153  0.1371  0.4168  0.9932
    1MPD1    H714118   2.833   3.640  12.184  3.0566 -0.8413 -2.1080
    2MPD1     C14119   3.315   1.174  10.841  0.0572 -0.5039 -0.1811
    2MPD1    C114120   3.203   1.104  10.809 -0.6809  0.2615  0.3278
    2MPD1    C214121   3.204   0.969  10.790 -0.7343 -0.7222  0.8184
    2MPD1    C314122   3.326   0.903  10.799  0.5446 -0.0123  0.1826
    2MPD1    C414123   3.439   0.982  10.820  0.5842 -0.4343 -0.8006
    2MPD1    C514124   3.435   1.114  10.847  0.3836 -0.0467 -0.0375
    2MPD1     H14125   3.113   0.921  10.757 -0.9729  0.4535 -0.2036
    2MPD1    H114126   3.529   0.923  10.816  1.3759  0.8364 -2.0953
    2MPD1    H214127   3.314   1.280  10.864  1.7109 -0.7366  0.9446
    2MPD1    H314128   3.527   1.169  10.864  1.4848 -2.1023  0.5602
    2MPD1     N14129   3.338   0.765  10.775 -0.0410  0.1073  0.5049
    2MPD1    H514130   3.434   0.733  10.784 -0.9129 -2.0471  2.0032
    2MPD1    N114131   3.087   1.173  10.784  0.7144 -0.2670 -0.4819
    2MPD1    H614132   3.011   1.107  10.778  0.9035 -0.5019 -0.3050
    2MPD1    H714133   3.059   1.236  10.859  0.1057  0.1059 -1.0244
    3MPD1     C14134   3.327   4.585  11.233  0.5137  0.7553 -0.1211
    3MPD1    C114135   3.393   4.553  11.117 -0.1531  0.3656 -0.2248
    3MPD1    C214136   3.387   4.647  11.019 -0.1977 -0.6016 -0.2402
    3MPD1    C314137   3.293   0.023  11.022  0.0347  0.1825  0.5266
    3MPD1    C414138   3.226   0.052  11.138 -0.9153 -0.2405  0.3324
    3MPD1    C514139   3.241   4.690  11.243 -0.3143 -0.2673 -0.2075
    3MPD1     H14140   3.442   4.628  10.927 -3.0716 -1.5287 -1.7490
    3MPD1    H114141   3.151   0.129  11.152  2.0525  2.1703  3.1649
    3MPD1    H214142   3.341   4.522  11.320 -1.8230 -1.4019 -1.3067
    3MPD1    H314143   3.190   4.717  11.336 -1.0738 -0.4841 -0.5579
    3MPD1     N14144   3.285   0.103  10.902  0.0775  0.1803  0.5015
    3MPD1    H514145   3.346   0.069  10.829 -0.8080  0.9137 -0.5678
    3MPD1    N114146   3.491   4.452  11.105  0.3532 -0.1070  0.3583
    3MPD1    H614147   3.511   4.418  11.011 -1.0600  0.1575 -0.0360
    3MPD1    H714148   3.471   4.376  11.169  0.0601 -1.8616 -1.8017
    4MPD2     C14149   3.308   4.533  11.672 -0.2528 -0.3674 -0.3171
    4MPD2    C114150   3.397   4.429  11.663  0.6035  0.2558  0.4920
    4MPD2    C214151   3.506   4.454  11.585  0.0504  0.0465 -0.4700
    4MPD2    C314152   3.530   4.580  11.528  0.0743  0.0626  0.2107
    4MPD2    C414153   3.455   4.689  11.557 -0.3031  0.6745 -0.9025
    4MPD2    C514154   3.349   4.658  11.636  0.2600  0.4048 -0.5389
    4MPD2     H14155   3.557   4.363  11.556 -2.3425 -1.2238 -0.7070
    4MPD2    H114156   3.471   0.062  11.519  0.1614  1.0010  0.1547
    4MPD2    H214157   3.212   4.526  11.723  1.5971 -0.1251  3.2040
    4MPD2    H314158   3.286   0.015  11.665 -1.4216 -0.1386 -2.6395
    4MPD2     N14159   3.640   4.610  11.445 -0.5570  0.3498  0.2588
    4MPD2    H514160   3.651   4.700  11.400 -1.9548 -0.1549 -1.1079
    4MPD2    N114161   3.373   4.300  11.716 -0.6055  0.2368 -0.4564
    4MPD2    H714162   3.438   4.225  11.694 -0.7927  0.6311 -2.3891
    5TMC3    C114163   3.283   4.102  11.769 -0.1890 -0.1701  0.3428
    5TMC3    C214164   3.172   4.025  11.731  0.5022 -1.1759 -0.2424
    5TMC3    C314165   3.189   3.925  11.643  0.0892 -0.4748 -0.1349
    5TMC3    C414166   3.404   4.056  11.746 -0.6341  0.5999 -0.0403
    5TMC3    C514167   3.423   3.959  11.649  0.0292 -0.0721 -0.6556
    5TMC3    C614168   3.313   3.901  11.588  0.2214  0.2933 -0.0156
    5TMC3     C14169   3.267   4.248  11.778  0.1857  0.3251 -0.2151
    5TMC3     O14170   3.156   4.289  11.807 -0.4088 -0.0230 -0.1281
    5TMC3     H14171   3.073   4.052  11.764  0.8392 -1.0259  0.6428
    5TMC3    H114172   3.483   4.096  11.808  0.9257 -2.8173  0.1908
    5TMC3    H214173   3.319   3.828  11.508  1.9851 -2.4652  2.6344
    5TMC3    C714174   3.531   3.996  11.561  0.1586  0.4350  0.7600
    5TMC3    C814175   3.088   3.825  11.639 -0.0794  0.3434 -0.3112
    5TMC3    O114176   3.581   4.101  11.606  0.3486 -0.5304 -0.1869
    5TMC3    O214177   3.073   3.765  11.535 -0.0306  0.1049 -0.2109
    6TMC3    C114178   3.284   0.535  10.728  0.3341  0.3188 -0.1337
    6TMC3    C214179   3.209   0.431  10.780  0.1314  0.2833  0.5192
    6TMC3    C314180   3.268   0.308  10.784  0.2659 -0.1638 -0.3867
    6TMC3    C414181   3.406   0.509  10.670 -0.0833  0.5930 -0.2078
    6TMC3    C514182   3.454   0.383  10.663 -0.5096  0.0185 -0.4609
    6TMC3    C614183   3.386   0.277  10.724  0.1502  0.5308 -0.9366
    6TMC3     C14184   3.239   0.671  10.746 -1.2510  0.3457  0.3780
    6TMC3     O14185   3.117   0.687  10.752 -0.2417  0.0622 -1.2084
    6TMC3     H14186   3.120   0.443  10.841 -0.0986 -0.4925  0.3368
    6TMC3    H114187   3.468   0.593  10.642  1.2257  0.0619  1.1317
    6TMC3    H214188   3.431   0.179  10.732  1.4644  1.2710  1.0821
    6TMC3    C714189   3.589   0.358  10.671 -0.8032 -0.4241 -0.0263
    6TMC3    C814190   3.221   0.223  10.893  0.2704  0.0634  0.2127
    6TMC3    O114191   3.631   0.364  10.789 -0.1880  0.4771 -0.0776
    6TMC3    O214192   3.140   0.273  10.970 -0.2789 -0.0665  0.2391
    7MPD2     C14193   3.841   4.010  11.150 -0.0108  0.0182 -0.0674
    7MPD2    C114194   3.810   4.109  11.245  0.1489 -0.1337 -0.3527
    7MPD2    C214195   3.727   4.079  11.351 -0.7748  0.4145  0.3586
    7MPD2    C314196   3.673   3.949  11.368 -0.3151  0.0801 -0.0946
    7MPD2    C414197   3.694   3.852  11.263 -0.1917  0.3275  0.0770
    7MPD2    C514198   3.781   3.884  11.160 -0.0487 -0.0680  0.2534
    7MPD2     H14199   3.690   4.163  11.410 -0.5090  0.6585  0.1709
    7MPD2    H114200   3.629   3.767  11.251  0.8092 -0.3996 -0.1608
    7MPD2    H214201   3.901   4.022  11.060 -1.3234 -0.4358 -1.0081
    7MPD2    H314202   3.787   3.809  11.083 -0.0811 -0.8425  1.0030
    7MPD2     N14203   3.570   3.915  11.459  0.5508  0.5593  0.2118
    7MPD2    H514204   3.534   3.820  11.458  1.0010  0.3920  0.0238
    7MPD2    N114205   3.867   4.237  11.241 -0.6909 -0.1298 -0.6920
    7MPD2    H714206   3.827   4.297  11.313  0.0873  0.3807 -0.6917
    8TMC3    C114207   3.946   4.434  11.158 -0.2013  1.1521 -0.2079
    8TMC3    C214208   3.894   4.500  11.048 -0.0450 -0.3079 -0.1348
    8TMC3    C314209   3.804   4.597  11.074 -1.1169 -0.0288  0.7004
    8TMC3    C414210   3.918   4.470  11.285  0.1220  0.2690  0.2742
    8TMC3    C514211   3.813   4.557  11.302  0.4592 -0.0731 -0.3880
    8TMC3    C614212   3.761   4.633  11.196 -0.0821  0.6394  0.1827
    8TMC3     C14213   3.942   4.295  11.138 -0.2906 -0.4957  0.0845
    8TMC3     O14214   3.946   4.246  11.024 -0.2144  0.7389 -0.5011
    8TMC3     H14215   3.933   4.480  10.950 -1.7108 -2.0653 -0.4383
    8TMC3    H114216   3.956   4.411  11.367  0.7871 -2.3706 -1.9360
    8TMC3    H214217   3.671   4.692  11.209 -1.0760 -0.8361 -0.0444
    8TMC3    C714218   3.738   4.521  11.423  0.2748  0.2301  0.0819
    8TMC3    C814219   3.753   4.668  10.959 -0.5779  0.3023 -0.2635
    8TMC3    O114220   3.759   4.418  11.486 -0.6416  0.3592 -0.6292
    8TMC3    O214221   3.688   0.043  10.981 -0.1762 -0.3238  0.1852
    9MPD2     C14222   3.805   4.626  10.598  0.3459 -0.3633 -0.2539
    9MPD2    C114223   3.766   4.694  10.711  1.1217  0.4165  0.2039
    9MPD2    C214224   3.710   0.095  10.701 -0.1178 -0.2870 -0.3283
    9MPD2    C314225   3.689   0.160  10.579  0.0348 -0.1394  1.0119
    9MPD2    C414226   3.722   0.088  10.469 -0.6105 -0.0593 -0.1413
    9MPD2    C514227   3.784   4.694  10.478  0.8767 -0.1550 -1.2932
    9MPD2     H14228   3.665   0.133  10.793  0.1351 -1.9722  0.4948
    9MPD2    H114229   3.673   0.103  10.373  1.9736 -1.3888 -1.6910
    9MPD2    H214230   3.850   4.528  10.605  0.2859 -0.3324  0.5608
    9MPD2    H314231   3.804   4.635  10.389  0.8522  1.1655 -2.1778
    9MPD2     N14232   3.627   0.280  10.567  0.2506 -0.0761  0.5562
    9MPD2    H514233   3.614   0.314  10.472 -0.2539  0.8242  0.9441
    9MPD2    N114234   3.789   4.625  10.839 -0.0337  0.0651 -0.6198
    9MPD2    H714235   3.818   4.528  10.825 -0.9152  0.0629 -2.5082
    1MPD1     C14236   3.484   3.764  16.804  0.2620  0.0099 -0.0695
    1MPD1    C114237   3.478   3.624  16.803 -0.0652 -0.3473  0.1441
    1MPD1    C214238   3.354   3.565  16.808 -0.0705 -0.6306  0.0256
    1MPD1    C314239   3.236   3.641  16.816 -0.5740 -0.3760  0.2408
    1MPD1    C414240   3.248   3.781  16.828  0.4024  0.1129 -0.3467
    1MPD1    C514241   3.371   3.840  16.823  0.0832 -0.5556  0.0816
    1MPD1     H14242   3.346   3.457  16.810  0.7232 -0.6842  0.2617
    1MPD1    H114243   3.158   3.841  16.832  0.7224  0.5536  0.2329
    1MPD1    H214244   3.571   3.827  16.798  0.9710 -1.0238 -0.5831
    1MPD1    H314245   3.377   3.948  16.826 -0.0186 -0.5984  1.6777
    1MPD1     N14246   3.104   3.596  16.834 -0.2422 -0.4299 -0.4878
    1MPD1    H514247   3.035   3.661  16.870  0.5732 -0.1542  0.5547
    1MPD1    N114248   3.592   3.546  16.774 -1.0801  0.1515  0.2819
    1MPD1    H614249   3.595   3.452  16.813 -2.4142  0.0031  0.0151
    1MPD1    H714250   3.674   3.604  16.788 -0.4966 -0.7222  0.4863
    2MPD1     C14251   2.843   2.644  16.947  0.3156 -0.0768 -0.5662
    2MPD1    C114252   2.953   2.719  16.978 -0.2562  0.6485  0.0710
    2MPD1    C214253   2.946   2.855  16.970  0.3230 -0.9898  0.3758
    2MPD1    C314254   2.837   2.918  16.918 -0.4536  0.1118 -0.2573
    2MPD1    C414255   2.728   2.841  16.885 -0.0170 -0.5772 -0.0763
    2MPD1    C514256   2.730   2.706  16.902 -0.6839 -0.3974 -0.3966
    2MPD1     H14257   3.032   2.914  16.999 -0.9459 -0.2298  2.6004
    2MPD1    H114258   2.636   2.892  16.857  0.0391 -1.0525 -1.1240
    2MPD1    H214259   2.838   2.537  16.962 -1.9611  0.2185  0.6742
    2MPD1    H314260   2.658   2.649  16.845 -1.0007 -0.6202  0.2273
    2MPD1     N14261   2.840   3.062  16.907 -0.4696  0.2278 -0.6978
    2MPD1    H514262   2.918   3.118  16.941  0.9972 -2.3930  0.2890
    2MPD1    N114263   3.068   2.645  17.015 -0.4945  0.2777 -0.2763
    2MPD1    H614264   3.155   2.669  16.968  0.8139 -0.3321  1.8770
    2MPD1    H714265   3.062   2.545  16.993  1.4166  0.2327 -0.5567
    3TCq2    C114266   2.733   3.140  16.866  0.5177  0.2685  0.4554
    3TCq2    O214267   2.616   3.113  16.839  0.7021  0.1412  0.1460
    3TCq2    C214268   2.767   3.278  16.857  0.6897 -0.2357  0.1840
    3TCq2    C314269   2.668   3.371  16.854 -0.0199 -0.7233 -0.3470
    3TCq2    C414270   2.705   3.500  16.822 -0.4641  0.0770 -0.1116
    3TCq2    C514271   2.830   3.542  16.819 -0.3122 -0.9543  0.0324
    3TCq2    C614272   2.928   3.445  16.831 -0.2959 -0.0271  0.1741
    3TCq2    C714273   2.896   3.318  16.833 -0.4645 -0.0574  0.3738
    3TCq2    C814274   3.064   3.473  16.798 -0.0244 -0.1543  0.3041
    3TCq2    O414275   3.126   3.378  16.749 -0.1553 -0.2777 -0.2760
    3TCq2    C914276   2.599   3.600  16.803 -0.5610  0.2876  0.1569
    3TCq2    O514277   2.484   3.557  16.798  0.4180  0.1173  0.5428
    3TCq2    O614278   2.640   3.720  16.783 -0.3132 -0.9660 -0.0811
    3TCq2    H214279   2.561   3.357  16.852  0.0121 -0.7319 -1.6467
    3TCq2    H314280   2.859   3.642  16.787 -2.3451 -0.7296 -1.1325
    3TCq2    H414281   2.973   3.242  16.825  0.5647  1.1181 -0.8510
    1TCq1    O114282   1.027   1.815  12.088 -0.0650 -0.3658 -0.2694
    1TCq1    C114283   1.120   1.770  12.174 -0.3228 -0.1512  0.3255
    1TCq1    O214284   1.241   1.778  12.167 -0.0430 -0.3598 -0.2347
    1TCq1    C214285   1.057   1.731  12.296 -0.2454 -0.2575  0.8369
    1TCq1    C314286   0.927   1.703  12.307  0.7236 -0.5439  0.2170
    1TCq1    C414287   0.898   1.651  12.430  0.0688  0.3437 -0.2155
    1TCq1    C514288   0.979   1.656  12.543 -0.1741 -0.8898  0.4481
    1TCq1    C614289   1.108   1.693  12.526 -0.3195  0.4435 -0.0329
    1TCq1    C714290   1.152   1.721  12.400  0.3689  0.6827 -0.9339
    1TCq1    C814291   1.206   1.679  12.634 -0.7846  0.7339  0.4013
    1TCq1    O414292   1.163   1.650  12.746  0.1793  0.4199  0.0936
    1TCq1    C914293   0.757   1.612  12.443  0.1630 -0.3223  0.4998
    1TCq1    O514294   0.688   1.580  12.342 -0.2353  0.3446  0.3286
    1TCq1    O614295   0.714   1.621  12.564 -0.1270 -0.2050 -0.3344
    1TCq1    H114296   0.935   1.825  12.121  0.1885  1.0051 -0.0010
    1TCq1    H214297   0.860   1.700  12.223  0.9318 -1.6512  0.0898
    1TCq1    H314298   0.963   1.613  12.640 -0.8290  2.0235  1.6344
    1TCq1    H414299   1.250   1.762  12.382  1.0409 -0.9600 -0.9997
    2MPD2     C14300   1.439   1.592  12.780 -0.0629  0.2577 -0.4336
    2MPD2    C114301   1.443   1.693  12.681  0.5321 -0.1187  0.2947
    2MPD2    C214302   1.551   1.759  12.642  0.7862 -0.1724 -0.4322
    2MPD2    C314303   1.669   1.735  12.705 -0.6980 -0.0337 -0.1144
    2MPD2    C414304   1.677   1.624  12.789  1.2224 -0.6754  0.0239
    2MPD2    C514305   1.563   1.558  12.825  0.0321 -0.6915 -0.8690
    2MPD2     H14306   1.537   1.842  12.573  1.0875 -0.9032 -1.3787
    2MPD2    H114307   1.768   1.590  12.837  1.7357 -0.5105 -0.8204
    2MPD2    H214308   1.352   1.535  12.810 -1.1474  1.9609 -0.3710
    2MPD2    H314309   1.564   1.477  12.897 -1.7326 -0.1209 -0.1829
    2MPD2     N14310   1.776   1.818  12.671  0.2806  0.2435 -0.0076
    2MPD2    H514311   1.760   1.910  12.632 -0.0877 -1.0840 -3.0243
    2MPD2    N114312   1.332   1.717  12.602  0.0062 -0.0107 -0.0742
    2MPD2    H714313   1.340   1.749  12.505 -3.2973 -2.8057 -1.2325
    3TCq1    O114314   2.040   2.365  12.717  0.0205 -0.0020 -0.0388
    3TCq1    C114315   1.995   2.261  12.644 -0.2263  0.1877 -0.3419
    3TCq1    O214316   1.925   2.266  12.542 -1.2790 -0.3381 -0.3884
    3TCq1    C214317   2.044   2.136  12.704 -0.4999  0.4755  0.5024
    3TCq1    C314318   2.156   2.131  12.777 -0.2728  0.2287 -0.0791
    3TCq1    C414319   2.182   2.011  12.828 -0.1334 -0.6842  0.0682
    3TCq1    C514320   2.104   1.897  12.798  0.1459  0.2718  0.0263
    3TCq1    C614321   1.991   1.911  12.724 -0.7073 -0.1634  0.2853
    3TCq1    C714322   1.961   2.030  12.674  1.0733 -0.4623  0.0334
    3TCq1    C814323   1.907   1.793  12.711  0.0178  0.3362 -0.9407
    3TCq1    O414324   1.960   1.693  12.745 -0.4933  0.4628 -0.3122
    3TCq1    C914325   2.293   1.986  12.910  0.1065 -0.4053 -0.7085
    3TCq1    O514326   2.357   2.084  12.956  0.2937  0.2314 -0.9785
    3TCq1    O614327   2.337   1.867  12.906  0.1741 -0.9649  0.1354
    3TCq1    H114328   2.052   2.344  12.812  0.8864 -1.2654 -0.4234
    3TCq1    H214329   2.223   2.215  12.793  0.8119 -0.4209 -1.1437
    3TCq1    H314330   2.131   1.803  12.845  2.3670  0.9718  0.1472
    3TCq1    H414331   1.872   2.035  12.613  1.0430 -3.2961 -0.1620
    1MPD2     C14332   0.814   3.328  14.507 -0.0970 -0.1162 -0.2591
    1MPD2    C114333   0.719   3.406  14.567 -0.4822  0.2880  0.1471
    1MPD2    C214334   0.601   3.356  14.613 -0.4921 -0.6021  0.1951
    1MPD2    C314335   0.577   3.218  14.601  0.3255  0.2072  0.4910
    1MPD2    C414336   0.679   3.132  14.567  0.3714  0.1670  0.0898
    1MPD2    C514337   0.792   3.193  14.518  0.2707  0.7674 -0.5717
    1MPD2     H14338   0.523   3.420  14.652  1.2251  1.2095  0.6166
    1MPD2    H114339   0.668   3.024  14.568 -0.9060  0.2848 -0.9264
    1MPD2    H214340   0.906   3.371  14.470 -1.1157  0.5504 -2.0148
    1MPD2    H314341   0.866   3.127  14.472  0.5436  0.3310  0.5055
    1MPD2     N14342   0.459   3.171  14.655 -0.3986  0.0408 -0.2045
    1MPD2    H514343   0.396   3.240  14.693 -1.3560 -0.9388  0.0092
    1MPD2    N114344   0.750   3.539  14.574  0.1308 -0.2515 -0.6770
    1MPD2    H714345   0.829   3.574  14.520  0.3301 -0.1632 -0.3282
    2TMC3    C114346   0.707   3.772  14.642 -0.2029 -0.2256  0.3151
    2TMC3    C214347   0.631   3.840  14.726 -0.4058 -0.6693  0.0160
    2TMC3    C314348   0.552   3.950  14.678 -0.1848  0.7672  0.0204
    2TMC3    C414349   0.727   3.809  14.515 -0.0679  0.6375 -0.0484
    2TMC3    C514350   0.667   3.922  14.473 -0.3051 -0.2721  0.5847
    2TMC3    C614351   0.566   3.972  14.547 -0.3272  0.6931 -0.0084
    2TMC3     C14352   0.694   3.624  14.672 -0.3472 -0.3972  0.2255
    2TMC3     O14353   0.616   3.597  14.766  0.3636 -0.4140  0.0998
    2TMC3     H14354   0.611   3.807  14.827 -1.6561  0.0861  0.0076
    2TMC3    H114355   0.803   3.756  14.459  2.6293  2.4772  1.8417
    2TMC3    H214356   0.508   4.050  14.498 -0.7349  0.0837 -0.4844
    2TMC3    C714357   0.684   3.955  14.330  0.7021  0.1266  0.0486
    2TMC3    C814358   0.423   3.965  14.739 -0.0096 -1.0063 -0.0117
    2TMC3    O114359   0.587   4.016  14.280  0.5238 -0.3565 -0.1211
    2TMC3    O214360   0.365   4.069  14.761 -0.1676 -0.3873 -0.0180
    3TCq1    O114361   1.602   4.106  13.556  0.1386 -0.1711  0.4153
    3TCq1    C114362   1.658   4.008  13.620  0.6656 -0.0669  0.0183
    3TCq1    O214363   1.760   3.953  13.589  0.0839  0.1812 -0.1076
    3TCq1    C214364   1.595   3.986  13.748  0.3859  0.2165 -0.2417
    3TCq1    C314365   1.662   3.941  13.849 -0.7610 -0.1782  0.1522
    3TCq1    C414366   1.600   3.916  13.975 -0.6172  0.5179  0.3159
    3TCq1    C514367   1.461   3.925  13.974  0.4284  0.0270  0.5187
    3TCq1    C614368   1.392   3.962  13.858 -0.0142  1.2334  0.0602
    3TCq1    C714369   1.461   3.985  13.743 -0.0599 -0.0360 -0.5293
    3TCq1    C814370   1.249   3.968  13.847  0.5401  0.2222  0.7204
    3TCq1    O414371   1.198   3.975  13.734  0.4150 -0.0894  0.1576
    3TCq1    C914372   1.668   3.868  14.090  0.0785 -0.3005  0.1943
    3TCq1    O514373   1.792   3.868  14.083 -0.1206 -0.0503 -0.3499
    3TCq1    O614374   1.591   3.800  14.168 -0.7799 -0.5930  0.3457
    3TCq1    H114375   1.517   4.137  13.593  1.1108  0.8066  1.8394
    3TCq1    H214376   1.769   3.926  13.844 -0.6980  0.3399 -0.0898
    3TCq1    H314377   1.409   3.907  14.067 -0.5113 -0.3773 -0.0892
    3TCq1    H414378   1.406   4.013  13.654  0.4587 -0.9244 -1.1260
    4MPD2     C14379   0.948   3.995  13.895  0.3402 -0.0975  0.5486
    4MPD2    C114380   1.043   3.976  13.994  0.5903  0.3815  0.8087
    4MPD2    C214381   0.995   3.968  14.121 -0.7480  0.0460 -0.5084
    4MPD2    C314382   0.860   3.979  14.152 -0.4614 -0.1495 -0.1396
    4MPD2    C414383   0.773   4.031  14.055  0.4914  0.4695 -0.3302
    4MPD2    C514384   0.818   4.028  13.928 -0.6072  0.3469 -0.1858
    4MPD2     H14385   1.063   3.949  14.204  0.1399  2.8107 -0.6214
    4MPD2    H114386   0.671   4.057  14.084  0.8237  0.7899  0.5514
    4MPD2    H214387   0.971   3.987  13.790  1.5063  1.2020  0.7194
    4MPD2    H314388   0.750   4.037  13.844 -0.3945  0.3458 -0.3590
    4MPD2     N14389   0.813   3.937  14.280 -0.2781  0.0146 -0.0142
    4MPD2    H514390   0.878   3.894  14.345  0.3520  0.8289 -0.1199
    4MPD2    N114391   1.188   3.976  13.965 -0.5067 -0.1350 -0.3510
    4MPD2    H714392   1.251   3.971  14.044 -0.4790  0.4913 -0.3304
    5TMC2    C114393   0.156   3.232  14.831  0.7624 -0.0416 -0.2160
    5TMC2    C214394   0.123   3.159  14.942 -0.2308  0.6385  0.0492
    5TMC2    C314395   0.185   3.033  14.946 -0.3102 -0.3965 -0.5325
    5TMC2    C414396   0.226   3.176  14.729  0.3090 -0.1870 -0.1125
    5TMC2    C514397   0.278   3.053  14.733 -0.1112 -0.2743 -0.2308
    5TMC2    C614398   0.265   2.981  14.847  0.2586  0.8171  0.0780
    5TMC2     C14399   0.217   3.360  14.845  0.2574 -0.0543  0.3898
    5TMC2     O14400   0.325   3.374  14.782  0.1857  0.1480 -0.5718
    5TMC2     H14401   0.084   3.198  15.036 -0.3160  0.2162  0.1891
    5TMC2    H114402   0.219   3.239  14.641  0.3176  0.3310  0.2572
    5TMC2    H214403   0.321   2.889  14.857 -2.6872 -0.9822  0.0016
    5TMC2    C714404   0.412   3.043  14.667  0.2563  0.1636 -0.0011
    5TMC2    C814405   0.186   2.957  15.069  0.7061  0.0234 -0.0606
    5TMC2    O114406   0.460   2.930  14.655 -0.3909  0.3366 -0.1329
    5TMC2    O214407   0.086   2.940  15.138 -0.0077  0.0171 -0.0910
    5TMC2    O514408   0.318   2.959  15.109 -0.0240  0.7424 -0.3629
    5TMC2    H514409   0.371   3.019  15.052  1.5423 -0.2140  0.1064
    6MPD2     C14410   0.165   3.852  14.878 -0.4788 -0.2897 -0.1864
    6MPD2    C114411   0.273   3.780  14.831  0.4365  0.3613  0.0030
    6MPD2    C214412   0.268   3.646  14.856  0.7085  0.5517 -0.2501
    6MPD2    C314413   0.157   3.591  14.913  0.0513  0.3202  0.9108
    6MPD2    C414414   0.056   3.666  14.970 -0.3808  0.1672  0.6358
    6MPD2    C514415   0.053   3.801  14.944 -0.7509 -0.5940 -0.3929
    6MPD2     H14416   0.348   3.587  14.813 -0.6726 -0.2313 -1.7262
    6MPD2    H114417   4.702   3.620  15.024  0.6873 -1.6760  0.6605
    6MPD2    H214418   0.164   3.959  14.858 -1.5818 -0.3122 -0.2743
    6MPD2    H314419   4.692   3.855  14.978  0.2715  0.4913  0.5214
    6MPD2     N14420   0.144   3.448  14.921  0.5382 -1.0988 -0.2264
    6MPD2    H514421   0.066   3.410  14.973 -1.4213  0.9320 -1.7054
    6MPD2    N114422   0.387   3.834  14.769 -0.4680 -0.4256  0.2595
    6MPD2    H714423   0.456   3.762  14.749  0.4055  1.4452 -3.4712
  945NH3     N114424   3.666   0.164  16.792  0.1810 -0.0457 -0.5724
  945NH3     H214425   3.665   0.204  16.885  1.2258 -1.1973 -0.0675
  945NH3     H314426   3.753   0.205  16.759  0.8859  0.0308  1.3731
  945NH3     H414427   3.591   0.223  16.757 -0.9416 -1.5720 -0.7127
  946SOD     NA14428   4.697   1.037  14.528 -0.2011 -0.3175  0.6951
  947SOD     NA14429   4.355   0.502   2.115  0.4966  0.1752  0.4046
  948SOD     NA14430   1.138   3.213   0.338 -0.1294  0.0755  0.0478
  949SOD     NA14431   1.614   2.964   0.790  0.0350 -0.0009 -0.4905
  950SOD     NA14432   1.383   3.472  10.073  0.3740  0.3124  0.2235
  951SOD     NA14433   3.298   1.259   1.455  0.1048  0.1521  0.2663
  952SOD     NA14434   2.789   2.641  14.667  0.0396  0.0905 -0.2873
  953SOD     NA14435   3.623   1.269   0.160  0.1127 -0.3215 -0.2713
  954SOD     NA14436   3.011   1.267  13.185  0.6154  0.0286 -0.5392
  955SOD     NA14437   3.706   2.595  12.736  0.2605  0.0697  0.1598
  956SOD     NA14438   1.440   3.854   8.928 -0.4011  0.3536 -0.4612
  957SOD     NA14439   1.104   1.446  10.007  0.9272  0.4597 -0.0390
  958SOD     NA14440   4.108   3.781   6.605 -0.2607 -0.1220  0.1408
  959SOD     NA14441   2.820   0.048  13.021 -0.2792  0.0481  0.6418
  960SOD     NA14442   0.582   2.739  14.655  0.5390 -0.5282  0.0172
  961SOD     NA14443   0.716   3.028   3.016 -0.0224  0.0814  0.1235
  962SOD     NA14444   2.176   1.294   9.603 -0.4571 -0.2600 -0.0353
  963SOD     NA14445   0.074   2.602  10.770 -0.4159  0.0784  0.3897
  964SOD     NA14446   2.490   3.806   2.359 -0.0873 -0.1959  0.2579
  965SOD     NA14447   1.950   3.770   3.872 -0.0829  0.2936 -0.6719
  966SOD     NA14448   2.137   2.024  14.422  0.3128 -0.2239  0.5473
  967SOD     NA14449   1.029   1.550   9.707 -0.4787  0.2930 -0.1737
  968SOD     NA14450   1.155   0.874   9.877 -0.1280  0.2716  0.2489
  969SOD     NA14451   1.901   2.072  11.414  0.3891  0.3995 -0.3238
  970SOD     NA14452   0.643   1.667  12.765 -0.1226  0.0261 -0.2338
  971SOD     NA14453   2.078   1.937  14.824 -0.0354 -0.6703 -0.0796
  972SOD     NA14454   1.468   2.449  11.145  0.0533 -0.7823  0.3531
  973SOD     NA14455   1.190   1.613   9.444 -0.3920  0.8726 -0.0043
  974SOD     NA14456   1.427   0.466  13.174 -0.0101  0.4920 -0.5639
  975SOD     NA14457   2.300   2.357   1.920 -0.2445 -0.1922  0.0101
  976SOD     NA14458   0.169   1.823  10.221 -0.0243  0.2952 -0.1517
  977SOD     NA14459   2.421   1.690  12.797 -0.0308  0.2508 -0.0603
  978SOD     NA14460   1.345   4.634   8.286  0.4754 -0.2970  0.0352
  979SOD     NA14461   2.835   2.307  13.297  0.0659 -0.1232  0.2131
  980SOD     NA14462   3.195   0.238  15.129 -0.6019 -0.0918  0.2712
  981SOD     NA14463   2.384   2.223   3.271 -0.4961 -0.0876 -0.7275
  982SOD     NA14464   4.196   0.881   1.656  0.2548  0.0934  0.4398
  983SOD     NA14465   2.377   1.944  14.224  0.6191  0.1305 -0.4071
  984SOD     NA14466   2.701   2.759  15.785  0.2008 -0.3097  0.8929
  985SOD     NA14467   0.441   3.519   1.755 -0.0463  0.2351  0.0928
  986SOD     NA14468   3.079   2.504   0.421  0.3890  0.3318 -0.3328
  987SOD     NA14469   0.231   4.568   6.337 -0.2899  0.0994  0.0866
  988SOD     NA14470   0.922   2.775  14.244  0.6325 -0.4866 -0.4748
  989SOD     NA14471   2.004   1.822  10.904  0.1576  0.1130  0.1816
  990SOD     NA14472   2.647   0.062   0.575  0.1942  0.1836  0.2106
  991SOD     NA14473   3.392   3.355  15.016 -0.0695 -0.1193  0.5789
  992SOD     NA14474   0.575   4.045  12.553  0.2036 -0.2853  0.3721
  993SOD     NA14475   1.812   1.307  10.905  0.2796 -0.1916 -0.1545
  994SOD     NA14476   2.805   2.461  11.430  0.2089 -0.4615 -0.1095
  995SOD     NA14477   2.620   3.262  13.771 -0.6539 -0.0269 -0.3218
  996SOD     NA14478   2.304   0.871  16.525  0.7177 -0.1631  0.1393
  997SOD     NA14479   0.944   1.611  10.744 -0.0544 -0.2776 -0.1064
  998SOD     NA14480   2.508   4.271   4.548  0.2329 -0.7017  0.2370
  999SOD     NA14481   2.478   3.807  11.131  0.0827  0.1757  0.2324
 1000SOD     NA14482   0.517   0.952  12.669  0.4944 -0.3777  0.5877
 1001SOD     NA14483   3.830   1.890  10.563  0.5941 -0.8649  0.1942
 1002SOD     NA14484   3.092   3.331  12.722 -0.3157 -0.3291 -0.2229
 1003SOD     NA14485   0.048   3.706   9.441 -0.0645 -0.2596 -0.0706
 1004SOD     NA14486   1.731   1.822  11.133 -0.1306  0.4784  0.1533
 1005SOD     NA14487   3.274   3.046  16.233 -0.2763 -0.0314  0.3041
 1006SOD     NA14488   1.730   1.523  11.153 -0.1253 -0.1925 -0.2221
 1007SOD     NA14489   2.195   3.046  11.524 -0.2143 -0.3557 -0.2807
 1008SOD     NA14490   2.287   1.781  16.718  0.0725  0.0961 -0.0227
 1009SOD     NA14491   1.352   3.644  16.005 -0.0595 -0.4566 -0.0030
 1010SOD     NA14492   2.782   0.990  17.453  0.1028  0.2858 -0.0103
 1011SOD     NA14493   4.351   1.399   0.235  0.3467 -0.1980  0.4426
 1012SOL     OW14494   4.670   3.210   4.729 -0.1242 -0.6331  0.1647
 1012SOL    HW114495   4.650   3.133   4.676  0.6024 -0.7987  0.1264
 1012SOL    HW214496   0.025   3.231   4.684 -0.5974  0.1279 -0.3345
 1013SOL     OW14497   4.523   3.492   6.472 -0.1787 -0.8324 -0.2704
 1013SOL    HW114498   4.609   3.533   6.479 -0.8377  0.6304 -0.6912
 1013SOL    HW214499   4.523   3.439   6.552  0.2797  2.2030  1.7575
 1014SOL     OW14500   4.571   2.910  17.680 -0.1570 -0.9215 -0.0825
 1014SOL    HW114501   4.580   2.816  17.698  0.1239 -0.5835  1.5442
 1014SOL    HW214502   4.581   2.897  17.586  0.2644  1.4157 -0.3489
 1015SOL     OW14503   4.248   2.692  14.151  0.2139 -0.3198 -0.3966
 1015SOL    HW114504   4.203   2.746  14.086  1.8208 -0.0713 -1.2725
 1015SOL    HW214505   4.254   2.611  14.100  0.0884 -0.3908 -0.3014
 1016SOL     OW14506   3.240   2.461   1.533 -0.3368 -0.2509 -0.2031
 1016SOL    HW114507   3.155   2.501   1.549 -0.6733 -2.0742  2.5236
 1016SOL    HW214508   3.219   2.368   1.535  0.0278 -0.3734 -1.8479
 1017SOL     OW14509   1.842   3.133   7.435  0.2338  0.5827  0.3343
 1017SOL    HW114510   1.786   3.204   7.464 -0.6815 -0.1164  0.2568
 1017SOL    HW214511   1.801   3.060   7.482  0.0377  0.5378  0.0890
 1018SOL     OW14512   2.814   3.811   2.725 -0.2618  0.8382  0.6106
 1018SOL    HW114513   2.786   3.869   2.654 -0.0925  2.4970  1.8923
 1018SOL    HW214514   2.873   3.873   2.768 -0.1823  0.4157  1.1079
 1019SOL     OW14515   3.957   4.251   0.761  0.3485  0.8898  0.5770
 1019SOL    HW114516   3.930   4.308   0.834  1.0106  1.2566  0.5282
 1019SOL    HW214517   3.993   4.313   0.698 -1.0790  2.1230  0.9675
 1020SOL     OW14518   1.961   3.423   6.076 -0.3494 -0.1433  0.0691
 1020SOL    HW114519   2.023   3.496   6.082 -0.0336 -0.5215  1.5618
 1020SOL    HW214520   1.950   3.403   6.169 -2.0541 -1.2571 -0.3719
 1021SOL     OW14521   0.653   1.501   4.767 -0.2338 -0.5302  0.3546
 1021SOL    HW114522   0.641   1.479   4.674  0.7002 -0.6332  0.2603
 1021SOL    HW214523   0.679   1.417   4.805 -0.8554 -0.6937  0.4224
 1022SOL     OW14524   1.815   0.359   6.609 -0.2941 -0.7796  0.6062
 1022SOL    HW114525   1.836   0.386   6.520  0.5483 -1.3503  0.6304
 1022SOL    HW214526   1.772   0.274   6.603 -1.0188 -0.4662  1.3998
 1023SOL     OW14527   1.374   1.784   9.752  0.1573 -0.4292  0.3301
 1023SOL    HW114528   1.463   1.819   9.744 -0.0858 -0.0137 -0.5471
 1023SOL    HW214529   1.335   1.817   9.671  0.4368  3.9920  2.0033
 1024SOL     OW14530   1.472   0.336   2.793 -0.3266  0.2036  0.1606
 1024SOL    HW114531   1.530   0.326   2.869  1.8614  3.5908 -1.0573
 1024SOL    HW214532   1.531   0.358   2.721 -0.8324  1.0508  0.0064
 1025SOL     OW14533   2.833   4.282  10.496  0.0444  0.4113 -0.1429
 1025SOL    HW114534   2.797   4.366  10.468 -0.3824  0.0027 -0.8075
 1025SOL    HW214535   2.762   4.224  10.468  1.1363 -1.2951  0.5842
 1026SOL     OW14536   1.014   0.224   7.387 -0.0792  0.0163  0.0099
 1026SOL    HW114537   0.940   0.271   7.350 -2.2012 -2.3763  1.2291
 1026SOL    HW214538   0.978   0.136   7.395  2.1192 -1.0362 -1.5135
 1027SOL     OW14539   0.270   0.709  14.392  0.2509  0.3456 -0.2408
 1027SOL    HW114540   0.256   0.642  14.459  1.2596  0.8708  0.4887
 1027SOL    HW214541   0.301   0.654  14.320  0.1174  1.3575 -1.0785
 1028SOL     OW14542   2.186   0.303   5.010  0.1387 -0.6383  0.0583
 1028SOL    HW114543   2.214   0.314   5.101  0.5047  0.1781 -0.1579
 1028SOL    HW214544   2.126   0.377   5.009  0.4384 -0.3963  0.0775
 1029SOL     OW14545   0.373   0.327   6.103 -0.0675  0.5605 -0.3608
 1029SOL    HW114546   0.444   0.391   6.112  0.7331 -0.3768  0.0086
 1029SOL    HW214547   0.339   0.337   6.014 -0.0228 -2.5506 -0.7442
 1030SOL     OW14548   1.676   1.710   2.489 -0.6347  0.0625  0.7260
 1030SOL    HW114549   1.744   1.643   2.482  0.8565  1.6083  0.5117
 1030SOL    HW214550   1.735   1.784   2.503 -0.8914  0.5581 -0.8723
 1031SOL     OW14551   2.550   1.512  12.706 -0.1722  0.0743 -0.3268
 1031SOL    HW114552   2.498   1.442  12.745  2.2216 -1.0984  0.7409
 1031SOL    HW214553   2.632   1.505  12.755 -1.1666 -1.5066  1.0937
 1032SOL     OW14554   3.548   3.384   2.865  0.5773 -0.2016  0.2460
 1032SOL    HW114555   3.517   3.415   2.780 -0.4308  0.4259  0.8550
 1032SOL    HW214556   3.490   3.310   2.880  0.9126 -0.4358  0.4076
 1033SOL     OW14557   2.630   4.088  14.090  0.1989  0.2949  0.4984
 1033SOL    HW114558   2.723   4.112  14.091  0.1492  0.5418 -1.4193
 1033SOL    HW214559   2.587   4.173  14.101  0.0295  0.5651 -2.1521
 1034SOL     OW14560   4.147   3.501   6.326 -0.3392  0.2131  0.3053
 1034SOL    HW114561   4.056   3.474   6.337 -0.5792  1.0174  0.3028
 1034SOL    HW214562   4.189   3.425   6.366 -1.6318 -0.7303 -0.1322
 1035SOL     OW14563   3.463   3.270  13.194 -0.4264  0.2595 -0.1156
 1035SOL    HW114564   3.383   3.289  13.146 -1.6436  0.9943  2.1835
 1035SOL    HW214565   3.484   3.179  13.173 -0.7709  0.4825 -1.4223
 1036SOL     OW14566   4.340   4.186   2.977 -0.0983 -0.0642 -0.0166
 1036SOL    HW114567   4.276   4.256   2.968  1.0256  1.0171  0.3471
 1036SOL    HW214568   4.345   4.164   3.070 -0.2579 -1.7880 -0.4134
 1037SOL     OW14569   4.570   2.547   5.188 -0.0020  0.1448 -0.5043
 1037SOL    HW114570   4.622   2.532   5.108 -1.8385 -0.7823 -1.5240
 1037SOL    HW214571   4.482   2.515   5.167 -0.0797 -1.3092  2.0365
 1038SOL     OW14572   4.630   3.998   9.480  0.0575 -0.2304 -0.6380
 1038SOL    HW114573   4.622   3.949   9.398 -2.5949  0.5653 -0.8697
 1038SOL    HW214574   4.687   3.940   9.531 -3.4189 -1.6056  1.6773
 1039SOL     OW14575   3.895   2.814   2.144 -0.5142  0.9485 -0.0116
 1039SOL    HW114576   3.829   2.790   2.209  0.5177 -0.4156  0.5444
 1039SOL    HW214577   3.971   2.778   2.190 -1.8851 -1.8975  0.0642
 1040SOL     OW14578   1.188   3.577   2.530  0.1334  1.1843 -0.1558
 1040SOL    HW114579   1.190   3.668   2.560  1.1418  1.6219 -1.5007
 1040SOL    HW214580   1.140   3.585   2.448  2.2856 -0.2741 -1.5771
 1041SOL     OW14581   1.057   0.140   1.201  0.0222  0.0446 -0.6462
 1041SOL    HW114582   1.023   0.055   1.230  2.3809 -0.4232  0.7359
 1041SOL    HW214583   1.009   0.207   1.249  3.1754  0.8615  1.3404
 1042SOL     OW14584   3.661   0.625   7.857  0.2584 -0.5024  0.5556
 1042SOL    HW114585   3.718   0.684   7.907 -2.1492  1.2947  1.1290
 1042SOL    HW214586   3.574   0.660   7.873  0.2369  0.1542 -1.0197
 1043SOL     OW14587   1.488   0.920   2.119  0.3885  0.2324  0.5196
 1043SOL    HW114588   1.551   0.848   2.127  1.4874  0.9038 -2.0140
 1043SOL    HW214589   1.463   0.908   2.027  1.7286 -0.2068  0.2143
 1044SOL     OW14590   1.588   3.236   2.532  0.6799 -0.0343  0.4096
 1044SOL    HW114591   1.620   3.284   2.456 -1.5155 -1.0524 -1.1285
 1044SOL    HW214592   1.503   3.278   2.530 -0.2820 -2.0434 -0.8205
 1045SOL     OW14593   4.296   0.075   9.641 -0.0098  0.0452  0.2420
 1045SOL    HW114594   4.356   0.147   9.660  0.4135  0.1339 -1.4276
 1045SOL    HW214595   4.325   0.036   9.558 -2.7007 -1.4185 -0.0028
 1046SOL     OW14596   2.618   2.164   7.049 -0.0083  0.3263  0.1993
 1046SOL    HW114597   2.709   2.147   7.073 -0.6365 -2.2995  0.6823
 1046SOL    HW214598   2.613   2.244   6.996  0.2973  0.8427  0.9513
 1047SOL     OW14599   2.305   2.312   4.152  0.5214  0.3240  0.0708
 1047SOL    HW114600   2.318   2.232   4.203 -1.0116  1.4820  2.2661
 1047SOL    HW214601   2.321   2.282   4.063  2.7497 -0.7491  0.8093
 1048SOL     OW14602   3.978   4.255   1.153 -0.3228  0.5165  0.0177
 1048SOL    HW114603   3.959   4.284   1.064 -2.9229 -0.6849  0.1731
 1048SOL    HW214604   4.070   4.233   1.140  0.0884  1.5611  1.2098
 1049SOL     OW14605   0.197   3.736   6.770  0.2837  0.5033 -0.4623
 1049SOL    HW114606   0.128   3.723   6.835  0.9234  2.1976  0.5560
 1049SOL    HW214607   0.199   3.828   6.742 -0.1852  0.4706 -0.5968
 1050SOL     OW14608   4.626   1.513   7.933 -0.0031 -0.3672 -0.4807
 1050SOL    HW114609   4.576   1.445   7.978  0.8464  1.1569  2.7724
 1050SOL    HW214610   4.633   1.582   7.999 -0.4084 -0.9749  0.2050
 1051SOL     OW14611   3.780   2.268  10.771 -0.0922 -0.1071  0.9415
 1051SOL    HW114612   3.836   2.344  10.786 -0.0851 -0.2471  1.6543
 1051SOL    HW214613   3.751   2.248  10.860 -3.7156 -0.9412 -0.4295
 1052SOL     OW14614   0.297   0.121  14.678 -0.0592  0.0496 -0.7533
 1052SOL    HW114615   0.351   0.045  14.699 -3.4526 -1.9602  0.7751
 1052SOL    HW214616   0.225   0.117  14.742 -0.7420 -2.1488 -1.6515
 1053SOL     OW14617   4.677   3.484  12.717  0.5965 -0.3995 -0.3981
 1053SOL    HW114618   0.006   3.515  12.646  0.8710 -1.3823 -0.6168
 1053SOL    HW214619   4.686   3.558  12.777  1.2091  0.0314 -1.0146
 1054SOL     OW14620   1.028   2.712   4.521 -0.3453  0.4539  0.0728
 1054SOL    HW114621   0.991   2.746   4.603  1.2120  1.6142  0.2971
 1054SOL    HW214622   1.108   2.761   4.500 -0.0635  0.1453  0.4169
 1055SOL     OW14623   3.982   3.533  12.083  0.3558 -0.1534  0.3790
 1055SOL    HW114624   4.035   3.468  12.037 -0.4887 -0.1856 -0.5588
 1055SOL    HW214625   3.911   3.476  12.114  0.5018 -1.9095 -2.4776
 1056SOL     OW14626   1.567   3.427   6.042  0.1173 -0.2062  0.0950
 1056SOL    HW114627   1.595   3.349   5.994  1.1082 -2.3702  4.1300
 1056SOL    HW214628   1.474   3.405   6.056 -0.3219  0.8275 -1.3071
 1057SOL     OW14629   4.035   0.173   7.107  0.3727 -0.2132  0.1026
 1057SOL    HW114630   4.028   0.262   7.141  1.9856  0.7433 -2.0578
 1057SOL    HW214631   3.975   0.120   7.160 -0.7806 -1.4428 -2.4328
 1058SOL     OW14632   1.594   1.722  11.479 -0.1213  0.1520 -0.6436
 1058SOL    HW114633   1.602   1.721  11.384  1.4137 -0.7636 -0.4974
 1058SOL    HW214634   1.532   1.794  11.491  1.0019  0.6107  2.4706
 1059SOL     OW14635   0.714   0.346   2.611  0.3972 -0.5827 -0.3818
 1059SOL    HW114636   0.682   0.421   2.562  0.0802 -0.0108  0.6825
 1059SOL    HW214637   0.807   0.359   2.627 -0.0138  2.0567 -0.0898
 1060SOL     OW14638   2.056   2.813  17.599 -0.3712 -0.6804  0.3953
 1060SOL    HW114639   2.030   2.905  17.597 -1.5170 -0.9801  1.6851
 1060SOL    HW214640   2.117   2.820  17.672  0.2851  0.6952 -0.2942
 1061SOL     OW14641   2.264   1.713   3.432  0.2038 -0.1887  0.2479
 1061SOL    HW114642   2.234   1.624   3.416 -1.5787  0.8196 -2.0758
 1061SOL    HW214643   2.357   1.694   3.434  0.6884  1.9847 -1.0701
 1062SOL     OW14644   3.958   2.690  16.448  0.2753  0.5946 -0.0568
 1062SOL    HW114645   3.892   2.754  16.475  0.0358 -0.2469  1.3549
 1062SOL    HW214646   3.909   2.633  16.388 -1.5412  1.3969  0.6653
 1063SOL     OW14647   0.915   3.990   5.900  0.3323 -0.4532 -0.1592
 1063SOL    HW114648   0.864   3.949   5.831  2.1296 -0.1178 -1.6710
 1063SOL    HW214649   0.844   3.978   5.964  0.8930  2.3723  1.0044
 1064SOL     OW14650   2.790   0.581  17.407  0.1337  0.2412 -0.4015
 1064SOL    HW114651   2.795   0.549  17.317 -0.2532 -0.6726 -0.0970
 1064SOL    HW214652   2.807   0.505  17.463  3.1365  2.0305  1.1171
 1065SOL     OW14653   3.565   4.025   1.927 -0.2019 -0.0018  0.2058
 1065SOL    HW114654   3.512   4.103   1.911  2.6676  2.1200  1.1213
 1065SOL    HW214655   3.601   4.011   1.839  0.9220 -0.2749  0.7110
 1066SOL     OW14656   4.474   1.545   5.325 -0.2843 -0.3441  0.4260
 1066SOL    HW114657   4.460   1.455   5.354  2.5031 -0.4545  1.4272
 1066SOL    HW214658   4.385   1.573   5.303  0.4258  0.5286 -1.3218
 1067SOL     OW14659   2.192   4.226   1.175 -0.2654 -0.3007  0.0922
 1067SOL    HW114660   2.120   4.179   1.218  1.4468 -2.4567  0.5949
 1067SOL    HW214661   2.273   4.177   1.184 -0.4066 -0.6246 -0.4368
 1068SOL     OW14662   4.493   4.343  12.262  0.2667 -0.0270 -0.2961
 1068SOL    HW114663   4.570   4.389  12.295 -1.6548  1.8042  1.6831
 1068SOL    HW214664   4.453   4.408  12.204 -1.2807 -1.3252 -0.6759
 1069SOL     OW14665   4.550   1.137  13.340 -0.2722  0.4459  0.2857
 1069SOL    HW114666   4.528   1.122  13.248  0.2105 -0.9941  0.4007
 1069SOL    HW214667   4.464   1.150  13.381 -0.8089 -0.9055 -0.3977
 1070SOL     OW14668   1.399   4.057   9.035  0.3255  0.2570  0.2156
 1070SOL    HW114669   1.469   4.118   9.059  0.3798  0.9765 -1.7435
 1070SOL    HW214670   1.332   4.072   9.102  0.2446  2.1865 -0.2923
 1071SOL     OW14671   3.713   0.537   5.220  0.0591  0.0195 -0.3594
 1071SOL    HW114672   3.687   0.459   5.171  0.7199 -0.3022 -0.1855
 1071SOL    HW214673   3.787   0.571   5.170  0.0087  0.2007 -0.3113
 1072SOL     OW14674   0.730   1.859   1.891  0.1657  0.4153 -0.7055
 1072SOL    HW114675   0.743   1.941   1.843  1.3818 -0.1765 -1.4033
 1072SOL    HW214676   0.818   1.821   1.895 -0.1809 -0.1628  1.4089
 1073SOL     OW14677   1.793   4.301   4.389 -0.3147  0.2720  0.3755
 1073SOL    HW114678   1.730   4.296   4.317  1.5053 -0.3461 -1.1469
 1073SOL    HW214679   1.783   4.394   4.405  2.2797  0.6981 -0.5139
 1074SOL     OW14680   0.552   1.192   2.169  0.5065 -0.2994 -0.7374
 1074SOL    HW114681   0.473   1.242   2.152 -0.6248 -2.0772 -0.6685
 1074SOL    HW214682   0.628   1.249   2.153  0.2315  0.3436  0.2551
 1075SOL     OW14683   1.889   3.276   2.320 -0.4257 -0.0101 -0.5978
 1075SOL    HW114684   1.963   3.254   2.263 -1.4937  0.1629 -2.0293
 1075SOL    HW214685   1.882   3.371   2.322  0.2325  0.0205  0.1598
 1076SOL     OW14686   4.043   4.571   4.682 -0.3614  0.0651 -0.9164
 1076SOL    HW114687   4.023   4.620   4.763  2.1103  0.7199 -0.6748
 1076SOL    HW214688   3.970   4.592   4.624 -1.2005 -0.8242 -0.1713
 1077SOL     OW14689   2.778   2.351   6.211  0.2183  0.1857  0.5082
 1077SOL    HW114690   2.686   2.326   6.214  1.1118 -3.2444 -1.8100
 1077SOL    HW214691   2.814   2.300   6.283 -0.2777  0.2182  0.7857
 1078SOL     OW14692   1.221   0.313   4.479  0.9108  0.4437 -0.1000
 1078SOL    HW114693   1.151   0.378   4.487  0.4320  0.0098 -0.6627
 1078SOL    HW214694   1.178   0.252   4.418  0.9189  0.9094 -0.5793
 1079SOL     OW14695   3.930   0.389   2.332 -0.3344 -0.3460  0.9237
 1079SOL    HW114696   3.856   0.333   2.308  0.9375 -1.6474  0.0414
 1079SOL    HW214697   3.886   0.467   2.366 -0.8173 -0.3982  0.4144
 1080SOL     OW14698   0.871   2.179  11.986 -0.8580 -0.5095  0.2697
 1080SOL    HW114699   0.823   2.191  11.904 -1.2700  1.1340  0.7427
 1080SOL    HW214700   0.829   2.239  12.048  1.0766  0.9732  0.1691
 1081SOL     OW14701   3.503   0.834   5.477 -0.7721  0.6502 -0.4573
 1081SOL    HW114702   3.550   0.888   5.541  1.3176 -0.3220 -1.1832
 1081SOL    HW214703   3.472   0.762   5.532 -0.3898 -0.5016 -1.7457
 1082SOL     OW14704   0.900   0.168  15.617  0.1089 -0.5913  0.0115
 1082SOL    HW114705   0.983   0.127  15.643  1.3276  1.8775  0.0008
 1082SOL    HW214706   0.897   0.239  15.681  2.2574  0.3400 -0.9217
 1083SOL     OW14707   0.282   2.209  10.035 -0.1788  0.0102 -0.1536
 1083SOL    HW114708   0.280   2.114  10.024  1.6618 -0.1226  0.6736
 1083SOL    HW214709   0.220   2.234   9.967  2.0717 -3.1402 -3.3510
 1084SOL     OW14710   4.355   3.905   7.154 -0.6201 -0.0840  0.4584
 1084SOL    HW114711   4.310   3.955   7.222 -0.8026  1.3807 -0.7238
 1084SOL    HW214712   4.298   3.920   7.078  1.3050 -2.8849 -1.5363
 1085SOL     OW14713   4.647   3.066   8.409 -0.5791  0.0866 -0.1124
 1085SOL    HW114714   4.690   2.996   8.359  0.2622 -0.0013  0.7358
 1085SOL    HW214715   4.623   3.022   8.490  0.5312 -1.1416 -0.4595
 1086SOL     OW14716   2.201   3.545  10.783 -0.3013 -0.7579 -0.2941
 1086SOL    HW114717   2.193   3.450  10.787  1.7087 -1.0441 -3.0014
 1086SOL    HW214718   2.119   3.573  10.824 -0.8918 -1.8783 -0.7244
 1087SOL     OW14719   3.907   1.223  16.772 -0.1613  0.0256 -0.2433
 1087SOL    HW114720   3.860   1.250  16.693 -1.9866 -0.1272  0.7798
 1087SOL    HW214721   3.869   1.288  16.832 -0.0035 -0.6254  0.5490
 1088SOL     OW14722   4.105   1.315   4.387 -0.3579 -0.4287 -0.3126
 1088SOL    HW114723   4.031   1.291   4.331 -2.5821 -0.0365  2.4842
 1088SOL    HW214724   4.109   1.407   4.359  0.9219 -0.6529 -0.8759
 1089SOL     OW14725   1.914   4.399   0.023 -0.1096 -0.3735 -0.4032
 1089SOL    HW114726   1.881   4.311   0.041  0.3706 -0.1372  1.7183
 1089SOL    HW214727   1.885   4.413  17.641 -0.7324  0.6034 -0.0437
 1090SOL     OW14728   0.457   1.530  12.798 -0.0525 -0.3401  0.6333
 1090SOL    HW114729   0.380   1.572  12.760 -0.3258 -1.9777 -0.6225
 1090SOL    HW214730   0.445   1.525  12.893 -0.7106 -1.9924  0.4635
 1091SOL     OW14731   1.408   2.296   3.580  0.3285 -0.0939  0.1023
 1091SOL    HW114732   1.410   2.342   3.664  1.7545  1.6705 -0.8777
 1091SOL    HW214733   1.428   2.360   3.512  1.9382  1.2997  1.8810
 1092SOL     OW14734   1.757   1.403   3.203 -0.2599  0.3916 -0.3022
 1092SOL    HW114735   1.692   1.339   3.233 -0.9150  1.0750 -0.2406
 1092SOL    HW214736   1.731   1.434   3.116  2.9688  0.4818 -1.2063
 1093SOL     OW14737   1.963   4.074  14.994 -0.1350 -0.0613  0.1929
 1093SOL    HW114738   2.044   4.060  15.043  0.3737  1.3950 -0.2276
 1093SOL    HW214739   2.000   4.115  14.916  2.1247 -1.3498  0.5687
 1094SOL     OW14740   3.401   0.978  12.456 -0.3024 -0.2996  0.1693
 1094SOL    HW114741   3.319   0.929  12.449 -0.1504 -0.8560  2.2630
 1094SOL    HW214742   3.425   0.950  12.544  1.8556  1.7041  0.2171
 1095SOL     OW14743   3.583   1.238   9.036 -0.4370 -0.0026 -0.2933
 1095SOL    HW114744   3.512   1.206   9.091 -0.9244  5.1238  2.0107
 1095SOL    HW214745   3.656   1.260   9.095 -0.6377  1.6042 -0.6442
 1096SOL     OW14746   2.503   3.299   5.414 -0.1214  0.1268 -0.3311
 1096SOL    HW114747   2.442   3.301   5.340  0.6539 -0.6327 -0.9738
 1096SOL    HW214748   2.536   3.210   5.422  0.6675  0.6081  1.6733
 1097SOL     OW14749   3.610   2.621  13.485  0.0524  0.2828  0.4583
 1097SOL    HW114750   3.522   2.625  13.523  0.3911 -0.4830  1.3224
 1097SOL    HW214751   3.643   2.706  13.512  1.1127 -0.7929  2.5800
 1098SOL     OW14752   2.862   1.159   4.101 -0.0044  0.0394  0.3460
 1098SOL    HW114753   2.769   1.180   4.112 -0.6645 -1.0336 -3.0689
 1098SOL    HW214754   2.890   1.244   4.067  2.0906 -0.3469  1.1490
 1099SOL     OW14755   3.464   1.947   8.377 -0.4188 -0.4746  0.6195
 1099SOL    HW114756   3.456   1.934   8.471  1.0992 -0.3593  0.7600
 1099SOL    HW214757   3.376   1.929   8.344 -0.8292  0.6088  1.1627
 1100SOL     OW14758   0.024   0.309   3.243  0.0123  0.5130 -0.4787
 1100SOL    HW114759   0.048   0.392   3.201 -2.9272  1.4611 -0.3175
 1100SOL    HW214760   4.718   0.346   3.325  2.1281  1.1865  0.0477
 1101SOL     OW14761   3.797   0.167   0.650 -0.1956  0.3845 -0.0604
 1101SOL    HW114762   3.767   0.085   0.612 -1.5156  1.5393 -1.4799
 1101SOL    HW214763   3.851   0.208   0.582 -1.9266  1.4586 -0.7650
 1102SOL     OW14764   4.301   1.416   1.051  0.0749  0.6991 -0.7879
 1102SOL    HW114765   4.391   1.382   1.054 -1.0767 -2.2121 -0.4265
 1102SOL    HW214766   4.255   1.335   1.071 -1.2791  2.2127  2.2753
 1103SOL     OW14767   2.221   1.692   0.226  0.0245  0.2888 -0.3431
 1103SOL    HW114768   2.241   1.666   0.316 -1.3814  0.2380 -0.0555
 1103SOL    HW214769   2.175   1.774   0.243 -1.2003 -0.0322 -2.1063
 1104SOL     OW14770   4.701   0.635  16.530  0.3260  0.0919 -0.0058
 1104SOL    HW114771   4.671   0.723  16.553 -1.4491 -0.7963  1.1520
 1104SOL    HW214772   4.615   0.596  16.514  0.0980 -0.1882  1.8672
 1105SOL     OW14773   2.464   0.614   5.683 -0.2882 -0.4717 -0.3371
 1105SOL    HW114774   2.509   0.625   5.767  0.1912  0.6236 -0.7370
 1105SOL    HW214775   2.421   0.529   5.686 -0.8758 -0.2081 -1.2551
 1106SOL     OW14776   1.423   2.605  17.584  0.1992  0.2191  0.2464
 1106SOL    HW114777   1.361   2.677  17.584 -0.2332 -0.1630  1.6464
 1106SOL    HW214778   1.382   2.549  17.518  0.9148 -1.2099  0.9868
 1107SOL     OW14779   2.965   2.310   6.934 -0.0870  0.0943 -0.5196
 1107SOL    HW114780   2.917   2.325   7.015  1.0093  1.1516 -0.0838
 1107SOL    HW214781   3.001   2.223   6.950  1.2509  1.2948  2.9220
 1108SOL     OW14782   1.428   1.979   3.310 -0.3006 -0.3989 -0.3760
 1108SOL    HW114783   1.459   2.017   3.392 -1.8790  1.0490 -0.4562
 1108SOL    HW214784   1.379   1.901   3.339 -0.0384  0.3255  2.0210
 1109SOL     OW14785   0.594   1.881  13.238 -0.2379 -0.2825  0.0911
 1109SOL    HW114786   0.611   1.788  13.222  0.2941  0.2556 -2.4336
 1109SOL    HW214787   0.579   1.914  13.149 -0.5809  1.0981  0.6793
 1110SOL     OW14788   0.061   2.717   4.182 -0.3185 -0.0114 -0.1506
 1110SOL    HW114789   4.720   2.762   4.233  0.1039  2.0974 -1.4266
 1110SOL    HW214790   0.012   2.653   4.130 -0.8670  0.8145 -0.6665
 1111SOL     OW14791   1.468   3.356  17.264  0.9983 -0.1519  0.0289
 1111SOL    HW114792   1.522   3.422  17.221 -0.2814  1.4348  0.8916
 1111SOL    HW214793   1.388   3.364  17.213  1.4058  4.5253  0.1101
 1112SOL     OW14794   1.173   0.625   8.759  0.4304 -0.5490  0.3172
 1112SOL    HW114795   1.140   0.689   8.823  0.9490  0.9586 -0.9300
 1112SOL    HW214796   1.155   0.541   8.802 -0.7077  0.7809  2.4279
 1113SOL     OW14797   0.131   1.447   5.704  0.1458  0.7292  0.4168
 1113SOL    HW114798   0.205   1.401   5.744 -0.9649 -0.6375  0.8991
 1113SOL    HW214799   0.068   1.377   5.691 -0.3302  1.3576 -0.5767
 1114SOL     OW14800   2.381   1.854   8.405  0.4252  0.1189  0.4696
 1114SOL    HW114801   2.336   1.815   8.479  3.0278 -1.0953  1.4084
 1114SOL    HW214802   2.355   1.946   8.410  1.4733  0.4489  0.1108
 1115SOL     OW14803   1.309   3.884  16.007 -0.2948 -0.0739 -0.7909
 1115SOL    HW114804   1.252   3.912  15.936 -1.1495 -0.9740 -0.4562
 1115SOL    HW214805   1.320   3.965  16.058 -0.6329  0.9277 -2.3138
 1116SOL     OW14806   2.414   3.911   6.491 -0.0306 -0.1929 -0.1418
 1116SOL    HW114807   2.497   3.907   6.539  0.2596 -0.7320 -0.6903
 1116SOL    HW214808   2.368   3.852   6.551 -1.2831  0.2642 -0.6614
 1117SOL     OW14809   2.272   1.445   5.186 -0.4615  0.0204 -0.4580
 1117SOL    HW114810   2.251   1.512   5.251 -0.5850 -1.7397  1.2902
 1117SOL    HW214811   2.367   1.441   5.199 -0.7506 -0.7978  1.3910
 1118SOL     OW14812   0.217   1.601   5.382 -0.4148 -0.1336 -0.1999
 1118SOL    HW114813   0.162   1.672   5.349  0.0890  0.2869 -0.1385
 1118SOL    HW214814   0.149   1.536   5.397 -0.3909 -0.1020  0.0506
 1119SOL     OW14815   1.258   2.055   9.437 -0.3525  0.6346  0.0579
 1119SOL    HW114816   1.204   2.036   9.514 -1.0283  0.8152 -0.3702
 1119SOL    HW214817   1.266   2.150   9.440  1.2454  0.4496  1.7083
 1120SOL     OW14818   3.592   0.107   8.965  0.3269  0.5712  0.3556
 1120SOL    HW114819   3.551   0.056   9.035 -0.2931  0.7936  0.1560
 1120SOL    HW214820   3.657   0.048   8.926  0.5100  0.6350  0.5601
 1121SOL     OW14821   0.353   2.832   7.529 -0.3349  0.3422  0.1683
 1121SOL    HW114822   0.433   2.798   7.569  0.4643  1.1411 -0.7419
 1121SOL    HW214823   0.297   2.758   7.553  1.2061 -0.6425  0.7414
 1122SOL     OW14824   4.370   2.890  15.180  0.5322  0.2413  0.2358
 1122SOL    HW114825   4.439   2.942  15.220  2.5606 -0.5498 -2.2098
 1122SOL    HW214826   4.415   2.837  15.114 -0.5927  0.7784 -0.9633
 1123SOL     OW14827   0.733   0.230   2.859 -0.2913  0.0772 -0.2494
 1123SOL    HW114828   0.731   0.292   2.787  2.0581 -0.1369 -0.5115
 1123SOL    HW214829   0.779   0.152   2.827  0.8121  0.6420 -0.0581
 1124SOL     OW14830   0.026   4.088   1.004 -0.1432 -0.8050 -0.1532
 1124SOL    HW114831   0.098   4.048   0.956  0.0066  0.9972 -1.4282
 1124SOL    HW214832   0.029   4.175   0.965 -0.3135 -0.8014 -0.1605
 1125SOL     OW14833   2.271   1.603   9.881  0.1027 -0.5288 -0.2131
 1125SOL    HW114834   2.325   1.621   9.804 -0.7907 -2.0933 -1.1693
 1125SOL    HW214835   2.289   1.681   9.934 -2.2661  1.0702 -1.7804
 1126SOL     OW14836   0.652   4.413   8.096  0.7602  0.3124  0.6086
 1126SOL    HW114837   0.708   4.440   8.023  0.7316 -1.0691  0.0828
 1126SOL    HW214838   0.567   4.409   8.052  0.9915 -0.3694  0.2252
 1127SOL     OW14839   2.352   1.660   6.216  0.2620 -0.5436 -0.0593
 1127SOL    HW114840   2.383   1.729   6.275  0.9537 -2.4026  1.7203
 1127SOL    HW214841   2.357   1.587   6.277  1.3727 -0.6630 -0.3003
 1128SOL     OW14842   0.397   2.129   3.141  0.2023  0.0954  0.3645
 1128SOL    HW114843   0.388   2.204   3.082  4.2022  0.9217  0.7917
 1128SOL    HW214844   0.310   2.097   3.167  0.3225 -0.4829  0.0450
 1129SOL     OW14845   3.863   0.006  13.386  0.4878 -0.3862 -0.4746
 1129SOL    HW114846   3.881   4.651  13.339  1.4771 -0.6455  0.3423
 1129SOL    HW214847   3.819   4.703  13.465 -1.1833 -0.2322 -1.3512
 1130SOL     OW14848   1.369   0.109   7.166 -0.3185 -0.2765  0.0636
 1130SOL    HW114849   1.335   0.155   7.243 -0.6667 -2.9891  1.5165
 1130SOL    HW214850   1.348   0.018   7.188 -0.2405 -0.0126  1.2366
 1131SOL     OW14851   1.920   1.528   0.380 -0.0959 -0.4583  1.2926
 1131SOL    HW114852   2.006   1.491   0.403  1.7312  2.3994 -1.0527
 1131SOL    HW214853   1.912   1.496   0.290 -1.2164  0.1663  1.1743
 1132SOL     OW14854   0.403   3.832   0.210 -0.5370 -0.1781 -0.0042
 1132SOL    HW114855   0.439   3.913   0.247 -2.6444  0.4579  0.6296
 1132SOL    HW214856   0.359   3.799   0.287 -0.3272  0.6763  0.4864
 1133SOL     OW14857   0.452   2.515   4.519 -0.8057  0.2360 -0.4499
 1133SOL    HW114858   0.473   2.423   4.535  1.0127  0.3775 -2.0439
 1133SOL    HW214859   0.392   2.511   4.444 -1.5622 -0.3923  0.1827
 1134SOL     OW14860   4.304   0.125   3.653  0.0662  0.7460  0.1813
 1134SOL    HW114861   4.354   0.047   3.629 -0.4356  0.7618 -0.9133
 1134SOL    HW214862   4.215   0.103   3.679 -0.1686  2.6576  0.9968
 1135SOL     OW14863   0.778   2.060   1.722  0.4738  0.3292 -0.0155
 1135SOL    HW114864   0.852   2.017   1.680  0.2602 -0.9049  0.8820
 1135SOL    HW214865   0.820   2.137   1.761  0.6515  0.7762 -1.0616
 1136SOL     OW14866   4.143   1.949   6.080 -0.0519 -0.3885  0.1276
 1136SOL    HW114867   4.212   1.983   6.024 -0.2586 -1.9615 -1.0731
 1136SOL    HW214868   4.074   2.016   6.073  1.4277  1.1872  0.6719
 1137SOL     OW14869   0.019   1.207   3.673  0.0792  0.0348  0.5212
 1137SOL    HW114870   4.701   1.245   3.749  0.9040  2.8955 -0.4247
 1137SOL    HW214871   0.048   1.123   3.709  0.3515  0.6465  1.7278
 1138SOL     OW14872   4.070   1.358  14.513  0.1743 -0.0202  0.1902
 1138SOL    HW114873   4.139   1.317  14.566  1.7537  0.2294 -1.6623
 1138SOL    HW214874   4.009   1.388  14.580  0.1470 -3.6129  1.7521
 1139SOL     OW14875   1.387   4.576   3.530  0.2660 -0.0358 -0.4825
 1139SOL    HW114876   1.363   4.638   3.462  3.0588  0.4963 -0.9966
 1139SOL    HW214877   1.436   4.631   3.591 -0.3020  2.2802 -2.1198
 1140SOL     OW14878   4.377   1.849  10.821  0.6344 -0.4879  0.6525
 1140SOL    HW114879   4.435   1.788  10.866  1.0694 -0.0135  0.7325
 1140SOL    HW214880   4.309   1.853  10.888 -2.6216  0.9946 -2.8009
 1141SOL     OW14881   0.833   2.791   4.761 -0.0128 -0.1920 -0.1386
 1141SOL    HW114882   0.826   2.816   4.853  2.8219 -0.0126  0.0262
 1141SOL    HW214883   0.827   2.878   4.721  1.0672  0.1626  0.4459
 1142SOL     OW14884   4.490   0.531  10.731 -0.1292 -0.2251 -0.4615
 1142SOL    HW114885   4.541   0.575  10.798 -0.1921 -0.7026 -0.1050
 1142SOL    HW214886   4.514   0.572  10.648  2.4131 -0.9842 -0.0782
 1143SOL     OW14887   0.604   3.702   2.012  0.0763  0.2394  0.1208
 1143SOL    HW114888   0.652   3.746   1.941 -1.6441  1.7701 -0.0998
 1143SOL    HW214889   0.674   3.690   2.076 -0.5290  0.1067  0.7483
 1144SOL     OW14890   2.768   1.320   3.385 -0.1737 -0.0487  0.2726
 1144SOL    HW114891   2.828   1.246   3.394 -0.0277  0.0658  0.2473
 1144SOL    HW214892   2.824   1.369   3.324  2.2620 -1.0794  1.6736
 1145SOL     OW14893   0.159   0.579   7.068 -0.1190  0.4898  0.7317
 1145SOL    HW114894   0.086   0.518   7.082 -0.0593  0.6579  1.7967
 1145SOL    HW214895   0.223   0.540   7.128 -0.0675 -0.0251  0.3432
 1146SOL     OW14896   0.833   1.012  14.168  0.2247  0.4637 -0.5377
 1146SOL    HW114897   0.901   1.015  14.236 -0.5039  2.9045  0.0689
 1146SOL    HW214898   0.772   0.964  14.224  1.1064  0.3306  0.3117
 1147SOL     OW14899   3.995   0.792   9.147 -0.1938  0.0888 -0.8063
 1147SOL    HW114900   4.052   0.724   9.112 -0.4751 -1.4056  1.6537
 1147SOL    HW214901   3.940   0.741   9.207 -1.8616  1.2955 -1.3075
 1148SOL     OW14902   3.808   0.288   4.456 -0.1057 -0.7374 -0.5109
 1148SOL    HW114903   3.893   0.262   4.422 -0.6131  0.7821 -2.8951
 1148SOL    HW214904   3.784   0.337   4.377 -1.4649  2.6230  1.9508
 1149SOL     OW14905   2.625   2.816   8.875 -0.1992 -0.0951  0.1267
 1149SOL    HW114906   2.701   2.820   8.932 -0.2377  2.6999 -0.0486
 1149SOL    HW214907   2.562   2.773   8.933  0.4768 -0.8775  0.2766
 1150SOL     OW14908   2.290   3.899  10.114  0.0486  0.1240  0.0511
 1150SOL    HW114909   2.254   3.811  10.111  0.3862  0.0097 -0.6267
 1150SOL    HW214910   2.261   3.941  10.033  3.1410 -1.2875 -1.7731
 1151SOL     OW14911   1.796   0.030   4.747  0.4900 -0.4052  0.0873
 1151SOL    HW114912   1.749   0.111   4.727 -0.6993 -1.0561  0.2469
 1151SOL    HW214913   1.869   0.071   4.792 -0.1211  1.3696 -0.5024
 1152SOL     OW14914   0.900   4.491   4.036 -0.0001 -0.0424 -1.1080
 1152SOL    HW114915   0.819   4.523   4.076  0.5784 -1.2901  1.0935
 1152SOL    HW214916   0.954   4.470   4.112 -1.0280 -2.3611 -1.0136
 1153SOL     OW14917   1.462   0.916  12.765 -0.0357 -0.3672  0.6274
 1153SOL    HW114918   1.369   0.938  12.777  0.1564  0.7116  0.1089
 1153SOL    HW214919   1.497   0.960  12.842  0.1828 -0.5119  0.6087
 1154SOL     OW14920   3.046   1.783  13.668 -0.5751  0.0090 -0.2447
 1154SOL    HW114921   3.127   1.745  13.701 -1.0473 -0.2647  0.5955
 1154SOL    HW214922   3.002   1.801  13.751 -1.2046 -1.0853 -0.3375
 1155SOL     OW14923   2.436   4.136   7.448 -0.2459 -0.3121  0.3246
 1155SOL    HW114924   2.449   4.214   7.395  1.6429  0.2706  1.6608
 1155SOL    HW214925   2.497   4.075   7.407  0.5293 -0.1033  1.1590
 1156SOL     OW14926   4.057   0.041   3.724 -0.0683 -0.1663 -0.2228
 1156SOL    HW114927   3.983   0.090   3.687 -1.0065  0.8760  3.0448
 1156SOL    HW214928   4.030   4.676   3.728 -0.0537 -0.1272  0.9765
 1157SOL     OW14929   2.147   2.357  15.189 -0.3905 -0.6644 -0.0608
 1157SOL    HW114930   2.131   2.351  15.095 -1.6137 -0.1735  0.1149
 1157SOL    HW214931   2.162   2.450  15.207 -1.9064 -0.1279 -1.5851
 1158SOL     OW14932   4.402   4.563   5.406 -0.4324  0.3525 -0.0747
 1158SOL    HW114933   4.363   4.606   5.330 -0.2374 -1.1167 -1.0123
 1158SOL    HW214934   4.435   4.484   5.364  1.5171 -0.4418  2.9788
 1159SOL     OW14935   2.749   1.452   7.455  0.0833 -0.2200  0.5834
 1159SOL    HW114936   2.673   1.502   7.486 -0.6130 -1.7867  1.3687
 1159SOL    HW214937   2.790   1.433   7.540 -1.0585  0.9764  1.4036
 1160SOL     OW14938   0.970   0.105   3.882 -0.1616 -0.2117 -0.2320
 1160SOL    HW114939   1.005   0.190   3.855 -0.3286 -0.5289 -1.4617
 1160SOL    HW214940   1.044   0.079   3.937  1.0297  0.8189 -1.3499
 1161SOL     OW14941   2.909   0.951   4.692  0.7602 -0.5142  0.4493
 1161SOL    HW114942   2.939   0.917   4.777 -1.0877 -0.8516  0.9647
 1161SOL    HW214943   2.815   0.952   4.708  0.6159 -0.9108 -0.4234
 1162SOL     OW14944   1.027   4.294   6.394  1.1879  0.1497  0.5941
 1162SOL    HW114945   1.121   4.293   6.372  0.9978  2.5221 -0.3388
 1162SOL    HW214946   1.017   4.200   6.411 -1.4463  0.7357  2.1888
 1163SOL     OW14947   2.851   1.798  13.268 -0.2266  0.3248 -0.1686
 1163SOL    HW114948   2.836   1.793  13.173  1.0525 -2.4717 -0.2314
 1163SOL    HW214949   2.898   1.715  13.279  1.2113  0.9952 -1.2587
 1164SOL     OW14950   2.096   0.692  16.875  0.4721 -0.2783  0.0793
 1164SOL    HW114951   2.092   0.598  16.891  2.1629 -0.6039 -1.4975
 1164SOL    HW214952   2.014   0.723  16.913 -1.4132 -1.8377 -2.7185
 1165SOL     OW14953   4.208   1.924  11.673  0.8780  0.2579  0.0240
 1165SOL    HW114954   4.199   1.840  11.629 -0.7174  0.7398 -0.5946
 1165SOL    HW214955   4.231   1.977  11.597 -0.4960  2.7215  1.3314
 1166SOL     OW14956   1.634   1.535  16.983 -0.6826 -0.7231 -0.3121
 1166SOL    HW114957   1.651   1.542  16.889  0.6570 -0.8275 -0.0814
 1166SOL    HW214958   1.546   1.572  16.996 -1.3759 -1.9621 -1.4986
 1167SOL     OW14959   2.829   4.227   2.184 -0.7410  0.2847 -0.3133
 1167SOL    HW114960   2.892   4.221   2.112  0.5897 -0.0080  0.8667
 1167SOL    HW214961   2.831   4.323   2.189 -2.2796  0.1805  2.2012
 1168SOL     OW14962   4.359   3.269  17.556 -0.5375  0.4730  0.0437
 1168SOL    HW114963   4.306   3.335  17.511  0.7819  1.1442 -0.5243
 1168SOL    HW214964   4.403   3.236  17.477 -2.8153  0.5404 -1.2485
 1169SOL     OW14965   3.903   3.803  10.277  0.0745  0.1430 -0.1195
 1169SOL    HW114966   3.853   3.786  10.356  0.6803  0.7577  0.3980
 1169SOL    HW214967   3.836   3.841  10.219 -1.5999 -0.7976  1.2013
 1170SOL     OW14968   2.041   3.066   4.316  0.1623 -0.1165  0.2412
 1170SOL    HW114969   2.120   3.043   4.364 -0.2876 -0.6713  0.7120
 1170SOL    HW214970   2.058   3.055   4.222 -0.1836  1.6706 -0.0257
 1171SOL     OW14971   0.899   2.270   1.834  0.0563  0.2242  0.2610
 1171SOL    HW114972   0.899   2.318   1.916  3.5463  0.0374  0.3754
 1171SOL    HW214973   0.911   2.338   1.768 -1.9272  0.7545  0.4529
 1172SOL     OW14974   2.818   2.307   3.185  0.5223  0.5925  0.2857
 1172SOL    HW114975   2.899   2.324   3.137 -2.4855 -1.7828 -5.4987
 1172SOL    HW214976   2.808   2.213   3.195  0.0498  0.3227 -2.9981
 1173SOL     OW14977   2.153   0.349   3.045 -0.2141  0.0098 -0.4696
 1173SOL    HW114978   2.141   0.440   3.070  2.4147  0.2920 -0.2710
 1173SOL    HW214979   2.072   0.313   3.082  0.2448  0.7672  1.2217
 1174SOL     OW14980   1.062   1.823   6.272 -0.2821 -0.1677  0.0842
 1174SOL    HW114981   1.032   1.814   6.181 -0.4338  0.0785  0.1106
 1174SOL    HW214982   0.988   1.786   6.320 -1.0712  0.2634 -0.7868
 1175SOL     OW14983   4.614   3.176   6.276 -0.6310 -0.1856 -0.5562
 1175SOL    HW114984   4.551   3.124   6.326  1.1444 -1.4016  0.3914
 1175SOL    HW214985   4.687   3.191   6.336  0.3694 -2.5396 -1.1626
 1176SOL     OW14986   1.835   4.511   5.754 -0.1481 -0.2476  0.3179
 1176SOL    HW114987   1.892   4.489   5.828  0.9613  0.2702 -0.3863
 1176SOL    HW214988   1.856   4.602   5.733 -0.7046 -0.4415 -1.0946
 1177SOL     OW14989   1.842   1.595   1.168  0.4474  0.2136 -0.2257
 1177SOL    HW114990   1.768   1.635   1.123 -0.9225 -0.3498  1.5222
 1177SOL    HW214991   1.866   1.662   1.232 -0.4345 -1.6803  2.1137
 1178SOL     OW14992   1.511   2.669   8.491 -0.3625 -0.2987 -0.1708
 1178SOL    HW114993   1.449   2.671   8.564  2.9280 -1.3688  2.6569
 1178SOL    HW214994   1.560   2.747   8.520 -0.9807  0.3802 -0.9339
 1179SOL     OW14995   1.323   0.950   3.875 -0.2751 -0.1831 -0.3632
 1179SOL    HW114996   1.389   0.920   3.814  1.7404 -0.5390  1.9930
 1179SOL    HW214997   1.380   0.990   3.940  0.7113 -1.1180 -0.6663
 1180SOL     OW14998   2.684   0.611   5.092 -0.2400 -0.3517  0.3052
 1180SOL    HW114999   2.705   0.535   5.147 -1.4953  1.1237  2.8373
 1180SOL    HW215000   2.772   0.647   5.099 -0.5170  0.1099  1.3822
 1181SOL     OW15001   3.445   1.760  14.404 -0.2161 -0.0710 -0.0648
 1181SOL    HW115002   3.455   1.848  14.441  1.5471 -0.3066 -0.0072
 1181SOL    HW215003   3.422   1.776  14.313  0.2082 -1.1020 -0.3503
 1182SOL     OW15004   0.190   3.834  11.543  0.1243  0.4199 -0.1051
 1182SOL    HW115005   0.224   3.745  11.536 -2.3714 -0.5022 -0.5600
 1182SOL    HW215006   0.277   3.872  11.543 -0.1746  1.1439  2.7678
 1183SOL     OW15007   2.462   0.068   4.907 -0.0043 -0.3673 -0.3210
 1183SOL    HW115008   2.439   4.723   4.966 -1.4873  0.7233  0.3937
 1183SOL    HW215009   2.441   0.145   4.959 -1.6804 -1.7606  1.0366
 1184SOL     OW15010   2.055   3.343  15.633 -0.7206 -0.0003  0.1488
 1184SOL    HW115011   2.032   3.432  15.606  2.0804  0.9330  0.8841
 1184SOL    HW215012   2.039   3.353  15.727 -0.0087  0.7808  0.1772
 1185SOL     OW15013   4.422   2.506   1.044  0.1286  0.0245  0.1510
 1185SOL    HW115014   4.441   2.595   1.015 -0.4813  0.2812  0.5262
 1185SOL    HW215015   4.338   2.495   0.999 -0.4505 -0.7882  1.4359
 1186SOL     OW15016   3.142   4.063   2.399 -0.1834  0.6824  0.2219
 1186SOL    HW115017   3.205   4.012   2.449  1.1533  2.3080  0.2150
 1186SOL    HW215018   3.164   4.152   2.428  1.3064 -0.2758  1.9867
 1187SOL     OW15019   3.272   2.804   4.843  0.8375  0.4396  0.5199
 1187SOL    HW115020   3.304   2.882   4.799 -1.4639  0.4006 -1.1921
 1187SOL    HW215021   3.273   2.735   4.777 -0.1441  0.5905  0.3510
 1188SOL     OW15022   3.391   4.130  10.599 -0.0580 -0.2957  0.5634
 1188SOL    HW115023   3.472   4.178  10.582  1.2380 -3.1128 -1.2481
 1188SOL    HW215024   3.421   4.097  10.684  2.1421  2.4801  0.8582
 1189SOL     OW15025   0.503   4.560   0.809 -0.4948  0.9747 -0.0011
 1189SOL    HW115026   0.518   4.561   0.714  1.8452 -1.9362  0.3365
 1189SOL    HW215027   0.452   4.638   0.831 -0.2656  1.3190 -0.6713
 1190SOL     OW15028   4.606   1.739   7.075  0.1918  0.2590  0.1052
 1190SOL    HW115029   4.622   1.823   7.031  1.0860 -0.7071 -1.4197
 1190SOL    HW215030   4.640   1.677   7.011 -1.5159  0.8422 -1.3875
 1191SOL     OW15031   1.320   1.374   2.560 -0.3083 -0.0939  0.3285
 1191SOL    HW115032   1.269   1.295   2.580 -0.5998  0.5115  1.9294
 1191SOL    HW215033   1.345   1.387   2.651  2.1559 -1.3549 -0.1540
 1192SOL     OW15034   0.297   0.949   4.157  0.2340 -0.2539 -0.2091
 1192SOL    HW115035   0.339   0.900   4.086 -0.1721  1.1739 -1.4187
 1192SOL    HW215036   0.250   0.879   4.201  1.3262 -0.9459 -0.1230
 1193SOL     OW15037   3.875   4.402   0.959  0.2874 -0.0573 -0.1423
 1193SOL    HW115038   3.803   4.460   0.932 -1.8258 -1.1973  3.0385
 1193SOL    HW215039   3.938   4.462   1.000  1.9384 -1.6338 -0.3815
 1194SOL     OW15040   0.984   2.387  11.613 -0.7641  0.0614 -0.4607
 1194SOL    HW115041   1.020   2.433  11.536 -0.8920 -2.1496 -1.8323
 1194SOL    HW215042   0.993   2.297  11.582  0.1935  0.0529 -0.1711
 1195SOL     OW15043   2.138   4.081   1.501  0.2411  0.6359 -0.1639
 1195SOL    HW115044   2.223   4.121   1.482  0.2231  0.5927 -0.3336
 1195SOL    HW215045   2.134   4.059   1.594  0.0964 -0.3654 -0.4038
 1196SOL     OW15046   1.509   3.670  16.888 -0.2342 -0.4151 -0.4451
 1196SOL    HW115047   1.480   3.758  16.864  2.2336  1.3608  2.9709
 1196SOL    HW215048   1.566   3.649  16.814  1.0572 -0.6777  0.6008
 1197SOL     OW15049   4.361   3.472   5.980 -0.4169 -0.1551  0.5463
 1197SOL    HW115050   4.268   3.491   5.993  0.1662  1.8922  1.6380
 1197SOL    HW215051   4.407   3.517   6.050  0.3535 -0.5052  0.2625
 1198SOL     OW15052   3.263   2.158   1.130 -0.4514 -0.2451 -0.3558
 1198SOL    HW115053   3.290   2.074   1.093  1.9304  1.0923 -1.6409
 1198SOL    HW215054   3.204   2.189   1.062  1.4726 -0.6042 -2.1661
 1199SOL     OW15055   3.460   0.815   2.802  1.0248 -0.2188 -0.3578
 1199SOL    HW115056   3.486   0.811   2.894 -1.1571  1.7421  0.3457
 1199SOL    HW215057   3.413   0.898   2.804  1.2652 -0.0665 -0.9183
 1200SOL     OW15058   3.745   0.333   3.801 -0.4344  0.1264 -0.5505
 1200SOL    HW115059   3.836   0.362   3.809 -0.0116 -1.1316 -0.8466
 1200SOL    HW215060   3.699   0.412   3.830  0.6573  1.7931 -3.3424
 1201SOL     OW15061   1.798   0.837   2.952 -0.5678  0.6998  0.0472
 1201SOL    HW115062   1.812   0.745   2.927 -0.7800  1.0108 -1.2384
 1201SOL    HW215063   1.757   0.818   3.036  2.8623  0.4143  1.6392
 1202SOL     OW15064   1.031   3.485  15.458 -0.0131  0.0630 -0.7054
 1202SOL    HW115065   1.089   3.427  15.409 -0.3163  0.0372 -1.0304
 1202SOL    HW215066   1.073   3.488  15.545  0.5208 -2.4657 -0.8738
 1203SOL     OW15067   0.735   2.546   7.386  0.1647  0.6900  0.2182
 1203SOL    HW115068   0.811   2.530   7.442  0.6400  0.1451 -0.5845
 1203SOL    HW215069   0.781   2.602   7.324 -0.9295  2.2765  0.8406
 1204SOL     OW15070   1.066   2.072  17.520  0.3362 -0.0810 -0.0204
 1204SOL    HW115071   1.115   1.997  17.553 -1.9456 -2.9975 -3.2656
 1204SOL    HW215072   1.036   2.028  17.441  0.6023  0.9750 -0.7035
 1205SOL     OW15073   0.784   3.600   4.297 -0.1019  0.3522 -0.1321
 1205SOL    HW115074   0.775   3.669   4.362  0.5669 -0.8405  1.2214
 1205SOL    HW215075   0.698   3.587   4.257 -0.0533  3.3565 -1.2211
 1206SOL     OW15076   1.687   1.452   2.127  0.4869 -0.2104  0.0997
 1206SOL    HW115077   1.671   1.475   2.035  1.1084 -0.5500 -0.0939
 1206SOL    HW215078   1.612   1.496   2.167  1.0546  1.6160 -0.8160
 1207SOL     OW15079   1.797   0.369  15.930  0.1723  0.0426 -0.2529
 1207SOL    HW115080   1.860   0.325  15.871  0.4123  2.2872 -1.6702
 1207SOL    HW215081   1.715   0.334  15.897  0.6200 -2.0903  0.8483
 1208SOL     OW15082   0.576   2.483   5.712  0.3650 -0.2160 -0.5031
 1208SOL    HW115083   0.660   2.485   5.756  0.7176  0.0215 -1.1884
 1208SOL    HW215084   0.565   2.392   5.686 -0.4476  0.0260 -1.0154
 1209SOL     OW15085   4.495   3.604  14.780  0.2342 -0.3928  0.0004
 1209SOL    HW115086   4.550   3.683  14.785 -0.9774  0.2947  2.2506
 1209SOL    HW215087   4.550   3.534  14.816  0.0028  0.9290  2.9861
 1210SOL     OW15088   1.513   1.312   0.389 -0.3247 -0.7759 -0.2155
 1210SOL    HW115089   1.426   1.278   0.370 -0.8633  1.3626 -1.5362
 1210SOL    HW215090   1.524   1.248   0.459 -0.3347 -0.2635  0.2628
 1211SOL     OW15091   2.863   0.147   3.040  0.0848 -0.4815 -0.2503
 1211SOL    HW115092   2.853   0.089   3.115 -1.3627  1.3348  0.9493
 1211SOL    HW215093   2.794   0.117   2.982 -0.1718 -0.1804 -0.1011
 1212SOL     OW15094   1.180   0.612   3.699 -0.3106  0.0390  0.0057
 1212SOL    HW115095   1.153   0.683   3.642  0.1157  0.1113 -0.1075
 1212SOL    HW215096   1.106   0.607   3.759 -0.7910 -0.3951 -0.6166
 1213SOL     OW15097   4.387   1.080   2.587 -0.7262 -0.0486 -0.2231
 1213SOL    HW115098   4.421   0.997   2.618 -0.1956  0.9544  1.9039
 1213SOL    HW215099   4.338   1.100   2.667 -1.3286  1.1103 -0.8754
 1214SOL     OW15100   1.032   1.213   3.724  0.4450 -0.0710  0.0369
 1214SOL    HW115101   0.977   1.165   3.662 -2.1009 -0.7670  2.8341
 1214SOL    HW215102   0.975   1.280   3.761 -0.8502 -1.4002  0.4655
 1215SOL     OW15103   1.709   2.002   1.523 -0.5619 -0.3428  0.1032
 1215SOL    HW115104   1.624   2.030   1.490 -0.1287  1.5301  0.5894
 1215SOL    HW215105   1.681   1.931   1.580 -0.6623  1.3035  2.1032
 1216SOL     OW15106   1.405   0.330   6.804  0.0593  0.3577  0.5959
 1216SOL    HW115107   1.439   0.372   6.725  0.1029  0.1437  0.5005
 1216SOL    HW215108   1.380   0.240   6.782 -0.7432  0.4777  1.0248
 1217SOL     OW15109   2.945   2.478   3.743  0.2015 -0.1640  0.3069
 1217SOL    HW115110   2.962   2.559   3.694 -0.7222 -1.4544 -2.1086
 1217SOL    HW215111   2.970   2.492   3.834  0.4607  1.2181  0.0257
 1218SOL     OW15112   1.119   0.954   3.073 -0.1336  0.2319 -0.2148
 1218SOL    HW115113   1.139   0.928   3.163 -0.4888  0.8574  0.0440
 1218SOL    HW215114   1.038   0.904   3.061 -0.7793  0.8814  1.4656
 1219SOL     OW15115   0.862   0.401   9.327 -0.1126 -0.3348  0.0375
 1219SOL    HW115116   0.811   0.454   9.266 -2.3281 -1.2790  1.0791
 1219SOL    HW215117   0.838   0.445   9.409  1.0937 -2.2154  1.3977
 1220SOL     OW15118   2.294   1.204   0.152  0.1782 -0.1852  0.6312
 1220SOL    HW115119   2.323   1.180   0.240 -0.5990  0.7846  1.1544
 1220SOL    HW215120   2.282   1.117   0.115 -1.6656  0.0122  0.7800
 1221SOL     OW15121   2.626   1.156  11.175  0.1339 -0.1004 -0.0726
 1221SOL    HW115122   2.568   1.193  11.241  0.9897  0.3658  0.4165
 1221SOL    HW215123   2.675   1.090  11.224 -0.7059  0.5187  1.5971
 1222SOL     OW15124   3.421   2.986  10.897  0.1741 -0.5187 -0.0765
 1222SOL    HW115125   3.372   2.932  10.835 -0.3737  1.6146 -1.4923
 1222SOL    HW215126   3.511   2.988  10.865 -0.5460  0.3961 -2.0126
 1223SOL     OW15127   3.223   1.362   4.067 -0.3647 -0.2699 -0.3647
 1223SOL    HW115128   3.198   1.398   4.152 -1.1126  0.7110 -0.9990
 1223SOL    HW215129   3.293   1.302   4.092 -0.1015  0.6110  1.0370
 1224SOL     OW15130   3.139   2.512   7.658  0.1333 -0.4072  0.2322
 1224SOL    HW115131   3.175   2.459   7.587  1.0167 -0.0937  0.4452
 1224SOL    HW215132   3.077   2.450   7.695  1.5803 -2.1545 -0.2555
 1225SOL     OW15133   1.829   2.668   8.665 -0.5240  0.4890  0.0996
 1225SOL    HW115134   1.922   2.680   8.683 -0.7681 -0.1823  1.7601
 1225SOL    HW215135   1.835   2.660   8.570 -3.1986  0.5092 -0.0618
 1226SOL     OW15136   1.730   3.402   1.485 -0.0810 -0.4806  0.3758
 1226SOL    HW115137   1.698   3.401   1.574 -2.5312 -3.1692 -0.5379
 1226SOL    HW215138   1.652   3.433   1.440  0.7413  2.8613  1.2813
 1227SOL     OW15139   3.984   3.868   3.039  0.4539 -0.3028  0.0324
 1227SOL    HW115140   4.077   3.888   3.050  0.4167  0.1352 -0.4321
 1227SOL    HW215141   3.956   3.928   2.970 -1.2510  0.8352  1.7447
 1228SOL     OW15142   1.441   1.952   7.151 -0.2547  0.5060 -0.3942
 1228SOL    HW115143   1.512   2.005   7.188 -1.2549 -0.0140  2.2919
 1228SOL    HW215144   1.394   1.928   7.231  0.8197 -3.0303 -0.8558
 1229SOL     OW15145   0.098   0.389   9.567 -0.1268  0.9279  0.0125
 1229SOL    HW115146   0.179   0.439   9.579  0.1555  0.1988  1.1459
 1229SOL    HW215147   0.066   0.384   9.657 -3.7376 -2.2131 -1.4393
 1230SOL     OW15148   4.723   3.529  13.161  0.5614  0.1608  0.5376
 1230SOL    HW115149   0.003   3.439  13.193  2.3786  0.0929 -0.0577
 1230SOL    HW215150   0.076   3.535  13.109  0.7088 -0.2940  0.7150
 1231SOL     OW15151   2.293   4.725   5.713  0.4037 -0.3395 -0.0758
 1231SOL    HW115152   2.293   4.630   5.725  2.4707 -0.2818  0.3344
 1231SOL    HW215153   2.243   0.027   5.789 -1.0661 -1.8023 -0.4839
 1232SOL     OW15154   1.949   3.829  14.845 -0.0193  0.4018  0.5358
 1232SOL    HW115155   1.916   3.915  14.817  1.9305  1.0961  0.3639
 1232SOL    HW215156   2.039   3.835  14.813 -0.5409 -0.9909 -1.1827
 1233SOL     OW15157   3.946   3.638   4.004  0.7802  0.0339  0.5639
 1233SOL    HW115158   4.036   3.662   3.982  0.6406 -0.0736 -0.0991
 1233SOL    HW215159   3.958   3.558   4.055  1.6196 -0.6783 -0.7741
 1234SOL     OW15160   2.722   3.806   8.078 -0.6558 -0.1435 -0.1584
 1234SOL    HW115161   2.818   3.798   8.077 -0.6173  0.4737 -1.8026
 1234SOL    HW215162   2.719   3.828   8.171  1.1662 -0.6970  0.0331
 1235SOL     OW15163   1.719   2.426  11.586 -0.1766 -0.2540  0.5864
 1235SOL    HW115164   1.730   2.522  11.586  0.0442 -0.2610 -1.5434
 1235SOL    HW215165   1.628   2.427  11.615 -0.3109 -1.9700  0.2245
 1236SOL     OW15166   2.747   4.362   7.427 -0.3342  0.1431  0.2355
 1236SOL    HW115167   2.747   4.446   7.381  1.1660 -0.0855 -0.1790
 1236SOL    HW215168   2.707   4.392   7.508 -0.5130  0.0490  0.1809
 1237SOL     OW15169   3.524   3.953   7.669  0.0852  0.0670  0.3951
 1237SOL    HW115170   3.495   3.989   7.752 -2.4435  0.7015 -0.7738
 1237SOL    HW215171   3.444   3.958   7.617  0.1734  0.2546  0.2770
 1238SOL     OW15172   0.179   1.161  13.892 -0.2442  0.5549 -0.6156
 1238SOL    HW115173   0.233   1.133  13.966 -0.8674 -0.8593 -0.6971
 1238SOL    HW215174   0.113   1.092  13.900 -0.9220  1.4728  1.8516
 1239SOL     OW15175   2.175   0.641   1.196 -0.1105  0.3843 -0.2768
 1239SOL    HW115176   2.259   0.687   1.194 -0.2994  0.5458 -4.0872
 1239SOL    HW215177   2.122   0.696   1.138  0.0924 -0.6244 -1.4072
 1240SOL     OW15178   2.043   0.613   8.430 -0.5080  0.0683 -0.1422
 1240SOL    HW115179   2.135   0.632   8.449 -0.6289  1.4408 -0.8927
 1240SOL    HW215180   2.048   0.585   8.339  0.7811 -0.7884  0.1960
 1241SOL     OW15181   4.260   4.496  14.063  0.1564 -0.1519 -0.2448
 1241SOL    HW115182   4.292   4.417  14.019  0.8605 -0.5009  0.9105
 1241SOL    HW215183   4.347   4.525  14.090 -0.5858  0.3907  1.5556
 1242SOL     OW15184   2.133   1.743   6.536  0.3303  0.5231 -0.0244
 1242SOL    HW115185   2.131   1.709   6.447  0.3547  1.1113 -0.2505
 1242SOL    HW215186   2.203   1.687   6.570  0.0333  0.4539  0.4847
 1243SOL     OW15187   1.990   4.542   3.813 -0.1536  0.4323  0.4732
 1243SOL    HW115188   1.903   4.581   3.805 -0.4390 -0.0734  1.1276
 1243SOL    HW215189   2.004   4.513   3.723  0.7262  1.4919  0.2697
 1244SOL     OW15190   0.394   4.188  14.336 -0.2227  0.4285 -0.6941
 1244SOL    HW115191   0.350   4.197  14.252 -0.1604  0.2210 -0.7481
 1244SOL    HW215192   0.476   4.151  14.304 -1.1266 -1.1447 -1.1733
 1245SOL     OW15193   2.860   4.396   5.630 -0.3821 -0.1903 -0.0240
 1245SOL    HW115194   2.878   4.489   5.644 -1.8199  0.1510 -0.4530
 1245SOL    HW215195   2.808   4.377   5.709 -1.2925 -0.3433 -0.6604
 1246SOL     OW15196   1.928   4.313  16.294 -0.3215 -0.0879 -0.5595
 1246SOL    HW115197   1.994   4.279  16.234  0.8907  1.5692 -0.1674
 1246SOL    HW215198   1.897   4.382  16.234  0.1579  0.7092  0.1073
 1247SOL     OW15199   0.705   3.231   2.288  0.6301 -0.3384 -0.6165
 1247SOL    HW115200   0.724   3.290   2.361 -1.8678  0.8798 -0.9472
 1247SOL    HW215201   0.619   3.260   2.258  1.8358  1.2505 -2.5297
 1248SOL     OW15202   2.669   2.913   2.180  0.3981 -0.3763  0.1230
 1248SOL    HW115203   2.687   2.932   2.088 -2.9433  0.1418 -0.4219
 1248SOL    HW215204   2.577   2.940   2.183  0.5328  0.0197  0.6109
 1249SOL     OW15205   1.640   3.000   2.417 -0.1964 -0.1229 -0.3884
 1249SOL    HW115206   1.605   2.931   2.473 -1.5430  1.7631  1.0513
 1249SOL    HW215207   1.644   3.071   2.480 -0.0503  1.1509 -1.8448
 1250SOL     OW15208   0.364   0.294   4.878  0.3980  0.2917  0.0724
 1250SOL    HW115209   0.306   0.351   4.929  1.5965  2.0363 -0.4830
 1250SOL    HW215210   0.432   0.362   4.882  1.4284 -0.6622 -1.2533
 1251SOL     OW15211   1.500   3.464  15.951 -0.0355  0.2746 -0.0651
 1251SOL    HW115212   1.494   3.388  15.893 -1.2018  0.0081  0.3914
 1251SOL    HW215213   1.509   3.414  16.032  2.9752  0.6606 -0.1572
 1252SOL     OW15214   1.422   1.315   4.064  0.7215  0.1839  0.3867
 1252SOL    HW115215   1.504   1.347   4.103  1.6293 -0.7090 -0.7892
 1252SOL    HW215216   1.426   1.357   3.978  1.6111 -0.5548  0.0647
 1253SOL     OW15217   0.161   4.588   3.463 -0.1997  0.1940 -0.0695
 1253SOL    HW115218   0.105   4.540   3.524 -1.4251  2.4623  0.6237
 1253SOL    HW215219   0.180   4.667   3.515  0.9783  0.8507 -1.5163
 1254SOL     OW15220   3.103   2.158   2.652  0.3573  0.1103 -0.1031
 1254SOL    HW115221   3.087   2.095   2.582 -2.4076 -0.5741  1.1582
 1254SOL    HW215222   3.143   2.102   2.719  0.1430 -1.4680 -1.2936
 1255SOL     OW15223   4.105   4.216   2.710 -0.2045 -0.1885 -0.2964
 1255SOL    HW115224   4.158   4.139   2.687 -1.3143 -0.6529 -1.2473
 1255SOL    HW215225   4.035   4.209   2.646  1.0073 -0.4607 -1.5860
 1256SOL     OW15226   1.281   4.000   7.764 -0.2117 -0.6756  0.5630
 1256SOL    HW115227   1.211   4.005   7.700  0.9390 -1.9999 -0.8141
 1256SOL    HW215228   1.276   3.906   7.781  0.2490 -1.0137 -1.0869
 1257SOL     OW15229   2.546   0.192   0.428 -0.0582  0.5538  0.0689
 1257SOL    HW115230   2.478   0.243   0.383  1.4651  1.7511 -0.8591
 1257SOL    HW215231   2.607   0.265   0.422 -0.1355  0.7371  1.6990
 1258SOL     OW15232   0.012   4.223  11.701  0.0353 -0.3834  0.3232
 1258SOL    HW115233   0.021   4.128  11.698  1.8813 -0.1908 -0.5710
 1258SOL    HW215234   4.643   4.225  11.697  0.1016 -0.9382 -1.8189
 1259SOL     OW15235   4.348   4.263   6.433  0.1611 -0.1360  0.0602
 1259SOL    HW115236   4.369   4.335   6.492 -0.0679 -0.0254  0.0041
 1259SOL    HW215237   4.398   4.189   6.469 -0.2039 -0.4335 -0.0469
 1260SOL     OW15238   4.247   0.665  16.961  0.0611 -0.0965  0.0388
 1260SOL    HW115239   4.287   0.644  16.876 -0.9598  1.0672 -0.7348
 1260SOL    HW215240   4.244   0.577  16.998  2.2165 -0.3187 -0.2671
 1261SOL     OW15241   1.974   2.143   6.445  0.2998  0.2134  0.1135
 1261SOL    HW115242   1.890   2.138   6.399  0.5579 -0.7727 -0.2529
 1261SOL    HW215243   2.027   2.194   6.383 -1.7756  0.9426 -1.0649
 1262SOL     OW15244   0.399   3.682  11.219 -0.1905 -0.0174 -0.0508
 1262SOL    HW115245   0.471   3.635  11.177  0.3361 -0.3574  1.2456
 1262SOL    HW215246   0.414   3.767  11.178  1.2239  0.5190  1.5817
 1263SOL     OW15247   3.169   1.816  14.016  0.5789  0.2135 -0.5314
 1263SOL    HW115248   3.176   1.780  13.927 -0.0083  1.6327 -1.1516
 1263SOL    HW215249   3.075   1.799  14.027  0.8281 -0.8224  0.0459
 1264SOL     OW15250   3.771   4.214   1.459 -0.2809  0.3795  0.4408
 1264SOL    HW115251   3.741   4.201   1.369  0.4673  2.5433 -0.1156
 1264SOL    HW215252   3.863   4.237   1.441 -0.2456 -1.9410 -2.3844
 1265SOL     OW15253   1.266   1.380   7.917 -0.2090 -0.0678 -0.2001
 1265SOL    HW115254   1.330   1.449   7.934 -0.5265 -0.0584  0.9508
 1265SOL    HW215255   1.284   1.319   7.988 -1.3470 -0.4863 -0.2735
 1266SOL     OW15256   1.632   0.303  16.439 -0.2229  0.6278 -0.0592
 1266SOL    HW115257   1.699   0.316  16.506 -1.1543  2.7883  0.4677
 1266SOL    HW215258   1.560   0.272  16.493  0.2745  1.9973  1.3821
 1267SOL     OW15259   0.490   1.910   2.702 -0.0664 -0.1686  0.7594
 1267SOL    HW115260   0.563   1.900   2.640  0.2573  0.9317  0.9727
 1267SOL    HW215261   0.466   2.002   2.694  0.7248 -0.1436 -1.4133
 1268SOL     OW15262   0.355   1.056  14.079 -0.0009  0.0437  0.3286
 1268SOL    HW115263   0.412   1.131  14.063  1.4833 -1.4619 -1.4370
 1268SOL    HW215264   0.351   1.044  14.174  3.8889  1.4803  0.6512
 1269SOL     OW15265   3.807   1.325   1.379 -0.0663 -0.2342  0.2105
 1269SOL    HW115266   3.903   1.324   1.385 -0.0491 -1.2155 -0.1502
 1269SOL    HW215267   3.783   1.275   1.457 -2.0748 -0.7024 -0.7188
 1270SOL     OW15268   3.484   3.981   3.440  0.2216 -0.3162  0.4399
 1270SOL    HW115269   3.486   3.910   3.376  0.6024  0.8599 -0.8777
 1270SOL    HW215270   3.392   4.009   3.441  0.3332  0.0328  0.8780
 1271SOL     OW15271   1.757   2.636   3.807 -0.5612  0.4565 -0.2648
 1271SOL    HW115272   1.676   2.658   3.761 -0.6620 -0.3046 -0.4514
 1271SOL    HW215273   1.788   2.560   3.758  0.6672  1.2133 -0.6858
 1272SOL     OW15274   1.293   2.805   4.466 -0.3771  0.1773 -0.2161
 1272SOL    HW115275   1.321   2.771   4.381 -0.0690  0.4407 -0.2190
 1272SOL    HW215276   1.307   2.897   4.443  3.0337 -0.0202  1.0511
 1273SOL     OW15277   1.454   4.571   4.112  1.0217 -0.1405  0.4823
 1273SOL    HW115278   1.480   4.561   4.021  0.5258  0.5700  0.2609
 1273SOL    HW215279   1.372   4.521   4.113  1.2768 -0.5690 -0.5011
 1274SOL     OW15280   4.712   1.158   9.252  0.1268  0.0353  0.2529
 1274SOL    HW115281   4.642   1.158   9.187  0.3598  1.4909 -0.0097
 1274SOL    HW215282   0.004   1.252   9.245 -2.4381  0.6354  1.1276
 1275SOL     OW15283   2.279   2.782  15.918 -0.7220 -0.7403 -0.1667
 1275SOL    HW115284   2.284   2.729  15.839  2.1080 -2.2631  1.0363
 1275SOL    HW215285   2.295   2.873  15.891  0.6734 -0.7602  0.5927
 1276SOL     OW15286   0.407   2.068   6.645  0.2763  0.1269  0.0566
 1276SOL    HW115287   0.460   2.117   6.709 -1.4473  0.2068  1.4225
 1276SOL    HW215288   0.348   2.132   6.607 -1.4740 -1.8839 -0.6434
 1277SOL     OW15289   3.173   4.133   2.153 -0.7297  0.3689  0.1643
 1277SOL    HW115290   3.198   4.223   2.171  0.4616  0.1667 -0.5139
 1277SOL    HW215291   3.170   4.116   2.247 -0.0109  1.1344  0.3150
 1278SOL     OW15292   1.210   1.503   5.596 -0.4153  0.6010 -0.0921
 1278SOL    HW115293   1.153   1.513   5.672 -0.1284  0.7613  0.0998
 1278SOL    HW215294   1.285   1.465   5.641  0.6559 -0.6049 -2.8848
 1279SOL     OW15295   0.968   0.569   3.072  0.3541 -0.0022  0.5740
 1279SOL    HW115296   1.012   0.557   3.156 -1.6701  2.0519  1.8973
 1279SOL    HW215297   0.970   0.664   3.057 -0.3652  0.0825  1.0220
 1280SOL     OW15298   4.460   2.502   6.038  0.1415 -0.5012  0.4204
 1280SOL    HW115299   4.430   2.471   5.952 -0.1969  1.3287 -0.1202
 1280SOL    HW215300   4.383   2.482   6.091  0.9673 -2.0504  1.0216
 1281SOL     OW15301   1.847   0.865  12.558  0.5209 -0.2589 -0.1180
 1281SOL    HW115302   1.773   0.823  12.603 -0.5660 -0.0553 -1.6792
 1281SOL    HW215303   1.907   0.792  12.546 -0.2933 -0.6823 -1.6897
 1282SOL     OW15304   3.186   2.546  15.302  0.1953  0.2025  0.4223
 1282SOL    HW115305   3.265   2.581  15.262 -1.3311  1.2529 -1.6701
 1282SOL    HW215306   3.173   2.468  15.247 -0.8842  0.9541 -0.4024
 1283SOL     OW15307   4.392   0.731   2.122  0.0466  0.5018 -0.0301
 1283SOL    HW115308   4.358   0.818   2.099 -1.6475  0.3207  1.7753
 1283SOL    HW215309   4.487   0.740   2.115 -0.1782  2.2837 -0.9792
 1284SOL     OW15310   1.770   2.734   1.621 -0.0134  0.4924 -0.5455
 1284SOL    HW115311   1.771   2.807   1.682  3.0206 -1.4426  1.7055
 1284SOL    HW215312   1.682   2.730   1.583 -0.9744 -0.3320  1.7588
 1285SOL     OW15313   1.605   2.212   5.867  0.3462  0.6230 -0.1125
 1285SOL    HW115314   1.525   2.261   5.887  0.8823  1.8307 -0.9317
 1285SOL    HW215315   1.610   2.220   5.772  1.3579  1.3733  0.0136
 1286SOL     OW15316   3.485   1.334   5.262  0.1044  0.7952  0.2975
 1286SOL    HW115317   3.400   1.369   5.285 -1.0299 -0.6013 -1.8079
 1286SOL    HW215318   3.455   1.252   5.222  0.6097  0.7032  0.1000
 1287SOL     OW15319   0.941   0.653  14.230 -0.0135  0.5203  0.6161
 1287SOL    HW115320   0.981   0.702  14.158 -1.7543  0.6012 -0.2912
 1287SOL    HW215321   0.967   0.564  14.207  1.2512  0.5504  1.9592
 1288SOL     OW15322   4.528   2.568   9.001 -0.0645 -0.1736 -0.6059
 1288SOL    HW115323   4.602   2.584   8.943  1.0996 -1.7751  0.4250
 1288SOL    HW215324   4.545   2.483   9.043 -1.6238 -1.2023 -2.0117
 1289SOL     OW15325   1.441   0.873   3.549 -0.0674  0.2195 -0.0555
 1289SOL    HW115326   1.499   0.913   3.484 -1.1979 -0.4354 -1.4822
 1289SOL    HW215327   1.462   0.780   3.540  0.0972  0.4671 -2.1790
 1290SOL     OW15328   2.733   3.170  12.828  0.3553  0.6297  0.1574
 1290SOL    HW115329   2.740   3.101  12.762  1.7278  0.6392  0.2934
 1290SOL    HW215330   2.715   3.116  12.905  3.9046 -1.8304 -0.7626
 1291SOL     OW15331   2.592   2.103   4.279 -0.2546  0.1307  0.1864
 1291SOL    HW115332   2.497   2.099   4.272 -0.3735  1.0446  1.2388
 1291SOL    HW215333   2.603   2.091   4.374 -0.0871  1.2385  0.3149
 1292SOL     OW15334   0.248   2.367   5.440  0.3984 -0.1512 -0.2117
 1292SOL    HW115335   0.298   2.291   5.412 -1.0830 -1.6817  1.3149
 1292SOL    HW215336   0.165   2.327   5.465  0.3250  0.5497  0.6587
 1293SOL     OW15337   2.949   4.587   3.415  0.0970 -0.0730 -0.4090
 1293SOL    HW115338   3.019   4.524   3.435 -0.6840 -1.3660 -1.7219
 1293SOL    HW215339   2.873   4.534   3.436 -0.7133  1.2491 -0.0103
 1294SOL     OW15340   1.218   3.822   2.687 -0.4917  0.4658  0.4463
 1294SOL    HW115341   1.267   3.813   2.768  1.2894 -0.0349 -0.6868
 1294SOL    HW215342   1.232   3.914   2.664  1.3815  0.0198 -0.1712
 1295SOL     OW15343   0.748   0.590  11.309 -0.5027  0.5327 -0.7639
 1295SOL    HW115344   0.668   0.616  11.354 -1.5282 -2.2694 -0.9851
 1295SOL    HW215345   0.757   0.672  11.260 -1.2590  0.2455 -1.3730
 1296SOL     OW15346   3.291   1.257  13.568 -0.0126  0.1778 -0.9995
 1296SOL    HW115347   3.207   1.302  13.580  0.8043  1.4091  0.1518
 1296SOL    HW215348   3.315   1.290  13.655  0.5913 -2.3571 -0.2185
 1297SOL     OW15349   4.004   3.891   1.366  0.5395  0.6648  0.5752
 1297SOL    HW115350   3.989   3.820   1.428  2.3803 -1.4753 -1.4708
 1297SOL    HW215351   3.933   3.872   1.304  3.5425 -0.4861 -2.4807
 1298SOL     OW15352   1.529   2.585  13.329  0.3629 -0.1090  0.7388
 1298SOL    HW115353   1.550   2.650  13.397  0.7643 -1.0625  1.5435
 1298SOL    HW215354   1.610   2.535  13.315  0.1433  0.2303 -1.6814
 1299SOL     OW15355   1.839   2.962   6.275 -0.5356 -0.5348  0.1448
 1299SOL    HW115356   1.844   2.998   6.186  3.2284 -0.1517  0.5189
 1299SOL    HW215357   1.809   3.028   6.337  2.6795  0.9835  0.0846
 1300SOL     OW15358   3.461   4.343   2.116  0.3212 -0.2890  0.0661
 1300SOL    HW115359   3.535   4.314   2.170 -0.6535 -0.3493  1.3709
 1300SOL    HW215360   3.478   4.438   2.116  0.1427 -0.2564 -1.0902
 1301SOL     OW15361   3.034   0.019   9.007  0.8138  0.1445 -0.8917
 1301SOL    HW115362   3.080   0.058   8.933  0.3112  2.9731  0.3020
 1301SOL    HW215363   2.955   0.073   9.004 -1.7482 -3.3700  1.9591
 1302SOL     OW15364   3.418   4.454   8.164  0.0111  0.1500  0.2618
 1302SOL    HW115365   3.499   4.492   8.131 -0.1303  0.3933  0.1954
 1302SOL    HW215366   3.358   4.462   8.089 -0.6378  0.9755  0.8718
 1303SOL     OW15367   4.683   2.425  17.128 -0.1672 -0.0314  0.3528
 1303SOL    HW115368   4.613   2.362  17.143 -0.7543  0.7381  0.8203
 1303SOL    HW215369   0.034   2.372  17.144  0.4116  0.2651 -1.4919
 1304SOL     OW15370   2.041   1.404   7.308 -0.2194  0.0776 -0.2173
 1304SOL    HW115371   2.038   1.314   7.341 -1.1532 -0.5096 -1.9222
 1304SOL    HW215372   1.946   1.415   7.314 -0.4593 -1.9650 -0.1359
 1305SOL     OW15373   0.929   0.047   8.110 -0.3195 -0.4327  1.1262
 1305SOL    HW115374   0.896   0.028   8.198 -2.7074  1.0684  0.5509
 1305SOL    HW215375   0.884   0.130   8.095 -2.7515 -1.2266  4.0181
 1306SOL     OW15376   0.244   0.250   9.988 -0.3313 -0.4662 -0.0156
 1306SOL    HW115377   0.264   0.214   9.902  1.4381  2.4208 -0.8343
 1306SOL    HW215378   0.254   0.180  10.052  2.0218  1.7071  2.0398
 1307SOL     OW15379   1.177   0.122   2.118 -0.0378 -0.0419  0.5132
 1307SOL    HW115380   1.165   0.046   2.061 -1.4630 -1.3252  2.5226
 1307SOL    HW215381   1.244   0.174   2.074  0.1795  1.1002  2.2029
 1308SOL     OW15382   0.118   0.351   4.296  0.3189 -0.2612 -0.0454
 1308SOL    HW115383   0.171   0.388   4.225 -0.0500 -0.1553 -0.2616
 1308SOL    HW215384   0.079   0.276   4.250  0.7531  0.0171 -0.8618
 1309SOL     OW15385   2.736   1.819   1.861 -0.4430  0.0333 -0.6202
 1309SOL    HW115386   2.758   1.765   1.785  0.0772 -1.7681  0.8070
 1309SOL    HW215387   2.735   1.756   1.934 -0.1145  1.2801  0.4726
 1310SOL     OW15388   1.496   2.641   2.309 -0.2763  0.1902  0.0591
 1310SOL    HW115389   1.491   2.556   2.353  2.3123 -0.9782 -1.8973
 1310SOL    HW215390   1.428   2.694   2.351  0.5548  0.4994  1.0176
 1311SOL     OW15391   0.602   2.269   9.007  0.3768  0.5053 -0.3878
 1311SOL    HW115392   0.563   2.355   9.024  0.5188  0.2659  1.2124
 1311SOL    HW215393   0.536   2.214   9.050  1.4966 -1.1983 -0.8540
 1312SOL     OW15394   3.072   4.725   7.599 -0.1309  0.3332 -0.2990
 1312SOL    HW115395   3.009   0.018   7.669  0.2083  1.0832 -0.2084
 1312SOL    HW215396   3.154   4.712   7.645 -0.4388  1.5492  0.5789
 1313SOL     OW15397   0.753   2.180   8.588 -0.5277  0.0698  0.2931
 1313SOL    HW115398   0.677   2.163   8.643 -0.7909 -2.2818 -0.8048
 1313SOL    HW215399   0.807   2.116   8.634  0.0794  1.3241  1.3459
 1314SOL     OW15400   0.376   2.418   9.419  0.0328  0.3544 -0.4023
 1314SOL    HW115401   0.323   2.349   9.379 -1.0245  0.6167  0.5287
 1314SOL    HW215402   0.389   2.477   9.346  3.8320 -1.4377 -1.1519
 1315SOL     OW15403   2.768   4.525  10.439  0.4743 -1.0932  0.5921
 1315SOL    HW115404   2.841   4.545  10.381  0.7196 -0.2506  1.1931
 1315SOL    HW215405   2.783   4.589  10.508 -1.2837 -2.5011  2.2740
 1316SOL     OW15406   4.313   1.397   8.180 -0.5744 -0.3176  0.7286
 1316SOL    HW115407   4.312   1.492   8.166 -1.0143 -0.4330 -0.0544
 1316SOL    HW215408   4.403   1.380   8.205 -0.6453 -0.5318  0.8455
 1317SOL     OW15409   0.430   0.523   8.483 -0.2078  0.1760 -0.5924
 1317SOL    HW115410   0.486   0.600   8.478 -1.4028  1.1786  1.3065
 1317SOL    HW215411   0.465   0.476   8.407 -2.9542  2.5897 -3.3975
 1318SOL     OW15412   1.854   3.369  10.053  0.3781 -0.9485  0.4706
 1318SOL    HW115413   1.848   3.322  10.137  0.7364  0.0543  1.0543
 1318SOL    HW215414   1.945   3.367  10.024  0.2647  1.4119  0.0162
 1319SOL     OW15415   3.828   1.832   8.770 -0.7608 -0.7155 -0.2996
 1319SOL    HW115416   3.755   1.842   8.830 -1.4896  2.0195 -1.6524
 1319SOL    HW215417   3.881   1.759   8.802 -0.1861  1.1146  2.8855
 1320SOL     OW15418   1.888   2.049  17.480  0.0426 -0.0333 -0.4794
 1320SOL    HW115419   1.955   2.116  17.467 -0.6467  0.8436  0.5655
 1320SOL    HW215420   1.921   1.994  17.551 -0.2918  1.9265  1.1760
 1321SOL     OW15421   3.678   0.822   0.498 -0.5157  0.0735  0.0084
 1321SOL    HW115422   3.612   0.777   0.445  0.3850 -1.0320 -0.1779
 1321SOL    HW215423   3.630   0.824   0.581  1.2550  1.6140  0.9994
 1322SOL     OW15424   1.291   1.418   0.159  0.0058 -0.6166 -0.6207
 1322SOL    HW115425   1.266   1.502   0.120  0.3521 -0.8194 -1.2789
 1322SOL    HW215426   1.282   1.354   0.089  0.6845 -3.0339  1.4775
 1323SOL     OW15427   1.469   0.877  11.221 -0.6308  0.2901  0.2638
 1323SOL    HW115428   1.385   0.842  11.193  0.6191 -2.3526 -0.1916
 1323SOL    HW215429   1.466   0.829  11.304 -1.3787 -1.5408 -0.8107
 1324SOL     OW15430   0.095   3.149   3.327 -0.3126 -0.3917  0.2073
 1324SOL    HW115431   0.115   3.227   3.379 -1.5238  0.0013  0.0795
 1324SOL    HW215432   0.182   3.136   3.289 -0.0392 -0.0872  0.7307
 1325SOL     OW15433   1.211   1.549   3.417 -0.3581  0.5350  0.1260
 1325SOL    HW115434   1.191   1.642   3.425  0.5011  0.5186  2.4535
 1325SOL    HW215435   1.166   1.521   3.497  0.7070  0.8888  0.8380
 1326SOL     OW15436   2.797   3.056   8.659  0.0938 -0.0681  0.1702
 1326SOL    HW115437   2.792   2.999   8.582  2.1730 -0.7482  0.5348
 1326SOL    HW215438   2.834   2.992   8.720 -0.9837  0.7805  1.7101
 1327SOL     OW15439   3.813   4.694  12.744  0.5599 -0.2984 -0.3219
 1327SOL    HW115440   3.720   4.708  12.759  0.8827  1.0733  0.4271
 1327SOL    HW215441   3.841   0.055  12.716 -0.3500  0.6234  1.6720
 1328SOL     OW15442   3.336   1.489   1.564  0.0274  0.2827  0.3671
 1328SOL    HW115443   3.279   1.557   1.600 -1.2596 -0.3110 -0.5234
 1328SOL    HW215444   3.397   1.483   1.638  1.0145 -1.2993 -0.5698
 1329SOL     OW15445   3.265   0.632  13.430 -0.0121 -0.3289 -0.3151
 1329SOL    HW115446   3.296   0.548  13.397  0.8143 -0.5876  1.1403
 1329SOL    HW215447   3.294   0.619  13.520 -0.8845 -0.2066 -0.0205
 1330SOL     OW15448   3.057   3.223   2.609  0.1202  0.8829 -0.1331
 1330SOL    HW115449   3.030   3.248   2.521  0.7256  1.6682 -0.1007
 1330SOL    HW215450   3.147   3.255   2.601  0.9407 -0.7557  2.6832
 1331SOL     OW15451   1.793   2.397   0.872 -0.1092 -0.4421 -0.1484
 1331SOL    HW115452   1.805   2.312   0.914 -1.5884 -0.5329  0.1173
 1331SOL    HW215453   1.712   2.434   0.909  0.7273  1.0154  0.2211
 1332SOL     OW15454   1.198   1.294   1.669 -0.1516  0.6125 -0.0806
 1332SOL    HW115455   1.107   1.268   1.659  0.0723  0.1319 -0.8473
 1332SOL    HW215456   1.189   1.350   1.747 -0.3507  0.7225 -0.1838
 1333SOL     OW15457   1.795   2.438  15.580 -0.4782 -0.1015  0.1181
 1333SOL    HW115458   1.881   2.404  15.605 -0.4437 -1.2605 -1.5533
 1333SOL    HW215459   1.811   2.479  15.495 -1.7332  0.2112  0.0316
 1334SOL     OW15460   2.223   0.461   3.655  0.0977  0.3302  0.0575
 1334SOL    HW115461   2.267   0.376   3.645 -0.4862  0.0513 -0.1549
 1334SOL    HW215462   2.282   0.527   3.620 -0.3803  0.2142 -0.9891
 1335SOL     OW15463   4.289   0.680   2.860 -0.2864  0.2466 -0.1432
 1335SOL    HW115464   4.343   0.621   2.807 -1.7124 -1.6689  0.5829
 1335SOL    HW215465   4.315   0.651   2.947  0.5645 -1.9689 -1.1586
 1336SOL     OW15466   3.171   1.374   7.295  0.0161 -0.0059  0.2996
 1336SOL    HW115467   3.126   1.435   7.354  1.8080  0.3508  1.3084
 1336SOL    HW215468   3.163   1.430   7.218  1.7112 -2.8710 -1.9521
 1337SOL     OW15469   1.235   2.997   7.454  0.2978  0.3893 -0.3584
 1337SOL    HW115470   1.310   2.962   7.503  0.3385  1.8641  0.6334
 1337SOL    HW215471   1.161   2.942   7.479 -0.4354  0.6559 -1.9699
 1338SOL     OW15472   1.819   3.885   7.385 -0.2796  0.1916 -0.4505
 1338SOL    HW115473   1.790   3.976   7.375  2.8631  1.2252 -0.1691
 1338SOL    HW215474   1.832   3.881   7.479  1.0140  0.0791 -0.6307
 1339SOL     OW15475   1.435   1.171   8.013 -0.6285 -0.2899  0.5672
 1339SOL    HW115476   1.447   1.086   8.055  0.1233 -0.4428  0.0446
 1339SOL    HW215477   1.527   1.195   8.006 -0.7013 -0.2982 -0.4478
 1340SOL     OW15478   0.414   3.099   2.629 -0.7283  0.2089 -0.3854
 1340SOL    HW115479   0.353   3.171   2.647  0.6056  0.6912  2.0800
 1340SOL    HW215480   0.359   3.020   2.622 -0.8946  0.1761  1.3593
 1341SOL     OW15481   0.308   1.686  10.357  0.3183  0.1330 -0.3520
 1341SOL    HW115482   0.386   1.657  10.405 -0.3083 -0.7557  0.1304
 1341SOL    HW215483   0.256   1.617  10.398 -0.8875  1.3396  0.1358
 1342SOL     OW15484   2.250   3.012   7.437 -0.5625  0.2993 -0.3240
 1342SOL    HW115485   2.234   2.963   7.356 -0.5538 -1.0416  0.4983
 1342SOL    HW215486   2.211   3.093   7.402 -0.6024  0.0365 -0.8956
 1343SOL     OW15487   0.228   2.491   7.913  0.1230  0.2175  0.0107
 1343SOL    HW115488   0.275   2.495   7.996 -0.5580  2.4998  0.2865
 1343SOL    HW215489   0.180   2.408   7.920 -0.9815  0.8803  0.3350
 1344SOL     OW15490   4.078   3.344  17.123  0.2243 -0.3659 -0.0399
 1344SOL    HW115491   4.021   3.290  17.177  0.5887  0.0206  0.7336
 1344SOL    HW215492   4.133   3.391  17.186 -0.1792 -0.8634  0.6801
 1345SOL     OW15493   1.516   0.598   3.528 -0.5180  0.1438  0.3118
 1345SOL    HW115494   1.598   0.549   3.524 -0.3840 -0.0457  5.3362
 1345SOL    HW215495   1.445   0.534   3.535  0.7266 -1.3492 -0.7655
 1346SOL     OW15496   2.176   3.367   6.349 -0.0716  0.1930  0.1562
 1346SOL    HW115497   2.083   3.387   6.344  0.1562  1.5670  1.5675
 1346SOL    HW215498   2.199   3.426   6.420  0.3343  0.8338 -0.5138
 1347SOL     OW15499   4.088   4.203   6.346 -0.3622  0.2923 -0.0269
 1347SOL    HW115500   4.070   4.297   6.345 -0.3559  0.3211  1.7090
 1347SOL    HW215501   4.182   4.213   6.362  0.0542 -0.5957 -1.8931
 1348SOL     OW15502   0.311   2.423   3.423 -0.1096  0.1129 -0.1489
 1348SOL    HW115503   0.383   2.466   3.376  0.1073 -0.6590 -0.5176
 1348SOL    HW215504   0.278   2.480   3.492  0.7324 -2.0399  2.0092
 1349SOL     OW15505   0.625   2.768   2.617 -0.5685  0.4752  0.1216
 1349SOL    HW115506   0.534   2.772   2.587  0.2808  1.4629 -2.3307
 1349SOL    HW215507   0.673   2.762   2.535  0.0031 -2.5871  0.6812
 1350SOL     OW15508   2.540   1.426   5.124  0.0981 -0.2814 -0.0709
 1350SOL    HW115509   2.596   1.361   5.081  2.4820  1.9704 -0.3490
 1350SOL    HW215510   2.597   1.464   5.190  0.3867 -0.4213 -0.2399
 1351SOL     OW15511   0.939   2.947   4.225 -0.2816  0.5058  0.3224
 1351SOL    HW115512   0.895   2.864   4.245  0.5318 -0.3752 -1.5092
 1351SOL    HW215513   1.014   2.916   4.174 -0.8875 -1.5483  0.6668
 1352SOL     OW15514   4.726   3.962  11.668  0.3699  0.1290 -0.0681
 1352SOL    HW115515   0.049   3.897  11.618 -1.0368 -2.0538  1.3465
 1352SOL    HW215516   4.719   3.915  11.751  1.1146  0.2016  0.0325
 1353SOL     OW15517   2.751   2.629   1.961 -0.0384 -0.7065 -0.5196
 1353SOL    HW115518   2.797   2.559   2.006  1.2679 -0.2771 -1.1922
 1353SOL    HW215519   2.814   2.701   1.955 -0.4144 -0.6276 -3.8868
 1354SOL     OW15520   2.117   2.563   6.186 -0.4932 -0.1603  0.8471
 1354SOL    HW115521   2.028   2.531   6.176 -0.2550 -0.4287 -0.3724
 1354SOL    HW215522   2.081   2.620   6.254  0.6559  0.1604  1.1949
 1355SOL     OW15523   0.541   4.028   2.178 -0.2888 -0.0965 -0.7377
 1355SOL    HW115524   0.597   4.104   2.193  0.3043 -1.3031  3.1058
 1355SOL    HW215525   0.584   3.950   2.214  1.6989  1.2826 -0.1483
 1356SOL     OW15526   4.166   2.382   0.299  0.2371 -0.5734 -0.0030
 1356SOL    HW115527   4.148   2.454   0.238 -1.2377 -1.1086 -0.1954
 1356SOL    HW215528   4.105   2.317   0.265 -2.4633  2.5440 -1.0994
 1357SOL     OW15529   0.862   0.567   6.683 -0.1363 -0.4507  0.0173
 1357SOL    HW115530   0.926   0.564   6.754  0.5951 -0.0152 -0.6218
 1357SOL    HW215531   0.782   0.561   6.735  0.8912  0.3466  1.6749
 1358SOL     OW15532   0.887   1.970  17.328  0.3162 -0.1204 -0.2230
 1358SOL    HW115533   0.831   2.047  17.322 -2.7151 -2.2266  1.2337
 1358SOL    HW215534   0.891   1.960  17.233  0.5565  0.1597 -0.2435
 1359SOL     OW15535   0.093   3.403   6.162 -0.2134  0.1661 -0.6151
 1359SOL    HW115536   0.071   3.335   6.225  1.6001  0.4978  0.3574
 1359SOL    HW215537   0.157   3.456   6.209  0.7144 -2.8886  1.5492
 1360SOL     OW15538   2.698   0.432   5.892  0.1176 -0.2746  0.2630
 1360SOL    HW115539   2.609   0.409   5.920 -0.8164  0.2036 -2.3227
 1360SOL    HW215540   2.718   0.487   5.968  1.0066 -0.8617  0.4474
 1361SOL     OW15541   4.535   2.976  12.194  0.0363 -0.3352 -0.0008
 1361SOL    HW115542   4.515   2.888  12.225 -0.2390 -0.9681 -1.9279
 1361SOL    HW215543   4.619   2.999  12.234 -0.7048  1.6539  0.4142
 1362SOL     OW15544   2.965   3.256   7.810  0.0397 -0.4410 -0.2706
 1362SOL    HW115545   2.880   3.282   7.774  1.6939  3.1363 -1.5422
 1362SOL    HW215546   3.001   3.192   7.749  0.0735  0.6950 -1.4203
 1363SOL     OW15547   3.633   2.595   3.137 -0.2619 -0.6297  0.5481
 1363SOL    HW115548   3.611   2.608   3.045  0.4564 -0.4981  0.3987
 1363SOL    HW215549   3.713   2.647   3.148  0.3594 -1.2554 -1.0736
 1364SOL     OW15550   0.482   0.122   4.462  0.0946  0.1142 -0.4536
 1364SOL    HW115551   0.527   0.147   4.543  2.0538  0.1854 -1.5444
 1364SOL    HW215552   0.402   0.173   4.466  0.9784  1.3563  1.0026
 1365SOL     OW15553   4.684   2.700   9.252  0.8093  0.0809  0.2677
 1365SOL    HW115554   4.593   2.714   9.280  0.1949 -1.9941 -0.6613
 1365SOL    HW215555   4.702   2.789   9.222 -0.0364  0.7927  1.8763
 1366SOL     OW15556   2.845   0.014   0.452 -0.3731  0.2199  0.3133
 1366SOL    HW115557   2.864   4.652   0.481  0.2219  0.8508  1.8154
 1366SOL    HW215558   2.915   0.020   0.386  0.2790  0.9306  1.0707
 1367SOL     OW15559   4.358   4.420   9.324  0.2890 -0.0290  0.0836
 1367SOL    HW115560   4.390   4.376   9.246 -1.2223  1.3293 -1.3034
 1367SOL    HW215561   4.404   4.363   9.387  0.6361  0.8729  0.6494
 1368SOL     OW15562   3.481   1.748   2.966  0.0455  0.2089 -0.1048
 1368SOL    HW115563   3.568   1.748   2.928  0.6473 -3.2658  1.1928
 1368SOL    HW215564   3.504   1.803   3.041 -0.7110  3.2914 -2.1314
 1369SOL     OW15565   2.251   3.247   4.970  0.1875 -0.8426  0.0000
 1369SOL    HW115566   2.190   3.320   4.971 -0.1543 -1.1311  0.2523
 1369SOL    HW215567   2.195   3.179   4.932  1.7819 -1.7198 -0.7759
 1370SOL     OW15568   4.189   2.084   8.468 -0.0900 -0.9025  0.1031
 1370SOL    HW115569   4.283   2.069   8.480  0.0802 -1.4320 -1.8920
 1370SOL    HW215570   4.177   2.165   8.518 -3.0427 -1.5581  0.4873
 1371SOL     OW15571   2.443   3.974   3.698 -0.1577  0.1427  0.3185
 1371SOL    HW115572   2.486   4.044   3.747 -0.9950  1.2408 -0.4915
 1371SOL    HW215573   2.444   3.907   3.767  0.8969  0.2699  0.4283
 1372SOL     OW15574   2.695   1.555   2.675 -0.2857  0.3997 -0.4484
 1372SOL    HW115575   2.641   1.624   2.637 -0.2535  0.1204 -1.0030
 1372SOL    HW215576   2.778   1.593   2.703  0.3694 -1.2486 -0.1460
 1373SOL     OW15577   0.789   3.421   3.985  0.2337 -0.1552 -0.9204
 1373SOL    HW115578   0.781   3.362   4.060  2.3490  1.2414  0.4124
 1373SOL    HW215579   0.881   3.445   3.998  0.5609 -0.1953 -3.2075
 1374SOL     OW15580   1.068   3.409  14.717 -0.5129  0.1776  0.3632
 1374SOL    HW115581   1.095   3.336  14.661 -0.4645  0.5645 -0.1239
 1374SOL    HW215582   1.053   3.474  14.649 -0.1437 -0.5054 -0.3770
 1375SOL     OW15583   0.411   1.426   2.149  0.6781 -0.2247  0.3427
 1375SOL    HW115584   0.459   1.510   2.151  2.2297 -1.0869 -0.7498
 1375SOL    HW215585   0.320   1.456   2.152  0.4440 -0.6726 -1.9660
 1376SOL     OW15586   0.403   3.005  13.673  0.6266  0.6039  0.0853
 1376SOL    HW115587   0.411   2.938  13.606  0.3198  1.6257 -0.9650
 1376SOL    HW215588   0.332   2.964  13.722  0.8776 -0.5176 -0.5018
 1377SOL     OW15589   4.688   0.225   2.010 -0.1282 -0.9374 -0.1017
 1377SOL    HW115590   4.650   0.213   1.922  0.5201  1.3289 -0.6865
 1377SOL    HW215591   0.053   0.200   1.996  0.5304  1.5069 -0.1247
 1378SOL     OW15592   3.927   1.467   9.726 -0.0296  0.5113 -0.1350
 1378SOL    HW115593   3.940   1.478   9.631  2.8869 -1.0709  0.0770
 1378SOL    HW215594   4.007   1.510   9.754  0.1651 -1.1722  1.8588
 1379SOL     OW15595   0.326   0.950   2.982 -0.0305 -0.2937 -0.5618
 1379SOL    HW115596   0.342   0.960   3.076 -0.4202 -2.2716 -0.2807
 1379SOL    HW215597   0.245   1.002   2.984 -0.7231 -1.4295  2.0535
 1380SOL     OW15598   0.938   2.834   0.481 -0.0298 -0.1334  0.1701
 1380SOL    HW115599   0.880   2.910   0.485  0.6446  0.4085 -0.4552
 1380SOL    HW215600   0.925   2.792   0.396 -0.6381  1.4804 -0.5388
 1381SOL     OW15601   2.969   2.419   5.608  0.1718 -0.3385 -0.1188
 1381SOL    HW115602   2.948   2.384   5.521  1.3522  0.7865 -0.8458
 1381SOL    HW215603   3.060   2.446   5.598  0.1131 -0.1131 -0.0332
 1382SOL     OW15604   1.418   2.026   3.854  0.4315  0.7948 -1.1306
 1382SOL    HW115605   1.395   2.074   3.933  0.3608 -0.1679 -0.5749
 1382SOL    HW215606   1.434   1.941   3.895 -0.5119 -0.1187 -2.6765
 1383SOL     OW15607   1.828   1.917   2.585  0.1523  0.4764  0.4783
 1383SOL    HW115608   1.872   1.902   2.502 -0.4944 -0.7675  0.3509
 1383SOL    HW215609   1.896   1.890   2.647 -1.8724 -0.8899  2.1147
 1384SOL     OW15610   4.662   2.981   2.108  0.1380  0.4636 -0.0294
 1384SOL    HW115611   4.638   3.073   2.094  0.3061  0.3158 -1.2090
 1384SOL    HW215612   4.596   2.944   2.050  0.6619  0.5260 -0.6684
 1385SOL     OW15613   2.356   3.537  17.563 -0.1645 -0.0576  0.1627
 1385SOL    HW115614   2.291   3.528  17.493  0.7780 -1.8997 -0.4788
 1385SOL    HW215615   2.432   3.567  17.514 -0.3804 -0.8072 -0.6407
 1386SOL     OW15616   2.060   3.750  17.272  0.2581  0.1946 -0.2309
 1386SOL    HW115617   2.050   3.791  17.186 -0.0845  0.3419 -0.1224
 1386SOL    HW215618   2.085   3.824  17.328  1.1478 -1.1601  1.1714
 1387SOL     OW15619   2.071   3.086   7.637  0.1967 -0.9425 -0.1584
 1387SOL    HW115620   2.022   3.124   7.564 -1.5543  0.9302  1.9484
 1387SOL    HW215621   2.149   3.049   7.596  1.3668  0.2791  0.9375
 1388SOL     OW15622   3.269   3.865   2.545 -0.3634 -0.1015 -0.3517
 1388SOL    HW115623   3.237   3.938   2.597  0.2209 -0.3156  0.3104
 1388SOL    HW215624   3.181   3.837   2.522 -0.9143  1.6377 -0.3102
 1389SOL     OW15625   4.028   4.630   5.152  0.2502 -0.8353 -0.1593
 1389SOL    HW115626   4.116   4.663   5.173  0.6163 -0.7558 -1.8661
 1389SOL    HW215627   4.010   4.673   5.069  0.4155 -0.1594  0.1462
 1390SOL     OW15628   2.610   3.770   4.524 -0.6953  0.0324  0.2601
 1390SOL    HW115629   2.684   3.725   4.482 -0.9590  0.8734 -1.1048
 1390SOL    HW215630   2.548   3.790   4.454  2.1548  2.7410 -1.4842
 1391SOL     OW15631   0.378   2.998   4.871  0.3794  0.3239  0.4136
 1391SOL    HW115632   0.331   2.977   4.790  2.2500 -2.6834  0.0992
 1391SOL    HW215633   0.424   3.075   4.838 -0.7792  0.8218 -0.0353
 1392SOL     OW15634   1.915   2.749  13.867  0.6252  0.3374 -0.4054
 1392SOL    HW115635   1.952   2.801  13.938 -0.6016 -1.4725  1.5557
 1392SOL    HW215636   1.823   2.769  13.883  0.6233  0.6176 -0.7789
 1393SOL     OW15637   4.095   3.599  14.454 -0.2987 -0.2893 -0.1136
 1393SOL    HW115638   4.189   3.580  14.452 -0.1087  0.7424 -0.8500
 1393SOL    HW215639   4.094   3.683  14.501  2.7553 -1.3098  1.7983
 1394SOL     OW15640   1.122   1.202   2.605  0.6548  0.0929  0.5641
 1394SOL    HW115641   1.037   1.244   2.589  1.1563  0.2209 -1.7516
 1394SOL    HW215642   1.099   1.149   2.682  1.6317 -1.2405 -0.0680
 1395SOL     OW15643   0.879   4.132   1.996  0.0810  0.2125  0.5561
 1395SOL    HW115644   0.843   4.196   2.058 -1.5283 -0.7732  0.6637
 1395SOL    HW215645   0.897   4.189   1.921  3.2826  1.3302  2.1720
 1396SOL     OW15646   2.602   3.334   4.488  0.4318  0.7144 -0.0359
 1396SOL    HW115647   2.522   3.350   4.539  0.1792 -2.4236  0.5879
 1396SOL    HW215648   2.659   3.399   4.527  0.3579  1.4263 -1.1345
 1397SOL     OW15649   2.891   0.685   9.465  0.3683 -0.3684  0.3798
 1397SOL    HW115650   2.808   0.652   9.498  1.2973 -2.1769  0.9339
 1397SOL    HW215651   2.950   0.610   9.471  0.9741  0.0659 -0.1079
 1398SOL     OW15652   4.261   4.555   6.539 -0.5581 -0.0841 -0.1200
 1398SOL    HW115653   4.178   4.520   6.570  0.8950 -1.8223  1.7992
 1398SOL    HW215654   4.290   4.602   6.617 -0.0718  0.3428 -0.5572
 1399SOL     OW15655   1.402   1.504  10.457 -0.2297 -0.3539 -0.6731
 1399SOL    HW115656   1.355   1.423  10.435  1.2507 -0.9156 -1.7637
 1399SOL    HW215657   1.331   1.565  10.475 -0.2680 -0.6423  0.1606
 1400SOL     OW15658   2.394   4.670   3.726  0.0902  0.1733 -0.0227
 1400SOL    HW115659   2.485   4.664   3.697 -0.4707  1.0014 -1.9540
 1400SOL    HW215660   2.377   4.576   3.719  2.2007 -0.2288  0.2190
 1401SOL     OW15661   2.297   2.211  17.259 -0.1116 -0.3665  0.2956
 1401SOL    HW115662   2.364   2.270  17.294  0.8240 -1.0669 -0.3206
 1401SOL    HW215663   2.302   2.141  17.324 -1.2899 -0.3252  0.4329
 1402SOL     OW15664   3.679   3.552   7.376  0.0927  0.5465 -0.3815
 1402SOL    HW115665   3.677   3.647   7.370  0.0725  0.4493 -1.7765
 1402SOL    HW215666   3.585   3.540   7.388  0.3224 -1.3315 -0.4384
 1403SOL     OW15667   0.342   1.727   3.950  0.2588 -0.3873 -0.2960
 1403SOL    HW115668   0.437   1.723   3.961  0.4176 -1.9227 -2.1588
 1403SOL    HW215669   0.312   1.756   4.036 -0.2150 -1.4827 -0.0929
 1404SOL     OW15670   4.210   4.426   1.352 -0.5060  0.1270 -0.0890
 1404SOL    HW115671   4.239   4.385   1.271  1.6243  0.9302  0.2602
 1404SOL    HW215672   4.216   4.521   1.338  2.8035  0.0047  0.2903
 1405SOL     OW15673   0.431   0.122   4.146 -0.5284 -0.6751  0.1818
 1405SOL    HW115674   0.521   0.089   4.144 -0.2787  0.1430 -1.8275
 1405SOL    HW215675   0.435   0.176   4.068  1.9863  0.1037  0.8436
 1406SOL     OW15676   2.714   2.285   1.037  0.0696 -0.4670  0.6241
 1406SOL    HW115677   2.750   2.371   1.060 -1.4460  0.4078 -0.2939
 1406SOL    HW215678   2.693   2.248   1.123 -0.2780 -1.6767  0.0112
 1407SOL     OW15679   3.247   1.549   6.812  0.9332  0.2561  0.3079
 1407SOL    HW115680   3.312   1.478   6.806 -0.6894 -1.3115  1.1407
 1407SOL    HW215681   3.231   1.575   6.722 -0.8930  3.5778  1.6130
 1408SOL     OW15682   0.878   2.912   1.986 -0.4021 -0.5793 -0.1130
 1408SOL    HW115683   0.959   2.908   2.037 -0.6201  2.6487  0.5353
 1408SOL    HW215684   0.872   2.828   1.941  0.6333 -0.5975 -0.2143
 1409SOL     OW15685   1.636   1.357  10.519  0.0922  0.7084  0.3149
 1409SOL    HW115686   1.581   1.280  10.505  1.5848 -0.5420  1.2704
 1409SOL    HW215687   1.563   1.413  10.544 -0.9961 -0.5185 -0.0784
 1410SOL     OW15688   3.536   2.562   2.886 -0.0482 -0.0108  0.7623
 1410SOL    HW115689   3.589   2.498   2.837 -2.2316 -0.1435 -1.3881
 1410SOL    HW215690   3.532   2.638   2.828  2.4020 -0.3526  0.1278
 1411SOL     OW15691   0.069   0.119   7.100  0.3221 -1.0188  0.5184
 1411SOL    HW115692   0.156   0.094   7.068  1.2968  1.0274  1.5966
 1411SOL    HW215693   0.081   0.138   7.193  0.9109  3.8122 -0.5400
 1412SOL     OW15694   0.817   1.658  17.421 -0.9170 -0.3125 -0.2725
 1412SOL    HW115695   0.887   1.684  17.361 -0.1412  0.3560  0.9454
 1412SOL    HW215696   0.873   1.600  17.473 -2.0656 -0.9518  0.2381
 1413SOL     OW15697   4.022   0.286   7.789 -0.2525  0.0524 -0.4350
 1413SOL    HW115698   3.931   0.315   7.783 -0.7847 -1.0046  2.3609
 1413SOL    HW215699   4.063   0.344   7.725 -0.7316  0.1530 -0.6537
 1414SOL     OW15700   0.971   3.388   0.342  0.6253  0.1602  0.6104
 1414SOL    HW115701   0.893   3.400   0.395 -0.6762 -0.7867 -1.1051
 1414SOL    HW215702   1.020   3.467   0.364  0.1299  1.0923 -1.5947
 1415SOL     OW15703   4.108   2.024   7.936 -0.4567 -0.5499  0.1662
 1415SOL    HW115704   4.051   1.948   7.934  0.9915 -1.6021 -1.2565
 1415SOL    HW215705   4.055   2.101   7.956 -0.6286 -0.8138  0.7111
 1416SOL     OW15706   0.131   0.156   5.472  0.8280 -0.2179  0.0599
 1416SOL    HW115707   0.191   0.198   5.410 -0.7460  1.4410 -0.3422
 1416SOL    HW215708   0.131   0.223   5.541  1.9907  1.2130 -1.3240
 1417SOL     OW15709   3.854   1.064   1.180 -0.3359 -0.1216 -0.3841
 1417SOL    HW115710   3.838   1.044   1.273 -0.9940  1.8016 -0.0855
 1417SOL    HW215711   3.800   1.001   1.132  0.9293 -0.8160 -0.8975
 1418SOL     OW15712   3.210   1.356  13.318 -0.4326  0.0422 -0.6258
 1418SOL    HW115713   3.240   1.351  13.409 -0.5160 -1.7150 -0.6843
 1418SOL    HW215714   3.292   1.357  13.269 -0.6195 -0.0435 -0.9400
 1419SOL     OW15715   0.836   2.465   3.670  0.5690  0.2047  0.1065
 1419SOL    HW115716   0.758   2.481   3.618 -0.6203 -1.5124  1.3586
 1419SOL    HW215717   0.812   2.385   3.717  0.1899  0.7554  0.8510
 1420SOL     OW15718   4.421   4.696  13.256 -1.0718  0.1245 -0.3649
 1420SOL    HW115719   4.399   4.719  13.346 -2.5776  0.6305 -0.8645
 1420SOL    HW215720   4.331   4.688  13.224 -0.8692 -0.0085 -0.9002
 1421SOL     OW15721   4.646   3.277   2.471  0.2691 -0.0359 -0.2034
 1421SOL    HW115722   4.604   3.220   2.535 -0.9080  1.5079  0.3831
 1421SOL    HW215723   4.579   3.289   2.405  0.4074 -0.0690 -0.3505
 1422SOL     OW15724   3.869   0.142   8.086 -0.0590  0.1018  0.4055
 1422SOL    HW115725   3.914   0.225   8.101  1.9236 -1.1582  1.4935
 1422SOL    HW215726   3.942   0.086   8.112 -1.7902 -1.1996  2.4939
 1423SOL     OW15727   1.842   2.379   4.052  0.1724  0.5786  0.1323
 1423SOL    HW115728   1.925   2.419   4.078  0.5895  0.0415 -0.3917
 1423SOL    HW215729   1.857   2.295   4.094 -3.6894  1.2711  2.9626
 1424SOL     OW15730   0.037   0.104   9.405 -0.1189  0.5923 -0.7924
 1424SOL    HW115731   0.078   0.142   9.327 -0.4782  2.3168 -0.1485
 1424SOL    HW215732   0.045   0.010   9.392 -0.2785  0.0300  3.0480
 1425SOL     OW15733   2.126   3.566  16.041 -0.0708  0.0490  0.2697
 1425SOL    HW115734   2.129   3.535  16.132  1.2923 -0.2424  0.1340
 1425SOL    HW215735   2.135   3.477  16.006 -0.7994 -0.6121  1.7481
 1426SOL     OW15736   0.246   4.614   7.370  0.7818  0.1526 -0.2958
 1426SOL    HW115737   0.162   4.569   7.371 -0.0550  1.7864  3.4856
 1426SOL    HW215738   0.290   4.575   7.294 -0.2950 -1.3762 -0.1279
 1427SOL     OW15739   0.845   1.694   0.786 -0.5490 -0.1910  0.1821
 1427SOL    HW115740   0.820   1.662   0.873 -0.4069 -1.1413 -0.1174
 1427SOL    HW215741   0.764   1.678   0.737 -0.9524  3.7369 -0.3603
 1428SOL     OW15742   2.558   1.358   5.501 -0.1836  0.2070 -0.0745
 1428SOL    HW115743   2.538   1.395   5.587  3.2808  0.3303  0.6825
 1428SOL    HW215744   2.524   1.270   5.515 -4.7391  2.3853  2.3063
 1429SOL     OW15745   1.910   0.691   6.553 -1.0476 -0.1020  0.2045
 1429SOL    HW115746   1.908   0.678   6.648  1.2651  0.9366  0.3809
 1429SOL    HW215747   1.969   0.766   6.553  0.5556 -1.3925 -3.0127
 1430SOL     OW15748   2.643   2.391   2.783  0.5202 -0.2805  0.4195
 1430SOL    HW115749   2.643   2.483   2.811 -0.6707 -0.2145  0.2095
 1430SOL    HW215750   2.738   2.383   2.788  0.4468 -1.5350 -0.2883
 1431SOL     OW15751   1.357   1.157   5.792  0.6827 -0.7560 -0.3320
 1431SOL    HW115752   1.355   1.209   5.872  0.4524  0.4015 -1.0934
 1431SOL    HW215753   1.375   1.065   5.810 -0.3816 -0.7905  0.5652
 1432SOL     OW15754   4.384   2.499   9.805  0.2721  0.1039 -0.2513
 1432SOL    HW115755   4.409   2.568   9.743  0.7044  0.9305  0.8362
 1432SOL    HW215756   4.413   2.548   9.882 -1.4782 -2.7500  2.1830
 1433SOL     OW15757   0.600   1.424  16.920 -0.7441  0.8682  0.3783
 1433SOL    HW115758   0.597   1.513  16.954  0.7622 -0.4550  3.9428
 1433SOL    HW215759   0.519   1.384  16.951 -0.1482  0.8687  1.9369
 1434SOL     OW15760   1.678   4.650   6.444 -0.3815  0.0992  0.1233
 1434SOL    HW115761   1.690   4.588   6.372 -0.1350  0.2316  0.0523
 1434SOL    HW215762   1.706   0.004   6.401  0.2336  0.6507  1.5847
 1435SOL     OW15763   3.094   4.078   8.783 -0.1222  0.0082  0.4687
 1435SOL    HW115764   3.060   4.153   8.832 -2.1075 -0.8600  0.4205
 1435SOL    HW215765   3.115   4.116   8.697 -0.6655 -0.2144  0.2373
 1436SOL     OW15766   1.481   1.269  17.320  0.0798 -0.1562  0.2622
 1436SOL    HW115767   1.554   1.326  17.299  1.2130 -1.8207 -0.3577
 1436SOL    HW215768   1.526   1.184  17.318 -0.8267 -0.6575  1.8113
 1437SOL     OW15769   3.325   0.629  13.110 -0.8431 -0.2092  0.1442
 1437SOL    HW115770   3.373   0.619  13.192 -0.4713  1.9238  0.2021
 1437SOL    HW215771   3.283   0.714  13.126  1.7608  1.0456  0.3733
 1438SOL     OW15772   4.519   3.424   4.654 -0.0428 -0.4420 -0.3397
 1438SOL    HW115773   4.551   3.339   4.684  1.7491  1.3952  2.8919
 1438SOL    HW215774   4.433   3.402   4.617 -1.0351 -1.9880  2.8689
 1439SOL     OW15775   4.451   1.208   1.383  0.0975  0.4516 -0.4282
 1439SOL    HW115776   4.512   1.260   1.434  1.5042 -1.1693 -0.4385
 1439SOL    HW215777   4.452   1.278   1.318 -0.0046 -0.0644 -0.9978
 1440SOL     OW15778   4.695   1.862   3.712 -0.2363  0.0875  0.1251
 1440SOL    HW115779   4.651   1.788   3.753  1.7320 -0.4851  1.2096
 1440SOL    HW215780   0.034   1.877   3.780 -1.3595  0.5145  1.1115
 1441SOL     OW15781   2.295   1.330  15.177 -0.1173 -0.3422 -0.2301
 1441SOL    HW115782   2.211   1.285  15.168 -0.7552  0.9884 -1.0368
 1441SOL    HW215783   2.350   1.259  15.145  2.0281  0.6988  1.1674
 1442SOL     OW15784   3.209   3.772   7.233  0.1357  0.0512  0.3965
 1442SOL    HW115785   3.289   3.823   7.242 -0.8375  1.8032 -0.8751
 1442SOL    HW215786   3.147   3.837   7.263  0.1210  0.6846 -0.9807
 1443SOL     OW15787   3.898   2.144   3.381 -0.2892  0.2838 -0.4567
 1443SOL    HW115788   3.896   2.105   3.294 -0.9706 -1.0292  0.1593
 1443SOL    HW215789   3.844   2.222   3.373 -2.2760 -0.9690  0.9474
 1444SOL     OW15790   3.601   0.226  16.395 -0.0875 -0.3309 -0.1480
 1444SOL    HW115791   3.539   0.249  16.325 -2.7862 -0.0799  2.3691
 1444SOL    HW215792   3.639   0.310  16.420 -1.5269  0.2997 -0.0886
 1445SOL     OW15793   2.949   3.998   1.189  0.6273 -0.1087 -0.2492
 1445SOL    HW115794   2.866   3.999   1.140 -0.1443 -2.6540  1.0160
 1445SOL    HW215795   2.972   3.907   1.173  3.5933  0.0855  3.0952
 1446SOL     OW15796   3.587   1.793  15.312  0.1650  0.5437 -0.6766
 1446SOL    HW115797   3.557   1.713  15.269  0.4646 -0.1539  0.4139
 1446SOL    HW215798   3.644   1.823  15.241  1.4617  0.9519  0.5354
 1447SOL     OW15799   1.207   3.644  13.931 -0.3430  0.1008  0.4549
 1447SOL    HW115800   1.285   3.603  13.892  0.6443  1.0528  1.4299
 1447SOL    HW215801   1.225   3.632  14.025 -0.8401  2.4305  0.8357
 1448SOL     OW15802   1.832   3.705  12.203 -0.1122  0.2137  0.7106
 1448SOL    HW115803   1.753   3.682  12.155 -0.1723  0.7576  0.5489
 1448SOL    HW215804   1.900   3.646  12.170 -2.3173 -2.0065  0.1978
 1449SOL     OW15805   1.280   3.776   3.815 -0.6107  0.0219 -0.1831
 1449SOL    HW115806   1.257   3.868   3.827  2.8139  0.8074  0.2069
 1449SOL    HW215807   1.293   3.748   3.905 -2.4236 -0.1238  0.0293
 1450SOL     OW15808   0.726   2.672   5.223 -0.3842 -0.0167  0.5996
 1450SOL    HW115809   0.745   2.636   5.310  2.6121  0.1824  0.0322
 1450SOL    HW215810   0.773   2.755   5.240 -0.8741  0.2597  0.5994
 1451SOL     OW15811   2.379   0.154  12.566  0.2199  0.0886 -0.3378
 1451SOL    HW115812   2.403   0.247  12.565  0.0378  0.1339 -0.7059
 1451SOL    HW215813   2.332   0.142  12.483 -0.2826 -1.1991  0.1252
 1452SOL     OW15814   1.667   0.362   5.030 -0.3268 -0.4361 -0.4416
 1452SOL    HW115815   1.607   0.297   5.068  2.0077 -3.1622 -1.4085
 1452SOL    HW215816   1.662   0.333   4.939  1.3138 -2.8204  0.2260
 1453SOL     OW15817   0.758   1.179   7.298 -0.1571  0.0085 -0.5407
 1453SOL    HW115818   0.664   1.163   7.297  0.4831 -3.8909  0.8945
 1453SOL    HW215819   0.752   1.261   7.347  1.9390  0.8180 -1.6139
 1454SOL     OW15820   4.375   1.269   7.587 -0.1309 -0.0222 -0.0045
 1454SOL    HW115821   4.381   1.342   7.649  1.6724 -0.1003 -0.0966
 1454SOL    HW215822   4.334   1.318   7.515 -0.5239  1.6087  1.3290
 1455SOL     OW15823   1.175   2.220   0.752 -0.7555 -0.1503  0.2211
 1455SOL    HW115824   1.081   2.217   0.735 -1.4147 -0.0997  3.7839
 1455SOL    HW215825   1.188   2.314   0.763 -2.7832 -0.0727  1.9356
 1456SOL     OW15826   2.591   2.196  14.728  0.6600 -0.3866 -0.3258
 1456SOL    HW115827   2.513   2.205  14.672 -0.4454 -2.1961  0.9365
 1456SOL    HW215828   2.560   2.132  14.791  0.3982 -1.3566 -1.4254
 1457SOL     OW15829   4.266   1.199   0.315 -0.8210 -0.1441  0.4159
 1457SOL    HW115830   4.315   1.136   0.368 -2.0502 -0.8334  0.7528
 1457SOL    HW215831   4.183   1.185   0.360 -1.5613 -1.0240 -1.2044
 1458SOL     OW15832   0.644   0.531   0.912 -0.2813  0.2227 -0.3237
 1458SOL    HW115833   0.667   0.611   0.865 -2.0233 -0.1853 -1.8613
 1458SOL    HW215834   0.554   0.517   0.883 -0.1274  1.4683 -1.4187
 1459SOL     OW15835   1.919   0.789   5.221  0.0537 -0.0704 -0.8053
 1459SOL    HW115836   1.855   0.719   5.209 -0.0242  0.2065 -1.9461
 1459SOL    HW215837   2.006   0.750   5.211  0.0610 -0.3703  0.4682
 1460SOL     OW15838   1.158   0.360  15.086  0.0576  0.5503 -0.1139
 1460SOL    HW115839   1.207   0.413  15.024  0.1849 -0.5537 -0.9607
 1460SOL    HW215840   1.228   0.297  15.105 -2.7535 -2.8582 -1.0697
 1461SOL     OW15841   1.950   0.654  14.796 -0.3781 -0.2870 -0.3636
 1461SOL    HW115842   1.909   0.568  14.789  0.8008 -0.8981  0.0987
 1461SOL    HW215843   2.027   0.636  14.850 -0.4622  1.0829  0.2183
 1462SOL     OW15844   1.372   2.287   8.609  0.6295  0.1970  0.0560
 1462SOL    HW115845   1.458   2.270   8.572  0.2478  0.6068 -1.0125
 1462SOL    HW215846   1.328   2.336   8.539  0.9773  1.6003  0.8320
 1463SOL     OW15847   1.640   1.180  14.482 -0.2992 -0.1159 -0.3193
 1463SOL    HW115848   1.647   1.133  14.399 -0.3301 -1.1826  0.2819
 1463SOL    HW215849   1.610   1.264  14.448 -0.3053  0.4094  0.9880
 1464SOL     OW15850   2.052   2.339   8.251  0.4231 -0.2689 -0.1704
 1464SOL    HW115851   1.991   2.322   8.323  2.8211 -1.9725  1.4771
 1464SOL    HW215852   2.088   2.425   8.272 -1.1036  0.3353 -0.0576
 1465SOL     OW15853   0.578   0.622   1.337 -0.1615 -0.0744  0.0790
 1465SOL    HW115854   0.572   0.560   1.410 -0.0308  1.8882  1.7653
 1465SOL    HW215855   0.669   0.647   1.357 -0.5510 -0.4668  2.4176
 1466SOL     OW15856   2.887   1.450  13.081 -0.1177  0.0394  0.3262
 1466SOL    HW115857   2.826   1.441  13.007 -0.7589  3.2304  0.4655
 1466SOL    HW215858   2.955   1.511  13.052  1.4182 -1.2319  1.2446
 1467SOL     OW15859   0.156   4.222  12.261  0.4337 -0.5912 -0.3952
 1467SOL    HW115860   0.145   4.272  12.342  1.7710 -1.9223  0.6021
 1467SOL    HW215861   0.215   4.152  12.288  0.5966 -0.6498 -0.9042
 1468SOL     OW15862   2.350   2.725  16.813  0.3241 -0.0411  0.6178
 1468SOL    HW115863   2.384   2.647  16.856  0.3799 -1.4221 -1.9643
 1468SOL    HW215864   2.374   2.713  16.721 -0.3121  2.1347  0.1705
 1469SOL     OW15865   2.758   2.816  16.243  0.5627  0.4184  0.5357
 1469SOL    HW115866   2.702   2.758  16.294  1.5685  0.8213  2.0839
 1469SOL    HW215867   2.712   2.894  16.273 -0.7888  0.3243 -1.2487
 1470SOL     OW15868   1.098   1.992  11.057 -0.8435 -0.6376  0.0647
 1470SOL    HW115869   1.023   1.997  11.116 -0.7617  0.3398  0.0780
 1470SOL    HW215870   1.138   2.078  11.070 -0.0014 -1.0545  0.2267
 1471SOL     OW15871   2.804   3.997   1.802  0.0126  0.0044  0.2487
 1471SOL    HW115872   2.871   3.993   1.735 -0.9371 -1.0183 -0.6415
 1471SOL    HW215873   2.833   4.071   1.855  0.8050  1.2448 -1.9735
 1472SOL     OW15874   0.292   1.113   6.397 -0.1743  0.1400 -0.6509
 1472SOL    HW115875   0.241   1.057   6.455  0.8694  0.2472  0.3700
 1472SOL    HW215876   0.320   1.176   6.464  2.1696 -1.3070 -0.2772
 1473SOL     OW15877   2.428   4.293   7.700 -0.2082 -0.0657 -0.5317
 1473SOL    HW115878   2.478   4.261   7.774  0.5946 -0.6889 -1.3418
 1473SOL    HW215879   2.381   4.214   7.672 -1.6727  0.6507 -0.0914
 1474SOL     OW15880   3.592   4.333   3.973 -0.0151  0.3991  0.6401
 1474SOL    HW115881   3.626   4.278   4.043 -2.5012 -2.8771 -0.6917
 1474SOL    HW215882   3.665   4.395   3.971  0.5609 -0.2601  1.4197
 1475SOL     OW15883   4.234   4.321  10.812 -0.2072 -0.0394 -0.6715
 1475SOL    HW115884   4.176   4.277  10.875 -0.2464  1.0294  0.0221
 1475SOL    HW215885   4.181   4.381  10.759  2.2868  1.7188 -1.1509
 1476SOL     OW15886   1.687   2.339   4.663 -0.1957 -0.0044  0.2172
 1476SOL    HW115887   1.703   2.340   4.569  1.4092  1.3646  0.4997
 1476SOL    HW215888   1.615   2.403   4.663  0.0897  0.3070 -0.6256
 1477SOL     OW15889   3.986   0.353   7.342 -0.7630  0.2358  0.2044
 1477SOL    HW115890   4.002   0.440   7.306 -0.7273 -0.3459 -1.1739
 1477SOL    HW215891   3.903   0.368   7.387  0.3712  1.7918  1.7886
 1478SOL     OW15892   3.389   1.291   0.227 -0.5049 -0.4781 -0.8595
 1478SOL    HW115893   3.313   1.233   0.215 -1.0105  0.0468 -0.1890
 1478SOL    HW215894   3.352   1.370   0.265  1.7872 -0.2400  0.8706
 1479SOL     OW15895   3.346   0.620   4.258 -0.2979 -0.1589  0.2660
 1479SOL    HW115896   3.306   0.696   4.300  2.8555  0.7358  1.6202
 1479SOL    HW215897   3.440   0.630   4.270 -0.7919 -0.4673  4.3515
 1480SOL     OW15898   2.326   0.814   4.845  0.4256 -0.5166  0.3725
 1480SOL    HW115899   2.243   0.794   4.800 -0.6861  0.7230  1.8797
 1480SOL    HW215900   2.347   0.902   4.814 -0.2979 -0.1164  1.0276
 1481SOL     OW15901   0.715   1.626   4.381 -0.6050  0.0111  0.3471
 1481SOL    HW115902   0.777   1.656   4.447 -0.2832  1.2643 -0.5103
 1481SOL    HW215903   0.755   1.671   4.307  1.3744  0.4546  1.6726
 1482SOL     OW15904   0.746   2.305  10.638  0.7734  0.3453 -0.3590
 1482SOL    HW115905   0.693   2.355  10.700 -0.3433 -1.9512  0.5392
 1482SOL    HW215906   0.685   2.262  10.578 -0.4937 -1.0954  1.9653
 1483SOL     OW15907   2.799   3.816  11.436  0.8349 -0.1232  0.6423
 1483SOL    HW115908   2.866   3.791  11.499  0.7049 -1.0623  0.4108
 1483SOL    HW215909   2.761   3.887  11.488 -0.5418 -0.5236  0.1796
 1484SOL     OW15910   1.210   0.734  16.864  0.4824  0.2351  0.2879
 1484SOL    HW115911   1.158   0.762  16.940  1.0649  2.9502 -0.3496
 1484SOL    HW215912   1.179   0.644  16.853 -0.4304  0.7913 -1.5962
 1485SOL     OW15913   0.801   3.541   3.375  0.1458  0.0050 -0.7458
 1485SOL    HW115914   0.784   3.505   3.287  1.7600 -1.1965 -0.5738
 1485SOL    HW215915   0.802   3.453   3.412  1.5401  0.3828  0.0941
 1486SOL     OW15916   3.333   1.613  17.182  0.2089 -0.5308  0.4664
 1486SOL    HW115917   3.318   1.665  17.260 -2.3412  0.0563 -0.4185
 1486SOL    HW215918   3.398   1.672  17.143 -1.9962  1.0188 -0.8585
 1487SOL     OW15919   4.004   0.496   5.912 -0.0240 -0.0554  0.1170
 1487SOL    HW115920   3.992   0.492   6.007  1.3154 -1.0682  0.2316
 1487SOL    HW215921   4.086   0.450   5.894  1.2055  1.3622  2.1956
 1488SOL     OW15922   2.636   3.310   2.931  0.3966 -0.6378 -0.1461
 1488SOL    HW115923   2.605   3.219   2.928 -0.2910 -0.4383  0.7610
 1488SOL    HW215924   2.725   3.302   2.965  0.5194 -5.4921 -1.5727
 1489SOL     OW15925   4.083   1.210   1.036 -0.5088 -0.2083  0.2332
 1489SOL    HW115926   4.088   1.150   0.961 -1.7967  0.4898 -0.4183
 1489SOL    HW215927   4.015   1.167   1.089 -1.2498  1.0374  0.2929
 1490SOL     OW15928   2.626   2.632   7.469  0.0615 -0.2211 -0.1009
 1490SOL    HW115929   2.714   2.598   7.451  0.5568  0.6505  0.6709
 1490SOL    HW215930   2.561   2.562   7.471  0.6929 -0.7120  3.2757
 1491SOL     OW15931   1.233   0.774   1.624 -0.1315  0.3304 -0.0561
 1491SOL    HW115932   1.303   0.789   1.689  1.2621 -0.4757 -1.3580
 1491SOL    HW215933   1.276   0.815   1.549  0.3983 -0.4374 -0.1720
 1492SOL     OW15934   3.120   0.765  17.683 -0.9046 -0.3384 -0.0616
 1492SOL    HW115935   3.177   0.834  17.651 -2.5522  0.3622 -1.4402
 1492SOL    HW215936   3.148   0.691  17.629  0.9607 -0.4258  1.0356
 1493SOL     OW15937   4.324   4.097   7.725 -0.0015  0.0254 -0.4528
 1493SOL    HW115938   4.356   4.023   7.777  0.3989  0.3025 -0.3132
 1493SOL    HW215939   4.229   4.082   7.724 -0.3161  1.8613  1.7154
 1494SOL     OW15940   1.404   3.599   4.478 -0.4758 -0.1870  0.7906
 1494SOL    HW115941   1.394   3.507   4.504  1.0057 -0.6598 -0.2803
 1494SOL    HW215942   1.325   3.620   4.428  1.1052  0.8927 -1.2399
 1495SOL     OW15943   4.598   2.589   5.452  0.0162 -0.4918 -0.0079
 1495SOL    HW115944   4.553   2.669   5.426 -2.3624 -1.4139  1.2708
 1495SOL    HW215945   4.612   2.556   5.363 -1.4172  2.2556 -1.2580
 1496SOL     OW15946   3.226   1.397   5.897  0.1315  0.1209 -0.0002
 1496SOL    HW115947   3.195   1.411   5.807 -0.9330 -1.0613  0.1860
 1496SOL    HW215948   3.185   1.311   5.900  0.3762  0.0473  1.2580
 1497SOL     OW15949   2.037   2.119  14.984  0.0413  0.3406  0.8999
 1497SOL    HW115950   1.967   2.151  15.040 -0.3729  1.9814 -0.5231
 1497SOL    HW215951   2.054   2.200  14.935 -0.0037 -1.0672 -1.4320
 1498SOL     OW15952   0.505   0.807  16.023  0.7243  0.8273 -0.0198
 1498SOL    HW115953   0.540   0.718  16.021 -1.2742  0.0536 -0.2300
 1498SOL    HW215954   0.414   0.783  16.039  0.6370  1.1020 -0.1081
 1499SOL     OW15955   1.269   1.197   0.424  0.7840 -0.0777  0.3007
 1499SOL    HW115956   1.229   1.113   0.446  0.8377  0.2842  1.7636
 1499SOL    HW215957   1.217   1.210   0.345 -1.1086  2.1892  1.9455
 1500SOL     OW15958   3.201   3.873  12.009  0.6129  0.2332  0.3231
 1500SOL    HW115959   3.160   3.843  12.090 -1.7166 -1.6384 -1.5639
 1500SOL    HW215960   3.293   3.849  12.019  1.5742  3.5682 -0.2762
 1501SOL     OW15961   1.884   1.831   1.300 -0.5170  0.1753 -0.4402
 1501SOL    HW115962   1.817   1.872   1.356 -2.0137 -0.1976 -1.9384
 1501SOL    HW215963   1.960   1.875   1.338 -1.4960  0.4071  1.2612
 1502SOL     OW15964   3.315   4.023   5.277 -0.0499  0.0681  0.4023
 1502SOL    HW115965   3.281   4.096   5.225  0.5010 -0.0895 -0.1768
 1502SOL    HW215966   3.405   4.038   5.248  0.0646 -0.0981  0.6708
 1503SOL     OW15967   0.800   1.021   4.566 -0.7663  0.4173  0.2327
 1503SOL    HW115968   0.840   0.938   4.540 -0.0095  0.2594  1.8877
 1503SOL    HW215969   0.760   1.005   4.651 -1.6228 -0.3253 -0.3135
 1504SOL     OW15970   1.096   4.221   8.534  0.4206 -0.4238 -0.8378
 1504SOL    HW115971   1.170   4.261   8.580 -0.4818 -0.1030  0.3375
 1504SOL    HW215972   1.138   4.175   8.460  2.1912  3.4274 -2.2664
 1505SOL     OW15973   3.727   2.837  12.842 -0.1789  0.5424  0.2538
 1505SOL    HW115974   3.741   2.826  12.936 -0.3148 -1.3978  0.0440
 1505SOL    HW215975   3.813   2.870  12.816  0.4306 -0.7414  0.6603
 1506SOL     OW15976   2.834   3.048   8.080 -0.0649  0.3968 -0.2925
 1506SOL    HW115977   2.770   3.028   8.011 -1.3230 -0.2809  1.0854
 1506SOL    HW215978   2.794   2.994   8.147 -1.3227  0.6625 -0.8369
 1507SOL     OW15979   1.168   4.144  13.302 -0.6441 -0.0172 -0.3455
 1507SOL    HW115980   1.142   4.052  13.303  0.3061 -0.2568  2.4272
 1507SOL    HW215981   1.103   4.179  13.240 -0.4948  0.2083 -0.3781
 1508SOL     OW15982   2.783   2.877   7.412  0.3631  0.5703  0.1769
 1508SOL    HW115983   2.755   2.786   7.407 -1.0588  0.9775  0.7949
 1508SOL    HW215984   2.706   2.930   7.390 -0.1060 -0.9837 -1.9698
 1509SOL     OW15985   1.745   3.757   2.690  0.0340 -0.5963 -0.0972
 1509SOL    HW115986   1.692   3.709   2.753 -0.2044 -0.7178 -0.3927
 1509SOL    HW215987   1.684   3.755   2.616 -0.9141  1.4156  0.6221
 1510SOL     OW15988   0.369   4.000  16.732 -0.3438 -0.4493  0.0811
 1510SOL    HW115989   0.441   4.038  16.680 -1.0567  0.2280 -0.4126
 1510SOL    HW215990   0.410   3.992  16.818  0.6888  2.8441 -0.0633
 1511SOL     OW15991   0.947   1.883  16.017  0.7080 -0.1259 -0.4024
 1511SOL    HW115992   0.921   1.880  16.109 -0.0029  0.7453 -0.5784
 1511SOL    HW215993   0.869   1.843  15.981 -0.4217  1.9590 -0.2564
 1512SOL     OW15994   4.064   0.964   1.829 -0.8380  0.4446 -0.3652
 1512SOL    HW115995   3.995   0.983   1.893  0.4261 -0.7593  1.3416
 1512SOL    HW215996   4.139   0.963   1.888 -1.4879 -0.5195  0.4590
 1513SOL     OW15997   4.002   0.192   6.648  0.6717 -0.1773 -0.3623
 1513SOL    HW115998   3.956   0.116   6.613 -0.4987  0.0135  0.7654
 1513SOL    HW215999   3.965   0.221   6.731  2.7553 -0.3241  0.6340
 1514SOL     OW16000   4.521   0.675  16.806 -0.5846  0.1512  0.2692
 1514SOL    HW116001   4.579   0.614  16.851 -0.0337 -0.8625 -1.8208
 1514SOL    HW216002   4.586   0.728  16.759  0.4202 -0.6293  0.7775
 1515SOL     OW16003   2.441   0.674   3.487  0.2493 -0.0346  0.0317
 1515SOL    HW116004   2.426   0.699   3.396 -2.0377 -0.6564  0.2373
 1515SOL    HW216005   2.371   0.733   3.514  0.4927  0.5219 -0.5538
 1516SOL     OW16006   3.584   4.206   3.333  0.3159  0.2068 -0.1096
 1516SOL    HW116007   3.571   4.121   3.377  0.3694  0.5767  0.6176
 1516SOL    HW216008   3.606   4.168   3.248  2.2222  0.2526  0.3567
 1517SOL     OW16009   3.968   3.680   6.466  0.0167  0.3852  0.4283
 1517SOL    HW116010   3.922   3.635   6.395  0.8988 -0.2787  0.2706
 1517SOL    HW216011   3.897   3.674   6.529 -0.3897 -1.1401 -0.1461
 1518SOL     OW16012   2.903   3.024   4.343 -0.3989  0.5398 -0.3430
 1518SOL    HW116013   2.965   3.005   4.414 -0.3618  0.2679 -0.4478
 1518SOL    HW216014   2.963   3.006   4.270 -1.2406 -1.6737 -0.5074
 1519SOL     OW16015   0.722   0.564   8.306  0.5920  0.1760 -0.5415
 1519SOL    HW116016   0.655   0.518   8.255 -0.7260  0.0133  1.2972
 1519SOL    HW216017   0.786   0.576   8.236  0.6007  1.5352 -0.3025
 1520SOL     OW16018   2.830   3.579   7.827  0.0497 -0.0695  0.0366
 1520SOL    HW116019   2.896   3.571   7.896  0.3078 -0.2354 -0.2284
 1520SOL    HW216020   2.755   3.599   7.883  0.3570  1.9474 -0.2505
 1521SOL     OW16021   3.877   0.618   0.580 -0.5768 -0.0832  0.2498
 1521SOL    HW116022   3.823   0.694   0.557 -2.9482 -1.0516  2.6967
 1521SOL    HW216023   3.810   0.550   0.590 -0.2308 -0.6462 -1.2467
 1522SOL     OW16024   2.434   4.156   6.355  0.2306 -0.2096 -0.0544
 1522SOL    HW116025   2.350   4.192   6.324 -0.3280 -1.2780  0.2201
 1522SOL    HW216026   2.411   4.068   6.384  0.1129  0.1950  1.0916
 1523SOL     OW16027   2.031   4.579  16.953 -0.2199  0.3475  0.4999
 1523SOL    HW116028   2.006   4.503  16.901 -1.4597  0.6705  0.6093
 1523SOL    HW216029   1.974   4.649  16.920 -0.3814  1.0189  2.1912
 1524SOL     OW16030   0.924   4.298   6.781 -0.3083  0.4467  0.1524
 1524SOL    HW116031   0.835   4.286   6.748 -0.0383  0.2861 -0.5331
 1524SOL    HW216032   0.976   4.332   6.708 -1.6978 -0.1405 -1.1180
 1525SOL     OW16033   2.160   0.733   5.636 -0.0247 -0.1902 -0.2623
 1525SOL    HW116034   2.232   0.779   5.680 -0.8131 -0.5292  1.3805
 1525SOL    HW216035   2.199   0.733   5.549  0.7701  0.5363  0.0946
 1526SOL     OW16036   1.601   1.222  10.828 -0.6671 -0.0547  0.1781
 1526SOL    HW116037   1.610   1.147  10.769  3.1117 -1.2471  2.2328
 1526SOL    HW216038   1.559   1.191  10.908  1.2843 -0.2741  1.1392
 1527SOL     OW16039   1.184   2.467   7.947  0.3820  0.0506  0.2570
 1527SOL    HW116040   1.165   2.533   8.014  1.3549 -0.3788  0.9550
 1527SOL    HW216041   1.190   2.403   8.018  0.7697 -1.4353 -1.1196
 1528SOL     OW16042   1.303   2.997   3.808 -0.1935 -0.0443  0.6708
 1528SOL    HW116043   1.336   2.932   3.870  0.0715 -1.1188 -0.6051
 1528SOL    HW216044   1.209   2.985   3.815 -0.6580  1.7268 -2.1327
 1529SOL     OW16045   0.857   4.107   4.911 -0.1429  0.0140 -0.9405
 1529SOL    HW116046   0.909   4.187   4.920  0.3144 -0.5403  1.5385
 1529SOL    HW216047   0.913   4.057   4.852  0.3881 -0.7941  0.2544
 1530SOL     OW16048   1.576   0.133   7.009  0.3524  0.1713  0.3563
 1530SOL    HW116049   1.504   0.122   7.071 -0.3315 -1.7597 -0.7921
 1530SOL    HW216050   1.516   0.165   6.942  0.3048 -0.5334  0.0573
 1531SOL     OW16051   0.464   2.534   9.053 -0.3973 -0.0500  0.7703
 1531SOL    HW116052   0.439   2.607   8.996  0.4698  0.6332  1.2570
 1531SOL    HW216053   0.378   2.504   9.082  0.1518 -1.8681  0.4998
 1532SOL     OW16054   4.052   0.319   3.538  0.2036 -0.0886  0.1164
 1532SOL    HW116055   3.999   0.241   3.555  0.6560 -0.2173  0.9072
 1532SOL    HW216056   4.027   0.367   3.617 -1.2871 -1.9358  0.7721
 1533SOL     OW16057   2.663   3.804  10.980  0.0302 -0.2005  0.1995
 1533SOL    HW116058   2.718   3.880  10.959 -0.2940  0.5792  2.2467
 1533SOL    HW216059   2.733   3.738  10.981 -0.2357 -0.4750  0.8087
 1534SOL     OW16060   0.116   1.454   3.566  0.0122  0.8486  0.0953
 1534SOL    HW116061   0.189   1.473   3.625 -1.0312 -2.8067  2.5496
 1534SOL    HW216062   0.087   1.369   3.600 -0.1655  0.4872 -0.9499
 1535SOL     OW16063   1.196   1.592   1.158 -0.6220  0.7536  0.0788
 1535SOL    HW116064   1.205   1.498   1.140 -1.7472  0.4272  1.2313
 1535SOL    HW216065   1.101   1.601   1.145 -0.5525  0.4859 -0.6424
 1536SOL     OW16066   0.583   1.851  14.571 -0.2285 -0.8058  0.1985
 1536SOL    HW116067   0.630   1.839  14.654 -0.6722  1.6688  0.8160
 1536SOL    HW216068   0.542   1.767  14.551 -2.2892  0.3224 -0.2649
 1537SOL     OW16069   2.604   3.064  15.882 -0.7612  0.2448  0.7630
 1537SOL    HW116070   2.539   3.078  15.951 -0.4481  1.2465  0.8486
 1537SOL    HW216071   2.681   3.102  15.925  1.2149 -0.0941 -2.5152
 1538SOL     OW16072   3.051   2.291   8.349 -0.3701 -0.3399 -0.3150
 1538SOL    HW116073   3.005   2.216   8.387  1.6850 -2.0758 -1.2081
 1538SOL    HW216074   2.974   2.337   8.316 -1.6871 -2.7189 -0.5333
 1539SOL     OW16075   3.882   0.790   3.391  0.3087 -0.3049 -0.3235
 1539SOL    HW116076   3.925   0.739   3.461  1.0890  0.7579 -0.0209
 1539SOL    HW216077   3.845   0.720   3.338  1.7375  0.5349 -2.4314
 1540SOL     OW16078   2.381   2.282  14.950 -0.1997 -0.0849 -0.5228
 1540SOL    HW116079   2.338   2.365  14.968 -0.3616  0.0930 -1.7254
 1540SOL    HW216080   2.470   2.301  14.920 -0.1414  2.9635  1.5705
 1541SOL     OW16081   3.002   0.512   7.783  0.6817  0.0297  0.3138
 1541SOL    HW116082   3.007   0.450   7.855  1.8667  1.6937  1.6759
 1541SOL    HW216083   2.933   0.467   7.735  0.9676  0.8035 -0.8310
 1542SOL     OW16084   1.585   0.694   2.584  0.0775 -0.1444  0.2277
 1542SOL    HW116085   1.644   0.742   2.528 -1.0816  1.9893  0.8517
 1542SOL    HW216086   1.511   0.664   2.531  0.3108  0.3981 -0.3978
 1543SOL     OW16087   3.411   3.591   7.306  0.0978  0.1064  0.1874
 1543SOL    HW116088   3.419   3.520   7.243  0.3964  0.4860 -0.2045
 1543SOL    HW216089   3.336   3.639   7.271  0.0377  0.7906  1.2417
 1544SOL     OW16090   3.797   2.723   6.634 -0.5678 -0.4371 -0.0797
 1544SOL    HW116091   3.846   2.667   6.574  2.8810  1.7103  0.7560
 1544SOL    HW216092   3.845   2.805   6.622  0.6273 -1.1734 -0.2593
 1545SOL     OW16093   2.008   2.721   3.660 -0.3095 -0.1879 -0.3378
 1545SOL    HW116094   2.058   2.802   3.647  0.6389 -0.7889 -0.4307
 1545SOL    HW216095   1.951   2.748   3.732  1.0591 -1.0934  1.0657
 1546SOL     OW16096   0.593   2.929   5.449  0.5155 -0.2327  0.1085
 1546SOL    HW116097   0.655   2.959   5.383 -0.4404  2.2829  0.3576
 1546SOL    HW216098   0.621   2.840   5.469 -2.2214 -0.9506  0.7553
 1547SOL     OW16099   1.295   4.154   3.977 -0.3888  0.3877  0.6482
 1547SOL    HW116100   1.368   4.191   3.926 -0.9213 -2.3965 -2.1507
 1547SOL    HW216101   1.227   4.139   3.911  0.1446 -0.6656  0.3388
 1548SOL     OW16102   3.431   3.654  14.109 -0.0742  0.0541  0.1267
 1548SOL    HW116103   3.507   3.616  14.153 -0.4733 -1.2343 -0.2772
 1548SOL    HW216104   3.400   3.580  14.056  1.2300 -0.3859 -0.0245
 1549SOL     OW16105   0.729   2.707   2.323 -0.5163 -0.0411  0.1525
 1549SOL    HW116106   0.702   2.777   2.264 -1.3126 -1.5967 -1.3184
 1549SOL    HW216107   0.713   2.624   2.279 -0.0100 -0.1862  0.2380
 1550SOL     OW16108   4.640   2.132   3.711  0.0472 -0.2550 -0.3889
 1550SOL    HW116109   4.644   2.039   3.686 -2.4090 -0.0466 -1.5317
 1550SOL    HW216110   4.711   2.164   3.655 -0.2093  1.4097  0.2366
 1551SOL     OW16111   2.279   4.079  14.339  0.1079 -0.3589 -0.1040
 1551SOL    HW116112   2.368   4.046  14.352  1.1913  2.5655 -0.2554
 1551SOL    HW216113   2.230   4.000  14.316  1.8925 -1.5319  0.1126
 1552SOL     OW16114   1.277   0.444   1.488 -0.0183 -0.0510  0.2641
 1552SOL    HW116115   1.281   0.350   1.469  1.9042  1.0639 -4.7812
 1552SOL    HW216116   1.325   0.471   1.409 -0.4421 -0.8897 -0.2810
 1553SOL     OW16117   1.544   1.205  15.968 -0.1469 -0.2334  0.5425
 1553SOL    HW116118   1.541   1.244  16.056  2.0909  0.3410  0.3560
 1553SOL    HW216119   1.530   1.283  15.914 -0.5552 -0.0590  0.8927
 1554SOL     OW16120   1.496   3.594   3.129 -0.9054 -0.1523  0.1889
 1554SOL    HW116121   1.485   3.677   3.176 -1.7370 -0.0106 -0.2553
 1554SOL    HW216122   1.403   3.577   3.115 -1.2855  1.6265  0.5598
 1555SOL     OW16123   1.450   3.134   0.836  0.3988  0.0938  0.0079
 1555SOL    HW116124   1.393   3.190   0.784 -0.2143 -1.4699 -1.0043
 1555SOL    HW216125   1.418   3.151   0.925  0.1296 -0.5622  0.0373
 1556SOL     OW16126   3.447   3.407   6.454  0.0743  0.0979 -0.4845
 1556SOL    HW116127   3.392   3.331   6.476  0.7916  0.4022  2.2983
 1556SOL    HW216128   3.390   3.476   6.487  0.6671  1.0182 -1.3771
 1557SOL     OW16129   1.175   0.249   6.551 -0.2244  0.5340 -0.0078
 1557SOL    HW116130   1.135   0.168   6.581 -1.9320  1.8797  1.3378
 1557SOL    HW216131   1.167   0.233   6.457  2.6947  1.8112 -0.4881
 1558SOL     OW16132   4.673   0.033   9.685 -0.1712 -0.3749  0.0374
 1558SOL    HW116133   4.711   0.075   9.762 -1.7705 -1.2022  1.2618
 1558SOL    HW216134   4.695   0.086   9.608  0.4873 -0.4387  0.1796
 1559SOL     OW16135   4.216   1.264   9.634  0.0870 -0.0231  0.1718
 1559SOL    HW116136   4.271   1.282   9.710  1.0573 -2.5114  0.0595
 1559SOL    HW216137   4.159   1.198   9.673  0.2652 -1.3807 -1.8648
 1560SOL     OW16138   0.411   2.146   2.402  0.1062  0.1376  0.1854
 1560SOL    HW116139   0.327   2.163   2.360  0.5022  0.7635 -0.3410
 1560SOL    HW216140   0.418   2.053   2.379 -0.1712  0.4594 -1.2021
 1561SOL     OW16141   3.437   0.031   6.087  0.4638 -0.1258  0.1118
 1561SOL    HW116142   3.508   0.085   6.052 -0.9761  0.1237 -2.3402
 1561SOL    HW216143   3.482   4.673   6.082 -0.4115 -0.8159  3.5210
 1562SOL     OW16144   1.461   0.364  15.555  0.3272  0.2550  0.1569
 1562SOL    HW116145   1.494   0.447  15.520  0.7807  1.0023  2.4024
 1562SOL    HW216146   1.392   0.343  15.492 -0.2989  2.5022  0.1011
 1563SOL     OW16147   3.028   1.422   1.577  0.3572 -0.1254  0.1249
 1563SOL    HW116148   3.015   1.451   1.487 -0.0147 -0.7024 -0.0039
 1563SOL    HW216149   3.013   1.329   1.563 -2.3343  0.5377 -1.6056
 1564SOL     OW16150   1.485   0.084   2.043 -0.2575  0.4491  0.0550
 1564SOL    HW116151   1.551   0.047   1.984  0.7711 -0.1214  1.5531
 1564SOL    HW216152   1.443   0.007   2.082  0.6910 -0.4159 -0.6414
 1565SOL     OW16153   1.172   3.321  14.459 -0.0094 -0.0401  0.3558
 1565SOL    HW116154   1.233   3.252  14.485  1.5209  1.2300  0.1318
 1565SOL    HW216155   1.130   3.287  14.379 -0.9445  0.3748  0.6673
 1566SOL     OW16156   2.739   0.312   5.500 -0.3685 -0.2874 -0.1965
 1566SOL    HW116157   2.777   0.334   5.585 -0.6094 -1.4976  0.2154
 1566SOL    HW216158   2.771   0.225   5.477  1.3537  0.2520  0.1960
 1567SOL     OW16159   3.484   4.433  10.343  0.0373  0.5692  0.3336
 1567SOL    HW116160   3.478   4.521  10.306 -0.9745  0.1408 -0.5174
 1567SOL    HW216161   3.393   4.403  10.344 -0.3480  1.7906  1.8653
 1568SOL     OW16162   2.024   1.668  10.705  0.4117 -0.3250  0.1182
 1568SOL    HW116163   1.980   1.624  10.632 -0.1069 -0.6432  0.6234
 1568SOL    HW216164   2.115   1.657  10.680  0.6071  2.4628 -0.3053
 1569SOL     OW16165   3.563   0.045   5.153 -0.3799  0.6750  0.2453
 1569SOL    HW116166   3.600   4.700   5.102  1.0820  1.4148  0.2362
 1569SOL    HW216167   3.501   4.723   5.207 -2.0080  2.6157  0.0985
 1570SOL     OW16168   4.229   1.148   2.789 -0.3893  0.4436 -0.3883
 1570SOL    HW116169   4.198   1.226   2.834 -1.4433  0.2596 -0.7901
 1570SOL    HW216170   4.190   1.147   2.701  0.6402 -3.3382 -0.8244
 1571SOL     OW16171   3.009   4.172   7.747 -0.4021  0.2242  0.3509
 1571SOL    HW116172   2.952   4.227   7.801 -1.3147  1.7344 -2.1160
 1571SOL    HW216173   3.022   4.100   7.808  0.6121  0.5138  0.4768
 1572SOL     OW16174   4.209   1.253  14.711 -0.4800 -0.1697 -0.4234
 1572SOL    HW116175   4.305   1.248  14.715 -0.4049 -0.0233 -2.1567
 1572SOL    HW216176   4.189   1.226  14.800  2.3057 -1.6658 -0.2350
 1573SOL     OW16177   1.676   3.860   5.131  0.0721 -0.7189 -0.0698
 1573SOL    HW116178   1.653   3.855   5.224  2.0439 -1.1025  0.3844
 1573SOL    HW216179   1.598   3.901   5.093  0.8070  0.2749 -0.5048
 1574SOL     OW16180   1.966   3.095  16.664 -0.8069  0.4463  1.1501
 1574SOL    HW116181   2.043   3.047  16.696  0.3500  1.7371  0.3430
 1574SOL    HW216182   1.921   3.095  16.748 -1.0957 -2.0919  1.0092
 1575SOL     OW16183   4.229   0.503  16.567 -0.4390 -0.2387  0.5565
 1575SOL    HW116184   4.220   0.597  16.549 -1.1464 -0.2970  0.5950
 1575SOL    HW216185   4.297   0.481  16.504 -1.3184 -0.9011 -0.1570
 1576SOL     OW16186   3.250   2.195   9.442 -0.1743 -0.1125  0.0841
 1576SOL    HW116187   3.328   2.173   9.390  0.3945  1.8362  0.1135
 1576SOL    HW216188   3.187   2.137   9.399 -1.1430  1.6278 -0.8598
 1577SOL     OW16189   3.037   2.979  17.659 -0.3178 -0.1495 -0.1797
 1577SOL    HW116190   3.068   2.919  17.590 -0.0650 -1.8388  1.4010
 1577SOL    HW216191   3.121   3.016  17.685 -1.1561  1.3463  0.4022
 1578SOL     OW16192   0.349   0.982   6.180 -0.1237 -0.2973  0.4063
 1578SOL    HW116193   0.442   0.957   6.172 -0.6418 -1.6506 -1.3212
 1578SOL    HW216194   0.342   1.028   6.264  0.4622  0.4052  0.0766
 1579SOL     OW16195   2.694   3.302   7.771  0.3179 -0.2662  0.1074
 1579SOL    HW116196   2.622   3.276   7.713  0.1421  1.8234 -0.6246
 1579SOL    HW216197   2.713   3.391   7.742 -0.5575  0.9534  3.3476
 1580SOL     OW16198   2.904   0.275   4.844 -0.1673  0.2575 -0.2293
 1580SOL    HW116199   2.990   0.244   4.872 -0.5623 -1.3570 -0.8262
 1580SOL    HW216200   2.918   0.282   4.749 -0.3465 -2.3205 -0.4413
 1581SOL     OW16201   2.219   1.002  14.834 -0.8871  0.0006 -0.2045
 1581SOL    HW116202   2.133   1.041  14.847 -2.2864 -1.9178 -3.7162
 1581SOL    HW216203   2.197   0.939  14.765  1.0706 -1.2210  0.3017
 1582SOL     OW16204   4.635   3.341   3.503  0.0133 -0.4650 -0.5636
 1582SOL    HW116205   4.647   3.425   3.458 -1.2524  0.1683  0.2767
 1582SOL    HW216206   4.718   3.332   3.548 -0.4642  0.7804  0.5634
 1583SOL     OW16207   2.937   1.389   5.180  0.1921  0.0960  0.8420
 1583SOL    HW116208   2.962   1.481   5.178 -0.6189  0.2729 -1.9488
 1583SOL    HW216209   2.896   1.380   5.266  1.2181  0.7139  1.3970
 1584SOL     OW16210   4.354   3.393   9.680  0.0375 -0.2771  0.2672
 1584SOL    HW116211   4.344   3.395   9.775 -1.1388  0.1587  0.1388
 1584SOL    HW216212   4.448   3.381   9.672  0.1685  1.5542 -1.0135
 1585SOL     OW16213   2.264   1.788  14.872 -0.2139  0.2259  0.1898
 1585SOL    HW116214   2.248   1.728  14.945  0.2713 -0.3416 -0.1624
 1585SOL    HW216215   2.332   1.730  14.835  0.0648  1.5403 -1.3376
 1586SOL     OW16216   1.348   4.145  16.137 -0.0765  0.4042  0.6916
 1586SOL    HW116217   1.301   4.195  16.204 -0.8752  0.0521  0.3953
 1586SOL    HW216218   1.436   4.149  16.174 -0.1385 -1.4184  1.0114
 1587SOL     OW16219   3.862   4.132   3.604  0.5230  0.0317 -0.2853
 1587SOL    HW116220   3.877   4.047   3.564 -0.1214  1.5340 -3.7292
 1587SOL    HW216221   3.823   4.186   3.535 -0.8669  2.0423  2.0274
 1588SOL     OW16222   2.066   2.930   1.955 -0.5952 -0.0404  0.1444
 1588SOL    HW116223   2.073   2.942   1.860  0.0384  1.0580  0.3352
 1588SOL    HW216224   2.153   2.891   1.968 -0.9519 -1.4915 -1.8411
 1589SOL     OW16225   4.532   4.172   1.838  1.1387 -0.1256  0.6389
 1589SOL    HW116226   4.550   4.080   1.852 -0.0768 -0.4680 -0.0778
 1589SOL    HW216227   4.466   4.168   1.769  0.0039 -0.1449  1.7325
 1590SOL     OW16228   4.126   4.193   5.822  0.2718 -0.0733 -0.6803
 1590SOL    HW116229   4.092   4.171   5.909 -1.4316  1.0854 -1.0440
 1590SOL    HW216230   4.061   4.245   5.774  0.8929  2.9102  1.6916
 1591SOL     OW16231   4.359   0.243   5.325 -0.2195  0.1218  0.2498
 1591SOL    HW116232   4.444   0.228   5.366 -0.1368 -0.8534 -0.2886
 1591SOL    HW216233   4.359   0.337   5.305 -1.9554 -0.0495 -0.5828
 1592SOL     OW16234   4.726   4.121  15.428 -0.8740  0.2644  0.3968
 1592SOL    HW116235   0.034   4.057  15.365  1.6142  3.0260 -1.0081
 1592SOL    HW216236   0.079   4.123  15.481 -2.1605 -1.4361  2.4252
 1593SOL     OW16237   0.594   1.340  12.627  0.7480  0.7501 -0.2963
 1593SOL    HW116238   0.639   1.412  12.582 -0.5732  0.7679 -1.5912
 1593SOL    HW216239   0.535   1.389  12.684 -0.8766 -1.3330 -0.1985
 1594SOL     OW16240   3.234   1.744   3.646  0.5855 -0.3449 -0.3437
 1594SOL    HW116241   3.239   1.683   3.719 -2.9462  2.2768  2.0521
 1594SOL    HW216242   3.328   1.758   3.635  0.4660  0.3739 -0.4874
 1595SOL     OW16243   0.995   0.620   6.033  0.0163 -0.3659 -0.1703
 1595SOL    HW116244   1.026   0.653   6.117  2.7624  0.9559 -1.7369
 1595SOL    HW216245   1.062   0.555   6.013  0.0367 -0.3690 -0.0945
 1596SOL     OW16246   3.366   1.235   3.806 -0.3838 -0.1945 -0.2510
 1596SOL    HW116247   3.386   1.314   3.856  1.7007 -0.7893 -0.1554
 1596SOL    HW216248   3.292   1.199   3.855  0.3024 -1.6355 -0.2797
 1597SOL     OW16249   1.856   0.266   5.821 -0.0495  0.4005 -0.2058
 1597SOL    HW116250   1.907   0.327   5.769 -1.4086  1.5545 -0.1918
 1597SOL    HW216251   1.886   0.185   5.780  1.0021  0.1476  1.0521
 1598SOL     OW16252   1.147   3.145   5.615  0.0734 -0.1987 -0.0440
 1598SOL    HW116253   1.165   3.230   5.575 -1.1994  0.7800  1.4673
 1598SOL    HW216254   1.147   3.085   5.540  1.6950 -1.0721  0.6397
 1599SOL     OW16255   2.993   0.572   8.998  0.1995 -0.4423 -0.0948
 1599SOL    HW116256   3.082   0.602   8.984 -0.7256  1.0680 -2.5690
 1599SOL    HW216257   2.968   0.639   9.062  3.0407  1.4008 -0.9150
 1600SOL     OW16258   0.672   4.545   6.759  0.3162  0.1671 -0.5014
 1600SOL    HW116259   0.607   4.587   6.703  1.8580  1.4464 -1.3327
 1600SOL    HW216260   0.757   4.566   6.720  1.1138 -0.8022  0.7223
 1601SOL     OW16261   0.777   4.130   0.013 -0.6540 -0.6843  0.2455
 1601SOL    HW116262   0.758   4.151  17.630  0.4547  1.8460  0.5981
 1601SOL    HW216263   0.833   4.054   0.001 -2.1242 -2.0984  2.3758
 1602SOL     OW16264   2.390   2.596   5.149 -0.0733  0.3591  0.3607
 1602SOL    HW116265   2.444   2.560   5.219  1.5588  3.0260  0.4937
 1602SOL    HW216266   2.348   2.519   5.111  1.1167 -0.4925  0.7585
 1603SOL     OW16267   3.195   1.235  15.702 -0.1104  0.1230  0.2662
 1603SOL    HW116268   3.139   1.164  15.735 -1.5486  0.5915 -1.1734
 1603SOL    HW216269   3.247   1.254  15.780  1.8963  2.0997 -1.5718
 1604SOL     OW16270   2.040   4.224  10.362 -0.1474 -0.1136  0.0041
 1604SOL    HW116271   2.111   4.271  10.318  0.6246  0.5665  1.9983
 1604SOL    HW216272   2.006   4.301  10.406 -1.4049 -1.2832  1.0644
 1605SOL     OW16273   0.766   3.763   0.614  0.0853 -0.0620 -0.4953
 1605SOL    HW116274   0.829   3.834   0.598 -0.3978  0.5710  0.3645
 1605SOL    HW216275   0.758   3.743   0.521 -0.0071 -1.3683 -0.2082
 1606SOL     OW16276   1.172   2.166   5.979 -0.8730 -0.0972 -0.2442
 1606SOL    HW116277   1.204   2.086   6.021  0.2634  0.4957  0.0355
 1606SOL    HW216278   1.189   2.236   6.043  0.4521  0.2338 -0.9475
 1607SOL     OW16279   4.215   0.235   8.586  0.8065  0.0481  0.6930
 1607SOL    HW116280   4.131   0.281   8.588  0.5568 -0.4167  0.8751
 1607SOL    HW216281   4.270   0.311   8.609  1.2328  1.1079 -3.9856
 1608SOL     OW16282   3.389   1.917  14.199 -0.7997 -0.0446 -0.3484
 1608SOL    HW116283   3.374   2.010  14.215 -0.6541 -0.5431  2.6278
 1608SOL    HW216284   3.310   1.877  14.163  1.4916 -1.6319 -3.6414
 1609SOL     OW16285   0.139   2.247  10.459 -0.2607  0.1288  0.0957
 1609SOL    HW116286   0.140   2.329  10.508  2.5170  1.7942 -2.7084
 1609SOL    HW216287   0.073   2.210  10.518 -0.7931 -0.9859 -1.1841
 1610SOL     OW16288   0.726   4.253   2.193  0.2595 -0.3659  0.8198
 1610SOL    HW116289   0.701   4.331   2.143  0.3120 -1.8109 -1.4489
 1610SOL    HW216290   0.783   4.285   2.263  0.1137  1.0210  0.2978
 1611SOL     OW16291   4.187   4.637   2.238 -0.4486  0.3170  0.1446
 1611SOL    HW116292   4.194   4.688   2.318  1.3125  1.5125 -0.7909
 1611SOL    HW216293   4.140   4.702   2.187 -0.2660  1.3644  1.3264
 1612SOL     OW16294   0.206   2.541  15.139 -0.3136 -0.6750  0.0708
 1612SOL    HW116295   0.246   2.603  15.200  0.7574 -1.3847  0.1009
 1612SOL    HW216296   0.243   2.455  15.159  1.0873 -0.3185 -1.0157
 1613SOL     OW16297   2.032   3.064   3.875  0.2386 -0.2744  0.6101
 1613SOL    HW116298   2.081   3.130   3.924 -0.5229  1.2927 -0.7556
 1613SOL    HW216299   2.029   2.998   3.944  2.0552 -1.1224 -0.1416
 1614SOL     OW16300   4.188   3.949   6.433  0.0930 -0.5522 -0.1423
 1614SOL    HW116301   4.270   3.987   6.463  0.6239 -0.8981 -1.1583
 1614SOL    HW216302   4.168   4.009   6.362  2.0617 -1.2056 -1.2251
 1615SOL     OW16303   1.166   3.111   5.089  0.1594  0.1944 -0.5805
 1615SOL    HW116304   1.170   3.114   5.185  0.1737 -0.4795 -0.5619
 1615SOL    HW216305   1.257   3.091   5.068  0.1001 -0.7794  0.0834
 1616SOL     OW16306   0.282   3.610   5.105  0.1251  0.1518  0.6744
 1616SOL    HW116307   0.226   3.537   5.129  0.2074  0.4380  1.7790
 1616SOL    HW216308   0.332   3.609   5.187  1.7835 -1.4313 -0.3715
 1617SOL     OW16309   2.957   2.831  14.703  0.0452 -0.2691  0.0364
 1617SOL    HW116310   2.998   2.836  14.617 -2.0200  2.1774 -0.8293
 1617SOL    HW216311   2.933   2.922  14.723  0.7141 -0.0150 -0.3287
 1618SOL     OW16312   0.867   0.364   1.587 -0.2879 -0.1520  0.1425
 1618SOL    HW116313   0.913   0.447   1.598  0.6579 -0.5926 -0.5015
 1618SOL    HW216314   0.906   0.324   1.509 -0.5946 -0.9224  0.3862
 1619SOL     OW16315   3.544   4.501   8.441 -0.2211  0.0515 -0.0473
 1619SOL    HW116316   3.453   4.518   8.464  1.1658  3.6288  2.7179
 1619SOL    HW216317   3.544   4.524   8.348 -0.0228  1.5334  0.3172
 1620SOL     OW16318   3.287   4.234   3.095 -0.0738  0.3490  0.2845
 1620SOL    HW116319   3.313   4.265   3.182  0.2690 -0.6732  0.5496
 1620SOL    HW216320   3.355   4.278   3.045 -1.3565  0.1759 -1.6268
 1621SOL     OW16321   0.021   4.267   7.444  0.7861  0.1156  0.2139
 1621SOL    HW116322   4.686   4.234   7.509  3.4840 -1.2370  2.1097
 1621SOL    HW216323   0.028   4.191   7.385 -0.2382 -0.6353  1.0483
 1622SOL     OW16324   3.390   3.541  16.475  0.5301  0.5247 -0.2967
 1622SOL    HW116325   3.382   3.454  16.515  1.3128 -0.0358 -1.3726
 1622SOL    HW216326   3.462   3.521  16.415  0.1613 -1.6846 -0.0077
 1623SOL     OW16327   4.323   1.629   8.012  0.6074 -0.6446 -0.5375
 1623SOL    HW116328   4.310   1.662   7.923 -1.3451  1.4921  0.5220
 1623SOL    HW216329   4.272   1.686   8.070  1.0757 -0.3735 -0.3865
 1624SOL     OW16330   4.407   3.626  10.787  0.0044  0.9918 -0.1022
 1624SOL    HW116331   4.352   3.649  10.862 -1.7426  2.3030 -1.8032
 1624SOL    HW216332   4.476   3.585  10.839 -0.6637 -1.3310 -1.0109
 1625SOL     OW16333   4.597   4.157   8.072  0.2595  0.1282 -0.5274
 1625SOL    HW116334   4.504   4.148   8.095  0.3945 -1.1382 -0.4910
 1625SOL    HW216335   4.632   4.201   8.150  0.4964 -0.9434 -0.0373
 1626SOL     OW16336   1.241   1.848  17.555  0.1962  0.1148 -0.1090
 1626SOL    HW116337   1.254   1.834  17.461 -0.3249 -0.6442 -0.0710
 1626SOL    HW216338   1.331   1.876  17.571  0.4395 -1.0445  0.5327
 1627SOL     OW16339   3.806   2.830   7.889 -0.2835  0.2437  0.3685
 1627SOL    HW116340   3.775   2.808   7.977  0.3317  1.6578  0.9275
 1627SOL    HW216341   3.860   2.906   7.908  0.7034 -0.6041  0.9497
 1628SOL     OW16342   3.177   1.327  10.583 -0.0548  0.1599 -0.3185
 1628SOL    HW116343   3.091   1.357  10.553  0.2121  1.1742 -0.0651
 1628SOL    HW216344   3.149   1.289  10.666 -0.6670  0.6043 -0.3204
 1629SOL     OW16345   1.001   1.158   9.175 -0.5385  0.1917 -0.0594
 1629SOL    HW116346   1.084   1.119   9.148  0.5950  1.0440  2.1907
 1629SOL    HW216347   0.935   1.090   9.163 -0.7836 -0.0370  2.4652
 1630SOL     OW16348   0.497   3.884   4.136  0.6923  0.0789 -0.9033
 1630SOL    HW116349   0.479   3.842   4.220  2.5395 -0.7593 -0.9195
 1630SOL    HW216350   0.436   3.828   4.088 -0.8303 -0.0065  1.1467
 1631SOL     OW16351   2.523   0.034   5.908  0.0244  0.1229 -0.1276
 1631SOL    HW116352   2.510   0.024   5.814  1.8885 -1.4292 -0.2320
 1631SOL    HW216353   2.609   4.722   5.926 -0.3494 -0.7302 -0.1761
 1632SOL     OW16354   3.419   2.901  14.891 -0.4431  0.0608 -0.1852
 1632SOL    HW116355   3.345   2.843  14.875 -0.2881 -0.4557  0.9623
 1632SOL    HW216356   3.415   2.898  14.986  2.5855 -0.6789 -0.0669
 1633SOL     OW16357   4.082   0.811  17.516  0.2234 -0.1779  0.1775
 1633SOL    HW116358   4.042   0.886  17.562  1.1886 -0.0206  0.7587
 1633SOL    HW216359   4.086   0.756  17.593  0.2051 -0.2719  0.1110
 1634SOL     OW16360   3.162   3.925  13.108  0.1755 -0.2882 -0.2254
 1634SOL    HW116361   3.102   3.958  13.175  0.2289  0.5846 -0.5985
 1634SOL    HW216362   3.103   3.908  13.034  1.1581  1.2045 -1.3622
 1635SOL     OW16363   1.180   3.261   8.344  0.0341  0.8045 -0.2828
 1635SOL    HW116364   1.127   3.266   8.424  0.9036 -1.2434  0.4175
 1635SOL    HW216365   1.160   3.169   8.329 -4.8147  1.8422 -0.2452
 1636SOL     OW16366   3.081   0.498   2.081  0.6243  0.3019  0.6001
 1636SOL    HW116367   3.054   0.589   2.091 -1.7591 -0.3041 -0.4441
 1636SOL    HW216368   3.174   0.510   2.100  0.5870  2.2834 -0.5830
 1637SOL     OW16369   1.347   2.019   1.625  0.0951 -0.4973 -0.2725
 1637SOL    HW116370   1.306   2.081   1.686  0.1687  0.3367 -1.0710
 1637SOL    HW216371   1.345   2.055   1.537 -1.6074 -2.1295 -0.8944
 1638SOL     OW16372   1.383   0.897  13.470 -0.2102 -0.3630 -0.4583
 1638SOL    HW116373   1.403   0.975  13.418 -0.8105 -1.0978 -1.7824
 1638SOL    HW216374   1.313   0.862  13.415 -0.3324 -0.7937 -0.0355
 1639SOL     OW16375   3.212   4.332   2.459  0.1217 -0.3501 -0.3734
 1639SOL    HW116376   3.306   4.348   2.466 -0.3002  1.1207  1.8522
 1639SOL    HW216377   3.171   4.414   2.486 -1.0230 -1.9784  2.7710
 1640SOL     OW16378   2.583   2.050  16.598  0.0215  0.0455  0.2428
 1640SOL    HW116379   2.550   2.126  16.552 -0.8874  0.5571  1.7500
 1640SOL    HW216380   2.608   1.985  16.532 -1.6289 -1.4717  1.1269
 1641SOL     OW16381   1.574   4.020   3.811 -0.2243 -0.7400  0.2174
 1641SOL    HW116382   1.657   4.032   3.857  1.5817  2.0793 -3.8074
 1641SOL    HW216383   1.532   3.961   3.874 -0.8476 -1.3952 -0.8150
 1642SOL     OW16384   2.834   0.754   9.194 -0.6027  0.1658  0.0277
 1642SOL    HW116385   2.871   0.748   9.282 -0.5434  0.6926  0.0388
 1642SOL    HW216386   2.740   0.739   9.208 -0.7985  0.5863 -0.8754
 1643SOL     OW16387   0.933   3.662   8.546 -0.5197 -0.2313 -0.5643
 1643SOL    HW116388   0.932   3.725   8.618  0.1467  0.2455 -0.9683
 1643SOL    HW216389   0.857   3.693   8.497 -0.4063 -1.4697 -1.5143
 1644SOL     OW16390   2.497   3.049  15.624 -0.1876 -0.3613  0.1508
 1644SOL    HW116391   2.541   3.038  15.709  0.7472  0.1250 -0.2737
 1644SOL    HW216392   2.459   3.136  15.638  0.5807 -0.0983  0.5851
 1645SOL     OW16393   2.469   3.370  14.711 -0.0844 -0.0394 -0.2147
 1645SOL    HW116394   2.505   3.410  14.791 -1.9871 -1.9548  1.6167
 1645SOL    HW216395   2.375   3.387  14.718  0.2561  1.0720  1.6748
 1646SOL     OW16396   0.186   4.438  12.527  0.0193 -0.1558  0.0772
 1646SOL    HW116397   0.236   4.520  12.532 -0.5124  0.1776 -0.0144
 1646SOL    HW216398   0.143   4.427  12.612  0.2102 -0.9192  0.0735
 1647SOL     OW16399   3.149   2.753   7.805 -0.3181  0.0216 -0.6842
 1647SOL    HW116400   3.147   2.677   7.746  2.0250  0.5555 -1.4544
 1647SOL    HW216401   3.061   2.781   7.779 -1.4628 -0.7712  2.2895
 1648SOL     OW16402   4.384   4.684   8.891  0.2130 -0.5603  0.6357
 1648SOL    HW116403   4.342   4.598   8.895  0.4323 -0.6589  0.8657
 1648SOL    HW216404   4.442   4.678   8.967 -0.9828  3.5597  1.8748
 1649SOL     OW16405   4.054   3.343  17.428  0.2028  0.0301  0.4221
 1649SOL    HW116406   4.014   3.380  17.507 -1.6808 -0.6839 -0.1936
 1649SOL    HW216407   4.121   3.406  17.405 -0.7641  0.4030 -1.3467
 1650SOL     OW16408   1.383   1.878   8.834  0.3143 -0.1255 -0.5534
 1650SOL    HW116409   1.398   1.850   8.925  0.5447  0.6107 -0.3676
 1650SOL    HW216410   1.314   1.940   8.856 -0.3063 -1.6889  2.0109
 1651SOL     OW16411   4.349   0.972   6.624 -0.0243 -0.6124  0.1814
 1651SOL    HW116412   4.363   1.063   6.597  0.5673 -0.8446 -0.2912
 1651SOL    HW216413   4.402   0.964   6.703 -1.3310 -0.8229  1.0363
 1652SOL     OW16414   4.558   3.136  11.591  0.3431  0.2769  0.1884
 1652SOL    HW116415   4.541   3.220  11.548 -0.9929  0.5789  1.2974
 1652SOL    HW216416   4.645   3.160  11.624  0.6984  0.3445 -0.8099
 1653SOL     OW16417   3.644   0.625  16.030 -0.2886 -0.7151 -0.3673
 1653SOL    HW116418   3.720   0.573  16.057  0.5620  0.1056 -1.1604
 1653SOL    HW216419   3.676   0.693  15.971 -0.5107  0.2223  0.5894
 1654SOL     OW16420   2.999   0.237   3.251  0.2880  0.0036  0.3466
 1654SOL    HW116421   2.965   0.225   3.162  0.4720  0.3254  0.2304
 1654SOL    HW216422   2.918   0.233   3.301 -1.2737 -3.6568 -2.4447
 1655SOL     OW16423   1.379   0.881   5.787 -0.3618 -0.2047  0.0025
 1655SOL    HW116424   1.294   0.860   5.749 -0.9397  0.0042  1.1581
 1655SOL    HW216425   1.411   0.795   5.815  0.1380  0.8055  2.5893
 1656SOL     OW16426   0.430   3.821   2.736  0.2191 -0.5981 -0.4376
 1656SOL    HW116427   0.375   3.747   2.761 -1.1282  0.7678  0.6668
 1656SOL    HW216428   0.420   3.828   2.642  0.6788 -3.3960 -0.6806
 1657SOL     OW16429   3.651   0.136   1.036  0.1037  0.3602  0.2484
 1657SOL    HW116430   3.647   0.062   0.975 -1.6306  1.1138 -0.5452
 1657SOL    HW216431   3.579   0.190   1.006  0.4037  0.8842  0.4807
 1658SOL     OW16432   4.709   1.673   3.486  0.7170  0.1295 -0.0342
 1658SOL    HW116433   4.718   1.738   3.556 -0.7706 -2.3648  2.4944
 1658SOL    HW216434   0.035   1.604   3.527 -0.0628 -0.7920 -0.5833
 1659SOL     OW16435   4.112   1.393   2.873 -0.4839  0.2339 -0.0860
 1659SOL    HW116436   4.088   1.360   2.959 -1.0604  0.8486 -0.0182
 1659SOL    HW216437   4.032   1.383   2.821 -0.2159  0.4182 -0.5347
 1660SOL     OW16438   3.946   3.131  10.458 -0.6454 -0.5324 -0.1130
 1660SOL    HW116439   3.942   3.052  10.511 -0.7558 -0.8834 -0.6403
 1660SOL    HW216440   3.908   3.188  10.525  0.9218 -0.0650  0.3727
 1661SOL     OW16441   3.163   1.260   5.010  0.3339 -1.2884  0.2769
 1661SOL    HW116442   3.210   1.181   5.036 -0.1917 -0.5570  3.3890
 1661SOL    HW216443   3.135   1.287   5.097  0.5069 -1.0840  0.2697
 1662SOL     OW16444   0.412   1.536   0.131 -0.1651 -0.1458  0.0666
 1662SOL    HW116445   0.440   1.471   0.196 -0.3534  0.7067  1.0077
 1662SOL    HW216446   0.334   1.573   0.171  1.5889  1.0239  2.4058
 1663SOL     OW16447   2.198   4.513   2.499  0.1801  0.3874  0.2457
 1663SOL    HW116448   2.150   4.451   2.444 -0.1929 -0.3918  1.4704
 1663SOL    HW216449   2.241   4.566   2.432 -1.3516  0.1377 -0.9411
 1664SOL     OW16450   3.643   2.233   3.671  0.8964 -0.3653 -0.1971
 1664SOL    HW116451   3.692   2.308   3.705  0.0721 -1.6422  3.8752
 1664SOL    HW216452   3.704   2.163   3.695  0.2488 -0.3073  1.6878
 1665SOL     OW16453   1.344   3.743  17.644 -0.3020 -0.0049 -0.4077
 1665SOL    HW116454   1.270   3.771  17.589 -0.3616  0.5982 -0.0208
 1665SOL    HW216455   1.349   3.654  17.609 -0.5767 -0.7603  1.4632
 1666SOL     OW16456   2.610   3.214   0.090  0.5294 -0.6399 -0.0578
 1666SOL    HW116457   2.593   3.120   0.093 -1.3500 -0.2690  0.8718
 1666SOL    HW216458   2.523   3.246   0.067  1.1638  0.3933 -1.0386
 1667SOL     OW16459   2.250   2.266   0.112  0.0650 -0.8927 -0.0272
 1667SOL    HW116460   2.311   2.224   0.173  2.0102  4.2852  1.5923
 1667SOL    HW216461   2.170   2.247   0.160  0.6747 -0.2172  1.2519
 1668SOL     OW16462   4.706   0.204   7.551 -0.4542  0.2104  0.6339
 1668SOL    HW116463   0.057   0.204   7.494 -1.9551 -0.4257 -1.4292
 1668SOL    HW216464   4.665   0.288   7.529  1.5982  1.2303  0.6303
 1669SOL     OW16465   3.139   2.540   6.123  0.4816  0.1235 -0.0377
 1669SOL    HW116466   3.099   2.499   6.047  1.5159 -0.4683 -0.2621
 1669SOL    HW216467   3.065   2.580   6.168 -1.7457 -2.9655 -1.0122
 1670SOL     OW16468   2.540   1.581   7.221 -0.2857 -0.3404 -0.1524
 1670SOL    HW116469   2.500   1.648   7.277  0.3898  0.7597 -0.9949
 1670SOL    HW216470   2.621   1.623   7.191 -0.6524  2.6799  3.0658
 1671SOL     OW16471   4.699   0.893   7.738 -0.6793 -0.0967 -0.0261
 1671SOL    HW116472   4.711   0.964   7.676  0.2219 -0.9956 -0.8691
 1671SOL    HW216473   0.052   0.890   7.790  0.5316  2.9318 -1.7721
 1672SOL     OW16474   2.489   4.557   8.500  0.3148  0.2137 -0.0792
 1672SOL    HW116475   2.549   4.605   8.443  1.7066 -1.0001  0.3406
 1672SOL    HW216476   2.518   4.593   8.584  0.2680  1.0820 -0.4354
 1673SOL     OW16477   3.820   2.504   8.068  0.2937 -0.4852  0.1150
 1673SOL    HW116478   3.816   2.598   8.088 -0.7523 -0.1135 -1.9025
 1673SOL    HW216479   3.742   2.476   8.116 -1.1780 -1.2546 -2.7744
 1674SOL     OW16480   1.701   4.056  10.446 -0.5852 -0.2373  0.0359
 1674SOL    HW116481   1.652   3.990  10.397  0.6067 -2.8555  2.3554
 1674SOL    HW216482   1.663   4.040  10.533 -1.8246 -0.4870 -0.5567
 1675SOL     OW16483   3.563   2.295  10.596 -0.0837  0.0611 -0.3434
 1675SOL    HW116484   3.505   2.232  10.640 -0.3938  1.2781  1.0278
 1675SOL    HW216485   3.626   2.286  10.667 -1.1377  0.8604  0.7106
 1676SOL     OW16486   3.012   3.248   4.078 -0.2891 -0.1265 -0.5597
 1676SOL    HW116487   3.026   3.340   4.054  0.8245  0.0016  0.5521
 1676SOL    HW216488   2.916   3.248   4.075 -0.2477  3.7300 -1.9699
 1677SOL     OW16489   2.876   4.558   8.613 -0.1331  0.0521 -0.1153
 1677SOL    HW116490   2.854   4.477   8.566  0.8523 -0.2408 -0.0695
 1677SOL    HW216491   2.791   4.595   8.636 -0.4763 -0.9511  0.2210
 1678SOL     OW16492   3.108   3.173   6.346 -0.0251  0.3353 -0.2181
 1678SOL    HW116493   3.081   3.181   6.437 -0.0629 -3.4762  0.1285
 1678SOL    HW216494   3.023   3.180   6.303 -0.7002  0.6987  1.2010
 1679SOL     OW16495   0.446   4.509   7.536  0.5376  0.2463  0.2505
 1679SOL    HW116496   0.415   4.552   7.456  1.5418 -1.0135 -0.8218
 1679SOL    HW216497   0.367   4.479   7.581  1.6544 -1.2102  1.2526
 1680SOL     OW16498   0.375   4.446   4.311  0.2020  0.0209 -0.5157
 1680SOL    HW116499   0.397   4.484   4.226 -0.1820  0.4516 -0.4274
 1680SOL    HW216500   0.287   4.408   4.309 -0.1978  0.8002  1.9983
 1681SOL     OW16501   1.479   4.229   3.235  0.3183 -0.1219  0.2193
 1681SOL    HW116502   1.563   4.183   3.236  0.2873 -0.1783  0.2180
 1681SOL    HW216503   1.438   4.187   3.159  0.6177  0.3321 -0.1980
 1682SOL     OW16504   2.387   0.970   7.754  0.3138  0.3473  0.0868
 1682SOL    HW116505   2.308   0.951   7.804 -0.4440 -0.4751 -1.4153
 1682SOL    HW216506   2.461   0.961   7.815  1.6116 -0.2419 -1.5826
 1683SOL     OW16507   1.503   3.693   4.700 -0.0854 -0.2009  0.1346
 1683SOL    HW116508   1.462   3.659   4.620  1.5654  0.0962 -0.8449
 1683SOL    HW216509   1.595   3.673   4.681 -0.3114 -0.3858 -0.7686
 1684SOL     OW16510   1.467   1.215   8.877  0.6562 -0.4824 -0.7357
 1684SOL    HW116511   1.551   1.181   8.848  1.1340 -0.1333  0.2313
 1684SOL    HW216512   1.497   1.290   8.929 -3.2311 -0.8027  2.0513
 1685SOL     OW16513   2.996   0.887   4.396  0.2219  0.1418 -0.4295
 1685SOL    HW116514   3.015   0.954   4.331 -0.6517  0.5324 -0.2897
 1685SOL    HW216515   2.958   0.936   4.470  0.3558  0.7695 -0.7773
 1686SOL     OW16516   4.300   2.234   7.958 -0.0817  0.4476 -0.0793
 1686SOL    HW116517   4.238   2.265   8.025  0.3788 -1.9234  1.4537
 1686SOL    HW216518   4.270   2.144   7.945  0.6018  0.3269 -0.7739
 1687SOL     OW16519   0.682   4.212   1.129  0.3254 -0.6821  0.5398
 1687SOL    HW116520   0.590   4.206   1.156 -0.3069  2.5191 -0.9394
 1687SOL    HW216521   0.734   4.133   1.146 -1.1012 -1.7117  0.1600
 1688SOL     OW16522   2.551   1.460  15.008 -0.0156  0.4142 -0.2444
 1688SOL    HW116523   2.497   1.513  14.949 -0.0950  1.9136  1.1859
 1688SOL    HW216524   2.520   1.370  14.997  2.0597 -0.4134  0.5092
 1689SOL     OW16525   1.185   1.204  12.064 -0.4634  0.2788 -0.1356
 1689SOL    HW116526   1.197   1.147  12.140 -0.7686 -0.0150 -0.3056
 1689SOL    HW216527   1.235   1.160  11.996  0.0311  0.3742  0.1666
 1690SOL     OW16528   3.932   2.027  16.460  0.4160  0.6585  0.4566
 1690SOL    HW116529   3.893   1.966  16.398  1.8796  0.9070 -0.6970
 1690SOL    HW216530   3.861   2.047  16.521  0.5792 -0.4552  0.9919
 1691SOL     OW16531   0.029   3.638   6.996  0.4825  0.1076  0.2968
 1691SOL    HW116532   0.032   3.712   7.057  1.0327 -0.0763  0.4960
 1691SOL    HW216533   0.019   3.573   7.066 -0.9499 -0.3271 -0.3051
 1692SOL     OW16534   2.440   3.591   6.379 -0.0198  0.0367 -0.0425
 1692SOL    HW116535   2.388   3.649   6.323 -0.4305  0.5230  0.8377
 1692SOL    HW216536   2.520   3.588   6.327  1.6437  1.5071  2.4353
 1693SOL     OW16537   0.817   1.040  10.386  0.1602 -0.6011 -0.0052
 1693SOL    HW116538   0.821   1.018  10.479 -0.7164 -1.6985 -0.2243
 1693SOL    HW216539   0.722   1.047  10.381  0.2030  0.3162  0.5157
 1694SOL     OW16540   1.687   0.367   2.584 -0.1785  0.2527  0.5332
 1694SOL    HW116541   1.716   0.445   2.537  2.7620 -0.4227  1.1925
 1694SOL    HW216542   1.763   0.308   2.588 -0.3086  0.1153  1.0593
 1695SOL     OW16543   1.539   0.493   0.382 -0.0009 -0.8881  0.4746
 1695SOL    HW116544   1.593   0.541   0.320  1.8580 -4.3525 -0.5936
 1695SOL    HW216545   1.591   0.493   0.463  1.4251  0.6622 -0.4547
 1696SOL     OW16546   4.000   4.524   4.083 -0.2747  0.8247 -0.1864
 1696SOL    HW116547   4.000   4.493   4.174 -1.0515 -0.1535 -0.5277
 1696SOL    HW216548   4.075   4.583   4.085 -1.3673  2.2121 -0.3766
 1697SOL     OW16549   3.805   3.542  17.446 -0.1102 -0.0469 -0.1653
 1697SOL    HW116550   3.876   3.562  17.385 -0.7813 -0.5944 -1.1182
 1697SOL    HW216551   3.853   3.495  17.514 -0.1839  0.6041  0.3323
 1698SOL     OW16552   1.826   2.704   5.016  0.0395  0.8588 -0.2325
 1698SOL    HW116553   1.752   2.764   5.009 -0.9003 -0.2124  0.4692
 1698SOL    HW216554   1.891   2.752   5.066  2.1004 -2.1202 -0.0269
 1699SOL     OW16555   0.568   4.521   0.544 -0.2292  0.0257  0.2121
 1699SOL    HW116556   0.657   4.556   0.534 -0.7504  0.7059 -2.1131
 1699SOL    HW216557   0.603   4.448   0.594  1.3248  0.8062  0.2746
 1700SOL     OW16558   1.564   3.703   7.761  0.3115  0.7735  0.4883
 1700SOL    HW116559   1.474   3.686   7.788  0.5940 -0.2068  0.8112
 1700SOL    HW216560   1.605   3.619   7.783 -0.6112  1.4353  4.7508
 1701SOL     OW16561   0.818   1.265  16.258 -0.2200 -0.2254 -0.0850
 1701SOL    HW116562   0.868   1.297  16.334  2.7718 -1.9181 -1.3329
 1701SOL    HW216563   0.760   1.211  16.312  0.7901 -1.4882 -0.2667
 1702SOL     OW16564   1.869   3.764  16.175 -0.0918 -0.0040 -0.2098
 1702SOL    HW116565   1.900   3.692  16.120  1.2236  1.5482 -1.5022
 1702SOL    HW216566   1.908   3.735  16.258 -0.1891 -3.3197 -1.3134
 1703SOL     OW16567   2.677   4.375  10.796 -0.2396 -0.5888  0.3009
 1703SOL    HW116568   2.630   4.330  10.726  1.7329  1.2977 -2.2295
 1703SOL    HW216569   2.637   4.339  10.875  0.3963  1.0607  1.3798
 1704SOL     OW16570   4.634   1.930   6.185  0.1254  0.0466 -0.6473
 1704SOL    HW116571   4.554   1.982   6.189 -0.4389 -0.7513 -1.5030
 1704SOL    HW216572   4.596   1.845   6.160 -3.7143  1.6658 -0.3911
 1705SOL     OW16573   2.741   4.179  12.240 -0.7474  0.0664 -0.3355
 1705SOL    HW116574   2.808   4.197  12.174  0.0753 -2.5708 -0.2174
 1705SOL    HW216575   2.675   4.221  12.185  0.2855  2.7830  0.4701
 1706SOL     OW16576   1.105   3.862  17.591 -0.4054 -0.4029 -0.5053
 1706SOL    HW116577   1.015   3.848  17.622 -0.0962  1.0283  1.0136
 1706SOL    HW216578   1.104   3.957  17.588 -0.4823 -0.3758  0.2485
 1707SOL     OW16579   4.169   1.695   8.284  0.4519 -0.3397  0.3804
 1707SOL    HW116580   4.206   1.682   8.372 -1.7272  1.7746  1.6199
 1707SOL    HW216581   4.080   1.672   8.311  0.4119  1.1909  1.5351
 1708SOL     OW16582   3.942   3.558   7.740 -0.0304 -0.0954 -0.3615
 1708SOL    HW116583   3.892   3.500   7.798 -0.0406 -1.2938 -1.5772
 1708SOL    HW216584   3.967   3.495   7.673  0.1923 -2.0771  1.5761
 1709SOL     OW16585   1.449   4.130  13.250  0.9241  0.1165 -0.0308
 1709SOL    HW116586   1.507   4.119  13.326 -1.8533  0.6286  2.1874
 1709SOL    HW216587   1.359   4.127  13.283  1.1367  1.2128  0.6605
 1710SOL     OW16588   0.667   1.511   3.622  0.1166  0.2363 -0.2543
 1710SOL    HW116589   0.583   1.529   3.580 -2.3186 -0.6345  4.3203
 1710SOL    HW216590   0.665   1.594   3.670 -0.0820  0.3708 -0.4880
 1711SOL     OW16591   3.774   4.236   8.193  0.1318  0.9225 -0.7140
 1711SOL    HW116592   3.848   4.246   8.252  0.9668  0.8545 -1.7450
 1711SOL    HW216593   3.709   4.191   8.246  0.1761  1.5688 -0.1026
 1712SOL     OW16594   0.196   2.470   3.992 -0.4926 -0.5309  0.5435
 1712SOL    HW116595   0.150   2.415   4.055  2.8558 -0.6081  2.9136
 1712SOL    HW216596   0.284   2.451   4.024  0.0459 -0.2145 -0.7599
 1713SOL     OW16597   2.261   0.680  15.836 -0.1546 -0.3915  0.3106
 1713SOL    HW116598   2.288   0.697  15.745 -1.6324 -3.1453 -0.6375
 1713SOL    HW216599   2.177   0.638  15.818  0.5942 -2.0827  0.7769
 1714SOL     OW16600   3.935   2.429   1.582  0.4433  0.0319  0.3492
 1714SOL    HW116601   4.000   2.382   1.530  0.5909 -0.0028  0.5640
 1714SOL    HW216602   3.856   2.419   1.528  0.6270  1.7878 -0.2395
 1715SOL     OW16603   2.056   2.355   8.576 -0.5380 -0.1884  0.0948
 1715SOL    HW116604   2.003   2.340   8.654  0.9103 -0.9262  0.9295
 1715SOL    HW216605   2.140   2.334   8.616 -0.9911  2.0303  2.2043
 1716SOL     OW16606   2.080   0.272  13.980  0.0200  0.3352  0.4213
 1716SOL    HW116607   2.113   0.361  13.993 -1.3413  0.9226 -0.1848
 1716SOL    HW216608   2.027   0.247  14.056  0.5010 -0.4763  0.4905
 1717SOL     OW16609   3.798   2.553   2.030 -0.6572  0.6979  0.3156
 1717SOL    HW116610   3.739   2.558   2.105 -0.9352  0.5556  0.1062
 1717SOL    HW216611   3.844   2.472   2.049 -0.5973  1.2271  2.4225
 1718SOL     OW16612   4.516   3.195   3.298 -0.2048 -0.3404 -0.2636
 1718SOL    HW116613   4.464   3.131   3.346 -1.6419  1.7580  0.9869
 1718SOL    HW216614   4.557   3.249   3.365 -2.1248 -0.5966  1.1006
 1719SOL     OW16615   1.354   3.333  16.198 -0.3766  0.0355 -0.4040
 1719SOL    HW116616   1.399   3.284  16.267 -0.7167 -0.3089 -0.4274
 1719SOL    HW216617   1.306   3.396  16.253  3.4112  0.9761  1.7936
 1720SOL     OW16618   1.127   2.331   7.695  0.1087 -0.0733  0.2517
 1720SOL    HW116619   1.171   2.255   7.658  1.2196  0.3270  0.7401
 1720SOL    HW216620   1.166   2.339   7.783 -0.9804  0.6537  0.6616
 1721SOL     OW16621   0.907   2.065   0.193 -0.0794  0.1860  0.2254
 1721SOL    HW116622   0.994   2.077   0.231  0.0273 -0.2705  0.1314
 1721SOL    HW216623   0.864   2.049   0.278 -0.8694 -0.5586 -0.3056
 1722SOL     OW16624   3.188   0.574   6.850 -0.9294 -0.4666 -0.0447
 1722SOL    HW116625   3.221   0.552   6.763  0.4188  1.0785  0.0766
 1722SOL    HW216626   3.175   0.668   6.839 -0.3125 -0.0765  2.4598
 1723SOL     OW16627   2.250   2.049   4.226 -0.5920  0.2102  0.0570
 1723SOL    HW116628   2.229   1.980   4.164 -0.9207 -0.8577  1.3621
 1723SOL    HW216629   2.194   2.023   4.300 -1.7111 -1.2718 -1.3180
 1724SOL     OW16630   1.532   3.399   3.735 -0.1140 -0.5165  0.2872
 1724SOL    HW116631   1.591   3.428   3.804 -1.0696  2.7076 -0.2633
 1724SOL    HW216632   1.594   3.382   3.664  2.3319  1.3688  1.9728
 1725SOL     OW16633   0.766   4.222   7.251  0.1969  0.1607  0.1752
 1725SOL    HW116634   0.706   4.285   7.290  1.2756  0.9669  0.5313
 1725SOL    HW216635   0.734   4.147   7.300  0.9351 -0.5898 -0.4973
 1726SOL     OW16636   2.747   3.891   9.496 -0.1551  0.1502 -0.2568
 1726SOL    HW116637   2.772   3.810   9.542  1.6617  0.4598 -0.6881
 1726SOL    HW216638   2.804   3.884   9.419  0.4325  1.0673  0.0996
 1727SOL     OW16639   1.554   3.598   2.538  0.4636 -0.1628  0.1365
 1727SOL    HW116640   1.490   3.570   2.604  0.6497 -1.7893 -0.3892
 1727SOL    HW216641   1.511   3.587   2.453 -0.6452  0.0214  0.6759
 1728SOL     OW16642   1.347   2.180   8.236 -0.6517 -0.0451  0.4885
 1728SOL    HW116643   1.414   2.132   8.284  0.6610 -0.5819 -1.8659
 1728SOL    HW216644   1.352   2.258   8.290  0.1235 -0.0030  0.3605
 1729SOL     OW16645   1.834   1.875  16.885 -0.1249  0.7362  0.0263
 1729SOL    HW116646   1.812   1.882  16.978  0.0151  1.5936 -0.0092
 1729SOL    HW216647   1.762   1.919  16.842 -1.9972 -3.2121 -0.8676
 1730SOL     OW16648   3.162   1.711   9.119 -0.3792 -0.2805 -0.7892
 1730SOL    HW116649   3.229   1.775   9.095 -0.0614 -0.0141  0.8239
 1730SOL    HW216650   3.093   1.778   9.119  1.2849  1.4323 -0.4221
 1731SOL     OW16651   3.217   2.739   6.998 -0.3699 -0.0745 -0.0908
 1731SOL    HW116652   3.182   2.823   7.028  1.8927  1.5609 -2.0335
 1731SOL    HW216653   3.310   2.758   7.015 -0.7416  0.4777  1.3011
 1732SOL     OW16654   2.579   2.287   2.208  0.1381 -0.1120 -0.0989
 1732SOL    HW116655   2.615   2.273   2.295  0.6612 -0.9331 -0.4528
 1732SOL    HW216656   2.650   2.256   2.152 -0.5598 -0.9851 -0.5033
 1733SOL     OW16657   4.086   2.283   2.687 -0.0910  0.2161  0.0024
 1733SOL    HW116658   4.161   2.261   2.631  0.8708  0.6643  1.0951
 1733SOL    HW216659   4.092   2.379   2.686  0.6157  0.1747  0.0493
 1734SOL     OW16660   0.639   3.859   7.635  0.2012  0.2002  0.3493
 1734SOL    HW116661   0.704   3.916   7.593 -1.1767 -1.2909 -3.8279
 1734SOL    HW216662   0.567   3.917   7.658 -1.3876 -2.2648  1.4707
 1735SOL     OW16663   1.913   1.336   2.213  0.3004 -0.2646  0.2246
 1735SOL    HW116664   1.905   1.241   2.221 -0.0380 -0.0997  1.8886
 1735SOL    HW216665   1.823   1.348   2.182 -0.0075  1.6062  1.8188
 1736SOL     OW16666   0.588   3.480   6.408  0.2990  0.7975  0.1171
 1736SOL    HW116667   0.643   3.448   6.480  0.2348 -2.0924 -1.1076
 1736SOL    HW216668   0.567   3.405   6.352 -2.3078  1.6795 -0.1049
 1737SOL     OW16669   0.802   0.755   9.758 -0.1856 -0.4365 -0.2990
 1737SOL    HW116670   0.831   0.842   9.787  1.5108 -0.7561 -1.0356
 1737SOL    HW216671   0.711   0.756   9.787  0.0186  1.2274  0.3006
 1738SOL     OW16672   1.250   3.401  11.056 -0.0965 -0.1317 -0.1538
 1738SOL    HW116673   1.200   3.464  11.108  0.7309 -0.7319  1.3469
 1738SOL    HW216674   1.211   3.319  11.085  1.7999 -0.8988  0.1926
 1739SOL     OW16675   3.692   1.089   8.557 -0.4565  0.2071 -0.0685
 1739SOL    HW116676   3.645   1.009   8.531  0.3764 -0.4342  0.3805
 1739SOL    HW216677   3.714   1.071   8.648 -0.7235  0.2801  0.0080
 1740SOL     OW16678   3.740   1.297   1.052  0.3840  1.0525 -0.7187
 1740SOL    HW116679   3.809   1.346   1.006 -1.2577  1.7159 -2.4935
 1740SOL    HW216680   3.782   1.244   1.119 -2.0558 -1.5846 -1.2732
 1741SOL     OW16681   4.241   3.443   2.516 -0.1345 -0.0689 -0.0648
 1741SOL    HW116682   4.302   3.424   2.587  0.9702  1.3669 -0.6286
 1741SOL    HW216683   4.177   3.372   2.517 -0.3948  0.1920  0.9416
 1742SOL     OW16684   3.863   4.469   1.980  0.3274  0.0318  0.1094
 1742SOL    HW116685   3.906   4.462   1.895 -0.4741 -2.1147 -0.1215
 1742SOL    HW216686   3.830   4.379   1.985 -0.7774  0.3969 -0.6187
 1743SOL     OW16687   4.333   0.611  15.512 -0.6091 -0.5237  0.3254
 1743SOL    HW116688   4.242   0.581  15.506 -1.2095  1.2466  0.7637
 1743SOL    HW216689   4.367   0.548  15.576 -1.3370 -2.1169 -0.8370
 1744SOL     OW16690   2.339   3.493   0.489  0.0576  0.0734  0.1764
 1744SOL    HW116691   2.287   3.511   0.411  0.0606  2.1846  0.6387
 1744SOL    HW216692   2.283   3.437   0.541 -1.4500  1.5936  0.2031
 1745SOL     OW16693   1.256   0.294  10.706 -0.0156  0.5272 -0.2052
 1745SOL    HW116694   1.343   0.254  10.711 -0.3206  0.0754  1.4647
 1745SOL    HW216695   1.247   0.301  10.611  2.6759 -0.6585 -0.5588
 1746SOL     OW16696   0.742   2.640  14.177 -0.1946 -0.0365 -0.4075
 1746SOL    HW116697   0.664   2.633  14.123 -1.5553 -0.5763  1.6116
 1746SOL    HW216698   0.790   2.558  14.163  0.0054 -0.0628  0.3978
 1747SOL     OW16699   3.716   3.655  15.509 -0.4371  0.0475 -0.1296
 1747SOL    HW116700   3.732   3.603  15.587  0.2506  0.8062  0.2384
 1747SOL    HW216701   3.770   3.733  15.522 -0.1906  0.2493 -2.2700
 1748SOL     OW16702   1.152   0.134   5.519 -0.6819 -0.4279 -0.0475
 1748SOL    HW116703   1.151   0.070   5.590 -0.6702 -1.7909 -1.2568
 1748SOL    HW216704   1.085   0.198   5.541 -0.1434  0.1636 -0.1274
 1749SOL     OW16705   3.405   4.438   5.641  0.4872  0.1896  0.2030
 1749SOL    HW116706   3.452   4.362   5.607  2.0001  0.6865  1.1739
 1749SOL    HW216707   3.412   4.398   5.728  0.6431  0.4337  0.3013
 1750SOL     OW16708   1.612   3.712   0.557 -0.2937  0.4358  0.8763
 1750SOL    HW116709   1.672   3.687   0.487  0.7871  2.1433  1.1951
 1750SOL    HW216710   1.641   3.803   0.562 -2.6694  1.2675 -0.3841
 1751SOL     OW16711   2.861   1.328  15.428  0.2029 -0.4290 -0.0745
 1751SOL    HW116712   2.952   1.319  15.401  0.7270  1.1201  1.2012
 1751SOL    HW216713   2.830   1.372  15.349  1.8284 -0.9010 -0.9748
 1752SOL     OW16714   4.591   2.887   6.017 -0.3293  0.3702  0.3232
 1752SOL    HW116715   4.519   2.835   6.052 -0.4537 -0.3428 -0.9891
 1752SOL    HW216716   4.546   2.959   5.973 -0.0852 -1.0658 -2.2702
 1753SOL     OW16717   3.772   0.337   9.165 -0.4666 -0.1778 -0.8206
 1753SOL    HW116718   3.708   0.275   9.129 -0.1175  0.4400 -2.4993
 1753SOL    HW216719   3.824   0.345   9.085  0.7805  0.7892  0.0941
 1754SOL     OW16720   2.141   1.230   5.306 -0.5613  0.3966  0.5517
 1754SOL    HW116721   2.161   1.304   5.249 -0.5831 -0.6546 -0.8010
 1754SOL    HW216722   2.057   1.261   5.342  0.9390  0.5583  3.9111
 1755SOL     OW16723   1.763   4.114   3.589 -0.0341 -0.8134 -0.5311
 1755SOL    HW116724   1.680   4.098   3.545  0.4304  0.8786 -2.0033
 1755SOL    HW216725   1.829   4.059   3.546 -0.7489 -2.8781  1.0183
 1756SOL     OW16726   2.892   3.916   1.475 -0.0661 -0.0865  0.1513
 1756SOL    HW116727   2.823   3.947   1.416  1.0182  1.8324 -0.1240
 1756SOL    HW216728   2.932   4.002   1.493  1.4715 -1.1587  1.8183
 1757SOL     OW16729   2.242   1.487   2.605  0.2249 -0.0603 -0.1198
 1757SOL    HW116730   2.312   1.544   2.572  0.2237  0.5958  0.9948
 1757SOL    HW216731   2.205   1.457   2.523  1.4863 -1.2595 -0.2530
 1758SOL     OW16732   3.420   2.414   4.834 -0.1343  0.1163 -0.8046
 1758SOL    HW116733   3.373   2.449   4.758  0.6435 -0.2484 -1.4516
 1758SOL    HW216734   3.464   2.342   4.789  0.9142  0.3668 -0.1792
 1759SOL     OW16735   2.572   3.229   0.750 -0.2086 -0.6708  0.6769
 1759SOL    HW116736   2.528   3.314   0.757 -0.1139 -0.6070  0.4923
 1759SOL    HW216737   2.623   3.223   0.831 -1.8349  0.8172  1.8318
 1760SOL     OW16738   2.744   2.624   7.801  0.0196  0.1417 -0.0150
 1760SOL    HW116739   2.658   2.586   7.822  0.8277 -1.1679  0.9460
 1760SOL    HW216740   2.750   2.707   7.847 -0.1832  1.8885 -3.1437
 1761SOL     OW16741   2.817   1.866   6.349  0.3640  0.1445 -0.3089
 1761SOL    HW116742   2.756   1.913   6.291 -0.1254  1.0343  0.9342
 1761SOL    HW216743   2.904   1.903   6.333 -1.0425  2.3909 -2.8001
 1762SOL     OW16744   2.520   0.136   5.181  0.0647 -0.5877  0.0711
 1762SOL    HW116745   2.429   0.157   5.198  0.0680 -1.4867  1.2027
 1762SOL    HW216746   2.538   0.049   5.217  0.3511  0.4639  2.4328
 1763SOL     OW16747   3.302   1.993   3.756  0.2971  0.4846 -0.5137
 1763SOL    HW116748   3.263   1.913   3.719  1.3665  0.0458 -0.6892
 1763SOL    HW216749   3.359   2.023   3.684  0.4265  0.0016 -0.6136
 1764SOL     OW16750   3.726   0.892  17.291 -0.5498  0.5747  0.2164
 1764SOL    HW116751   3.775   0.961  17.247 -2.9168  2.9468  1.2574
 1764SOL    HW216752   3.802   0.840  17.315  0.0238  1.0109 -0.6857
 1765SOL     OW16753   0.643   1.147   0.340  0.2029  0.1299  0.1396
 1765SOL    HW116754   0.675   1.111   0.257 -0.0190 -1.1613  0.6153
 1765SOL    HW216755   0.731   1.161   0.376 -0.5159 -0.8990  2.2960
 1766SOL     OW16756   0.838   0.202   4.689  0.6520 -0.0224  0.3247
 1766SOL    HW116757   0.851   0.160   4.605  0.6192  0.1448  0.2361
 1766SOL    HW216758   0.751   0.241   4.678  0.2239 -0.5593  1.8252
 1767SOL     OW16759   3.810   1.046   2.572  0.7203  0.1923 -0.2463
 1767SOL    HW116760   3.741   1.110   2.550  0.8850  0.6914  0.7225
 1767SOL    HW216761   3.800   0.972   2.512 -0.1371 -1.2189  1.6225
 1768SOL     OW16762   2.632   1.660  12.926 -0.6547 -0.0550  0.3633
 1768SOL    HW116763   2.708   1.713  12.950 -1.1606  0.5431  0.6410
 1768SOL    HW216764   2.670   1.574  12.908 -0.7954 -0.1776  0.6430
 1769SOL     OW16765   2.904   1.102   3.475  0.4687 -0.1522  0.0633
 1769SOL    HW116766   2.941   1.138   3.556 -0.7848  0.3200  0.4162
 1769SOL    HW216767   2.976   1.090   3.413  0.8501  1.1857  0.2526
 1770SOL     OW16768   2.701   4.072   3.024 -0.2078 -0.4693 -0.0610
 1770SOL    HW116769   2.753   4.020   3.085  0.0300 -2.0137 -1.5937
 1770SOL    HW216770   2.765   4.093   2.956 -0.4969  2.2160  0.5033
 1771SOL     OW16771   3.211   3.097  13.142 -0.1401 -0.1603  0.3352
 1771SOL    HW116772   3.221   3.188  13.116 -2.2958  0.1854  0.7150
 1771SOL    HW216773   3.188   3.065  13.055  2.3687 -1.5206  0.1556
 1772SOL     OW16774   0.378   2.842  10.405  0.7414 -0.2642 -0.2722
 1772SOL    HW116775   0.450   2.812  10.460 -0.5059  1.0141  2.0390
 1772SOL    HW216776   0.415   2.899  10.338  1.2150  0.3439  0.5146
 1773SOL     OW16777   3.536   1.358  15.651  0.1713 -0.1972  0.1197
 1773SOL    HW116778   3.499   1.412  15.721  1.6089 -0.0077  0.7222
 1773SOL    HW216779   3.630   1.365  15.669  0.2982  0.9677 -1.0350
 1774SOL     OW16780   3.009   4.132   5.308 -0.3394 -0.3849  0.1395
 1774SOL    HW116781   3.000   4.079   5.387  2.4059 -0.5220  0.3750
 1774SOL    HW216782   2.953   4.073   5.258 -2.6987  1.8409  0.1419
 1775SOL     OW16783   3.955   3.177   2.989 -0.1624  0.4202  0.0842
 1775SOL    HW116784   3.896   3.232   2.937 -0.9123 -0.8383 -0.3804
 1775SOL    HW216785   3.887   3.116   3.018  0.5408  0.1181  1.0929
 1776SOL     OW16786   4.491   3.288  16.300  0.8338  0.1867  0.0846
 1776SOL    HW116787   4.410   3.261  16.256  0.4570  1.9233 -0.2777
 1776SOL    HW216788   4.487   3.384  16.306  0.9156  0.3810 -2.8871
 1777SOL     OW16789   2.657   0.969   3.771 -0.1473  0.5054  0.3468
 1777SOL    HW116790   2.643   0.882   3.734 -0.8648  0.4618  0.7020
 1777SOL    HW216791   2.682   1.019   3.693  0.8589  0.5799  0.7233
 1778SOL     OW16792   2.239   4.520   1.606 -0.1113  0.0858 -0.1778
 1778SOL    HW116793   2.252   4.426   1.618 -0.3600  0.1271  0.4062
 1778SOL    HW216794   2.254   4.520   1.511  5.2307  1.6136  0.6366
 1779SOL     OW16795   2.136   1.312  15.499 -0.1880 -0.3318 -0.2274
 1779SOL    HW116796   2.093   1.393  15.471 -0.7754 -0.2493  0.9183
 1779SOL    HW216797   2.168   1.286  15.413  1.2087  1.9745 -0.4116
 1780SOL     OW16798   4.198   0.092   6.265 -0.3543 -0.0103 -0.4335
 1780SOL    HW116799   4.270   0.049   6.219 -0.9369 -2.5935  1.0543
 1780SOL    HW216800   4.143   0.019   6.294  0.0002 -0.4865 -0.9635
 1781SOL     OW16801   4.190   2.793   6.105  0.1152  0.1093 -0.3536
 1781SOL    HW116802   4.193   2.878   6.061  0.2289  1.0154  1.3868
 1781SOL    HW216803   4.170   2.747   6.024 -1.0525  0.5155 -0.3064
 1782SOL     OW16804   3.450   3.963   2.186  0.2612 -0.5224 -0.3711
 1782SOL    HW116805   3.477   4.005   2.105  0.7173 -0.9952 -0.4629
 1782SOL    HW216806   3.371   3.918   2.158 -0.4155  0.0116  0.6829
 1783SOL     OW16807   0.208   4.213  15.173  0.2754  0.9612  0.2020
 1783SOL    HW116808   0.267   4.198  15.247  1.1606 -0.6542 -0.8249
 1783SOL    HW216809   0.142   4.273  15.208 -1.0536  0.2073 -1.0365
 1784SOL     OW16810   1.506   2.750   1.550 -0.2920 -0.0464  0.3513
 1784SOL    HW116811   1.417   2.716   1.541 -0.6439  0.7613  0.7826
 1784SOL    HW216812   1.508   2.814   1.479  0.3446 -1.6473 -1.0765
 1785SOL     OW16813   2.245   3.303   2.449 -0.8801  0.0032  0.1678
 1785SOL    HW116814   2.223   3.371   2.513 -1.0285 -1.8857  2.1460
 1785SOL    HW216815   2.178   3.235   2.460 -2.3247  1.5800  1.0912
 1786SOL     OW16816   3.413   4.054   4.601  0.2358 -0.2281  0.1849
 1786SOL    HW116817   3.413   3.973   4.551  0.1278 -0.5092  0.6409
 1786SOL    HW216818   3.392   4.117   4.532 -0.6117 -2.3452 -1.4834
 1787SOL     OW16819   1.407   4.466   8.407  0.0613  0.3114  0.8164
 1787SOL    HW116820   1.455   4.389   8.378  1.2896  1.6682 -0.7370
 1787SOL    HW216821   1.376   4.457   8.497  2.2965 -0.5692  1.4965
 1788SOL     OW16822   1.191   0.830  13.257 -0.5331 -0.2181  0.2073
 1788SOL    HW116823   1.114   0.788  13.218  0.2372  0.5396 -2.1601
 1788SOL    HW216824   1.187   0.919  13.223 -0.8606 -0.5840 -0.7209
 1789SOL     OW16825   2.236   0.953   8.441 -0.4175 -0.3138 -0.3277
 1789SOL    HW116826   2.278   1.034   8.470  0.3143 -0.9515  0.3681
 1789SOL    HW216827   2.302   0.925   8.378  0.8256  2.4953 -0.3152
 1790SOL     OW16828   2.985   4.014   4.008  0.3985  0.3891  0.5469
 1790SOL    HW116829   3.043   3.983   4.078 -0.6169 -0.4138  1.0277
 1790SOL    HW216830   2.949   4.084   4.064 -2.7923  0.4331 -1.6144
 1791SOL     OW16831   4.321   0.927   4.549  0.1386  0.4568  0.4088
 1791SOL    HW116832   4.234   0.947   4.583  1.2348  2.9061  1.7781
 1791SOL    HW216833   4.357   0.876   4.622 -0.1202 -0.2724  0.0352
 1792SOL     OW16834   0.164   4.584   9.388 -0.2236 -0.0325 -0.8997
 1792SOL    HW116835   0.170   4.579   9.483  3.7193 -0.8394 -1.2255
 1792SOL    HW216836   0.250   4.617   9.362 -1.2954  3.5090  0.0966
 1793SOL     OW16837   2.002   4.151   4.370 -0.6734  0.0064  0.2776
 1793SOL    HW116838   1.922   4.201   4.382 -1.5214 -2.0229  2.9044
 1793SOL    HW216839   2.030   4.140   4.461 -1.6376 -0.3499  0.5263
 1794SOL     OW16840   1.621   0.330   4.034 -0.1996 -0.4655 -0.4489
 1794SOL    HW116841   1.615   0.342   4.129  2.7479  0.2120 -0.3732
 1794SOL    HW216842   1.698   0.273   4.037  1.7699  2.2769  0.1524
 1795SOL     OW16843   2.932   0.792   8.428  0.3270  0.3761  0.4997
 1795SOL    HW116844   2.964   0.836   8.349  1.5018  0.2658  0.9085
 1795SOL    HW216845   2.995   0.721   8.438 -2.7887 -2.4791 -0.2451
 1796SOL     OW16846   0.616   2.990  17.425  0.2681  0.0704 -0.0013
 1796SOL    HW116847   0.626   3.070  17.477  1.8098 -1.4797  2.1374
 1796SOL    HW216848   0.624   3.018  17.334 -1.6456 -2.2543 -0.8949
 1797SOL     OW16849   2.715   4.516   4.855  0.7597 -0.1628  0.7124
 1797SOL    HW116850   2.740   4.487   4.943  0.4324  0.6921  1.0836
 1797SOL    HW216851   2.722   4.610   4.871  1.0551 -0.4640  2.3381
 1798SOL     OW16852   0.105   2.498   1.731  0.8811 -0.4632 -0.3569
 1798SOL    HW116853   0.041   2.506   1.802  0.6148 -0.8857 -0.5438
 1798SOL    HW216854   0.184   2.482   1.783  0.9513  1.5728  0.1601
 1799SOL     OW16855   1.868   0.221   3.793 -0.2945  0.5896  0.1764
 1799SOL    HW116856   1.900   0.305   3.827 -2.4166  1.8294 -0.8372
 1799SOL    HW216857   1.899   0.220   3.703 -0.1277  1.9336  0.2225
 1800SOL     OW16858   1.922   3.117   6.539  0.0868  0.0409  0.4966
 1800SOL    HW116859   2.001   3.105   6.592  2.0610  3.5586 -1.6159
 1800SOL    HW216860   1.858   3.062   6.585 -0.2313  0.1121  0.1385
 1801SOL     OW16861   3.088   0.503   1.655 -0.0741  0.4287 -0.2489
 1801SOL    HW116862   3.156   0.563   1.688 -0.6852  1.4189 -0.7770
 1801SOL    HW216863   3.138   0.478   1.578  1.7071  0.1960  0.9665
 1802SOL     OW16864   2.917   2.895   2.457  0.5192  0.4502 -0.2815
 1802SOL    HW116865   2.852   2.929   2.518 -0.4874 -0.7705 -0.6905
 1802SOL    HW216866   2.901   2.802   2.468  0.3047  0.4892 -0.2606
 1803SOL     OW16867   1.511   3.643  16.554  0.5236  0.1310  0.0283
 1803SOL    HW116868   1.588   3.617  16.604 -1.0962 -0.7442  2.0598
 1803SOL    HW216869   1.526   3.583  16.481 -3.0984  0.1831 -0.7423
 1804SOL     OW16870   1.102   1.246   7.760  0.0740  0.0659 -0.2456
 1804SOL    HW116871   1.154   1.309   7.809  2.1779 -2.1010  0.3371
 1804SOL    HW216872   1.163   1.217   7.692  1.4992 -0.7245  1.3706
 1805SOL     OW16873   0.015   3.442   2.191 -0.1284 -0.3622  0.5532
 1805SOL    HW116874   0.068   3.512   2.229 -0.2449 -0.1732  0.3667
 1805SOL    HW216875   0.087   3.400   2.144 -0.2480 -0.3740  0.3804
 1806SOL     OW16876   0.804   0.207   5.327 -0.0874 -0.1722  0.3494
 1806SOL    HW116877   0.748   0.158   5.387  0.5674 -0.2287  0.9023
 1806SOL    HW216878   0.890   0.167   5.337 -0.6493 -1.2746  0.8107
 1807SOL     OW16879   0.071   2.849   8.332  0.1950  0.3327 -0.1800
 1807SOL    HW116880   0.097   2.757   8.337  0.4421  0.2970 -2.2430
 1807SOL    HW216881   0.083   2.870   8.240 -1.0545 -2.7174 -1.0222
 1808SOL     OW16882   3.722   0.616   1.285  0.0055 -0.3789 -0.1979
 1808SOL    HW116883   3.721   0.547   1.218  1.9591 -1.4854  0.9199
 1808SOL    HW216884   3.804   0.605   1.334  0.3828  1.6980 -0.3803
 1809SOL     OW16885   3.786   2.680   3.983  0.6481 -0.4499  0.1478
 1809SOL    HW116886   3.726   2.619   3.940 -1.7325  0.0979  2.7042
 1809SOL    HW216887   3.874   2.654   3.955  1.9581  2.7964  1.3097
 1810SOL     OW16888   0.920   4.623  14.486 -0.0337  0.1888  0.4659
 1810SOL    HW116889   0.943   4.570  14.561 -1.9117 -0.4357  0.6009
 1810SOL    HW216890   0.893   4.550  14.431  1.0969  0.6596 -0.7230
 1811SOL     OW16891   1.838   2.362   0.331 -0.0139  0.5134  0.0211
 1811SOL    HW116892   1.917   2.402   0.368 -0.3309 -0.7681  2.0995
 1811SOL    HW216893   1.758   2.373   0.382 -0.2087  1.3948 -0.4673
 1812SOL     OW16894   3.647   4.041   9.615 -0.2250  0.2247  0.2969
 1812SOL    HW116895   3.681   3.951   9.609 -0.3935  0.2071 -0.3564
 1812SOL    HW216896   3.674   4.061   9.705 -0.7542 -0.3941  0.5895
 1813SOL     OW16897   0.420   3.786   8.647 -0.0932  0.2805  0.1388
 1813SOL    HW116898   0.390   3.794   8.556 -1.5257 -1.0801  0.4958
 1813SOL    HW216899   0.471   3.867   8.645  1.9302 -1.0139 -1.7883
 1814SOL     OW16900   4.032   1.409  13.051 -0.7250  0.0418 -0.7882
 1814SOL    HW116901   4.082   1.417  13.133 -1.7972 -0.2548 -0.0963
 1814SOL    HW216902   4.044   1.316  13.033  0.3792 -0.2192  1.2206
 1815SOL     OW16903   3.148   2.060   7.659 -0.2769  0.2244 -0.2966
 1815SOL    HW116904   3.154   2.060   7.754 -0.9262  0.1432 -0.2545
 1815SOL    HW216905   3.195   1.981   7.633  0.6444  0.0605  1.9334
 1816SOL     OW16906   3.465   0.159  15.845 -0.7965  0.0848 -0.4482
 1816SOL    HW116907   3.479   0.077  15.891  1.7558  0.4766 -0.5542
 1816SOL    HW216908   3.440   0.133  15.756  2.8404 -0.3717 -1.3077
 1817SOL     OW16909   2.490   4.714  11.999 -0.3201 -0.1884 -0.0106
 1817SOL    HW116910   2.467   0.074  11.965 -0.5429 -0.0280  0.5477
 1817SOL    HW216911   2.548   0.007  12.073 -2.4586  0.6616  1.4444
 1818SOL     OW16912   2.463   2.559  15.324  0.1674  0.5207 -0.4833
 1818SOL    HW116913   2.553   2.532  15.305 -0.0378 -0.4892 -0.0667
 1818SOL    HW216914   2.450   2.614  15.247  2.0532  0.9085 -0.5414
 1819SOL     OW16915   0.275   1.628   8.293  0.3043  0.0751 -0.3746
 1819SOL    HW116916   0.369   1.625   8.274  0.9249 -0.6808  2.8615
 1819SOL    HW216917   0.264   1.594   8.382  0.6821  0.7322 -0.0740
 1820SOL     OW16918   3.675   3.394   4.667  0.6188  0.2305 -0.0570
 1820SOL    HW116919   3.645   3.480   4.697  0.9194  0.3510 -0.1072
 1820SOL    HW216920   3.659   3.406   4.574  3.4021 -2.2811 -0.8606
 1821SOL     OW16921   0.119   2.833   0.833 -0.0650  0.0685 -0.2190
 1821SOL    HW116922   0.126   2.912   0.779  1.0538  1.9275  2.6258
 1821SOL    HW216923   0.025   2.820   0.823  0.5590 -2.1751 -3.0763
 1822SOL     OW16924   0.399   3.292   1.730 -0.0438  0.5864  0.1934
 1822SOL    HW116925   0.474   3.241   1.700  0.9273  2.0298  0.1497
 1822SOL    HW216926   0.383   3.258   1.818  2.9181 -3.3039 -0.7635
 1823SOL     OW16927   0.145   2.474   1.223  0.3766 -0.0649 -0.1571
 1823SOL    HW116928   0.116   2.383   1.224  1.3344 -0.3746 -0.4429
 1823SOL    HW216929   0.082   2.513   1.163  0.9538 -0.8343 -1.2765
 1824SOL     OW16930   1.775   3.673  14.717 -0.1465  0.3547 -0.8325
 1824SOL    HW116931   1.805   3.595  14.764 -0.2092 -0.1448 -1.6308
 1824SOL    HW216932   1.835   3.738  14.752  1.7864 -0.9948 -1.6778
 1825SOL     OW16933   2.277   3.426  16.875  0.3212 -0.3599  0.5658
 1825SOL    HW116934   2.313   3.370  16.944 -0.3489  1.3037  2.2612
 1825SOL    HW216935   2.355   3.470  16.841 -0.7955 -0.1950 -1.7959
 1826SOL     OW16936   4.027   1.492   2.384  0.6076 -0.3700  0.2311
 1826SOL    HW116937   3.944   1.515   2.342  0.0235 -0.5088  1.2841
 1826SOL    HW216938   3.994   1.415   2.431 -0.8182  1.3292  2.0080
 1827SOL     OW16939   0.729   1.140   1.782 -0.1798  0.3265 -0.5083
 1827SOL    HW116940   0.679   1.058   1.782  1.0482 -0.4096 -1.6868
 1827SOL    HW216941   0.747   1.134   1.876  1.5833  0.1530 -0.8615
 1828SOL     OW16942   1.755   1.490  15.339 -0.9572 -0.6287 -0.1643
 1828SOL    HW116943   1.793   1.425  15.280 -0.4013  0.5226 -1.0781
 1828SOL    HW216944   1.675   1.455  15.377  0.0732 -1.5814  1.1437
 1829SOL     OW16945   2.227   4.394  14.258 -0.4323  0.1328 -0.1048
 1829SOL    HW116946   2.277   4.318  14.289 -0.4678  0.8307  1.6526
 1829SOL    HW216947   2.290   4.464  14.247 -0.2443 -0.0721 -0.3211
 1830SOL     OW16948   2.259   0.804   3.888 -0.1084 -0.4186 -0.0920
 1830SOL    HW116949   2.187   0.755   3.927  0.4630 -0.2439  1.2097
 1830SOL    HW216950   2.335   0.751   3.915  1.1604  2.0830  1.2633
 1831SOL     OW16951   0.801   4.156   4.015  0.2891  0.2006  0.6107
 1831SOL    HW116952   0.810   4.212   3.938 -1.4954 -1.5391 -0.8416
 1831SOL    HW216953   0.867   4.194   4.073  1.7126 -1.0430 -0.1711
 1832SOL     OW16954   3.717   0.109   5.489  0.5858 -0.6119  0.5861
 1832SOL    HW116955   3.709   0.014   5.503  1.2082 -0.8747 -0.8976
 1832SOL    HW216956   3.759   0.111   5.403 -1.6267  0.0965 -0.5018
 1833SOL     OW16957   3.859   0.298   8.901  0.1867 -0.0006 -0.1026
 1833SOL    HW116958   3.859   0.227   8.838  0.4662  2.0894 -2.4665
 1833SOL    HW216959   3.951   0.297   8.925  0.0385 -1.3566  0.3789
 1834SOL     OW16960   3.827   3.285  13.045 -0.2979 -0.2009 -0.4218
 1834SOL    HW116961   3.847   3.193  13.059  2.4420  0.6276  0.9603
 1834SOL    HW216962   3.777   3.308  13.124 -0.5737 -1.3801 -0.2551
 1835SOL     OW16963   3.773   2.343   4.260  0.6108  0.4364  0.1053
 1835SOL    HW116964   3.805   2.257   4.233 -0.8500  0.3117 -1.2461
 1835SOL    HW216965   3.696   2.351   4.203  0.6903 -1.4722 -0.2748
 1836SOL     OW16966   4.252   0.567   1.903  0.9949  0.0247 -0.3334
 1836SOL    HW116967   4.282   0.656   1.882  0.1874  0.1155 -1.0958
 1836SOL    HW216968   4.162   0.588   1.926  1.3724 -0.3938  1.5340
 1837SOL     OW16969   4.607   0.429   8.095  0.5850 -0.4783 -0.3306
 1837SOL    HW116970   4.529   0.405   8.044  0.4184 -1.0002  0.1614
 1837SOL    HW216971   4.673   0.365   8.068  3.5226  2.1730  0.5447
 1838SOL     OW16972   3.092   1.652   5.118 -0.4535 -0.2213 -0.7633
 1838SOL    HW116973   3.185   1.638   5.099 -0.4584 -0.4454 -0.6220
 1838SOL    HW216974   3.098   1.739   5.158 -0.8510 -0.1952 -0.7633
 1839SOL     OW16975   1.240   2.364   6.225  0.0263  0.1180 -0.3113
 1839SOL    HW116976   1.335   2.361   6.222 -0.1042 -2.7319 -1.7889
 1839SOL    HW216977   1.227   2.330   6.313  0.9787  3.8129  1.2663
 1840SOL     OW16978   1.414   3.402   3.424  0.4157 -0.8526 -0.2707
 1840SOL    HW116979   1.397   3.487   3.464 -1.2753 -1.1250 -0.4034
 1840SOL    HW216980   1.327   3.370   3.402 -0.0663  0.8056 -0.8018
 1841SOL     OW16981   0.202   3.150   4.017  0.1589 -0.5477 -0.8742
 1841SOL    HW116982   0.160   3.186   3.939 -1.1805  0.8498  0.4786
 1841SOL    HW216983   0.195   3.058   3.994 -0.9072 -0.2758 -1.6469
 1842SOL     OW16984   1.304   1.186   8.484  0.2554 -0.1554  0.0623
 1842SOL    HW116985   1.220   1.216   8.519  0.3768 -0.6029  0.7301
 1842SOL    HW216986   1.323   1.125   8.554 -0.5382 -0.2729  0.1802
 1843SOL     OW16987   2.351   4.128   9.097  0.0056  0.6553  0.5275
 1843SOL    HW116988   2.271   4.122   9.046  0.6391  1.9538 -0.5996
 1843SOL    HW216989   2.340   4.211   9.144 -0.0461  0.8042  0.2501
 1844SOL     OW16990   3.002   2.031   6.220 -0.5472 -0.4821  0.2550
 1844SOL    HW116991   3.092   2.020   6.190 -1.3333 -1.7588 -1.6100
 1844SOL    HW216992   2.950   2.019   6.141  1.1323  2.3107 -1.2572
 1845SOL     OW16993   3.846   1.797  10.770 -0.2283  0.0389 -0.1938
 1845SOL    HW116994   3.776   1.822  10.830 -0.2977  0.1843 -0.3341
 1845SOL    HW216995   3.905   1.753  10.830 -1.6325  0.4699  1.4966
 1846SOL     OW16996   1.517   1.011   3.033 -0.0509 -0.0754  0.3909
 1846SOL    HW116997   1.530   0.974   2.946 -1.1798  2.0933 -0.6795
 1846SOL    HW216998   1.531   0.933   3.088 -0.1240 -0.9970 -0.8922
 1847SOL     OW16999   0.945   1.951   2.177 -0.1412  0.0788 -0.0855
 1847SOL    HW117000   0.970   2.040   2.201 -0.1568 -0.2961  1.3051
 1847SOL    HW217001   1.029   1.918   2.143 -0.8820 -0.9057 -0.9754
 1848SOL     OW17002   0.857   4.040   1.605  0.0049  0.3287 -0.7127
 1848SOL    HW117003   0.844   4.026   1.511  0.2849  0.5458 -0.7857
 1848SOL    HW217004   0.807   4.120   1.617 -1.5782 -0.3535 -2.6735
 1849SOL     OW17005   3.750   0.805   2.430 -0.0136  0.1035 -0.9053
 1849SOL    HW117006   3.658   0.776   2.431  0.6806 -2.0003  1.0738
 1849SOL    HW217007   3.795   0.739   2.483  0.4212 -0.3282 -1.8127
 1850SOL     OW17008   1.918   2.597   2.980 -0.5602  0.4216 -0.0138
 1850SOL    HW117009   1.964   2.589   2.897  1.6179  0.1858  1.1970
 1850SOL    HW217010   1.838   2.548   2.962 -1.3336  1.7734 -0.3230
 1851SOL     OW17011   2.847   0.616  13.853 -0.2567  0.0191 -0.2848
 1851SOL    HW117012   2.812   0.527  13.841  0.6460 -0.4795  0.7778
 1851SOL    HW217013   2.937   0.597  13.880 -0.8331 -0.2922  1.4109
 1852SOL     OW17014   4.005   4.595  14.976 -0.0737 -0.4611  0.1667
 1852SOL    HW117015   4.096   4.611  15.001 -0.8536 -0.4823  3.1036
 1852SOL    HW217016   3.970   4.563  15.060 -0.2885  0.7590  0.5468
 1853SOL     OW17017   0.003   2.348   7.245 -0.5456 -0.2846 -0.1676
 1853SOL    HW117018   0.077   2.289   7.261 -0.5658 -0.9548 -2.4409
 1853SOL    HW217019   4.716   2.386   7.332  0.4738 -1.4045  0.4799
 1854SOL     OW17020   4.539   4.723   3.939  0.2345 -0.2787 -0.0775
 1854SOL    HW117021   4.563   4.674   3.861 -0.2036  1.3867 -1.2560
 1854SOL    HW217022   4.614   0.054   3.957  0.6953 -1.4914  1.9498
 1855SOL     OW17023   1.697   3.958  16.237  0.5443 -0.0276 -0.1141
 1855SOL    HW117024   1.742   3.878  16.212  0.6575  0.0101 -0.0266
 1855SOL    HW217025   1.646   3.935  16.314 -1.2483  1.0671 -0.9566
 1856SOL     OW17026   1.703   0.366   0.595  0.0914 -0.2005 -0.3154
 1856SOL    HW117027   1.743   0.298   0.541 -0.9310 -0.8565 -0.2382
 1856SOL    HW217028   1.740   0.345   0.681  0.1141 -0.8406 -0.4768
 1857SOL     OW17029   4.582   0.014   4.723  0.1697  0.2343 -0.0955
 1857SOL    HW117030   4.630   0.072   4.664 -0.6877  0.1182 -0.9038
 1857SOL    HW217031   4.610   4.656   4.687  1.6788  0.8434 -0.3921
 1858SOL     OW17032   0.887   1.867   8.288  0.0504 -0.4930  0.1288
 1858SOL    HW117033   0.940   1.927   8.341  0.1283 -0.3466 -0.1130
 1858SOL    HW217034   0.950   1.795   8.280  0.0225 -0.5057  0.0286
 1859SOL     OW17035   1.653   2.015  17.363 -0.4379 -0.1874 -0.5372
 1859SOL    HW117036   1.721   2.039  17.425 -0.3541 -3.4151  0.5996
 1859SOL    HW217037   1.688   2.045  17.279  1.9537 -1.8385 -0.1148
 1860SOL     OW17038   3.062   2.336  17.035 -0.5345 -0.1025  0.5007
 1860SOL    HW117039   3.024   2.342  17.123  0.5621  1.2578  0.8826
 1860SOL    HW217040   3.137   2.281  17.057  0.1362  0.5748 -0.1003
 1861SOL     OW17041   2.679   3.087   7.095  0.3595 -0.2387  0.6460
 1861SOL    HW117042   2.666   3.142   7.018 -0.0599  0.1076  0.9692
 1861SOL    HW217043   2.654   3.152   7.160 -0.4790 -2.0147  2.0832
 1862SOL     OW17044   4.334   0.386   7.298 -0.6246 -0.0940 -0.4291
 1862SOL    HW117045   4.262   0.413   7.239 -0.4977  0.8833 -0.1433
 1862SOL    HW217046   4.352   0.466   7.348 -0.6702 -0.0149 -0.5374
 1863SOL     OW17047   1.825   4.236   0.856 -0.3803  0.5304 -0.0132
 1863SOL    HW117048   1.749   4.293   0.844 -1.7072 -1.2198  0.1833
 1863SOL    HW217049   1.833   4.220   0.950  1.0742 -0.6157 -0.3330
 1864SOL     OW17050   3.917   3.291   5.262 -0.2264 -0.0442  0.0182
 1864SOL    HW117051   3.900   3.386   5.264  1.0831  0.1615  1.4392
 1864SOL    HW217052   3.992   3.287   5.322 -1.8544  0.5785  2.0795
 1865SOL     OW17053   1.933   0.475   5.020  0.0364 -0.2552  0.4032
 1865SOL    HW117054   1.848   0.437   5.002 -0.5823  1.6448 -0.7387
 1865SOL    HW217055   1.935   0.551   4.962 -0.5817 -0.0021  0.7089
 1866SOL     OW17056   3.573   0.804   1.364  0.4094  0.8892 -0.3101
 1866SOL    HW117057   3.620   0.728   1.331 -1.2082 -1.2043  2.1568
 1866SOL    HW217058   3.645   0.861   1.391  2.0698 -0.8010 -1.2094
 1867SOL     OW17059   1.373   4.553   2.069 -0.3505 -0.3746 -0.3570
 1867SOL    HW117060   1.299   4.563   2.009 -0.9813  0.2025  0.5220
 1867SOL    HW217061   1.394   4.462   2.050 -1.9344 -0.7821 -0.1314
 1868SOL     OW17062   3.134   3.281   4.357  0.4908  0.7579  0.2973
 1868SOL    HW117063   3.051   3.267   4.311  1.5060 -0.7995 -1.0374
 1868SOL    HW217064   3.168   3.194   4.375  4.3224  2.2482  0.1222
 1869SOL     OW17065   2.850   3.935   3.210 -0.0139  0.2389  0.6170
 1869SOL    HW117066   2.944   3.941   3.222 -0.0994  0.6061  1.0601
 1869SOL    HW217067   2.814   3.991   3.279  1.3467  1.7218  0.1104
 1870SOL     OW17068   2.823   4.343   6.975 -0.6798  0.6719 -0.2353
 1870SOL    HW117069   2.826   4.421   7.030  1.6169  1.4267 -1.4328
 1870SOL    HW217070   2.729   4.321   6.977 -0.5523  0.0925 -0.4403
 1871SOL     OW17071   0.749   1.743   8.876  0.2046 -0.0946 -0.3955
 1871SOL    HW117072   0.835   1.745   8.918  0.8621  1.6630 -1.8394
 1871SOL    HW217073   0.744   1.663   8.822  3.0712 -1.7563  1.8257
 1872SOL     OW17074   1.002   0.958  11.271  0.6116  0.0100 -0.2746
 1872SOL    HW117075   0.950   0.972  11.350  0.0528 -0.2863 -0.5834
 1872SOL    HW217076   0.968   1.022  11.208 -1.2318 -2.8013 -2.1453
 1873SOL     OW17077   0.514   2.652   1.050  0.0931  0.1286 -0.4018
 1873SOL    HW117078   0.422   2.676   1.037  0.3332  0.4337 -1.5756
 1873SOL    HW217079   0.506   2.569   1.003 -1.1494  0.6612 -1.1443
 1874SOL     OW17080   1.882   4.044   5.953 -0.2346  0.4322  0.4393
 1874SOL    HW117081   1.808   4.067   5.897 -1.0231 -1.3496  0.7485
 1874SOL    HW217082   1.834   4.022   6.033 -1.3578  2.3989  0.3118
 1875SOL     OW17083   1.450   0.955   7.335  0.7972 -0.5028  0.3561
 1875SOL    HW117084   1.433   0.960   7.429  1.3208 -4.9891  0.7055
 1875SOL    HW217085   1.493   0.869   7.331  0.0010 -0.8332 -1.4570
 1876SOL     OW17086   0.265   0.034  12.716  0.2708  0.2220  0.3992
 1876SOL    HW117087   0.251   0.031  12.621  0.1899  1.4291  0.3738
 1876SOL    HW217088   0.335   4.697  12.732  0.4250  0.4547  0.6589
 1877SOL     OW17089   4.645   3.157   4.265  0.2931 -0.3811  0.0445
 1877SOL    HW117090   4.592   3.168   4.186  1.8070 -0.8627 -1.0328
 1877SOL    HW217091   4.574   3.129   4.323  1.9524 -3.0435  0.7995
 1878SOL     OW17092   3.764   1.665   0.759 -0.4000 -0.1000  0.0311
 1878SOL    HW117093   3.678   1.629   0.739 -0.0478 -0.5563 -0.6691
 1878SOL    HW217094   3.746   1.714   0.839 -0.3959 -1.0309  0.5991
 1879SOL     OW17095   2.079   2.698   1.771 -0.6201 -0.5247  0.1833
 1879SOL    HW117096   2.065   2.705   1.676  0.6592  0.4500  0.0732
 1879SOL    HW217097   2.158   2.750   1.766 -0.9378  0.0263  0.9863
 1880SOL     OW17098   1.644   4.211  16.161  1.1161 -0.6663 -0.0028
 1880SOL    HW117099   1.649   4.262  16.242 -1.4200 -0.5531  0.0732
 1880SOL    HW217100   1.673   4.123  16.186 -0.7098 -1.2590  0.0435
 1881SOL     OW17101   3.295   0.679  14.073  0.2777  1.1657  0.9980
 1881SOL    HW117102   3.369   0.621  14.091  0.5356  1.3451  0.5020
 1881SOL    HW217103   3.335   0.758  14.037  3.8205 -1.1770 -0.2022
 1882SOL     OW17104   3.525   0.572   0.352 -0.1644  0.1429  0.2447
 1882SOL    HW117105   3.445   0.522   0.369 -0.1461 -0.7595 -2.3493
 1882SOL    HW217106   3.493   0.659   0.328 -2.1076 -0.7376 -0.3588
 1883SOL     OW17107   2.710   0.302   4.035  0.4158  0.6462  0.6561
 1883SOL    HW117108   2.697   0.377   3.976  1.4241  1.5682  1.6206
 1883SOL    HW217109   2.775   0.338   4.096  1.3208  0.0075  0.0600
 1884SOL     OW17110   1.810   1.577   8.245 -0.1146 -0.2106 -0.4429
 1884SOL    HW117111   1.770   1.631   8.177  0.4584  0.2549 -0.4120
 1884SOL    HW217112   1.830   1.497   8.196 -2.3549 -0.9720 -0.0963
 1885SOL     OW17113   1.854   3.614  17.054 -0.2040 -0.0601 -0.0505
 1885SOL    HW117114   1.912   3.546  17.089  0.0898 -1.1615 -2.7129
 1885SOL    HW217115   1.902   3.696  17.054 -0.5173  0.1218 -0.3006
 1886SOL     OW17116   1.211   1.123   7.086  0.2588 -0.9349  0.2799
 1886SOL    HW117117   1.120   1.149   7.078  0.0160 -1.6455  0.7158
 1886SOL    HW217118   1.219   1.091   6.996 -0.5422 -1.3509  0.3537
 1887SOL     OW17119   4.427   2.105  17.009 -1.1005 -0.8455 -0.6456
 1887SOL    HW117120   4.383   2.115  16.924  0.7911  0.5536 -1.4715
 1887SOL    HW217121   4.490   2.039  16.979  1.8817  1.3755  0.6600
 1888SOL     OW17122   2.609   2.239   7.991  0.0231 -0.1733  0.1378
 1888SOL    HW117123   2.551   2.266   7.920 -1.6145 -3.0299  0.4005
 1888SOL    HW217124   2.554   2.258   8.067  0.5978  1.7514  0.0715
 1889SOL     OW17125   1.459   2.233   2.695  0.4349  0.6527 -0.0661
 1889SOL    HW117126   1.518   2.158   2.685 -2.5848 -1.5849 -1.0954
 1889SOL    HW217127   1.385   2.199   2.744 -0.9155 -0.0767 -2.6137
 1890SOL     OW17128   3.493   0.303  11.289 -0.0823 -0.2682  0.2251
 1890SOL    HW117129   3.397   0.304  11.291 -0.0865  0.1308 -0.0859
 1890SOL    HW217130   3.495   0.303  11.193  2.2282  1.1675  0.2562
 1891SOL     OW17131   4.286   3.063  17.078  0.4460 -0.5615 -0.0714
 1891SOL    HW117132   4.368   3.014  17.076  0.4253 -0.5063 -1.9365
 1891SOL    HW217133   4.305   3.127  17.147 -2.4320 -0.0529  0.2624
 1892SOL     OW17134   2.125   0.204   8.943  0.1156 -0.1338 -0.2627
 1892SOL    HW117135   2.203   0.166   8.902  1.0727  0.3694  1.0908
 1892SOL    HW217136   2.079   0.132   8.987 -0.7493  0.3775 -0.3310
 1893SOL     OW17137   3.477   0.056   9.248 -0.0855  0.1763 -0.3464
 1893SOL    HW117138   3.482   4.687   9.244  0.2894  0.1634  0.5000
 1893SOL    HW217139   3.503   0.084   9.336 -2.9849  1.6984  0.0225
 1894SOL     OW17140   0.152   1.942   8.155  0.1767 -0.1125 -0.3253
 1894SOL    HW117141   0.111   1.939   8.069 -0.0440 -2.4838 -0.1455
 1894SOL    HW217142   0.238   1.904   8.137 -0.8364 -2.5393 -0.0627
 1895SOL     OW17143   3.022   0.572  14.707 -0.3303  0.2430  0.2069
 1895SOL    HW117144   2.957   0.641  14.722 -1.3535 -0.2257 -2.0808
 1895SOL    HW217145   3.097   0.631  14.705  1.4991 -2.0038  2.5230
 1896SOL     OW17146   1.994   1.280   3.061 -0.1435 -0.5896  0.5119
 1896SOL    HW117147   1.913   1.235   3.037  0.9178 -1.4579 -1.5062
 1896SOL    HW217148   1.968   1.313   3.147 -0.9637 -0.8749  0.3690
 1897SOL     OW17149   2.564   1.079   2.475  0.1257  0.0782  0.6349
 1897SOL    HW117150   2.505   1.066   2.549 -2.9572 -1.6670 -2.0823
 1897SOL    HW217151   2.518   1.143   2.420 -0.8083 -1.6200 -0.5905
 1898SOL     OW17152   1.631   3.553   0.981  0.1027 -0.3985 -0.2224
 1898SOL    HW117153   1.539   3.529   0.994 -0.6054  0.5611 -3.2882
 1898SOL    HW217154   1.659   3.569   1.071 -1.4438 -1.1863  0.3887
 1899SOL     OW17155   2.636   4.670  10.794  0.5073  0.0687 -0.0004
 1899SOL    HW117156   2.689   4.708  10.864  1.7022  0.6312 -1.2076
 1899SOL    HW217157   2.662   4.578  10.795  0.2903 -0.0101 -1.6310
 1900SOL     OW17158   0.719   2.018   6.682 -0.1774 -0.1311 -0.0933
 1900SOL    HW117159   0.668   2.092   6.713 -1.5863 -1.2582  0.3106
 1900SOL    HW217160   0.664   1.987   6.611  0.1989  0.7519 -0.7666
 1901SOL     OW17161   0.934   1.906   2.846 -0.5737  0.1623 -0.5795
 1901SOL    HW117162   0.866   1.902   2.778 -1.3393  0.1981  0.1830
 1901SOL    HW217163   0.897   1.885   2.932  3.7606 -0.6647  1.0843
 1902SOL     OW17164   0.740   2.770   0.891  0.0096 -0.3194 -0.8957
 1902SOL    HW117165   0.659   2.742   0.935 -0.2299  2.6521  0.5477
 1902SOL    HW217166   0.753   2.858   0.925  0.1262  0.5284 -3.1781
 1903SOL     OW17167   3.212   3.446   4.025 -0.2271  0.6414 -0.0748
 1903SOL    HW117168   3.187   3.502   4.099  2.8517  1.5746  0.2294
 1903SOL    HW217169   3.250   3.376   4.078 -0.3863 -0.0905 -0.9206
 1904SOL     OW17170   0.563   1.992   2.953 -0.2074  0.5084  0.1172
 1904SOL    HW117171   0.542   1.945   2.871 -3.1039  0.2232  1.0075
 1904SOL    HW217172   0.489   1.969   3.009  0.3215 -0.0101  0.6056
 1905SOL     OW17173   3.305   3.565  15.005  0.7548 -0.4962  0.6508
 1905SOL    HW117174   3.218   3.600  14.985  1.4695  0.9052 -0.0414
 1905SOL    HW217175   3.335   3.639  15.057 -1.9540  0.0045  1.5423
 1906SOL     OW17176   4.668   0.928  15.745 -0.1942 -0.3621 -0.0812
 1906SOL    HW117177   4.575   0.921  15.724 -0.2244  3.1119 -1.1561
 1906SOL    HW217178   4.667   0.961  15.835 -2.1270  1.5344 -0.7821
 1907SOL     OW17179   2.097   3.789  11.491  0.3530  0.0890  0.0839
 1907SOL    HW117180   2.042   3.726  11.446 -0.1237  0.6118 -0.0649
 1907SOL    HW217181   2.125   3.737  11.567 -1.4862 -1.7683 -0.5416
 1908SOL     OW17182   2.914   0.084   5.410 -0.2643 -0.3501 -0.0661
 1908SOL    HW117183   2.954   0.149   5.351 -0.5126  0.7183  0.9290
 1908SOL    HW217184   2.935   0.002   5.367  0.1477 -1.2615  1.8960
 1909SOL     OW17185   3.091   4.483   9.389 -0.4050 -0.3534  0.1393
 1909SOL    HW117186   3.092   4.472   9.484 -2.0249 -1.1556  0.0593
 1909SOL    HW217187   3.116   4.576   9.384 -3.3205  0.4990  1.7089
 1910SOL     OW17188   4.720   0.305   0.038 -0.3212  0.7044  0.3902
 1910SOL    HW117189   0.012   0.399   0.047 -1.6783  1.0046  0.1147
 1910SOL    HW217190   4.680   0.298  17.659  0.3707 -2.5058  0.3489
 1911SOL     OW17191   4.505   0.149  12.759 -0.3331 -0.4243  0.6128
 1911SOL    HW117192   4.518   0.213  12.829  2.3022 -0.0187 -0.2674
 1911SOL    HW217193   4.581   0.165  12.703 -1.1972 -0.3963 -0.5433
 1912SOL     OW17194   3.472   1.378   8.793  0.4806  0.0290  0.0548
 1912SOL    HW117195   3.545   1.370   8.731  0.3475 -1.9836  0.1539
 1912SOL    HW217196   3.516   1.366   8.877 -1.9995  0.8165  1.4478
 1913SOL     OW17197   0.433   1.897   4.834  0.0169  0.4491 -0.3329
 1913SOL    HW117198   0.440   1.805   4.860  0.4460  0.4793 -0.3409
 1913SOL    HW217199   0.517   1.943   4.833 -0.3187  1.0820  0.1321
 1914SOL     OW17200   0.590   1.644  17.039 -0.6040  0.3750  0.0931
 1914SOL    HW117201   0.517   1.705  17.024 -1.7060 -0.7502  0.8150
 1914SOL    HW217202   0.570   1.610  17.127 -1.0034 -1.6446 -0.7827
 1915SOL     OW17203   2.866   2.369   4.843 -0.1068  0.4740  0.0953
 1915SOL    HW117204   2.918   2.434   4.890 -0.0810  0.0711  0.6229
 1915SOL    HW217205   2.839   2.425   4.770  0.1128 -1.7067 -1.6599
 1916SOL     OW17206   3.651   0.850   7.501 -0.2323 -0.2686  0.2233
 1916SOL    HW117207   3.643   0.872   7.594 -0.2377  0.2585  0.0986
 1916SOL    HW217208   3.563   0.871   7.469  0.9490  2.2810 -1.3390
 1917SOL     OW17209   0.862   4.323  12.367  0.5372  0.3859  0.3533
 1917SOL    HW117210   0.889   4.234  12.388 -3.2312 -1.4316 -2.3799
 1917SOL    HW217211   0.863   4.379  12.444  1.9478 -2.5238  2.4109
 1918SOL     OW17212   0.168   1.918  17.486  0.0743 -0.3163  0.0002
 1918SOL    HW117213   0.247   1.932  17.538  0.1848 -1.2271  0.0722
 1918SOL    HW217214   0.210   1.874  17.412  1.1470  0.4853  0.1364
 1919SOL     OW17215   0.214   4.458   6.135  0.2439  0.3618 -0.1468
 1919SOL    HW117216   0.296   4.435   6.091  0.1332 -0.3183  0.0046
 1919SOL    HW217217   0.168   4.382   6.101  0.9990 -0.3757  0.4798
 1920SOL     OW17218   1.581   2.806   1.234 -0.4895 -0.2746 -0.1986
 1920SOL    HW117219   1.496   2.843   1.260  1.1755  0.4596  4.1826
 1920SOL    HW217220   1.645   2.870   1.265 -0.6933  0.0476 -0.4332
 1921SOL     OW17221   1.124   2.543   5.829  0.5787  0.1147  1.0919
 1921SOL    HW117222   1.175   2.530   5.749 -0.3795 -0.8134  0.6289
 1921SOL    HW217223   1.099   2.452   5.845 -2.2265  0.6789  0.0077
 1922SOL     OW17224   4.231   1.148   8.044 -0.0502 -0.2810 -0.1626
 1922SOL    HW117225   4.318   1.131   8.009  1.1096  0.4232  2.3087
 1922SOL    HW217226   4.240   1.241   8.067 -0.1646 -0.4664  0.6536
 1923SOL     OW17227   4.607   2.190   7.062 -0.1931 -0.3613  0.3022
 1923SOL    HW117228   4.649   2.260   7.112  0.9145 -0.3877 -0.6172
 1923SOL    HW217229   4.576   2.129   7.129  0.0802  0.4051  1.1419
 1924SOL     OW17230   0.066   3.463   5.224  0.3269 -0.1576  0.3405
 1924SOL    HW117231   4.714   3.448   5.173  1.4044 -1.0755 -1.0478
 1924SOL    HW217232   0.046   3.529   5.291  1.1913 -1.2507  1.6879
 1925SOL     OW17233   1.957   3.745  16.428  0.5009  0.1628  0.1732
 1925SOL    HW117234   1.910   3.818  16.469  2.7185  0.2725  2.5310
 1925SOL    HW217235   2.046   3.776  16.445  1.2660 -2.2933  0.6614
 1926SOL     OW17236   3.375   3.216  16.373  0.0124  0.0454  0.3174
 1926SOL    HW117237   3.444   3.276  16.345 -0.5482  0.7007  0.3103
 1926SOL    HW217238   3.386   3.227  16.468  0.5167 -1.1525  0.3926
 1927SOL     OW17239   1.516   0.056   4.255  0.4065  0.0239  0.2018
 1927SOL    HW117240   1.479   0.024   4.338  0.7255  1.3309  0.8404
 1927SOL    HW217241   1.517   4.698   4.209 -1.3231 -0.3367  0.8000
 1928SOL     OW17242   4.517   0.061  16.507  0.1987  0.3685  0.4805
 1928SOL    HW117243   4.547   0.074  16.417  1.2323  1.8774  1.0336
 1928SOL    HW217244   4.496   4.695  16.505  1.6714  0.0841 -1.6899
 1929SOL     OW17245   1.110   2.572   2.806  0.2464 -0.1170 -0.3801
 1929SOL    HW117246   1.075   2.594   2.719  1.2524 -1.5761 -1.1419
 1929SOL    HW217247   1.200   2.605   2.805 -0.4361  1.7860 -0.1240
 1930SOL     OW17248   0.326   0.083   5.842  0.6243 -0.2868 -0.6867
 1930SOL    HW117249   0.388   0.149   5.811  1.0016 -1.1333 -1.7263
 1930SOL    HW217250   0.290   0.055   5.758 -1.6625 -0.0741  0.2387
 1931SOL     OW17251   4.712   1.865   1.951  0.7351  0.5844  0.1598
 1931SOL    HW117252   0.001   1.908   1.867 -1.7266  2.4290  0.6699
 1931SOL    HW217253   0.071   1.835   1.983 -0.1388 -0.3908  1.5786
 1932SOL     OW17254   4.065   3.499   3.097 -0.0967 -0.1585  0.4187
 1932SOL    HW117255   4.031   3.550   3.170  0.6426 -0.6988  1.1368
 1932SOL    HW217256   3.995   3.525   3.037  0.8920  2.1050  0.2665
 1933SOL     OW17257   3.860   2.907  11.831 -0.4831 -0.5279  0.1710
 1933SOL    HW117258   3.952   2.910  11.857 -0.4811 -1.9981  0.3530
 1933SOL    HW217259   3.836   2.993  11.797  0.1843  0.0056  1.0744
 1934SOL     OW17260   0.451   0.407   7.028 -0.2380  0.0254 -0.3679
 1934SOL    HW117261   0.485   0.331   6.979  1.8445 -0.2707  1.5195
 1934SOL    HW217262   0.385   0.431   6.963  0.3230  1.5827 -0.3588
 1935SOL     OW17263   0.498   0.145   1.367 -0.0344 -0.0071  0.0878
 1935SOL    HW117264   0.421   0.174   1.319 -1.2648  0.1444  2.1641
 1935SOL    HW217265   0.455   0.087   1.430  0.1019 -1.6433 -1.2982
 1936SOL     OW17266   3.604   2.618   4.896  0.1211 -0.4831  0.1236
 1936SOL    HW117267   3.625   2.633   4.804 -2.9999 -2.0624 -0.8432
 1936SOL    HW217268   3.545   2.543   4.901 -0.8893  0.1403 -2.4941
 1937SOL     OW17269   3.402   1.519   9.167  0.4479  0.0042  0.3324
 1937SOL    HW117270   3.335   1.481   9.110  0.9098 -1.0955  0.5280
 1937SOL    HW217271   3.370   1.609   9.157 -0.5244 -0.1694  1.8459
 1938SOL     OW17272   1.348   2.690   2.004 -0.0812  0.2030 -0.0033
 1938SOL    HW117273   1.408   2.756   1.970  0.8875  0.6148  2.4619
 1938SOL    HW217274   1.377   2.695   2.096  0.9886 -0.7615 -0.2941
 1939SOL     OW17275   2.650   3.368   4.810  0.2093 -0.6873  0.4600
 1939SOL    HW117276   2.724   3.310   4.830  0.8585  0.0450  0.2024
 1939SOL    HW217277   2.704   3.442   4.779 -1.0128 -0.3865 -0.9281
 1940SOL     OW17278   2.286   1.567   5.719 -0.7150  0.3675 -0.0484
 1940SOL    HW117279   2.308   1.659   5.728 -0.7118  0.3234  0.3956
 1940SOL    HW217280   2.194   1.585   5.701  0.0059  3.2236 -0.8171
 1941SOL     OW17281   2.845   4.142   7.306 -0.5815  0.0217  0.1781
 1941SOL    HW117282   2.899   4.190   7.243 -5.0290  1.7497 -2.3238
 1941SOL    HW217283   2.800   4.212   7.353  0.9850  0.2884  1.2723
 1942SOL     OW17284   4.717   3.438  16.506 -0.3883 -0.1731  0.2768
 1942SOL    HW117285   4.652   3.386  16.554  1.2420 -0.6921  1.9107
 1942SOL    HW217286   4.694   3.526  16.534  2.8715  1.1946 -1.3220
 1943SOL     OW17287   1.908   3.812   3.612 -0.1313  0.0401  0.0839
 1943SOL    HW117288   1.829   3.788   3.563 -1.4815  1.8308  1.3816
 1943SOL    HW217289   1.980   3.798   3.551 -0.1243 -0.6060  0.2355
 1944SOL     OW17290   3.192   1.049   3.070  0.4895 -0.0101  0.0344
 1944SOL    HW117291   3.166   0.961   3.045  1.7979  0.0487 -1.5324
 1944SOL    HW217292   3.275   1.039   3.116  0.6065  0.6085 -0.0401
 1945SOL     OW17293   3.607   4.464   3.676 -0.8545 -0.3754 -0.3336
 1945SOL    HW117294   3.614   4.369   3.689  2.3520 -0.3096 -1.7969
 1945SOL    HW217295   3.633   4.497   3.762 -0.8987 -1.9535  0.3039
 1946SOL     OW17296   3.280   3.834   6.961  0.7938  0.2087  0.0503
 1946SOL    HW117297   3.364   3.836   7.007  1.2018  1.0762 -0.7200
 1946SOL    HW217298   3.225   3.786   7.022  0.6902  1.8593  1.2661
 1947SOL     OW17299   0.464   3.648  14.192  0.4393 -0.3032 -0.1894
 1947SOL    HW117300   0.394   3.698  14.234 -0.7525 -3.4953  1.6694
 1947SOL    HW217301   0.442   3.562  14.229  1.5477 -0.8886 -0.8756
 1948SOL     OW17302   0.482   2.997   0.500 -0.2577 -0.3013 -0.3351
 1948SOL    HW117303   0.545   3.033   0.438  0.5779  1.0332  1.2961
 1948SOL    HW217304   0.520   2.910   0.516  2.1858  1.0998  1.4425
 1949SOL     OW17305   4.451   4.709   3.166  0.9721 -0.4496  0.5733
 1949SOL    HW117306   4.383   4.696   3.232  1.7569  2.6966  1.9697
 1949SOL    HW217307   4.494   4.623   3.172  0.6867 -0.5976  0.4900
 1950SOL     OW17308   3.792   3.659   2.358 -0.3265 -0.1875 -0.2057
 1950SOL    HW117309   3.750   3.703   2.284 -1.5744 -1.3506 -0.1924
 1950SOL    HW217310   3.885   3.660   2.337  0.0006 -0.2445  1.2565
 1951SOL     OW17311   4.605   1.352   7.056 -0.6476 -0.2470  0.5248
 1951SOL    HW117312   4.580   1.392   7.140 -0.4552  2.6186 -0.7894
 1951SOL    HW217313   4.672   1.287   7.075 -0.3514 -0.7164 -2.2071
 1952SOL     OW17314   0.654   1.947   2.141 -0.1471  0.0834 -0.0395
 1952SOL    HW117315   0.742   1.957   2.176  0.1505 -0.2616 -0.7030
 1952SOL    HW217316   0.678   1.936   2.049  0.4579  0.5596  0.0662
 1953SOL     OW17317   0.555   0.746  10.962  0.0232 -0.0026 -0.3522
 1953SOL    HW117318   0.575   0.709  11.048 -0.7737 -2.3382 -1.1687
 1953SOL    HW217319   0.463   0.772  10.971  0.3272  0.1099  2.4984
 1954SOL     OW17320   2.164   0.530  14.010 -0.5077 -0.6427 -0.1492
 1954SOL    HW117321   2.237   0.592  14.017  0.0029 -1.1661 -0.8489
 1954SOL    HW217322   2.100   0.589  13.970  0.4506  0.2240 -0.4174
 1955SOL     OW17323   0.203   3.532  12.965  0.1930 -0.0876  0.7596
 1955SOL    HW117324   0.146   3.501  12.895  0.1761  2.0626 -0.1765
 1955SOL    HW217325   0.284   3.493  12.933  0.1652  0.0146  0.5653
 1956SOL     OW17326   0.369   3.753  13.963  0.2736  0.3129  0.2925
 1956SOL    HW117327   0.387   3.846  13.978  2.3991 -0.5675  3.0628
 1956SOL    HW217328   0.410   3.707  14.036 -1.0683  0.2779  1.0242
 1957SOL     OW17329   1.678   1.437   8.707 -0.0472 -0.3953 -0.3634
 1957SOL    HW117330   1.650   1.470   8.622 -1.6922  0.8879  0.6827
 1957SOL    HW217331   1.696   1.347   8.682  0.1276  0.0363 -1.7466
 1958SOL     OW17332   0.597   0.763   6.609  0.8475 -0.1913  0.0716
 1958SOL    HW117333   0.512   0.806   6.597  0.8462  0.2753  1.7488
 1958SOL    HW217334   0.585   0.718   6.693 -0.3307  0.8984  0.4956
 1959SOL     OW17335   3.769   4.634   4.736  0.2712  0.1179  0.0032
 1959SOL    HW117336   3.730   4.565   4.682 -1.8539 -1.2073  3.2737
 1959SOL    HW217337   3.740   4.709   4.684 -1.9018  0.0912  1.2149
 1960SOL     OW17338   1.792   1.118   3.535 -0.0757  0.0338  0.3017
 1960SOL    HW117339   1.813   1.025   3.547  2.5185  0.7358  1.2347
 1960SOL    HW217340   1.860   1.154   3.592 -0.4076  2.2974 -0.7291
 1961SOL     OW17341   0.377   2.718   7.915  0.1247 -0.8654 -0.1930
 1961SOL    HW117342   0.312   2.652   7.892  0.0464 -1.2967  1.2735
 1961SOL    HW217343   0.412   2.693   8.001  0.7839 -0.9476 -0.4841
 1962SOL     OW17344   3.851   3.245  17.248 -0.4159  0.1776 -0.2231
 1962SOL    HW117345   3.907   3.261  17.324  0.1464 -0.6159 -0.4619
 1962SOL    HW217346   3.808   3.163  17.275 -2.8262  0.9322 -1.8315
 1963SOL     OW17347   4.005   4.418   2.246 -0.1159 -0.2659  0.0135
 1963SOL    HW117348   4.077   4.481   2.250  0.1700 -0.5421 -0.7206
 1963SOL    HW217349   3.964   4.450   2.165 -1.0496 -0.8531  0.2502
 1964SOL     OW17350   1.410   1.432   4.741  0.0987  0.3683 -0.0761
 1964SOL    HW117351   1.334   1.398   4.789 -1.4002  2.2748 -1.0478
 1964SOL    HW217352   1.366   1.458   4.659  2.9426  2.0104 -1.0643
 1965SOL     OW17353   0.229   4.000   6.685 -0.4050 -0.0276 -0.1293
 1965SOL    HW117354   0.237   4.090   6.714 -0.6405  0.2193 -0.8207
 1965SOL    HW217355   0.293   4.000   6.614  0.9751 -1.2458  1.1126
 1966SOL     OW17356   2.854   2.174   6.388  0.0257 -0.1096  0.6410
 1966SOL    HW117357   2.908   2.112   6.339 -0.6261 -0.1706  0.0041
 1966SOL    HW217358   2.892   2.159   6.474  1.1489  2.3506  0.5669
 1967SOL     OW17359   2.271   2.704   5.458  0.0337 -0.4719  0.0699
 1967SOL    HW117360   2.209   2.636   5.429  0.0884  0.1476 -1.5225
 1967SOL    HW217361   2.271   2.697   5.553  0.0771 -1.4676  0.0039
 1968SOL     OW17362   1.739   2.337   4.376  0.7034 -0.5822 -0.4486
 1968SOL    HW117363   1.665   2.295   4.334  0.0284 -0.6595  0.8033
 1968SOL    HW217364   1.815   2.284   4.354  1.0269  0.1342 -1.0672
 1969SOL     OW17365   0.480   3.644  10.679  0.1688 -0.0755  0.0159
 1969SOL    HW117366   0.505   3.564  10.724  1.8962  0.4340 -0.0174
 1969SOL    HW217367   0.530   3.639  10.597  1.8315  1.6330  0.9105
 1970SOL     OW17368   1.149   3.690   4.975  0.5491 -0.0377 -0.3847
 1970SOL    HW117369   1.199   3.648   4.905  0.2467 -1.2035  0.1155
 1970SOL    HW217370   1.164   3.784   4.961  0.4634  0.3524  2.0393
 1971SOL     OW17371   0.862   0.482  10.390  0.3436 -0.0959  0.4271
 1971SOL    HW117372   0.886   0.392  10.414  0.4516  0.1434  1.2419
 1971SOL    HW217373   0.923   0.495  10.318 -0.6224  0.2304 -0.3309
 1972SOL     OW17374   1.460   1.141  11.083 -0.1402 -0.3463  0.2698
 1972SOL    HW117375   1.365   1.148  11.069 -0.0701 -0.6943 -0.3743
 1972SOL    HW217376   1.460   1.049  11.107 -1.6763  0.2723  2.7326
 1973SOL     OW17377   4.697   0.785  14.732 -0.2562 -0.4291 -0.1724
 1973SOL    HW117378   0.008   0.869  14.758 -1.0469 -0.5463  1.3113
 1973SOL    HW217379   4.649   0.763  14.811 -0.6126 -0.8556 -0.5061
 1974SOL     OW17380   1.806   3.510  16.427 -0.1789  0.9055  0.1502
 1974SOL    HW117381   1.832   3.455  16.501  2.6553  0.6116 -1.0717
 1974SOL    HW217382   1.843   3.595  16.453  0.3564 -0.0374  2.4610
 1975SOL     OW17383   4.417   0.048   8.637  0.0765  0.1704 -0.6590
 1975SOL    HW117384   4.391   0.018   8.724  0.2378 -0.1086 -0.7059
 1975SOL    HW217385   4.327   0.063   8.606 -0.7586 -2.4497  0.4537
 1976SOL     OW17386   1.486   2.412   8.031  0.0342  0.5182 -0.2148
 1976SOL    HW117387   1.463   2.337   8.086 -1.8537  1.3744  0.1908
 1976SOL    HW217388   1.483   2.372   7.944 -1.1046 -1.8836  0.9465
 1977SOL     OW17389   3.703   2.181  11.000  0.4920  0.1025 -0.2896
 1977SOL    HW117390   3.727   2.157  11.089 -0.6433 -0.1194 -0.0335
 1977SOL    HW217391   3.616   2.140  10.993  0.6269 -0.5677  1.9302
 1978SOL     OW17392   1.155   2.370  11.369  0.0417 -0.6403 -0.4603
 1978SOL    HW117393   1.196   2.408  11.291  0.4073 -0.0631  0.0193
 1978SOL    HW217394   1.216   2.395  11.437  1.4198 -1.5074 -1.3791
 1979SOL     OW17395   0.001   1.747   5.201 -0.4893 -0.1580 -0.2363
 1979SOL    HW117396   4.664   1.686   5.238 -0.7501  0.9973  1.1891
 1979SOL    HW217397   0.039   1.689   5.135  1.8187  1.3387 -0.2265
 1980SOL     OW17398   2.876   0.860   5.144  0.4546  0.2031  0.0320
 1980SOL    HW117399   2.804   0.908   5.105 -0.7368 -1.0939  0.6402
 1980SOL    HW217400   2.845   0.851   5.234 -1.8974 -1.4222 -0.9416
 1981SOL     OW17401   3.261   3.971   1.268 -0.4197  0.3095  0.9603
 1981SOL    HW117402   3.170   3.980   1.242 -0.1189 -0.1256 -0.2723
 1981SOL    HW217403   3.302   3.990   1.183 -4.2857  2.0139 -0.4787
 1982SOL     OW17404   4.125   1.422   0.138 -0.0181 -0.0278  0.4364
 1982SOL    HW117405   4.113   1.494   0.199 -0.7558  0.5997 -0.4531
 1982SOL    HW217406   4.070   1.462   0.070  2.2922  1.4468 -0.6001
 1983SOL     OW17407   2.465   4.081   2.861  0.2460 -1.0745 -0.0426
 1983SOL    HW117408   2.467   4.096   2.766 -2.6652  1.7230  0.3299
 1983SOL    HW217409   2.555   4.055   2.880  0.7419  1.1969  0.6898
 1984SOL     OW17410   1.282   2.512  13.447 -0.1881 -0.2114  0.2941
 1984SOL    HW117411   1.361   2.520  13.393 -0.8708  1.2863 -0.4743
 1984SOL    HW217412   1.310   2.427  13.482  0.8739  0.3116  0.7265
 1985SOL     OW17413   1.484   2.826   9.126 -0.0642 -0.0302  0.0667
 1985SOL    HW117414   1.467   2.852   9.216 -2.1974 -0.5069 -0.2004
 1985SOL    HW217415   1.403   2.849   9.081 -0.8163  0.4917  1.6775
 1986SOL     OW17416   2.951   0.921   9.028  0.1780  0.1793 -0.5012
 1986SOL    HW117417   3.032   0.900   9.075 -0.8017 -1.1752  0.5682
 1986SOL    HW217418   2.897   0.856   9.073 -1.3160 -0.1772 -2.7967
 1987SOL     OW17419   0.662   2.419   0.771 -0.3848  0.5093  0.6637
 1987SOL    HW117420   0.582   2.464   0.741  0.0088  0.6138 -0.2291
 1987SOL    HW217421   0.622   2.355   0.829 -1.2965 -1.3210 -2.0090
 1988SOL     OW17422   0.724   2.967   4.568  0.2896  0.6257 -0.1012
 1988SOL    HW117423   0.680   3.034   4.517 -0.6101  0.5798  0.6053
 1988SOL    HW217424   0.657   2.900   4.558 -1.9008  2.8498 -0.4247
 1989SOL     OW17425   1.021   3.856   1.734 -0.2593  0.2765 -0.3750
 1989SOL    HW117426   0.995   3.920   1.668 -0.0357  0.6905 -0.0568
 1989SOL    HW217427   1.115   3.845   1.717 -0.2787 -1.5801  0.6216
 1990SOL     OW17428   0.198   3.871  15.537 -0.7262 -0.6603  0.0256
 1990SOL    HW117429   0.233   3.960  15.541  0.5916 -1.2045  0.7905
 1990SOL    HW217430   0.157   3.869  15.451 -0.6980  0.3844 -0.0057
 1991SOL     OW17431   0.215   0.695  16.842 -0.1500  0.5336 -0.2267
 1991SOL    HW117432   0.191   0.636  16.771  0.4916  0.4015 -0.3350
 1991SOL    HW217433   0.163   0.653  16.910  0.4704 -0.9013 -0.6562
 1992SOL     OW17434   3.063   0.575  13.130 -0.5263  0.4538 -0.3591
 1992SOL    HW117435   3.065   0.668  13.110  0.6064 -0.0439 -2.6124
 1992SOL    HW217436   3.154   0.555  13.108  0.4543  4.6830 -0.0424
 1993SOL     OW17437   3.862   2.654   7.705  0.1456  0.2612  0.0425
 1993SOL    HW117438   3.773   2.618   7.711  0.5584 -0.4414  1.8109
 1993SOL    HW217439   3.856   2.722   7.772 -0.4537 -0.6023  0.8671
 1994SOL     OW17440   3.214   2.723   1.866 -0.3096  0.0441 -0.4031
 1994SOL    HW117441   3.236   2.757   1.780 -1.0167 -1.2781 -1.1173
 1994SOL    HW217442   3.296   2.683   1.895 -1.0732 -0.1718  1.4553
 1995SOL     OW17443   2.403   0.556   4.518 -0.6434 -0.7928  0.1973
 1995SOL    HW117444   2.385   0.637   4.471 -0.1365 -0.5718  0.3848
 1995SOL    HW217445   2.423   0.497   4.445  0.2160 -0.0731 -0.1550
 1996SOL     OW17446   1.762   0.863  14.725 -0.2310  0.1193  0.4285
 1996SOL    HW117447   1.777   0.860  14.631  1.9451  0.9386  0.7527
 1996SOL    HW217448   1.818   0.796  14.764 -0.8395 -0.1641  0.8065
 1997SOL     OW17449   1.878   2.976   5.979 -0.5704 -0.1631  0.0125
 1997SOL    HW117450   1.969   2.948   5.979  0.1864  2.2670  0.8730
 1997SOL    HW217451   1.869   3.053   5.923 -0.2732 -0.3548 -0.2983
 1998SOL     OW17452   0.275   3.165  10.229 -0.4334 -0.1899  0.2606
 1998SOL    HW117453   0.245   3.211  10.307 -0.4744  1.1711 -0.5624
 1998SOL    HW217454   0.368   3.160  10.253 -0.3113  1.9717  0.2469
 1999SOL     OW17455   2.674   3.602   8.641 -0.2009  0.1321 -0.1352
 1999SOL    HW117456   2.617   3.648   8.703 -0.4435  0.7315 -0.7976
 1999SOL    HW217457   2.724   3.532   8.681  0.9899  1.4529  0.6720
 2000SOL     OW17458   2.876   1.009   0.533  0.1547  0.4155 -0.4653
 2000SOL    HW117459   2.915   1.077   0.478 -1.5771  1.5914 -0.2527
 2000SOL    HW217460   2.813   0.968   0.474  1.5255  0.2538 -1.7994
 2001SOL     OW17461   0.029   1.764   5.521 -0.3544 -0.4869 -0.1279
 2001SOL    HW117462   0.083   1.750   5.599 -0.6177  0.3160  0.1988
 2001SOL    HW217463   4.673   1.779   5.567 -1.2803 -0.8827 -1.6961
 2002SOL     OW17464   2.783   0.402   6.989  0.0835 -0.1336 -0.3220
 2002SOL    HW117465   2.848   0.472   6.985  0.2334 -0.2326  0.5038
 2002SOL    HW217466   2.817   0.333   7.046  0.1390  0.8608  0.8452
 2003SOL     OW17467   0.034   1.323  13.723 -0.6712  0.1640 -0.0277
 2003SOL    HW117468   0.057   1.415  13.736 -0.8154  0.2913 -0.7039
 2003SOL    HW217469   0.071   1.271  13.795 -0.7463  2.0463  1.3613
 2004SOL     OW17470   3.486   0.139   2.279  0.2044 -0.0337  0.6958
 2004SOL    HW117471   3.579   0.153   2.296  0.2286 -0.4389  0.8890
 2004SOL    HW217472   3.475   0.180   2.193 -0.8052 -0.7049  0.4939
 2005SOL     OW17473   1.992   2.251  15.653 -0.0542  0.5106  0.1269
 2005SOL    HW117474   2.084   2.226  15.660  0.1111  0.7947 -1.0179
 2005SOL    HW217475   1.967   2.209  15.571  5.4665 -1.2239 -0.6531
 2006SOL     OW17476   3.535   2.873   2.995  0.5507 -0.0983 -0.1004
 2006SOL    HW117477   3.504   2.902   2.909  0.3094 -1.4239 -0.4525
 2006SOL    HW217478   3.455   2.872   3.047 -0.5066 -0.8301 -1.7529
 2007SOL     OW17479   2.947   1.058   7.966  0.3127 -0.7712 -0.5271
 2007SOL    HW117480   2.955   1.051   7.871 -0.6141  0.6033 -0.7029
 2007SOL    HW217481   2.966   1.152   7.971 -1.9501 -0.4511  1.5371
 2008SOL     OW17482   1.195   2.553   3.164 -0.2567 -0.2662 -0.0155
 2008SOL    HW117483   1.166   2.476   3.116  1.3723 -2.0591  1.8746
 2008SOL    HW217484   1.284   2.572   3.137  0.1347 -2.2080 -0.0624
 2009SOL     OW17485   3.805   1.503   4.871  0.2917 -0.4497 -0.4816
 2009SOL    HW117486   3.779   1.421   4.913  0.9340 -0.7327 -0.6412
 2009SOL    HW217487   3.897   1.482   4.881  0.4828  0.9934  0.9032
 2010SOL     OW17488   2.376   1.999   0.200 -0.6111 -0.1910  0.3056
 2010SOL    HW117489   2.459   2.035   0.233 -0.4942 -1.5300  1.4376
 2010SOL    HW217490   2.359   1.938   0.271  0.5230 -1.6402 -0.6507
 2011SOL     OW17491   3.472   0.817   2.244  0.8924  0.6826 -0.0864
 2011SOL    HW117492   3.415   0.755   2.290  2.4647  0.0222  0.9699
 2011SOL    HW217493   3.461   0.901   2.288  0.2888 -0.7580  2.5213
 2012SOL     OW17494   1.036   3.624   3.829  0.3985  0.5081 -0.0510
 2012SOL    HW117495   1.124   3.658   3.818  0.3067  1.1548  1.1275
 2012SOL    HW217496   1.051   3.530   3.840 -0.3752  0.3395 -0.4254
 2013SOL     OW17497   4.656   3.617   3.414  0.4835  0.3137  0.2063
 2013SOL    HW117498   0.021   3.619   3.388  0.7476 -1.0081  1.0325
 2013SOL    HW217499   4.649   3.700   3.461 -0.0799 -0.1608  0.9725
 2014SOL     OW17500   2.811   2.063  13.683 -0.2230  0.0484 -0.2792
 2014SOL    HW117501   2.822   1.986  13.627  1.4489  1.1138 -1.3963
 2014SOL    HW217502   2.848   2.031  13.766  1.2618  1.5651 -0.3519
 2015SOL     OW17503   3.517   4.523   7.374 -0.2405  0.0427  0.2077
 2015SOL    HW117504   3.451   4.476   7.424 -1.6544  0.6279 -1.1219
 2015SOL    HW217505   3.573   4.565   7.440  0.9668 -0.7750 -0.2913
 2016SOL     OW17506   1.666   2.917   7.107  0.2642  0.0639 -0.5788
 2016SOL    HW117507   1.694   2.868   7.185  0.4069  0.1326 -0.5873
 2016SOL    HW217508   1.589   2.958   7.146  0.2998  1.3022 -1.8553
 2017SOL     OW17509   0.463   0.497   5.275  0.1616 -0.3460 -1.0184
 2017SOL    HW117510   0.428   0.578   5.240 -3.3713 -0.8934  1.2773
 2017SOL    HW217511   0.556   0.518   5.288  0.6862 -0.5986 -4.4919
 2018SOL     OW17512   2.226   2.809  12.401 -0.3749 -0.6002 -0.1092
 2018SOL    HW117513   2.223   2.895  12.359  0.3385  0.3126  1.7012
 2018SOL    HW217514   2.204   2.826  12.493 -1.6193 -0.6563 -0.3879
 2019SOL     OW17515   3.693   1.511   0.251 -0.0487 -0.1482  0.0449
 2019SOL    HW117516   3.773   1.461   0.235 -0.2164 -0.4806  0.2449
 2019SOL    HW217517   3.730   1.597   0.228 -1.3633 -0.2239 -2.3709
 2020SOL     OW17518   3.886   4.603   0.741  0.2838 -0.4402 -0.1289
 2020SOL    HW117519   3.950   4.667   0.773  0.3307 -1.0352  0.9449
 2020SOL    HW217520   3.936   4.555   0.675  1.6474 -1.5231  1.7152
 2021SOL     OW17521   3.732   0.556   5.981 -0.3336 -0.1852  0.2253
 2021SOL    HW117522   3.675   0.545   5.905  1.2100 -0.2987 -0.9164
 2021SOL    HW217523   3.820   0.537   5.950  0.0347  0.9752  0.5669
 2022SOL     OW17524   3.848   0.784   3.936  0.1012 -0.1314 -0.1430
 2022SOL    HW117525   3.902   0.718   3.980 -0.2936  0.7915  1.7130
 2022SOL    HW217526   3.906   0.859   3.932 -1.0850  0.7747 -0.4777
 2023SOL     OW17527   3.294   0.463   6.648 -0.1215 -0.1584  0.1747
 2023SOL    HW117528   3.215   0.408   6.647  0.2338 -0.6770  0.6002
 2023SOL    HW217529   3.347   0.413   6.710  0.8337  2.4539  1.4593
 2024SOL     OW17530   2.801   1.919   4.650 -0.0497  0.6614 -0.2290
 2024SOL    HW117531   2.862   1.989   4.627 -0.4337  1.4319  1.1204
 2024SOL    HW217532   2.779   1.945   4.739  0.8289 -2.3646  0.8814
 2025SOL     OW17533   4.203   3.430   8.647 -0.3402  0.1606  0.8910
 2025SOL    HW117534   4.276   3.388   8.601  0.1711  0.4965  1.3882
 2025SOL    HW217535   4.152   3.467   8.575  0.0399  0.8260  0.9636
 2026SOL     OW17536   2.291   3.951   4.390  0.0054  0.4970  0.6189
 2026SOL    HW117537   2.370   3.921   4.344  0.2793  1.5465  0.4034
 2026SOL    HW217538   2.317   4.043   4.392  0.7769  0.3207 -1.0358
 2027SOL     OW17539   2.852   3.456   4.564 -0.1411 -0.2822 -0.1557
 2027SOL    HW117540   2.834   3.532   4.509  0.4098 -0.6314 -0.8217
 2027SOL    HW217541   2.881   3.492   4.648  1.7395  0.1679 -1.0061
 2028SOL     OW17542   1.450   3.720  17.362 -0.3877  0.9386  0.0199
 2028SOL    HW117543   1.491   3.703  17.276 -0.0669 -1.4143  0.6211
 2028SOL    HW217544   1.486   3.649  17.415  1.7356  0.7750 -1.6332
 2029SOL     OW17545   3.872   3.436   6.323 -0.1782 -0.1809  0.5748
 2029SOL    HW117546   3.782   3.458   6.300  0.5111  2.4571  0.3849
 2029SOL    HW217547   3.844   3.391   6.403  0.2405 -1.4856 -0.0072
 2030SOL     OW17548   4.544   1.567   4.124  0.3743  0.2963 -0.2432
 2030SOL    HW117549   4.457   1.569   4.163  0.4607  1.4144 -0.1077
 2030SOL    HW217550   4.575   1.476   4.131  0.7772  0.2916 -1.9519
 2031SOL     OW17551   4.004   1.338  13.699  0.1119  0.1364 -0.1812
 2031SOL    HW117552   4.009   1.275  13.771 -0.3060  0.2937 -0.0162
 2031SOL    HW217553   3.943   1.404  13.731  1.1484  0.1260  1.8119
 2032SOL     OW17554   0.913   4.141   1.307  0.2823 -0.0704  0.0928
 2032SOL    HW117555   0.984   4.089   1.346  0.6092  0.9751  0.8849
 2032SOL    HW217556   0.974   4.191   1.252  0.4965  0.8910  1.1995
 2033SOL     OW17557   2.436   1.895  14.612  0.5782 -0.1997  0.1742
 2033SOL    HW117558   2.456   1.903  14.705  0.7984 -1.1108  0.2009
 2033SOL    HW217559   2.418   1.985  14.585 -2.7478 -0.1878  2.4720
 2034SOL     OW17560   3.361   1.346  13.811 -0.7926  0.2208 -0.4075
 2034SOL    HW117561   3.416   1.418  13.841  1.4762 -2.2105  1.2656
 2034SOL    HW217562   3.331   1.317  13.897  0.4473 -0.8282 -0.3292
 2035SOL     OW17563   4.025   4.119   8.796  0.2631  0.4712  0.2201
 2035SOL    HW117564   4.061   4.187   8.740  0.3626  2.7289  3.0357
 2035SOL    HW217565   3.959   4.165   8.849 -0.4326  1.0391 -1.1561
 2036SOL     OW17566   1.571   3.901   1.170  0.1266 -0.0326 -0.2766
 2036SOL    HW117567   1.541   3.990   1.150  0.5097 -0.0612 -0.9632
 2036SOL    HW217568   1.528   3.886   1.254  0.1252 -0.0898 -0.2876
 2037SOL     OW17569   2.452   2.106   2.507 -0.3655  0.0130  0.2845
 2037SOL    HW117570   2.502   2.165   2.450 -2.0423  1.9619  0.8464
 2037SOL    HW217571   2.480   2.030   2.456 -0.7247  1.1785 -1.6728
 2038SOL     OW17572   2.460   1.972   9.017  0.0818  0.2933  0.2862
 2038SOL    HW117573   2.497   1.924   9.091  0.2135  2.4058  1.5954
 2038SOL    HW217574   2.522   1.947   8.949  0.5769  1.0177  0.4681
 2039SOL     OW17575   1.873   0.331   7.170 -0.2803 -0.3265  0.1323
 2039SOL    HW117576   1.845   0.302   7.083 -1.8055 -0.5853  0.7109
 2039SOL    HW217577   1.955   0.285   7.187  0.4779  0.7741 -0.5188
 2040SOL     OW17578   2.667   0.195  16.525  0.0031  0.7091  0.0278
 2040SOL    HW117579   2.696   0.119  16.474  0.9309  1.1252 -0.0753
 2040SOL    HW217580   2.746   0.247  16.509  0.1681  0.7354  0.9041
 2041SOL     OW17581   1.359   3.396  10.795 -0.1853  0.2825 -0.0462
 2041SOL    HW117582   1.370   3.305  10.821  0.9762  0.7372  1.0566
 2041SOL    HW217583   1.319   3.426  10.877 -2.0400 -0.9391 -0.5032
 2042SOL     OW17584   0.743   2.513   9.327  0.4884  0.9617  0.0820
 2042SOL    HW117585   0.836   2.522   9.347  0.6978  0.7701 -0.8486
 2042SOL    HW217586   0.727   2.573   9.254 -1.0544 -0.1393 -0.4849
 2043SOL     OW17587   4.522   3.123   1.238 -0.4278 -0.3595 -0.1615
 2043SOL    HW117588   4.601   3.147   1.287 -1.7196  0.3104  1.6022
 2043SOL    HW217589   4.558   3.079   1.162 -1.2721 -2.1506  0.4694
 2044SOL     OW17590   3.340   3.237   2.970 -0.0376  0.5904  0.6816
 2044SOL    HW117591   3.252   3.257   2.937  0.0246 -1.3610 -0.6956
 2044SOL    HW217592   3.325   3.251   3.064 -0.0689  3.6545  0.2348
 2045SOL     OW17593   3.199   0.066   2.587 -0.3881 -0.3566 -0.1801
 2045SOL    HW117594   3.197   0.116   2.505  0.3817  2.6703  1.6341
 2045SOL    HW217595   3.289   0.035   2.587 -0.6169 -1.0135  0.3752
 2046SOL     OW17596   1.620   2.114   7.297 -0.5069 -0.5313  0.1831
 2046SOL    HW117597   1.654   2.080   7.379  1.8875 -1.6873 -1.2754
 2046SOL    HW217598   1.701   2.130   7.248  0.3661 -2.2688  1.0580
 2047SOL     OW17599   4.297   4.246   3.615  0.3336  0.1999  0.2135
 2047SOL    HW117600   4.372   4.262   3.672  0.3400 -0.4726  0.3948
 2047SOL    HW217601   4.250   4.328   3.632 -1.1132 -0.2983 -1.3463
 2048SOL     OW17602   1.124   1.492   5.864  0.5138  0.1358 -0.0058
 2048SOL    HW117603   1.128   1.484   5.959 -0.7742  1.1850  0.1275
 2048SOL    HW217604   1.038   1.450   5.858 -0.0242  1.4921 -1.7004
 2049SOL     OW17605   1.338   2.112   6.794 -0.3737  0.0673 -0.4991
 2049SOL    HW117606   1.383   2.139   6.713  0.3124 -0.6466 -0.3574
 2049SOL    HW217607   1.408   2.076   6.848  0.9801 -0.5866 -2.6793
 2050SOL     OW17608   1.013   0.945  16.161  0.5683 -0.0978 -0.0471
 2050SOL    HW117609   1.004   0.948  16.257  0.4678 -2.3606  0.0322
 2050SOL    HW217610   0.922   0.926  16.139  0.2747  1.2908  0.0165
 2051SOL     OW17611   3.760   2.452   4.521  0.2506  0.2745  0.4209
 2051SOL    HW117612   3.779   2.546   4.530  2.7717 -0.0495 -1.7849
 2051SOL    HW217613   3.788   2.437   4.431 -1.0204  0.0721  0.0562
 2052SOL     OW17614   1.321   4.542  11.633  0.4744  0.7038 -0.4093
 2052SOL    HW117615   1.386   4.495  11.580  0.4655  1.3449 -0.9880
 2052SOL    HW217616   1.249   4.523  11.573  0.5199 -1.0321  0.0828
 2053SOL     OW17617   1.095   2.301   8.437 -0.5169 -0.8621  0.3627
 2053SOL    HW117618   1.166   2.355   8.401 -0.5422 -0.6940  0.5629
 2053SOL    HW217619   1.063   2.350   8.512 -0.1014 -0.7630  0.4770
 2054SOL     OW17620   0.521   2.232  11.805  0.2319  0.4502  0.0360
 2054SOL    HW117621   0.607   2.248  11.766  0.9519 -2.0405  0.6084
 2054SOL    HW217622   0.537   2.199  11.893  1.9476  2.2310  0.3990
 2055SOL     OW17623   1.440   0.959   8.225  0.0208 -0.5020 -0.3686
 2055SOL    HW117624   1.499   0.887   8.200 -0.7196 -0.4728 -2.1829
 2055SOL    HW217625   1.364   0.916   8.264 -0.2712 -0.6728 -1.1236
 2056SOL     OW17626   0.065   3.043   4.459  0.4879  0.3905  0.2407
 2056SOL    HW117627   0.150   3.036   4.417 -0.4753 -0.9102 -1.4961
 2056SOL    HW217628   0.009   3.078   4.390  0.3343  0.5214  0.4313
 2057SOL     OW17629   0.487   1.325   3.937  0.0817  0.4638  0.3031
 2057SOL    HW117630   0.548   1.254   3.955 -1.7263 -0.6884  1.9383
 2057SOL    HW217631   0.420   1.298   4.000 -0.8034  1.5990 -0.1375
 2058SOL     OW17632   2.435   0.215   3.284 -0.4662 -0.2450  0.2966
 2058SOL    HW117633   2.454   0.274   3.212 -0.3350 -1.1168 -0.3907
 2058SOL    HW217634   2.442   0.273   3.360  0.6575 -1.7382  1.3611
 2059SOL     OW17635   3.273   0.937  17.539  0.0685 -0.0066 -0.0076
 2059SOL    HW117636   3.364   0.921  17.516  0.3953  0.4703  0.9469
 2059SOL    HW217637   3.274   1.029  17.512  2.5457 -0.0970 -0.1839
 2060SOL     OW17638   0.894   1.622   2.109  0.0503 -0.4087 -0.2456
 2060SOL    HW117639   0.919   1.621   2.201  1.3729 -1.9287 -0.6315
 2060SOL    HW217640   0.944   1.698   2.075  0.0856 -0.6944 -0.8411
 2061SOL     OW17641   2.614   0.748  15.151 -0.2044 -0.1509 -0.0039
 2061SOL    HW117642   2.656   0.834  15.149 -0.7543  0.0785 -1.4973
 2061SOL    HW217643   2.688   0.688  15.143  0.3674  0.5645 -0.0936
 2062SOL     OW17644   3.904   4.534   9.863 -0.3704  0.4538 -0.7726
 2062SOL    HW117645   3.911   4.445   9.829 -2.7170  0.3381 -0.9420
 2062SOL    HW217646   3.995   4.564   9.869  0.4470 -1.7924 -2.3597
 2063SOL     OW17647   1.090   1.021   8.250 -0.0041  0.8955  0.3053
 2063SOL    HW117648   1.041   1.061   8.322 -0.2096 -1.0167  1.2341
 2063SOL    HW217649   1.108   1.098   8.197  0.9229  1.2976  1.1835
 2064SOL     OW17650   0.727   3.207   7.662 -0.1249 -0.4231  0.0556
 2064SOL    HW117651   0.654   3.149   7.681 -1.0829  0.4316 -0.9703
 2064SOL    HW217652   0.801   3.146   7.658  1.3745  1.3669  0.5699
 2065SOL     OW17653   2.818   2.835  15.604 -0.7150 -0.2359 -0.3838
 2065SOL    HW117654   2.879   2.766  15.580 -1.0389 -0.5181 -0.4031
 2065SOL    HW217655   2.767   2.842  15.523 -1.0776  0.8174 -0.0705
 2066SOL     OW17656   3.899   1.007  16.922  0.5328  0.0151 -0.0095
 2066SOL    HW117657   3.895   1.090  16.875 -0.5523  0.2380  0.4696
 2066SOL    HW217658   3.921   1.040  17.009  0.0601  2.7571 -0.9301
 2067SOL     OW17659   2.132   0.081   1.949 -0.4116  0.5441 -0.4188
 2067SOL    HW117660   2.078   0.050   1.877  0.8929 -0.2554 -1.0494
 2067SOL    HW217661   2.221   0.067   1.917 -0.9610 -1.3861 -1.0902
 2068SOL     OW17662   1.652   1.703   5.083 -0.1308  0.2432 -0.1773
 2068SOL    HW117663   1.666   1.766   5.012  1.7109  1.7993  1.5457
 2068SOL    HW217664   1.574   1.660   5.048 -1.0880  2.7250 -1.1447
 2069SOL     OW17665   0.743   2.856   2.853  1.0744  0.1771  0.5162
 2069SOL    HW117666   0.694   2.810   2.785 -0.2075 -1.4771  2.5699
 2069SOL    HW217667   0.784   2.779   2.892  0.9824  0.0370  0.3343
 2070SOL     OW17668   1.334   1.077  16.373 -0.1907  0.1940  0.3396
 2070SOL    HW117669   1.385   1.064  16.453 -1.7932 -1.3380  1.1055
 2070SOL    HW217670   1.258   1.023  16.390  0.5043 -0.9133 -0.1022
 2071SOL     OW17671   4.156   4.697  13.168  0.2807 -0.7167 -0.1660
 2071SOL    HW117672   4.125   4.684  13.079  1.2421 -2.2517 -0.2799
 2071SOL    HW217673   4.086   4.642  13.203 -0.3961 -0.3308 -0.9140
 2072SOL     OW17674   2.636   1.828  16.438  0.1827  0.0792 -0.0659
 2072SOL    HW117675   2.716   1.784  16.465 -2.2010 -1.9376  3.6304
 2072SOL    HW217676   2.652   1.861  16.349 -1.2316  0.5838 -0.1303
 2073SOL     OW17677   1.416   2.643   2.870  0.3797 -0.0338  0.7840
 2073SOL    HW117678   1.377   2.566   2.827  3.9201 -0.5453 -1.5483
 2073SOL    HW217679   1.429   2.702   2.796  0.7680 -2.0765 -0.7868
 2074SOL     OW17680   3.038   1.928  13.440 -0.3900  0.1649  0.5184
 2074SOL    HW117681   2.972   1.876  13.394  1.0833 -0.2333 -1.1463
 2074SOL    HW217682   3.044   1.885  13.525 -1.2118 -1.9146 -0.4811
 2075SOL     OW17683   4.124   2.265   5.629 -0.2351 -0.3416 -0.2819
 2075SOL    HW117684   4.057   2.205   5.662  0.8651 -0.0892  2.4300
 2075SOL    HW217685   4.077   2.306   5.556  1.5089 -0.6925 -1.6032
 2076SOL     OW17686   0.623   1.950   6.308  0.4622  0.1806 -0.2819
 2076SOL    HW117687   0.618   1.933   6.214 -1.9725  1.2303 -0.3328
 2076SOL    HW217688   0.621   2.045   6.304  0.3886  0.0901 -2.8248
 2077SOL     OW17689   0.722   2.901   8.891  0.2525 -0.1218 -0.2984
 2077SOL    HW117690   0.803   2.887   8.842  0.7327  0.1312  0.4272
 2077SOL    HW217691   0.719   2.826   8.951  0.3461  0.7456  0.7978
 2078SOL     OW17692   4.112   1.915  16.648 -0.1312 -0.0823  0.4854
 2078SOL    HW117693   4.171   1.882  16.581  0.4830  1.0453  0.4706
 2078SOL    HW217694   4.042   1.947  16.592 -0.8961 -0.2002  1.3636
 2079SOL     OW17695   2.881   1.597  12.011  0.3160 -0.3479 -0.2264
 2079SOL    HW117696   2.811   1.534  12.028 -0.1527  0.6489  1.4968
 2079SOL    HW217697   2.901   1.623  12.101  0.8057  0.0933 -0.4607
 2080SOL     OW17698   1.775   1.128   2.971 -0.3034  0.2579  0.1535
 2080SOL    HW117699   1.791   1.034   2.965 -0.8955  0.0887  1.1477
 2080SOL    HW217700   1.680   1.133   2.981 -0.4529  0.2855 -1.3720
 2081SOL     OW17701   1.391   3.472   7.207 -0.6847  0.0419 -0.0370
 2081SOL    HW117702   1.443   3.539   7.162 -1.8701  0.4422 -0.7878
 2081SOL    HW217703   1.303   3.499   7.182 -0.2606  0.9485 -0.5718
 2082SOL     OW17704   0.630   0.502  16.045 -0.0069 -0.4217 -0.1888
 2082SOL    HW117705   0.561   0.479  16.107 -1.1612 -0.0239 -1.3229
 2082SOL    HW217706   0.645   0.417  16.004 -1.5015 -1.7663  2.0584
 2083SOL     OW17707   2.280   1.278  13.494 -0.3182 -0.5301  0.3862
 2083SOL    HW117708   2.343   1.243  13.558 -0.8404  0.6967  1.5801
 2083SOL    HW217709   2.285   1.213  13.425  1.0395 -2.2794  2.1191
 2084SOL     OW17710   2.834   1.709   5.272  0.1273  0.4980 -0.2289
 2084SOL    HW117711   2.900   1.651   5.310 -0.6717 -0.5713 -0.4522
 2084SOL    HW217712   2.884   1.790   5.264 -0.7873  1.2666  2.0342
 2085SOL     OW17713   0.105   1.742   7.712 -0.3947 -0.2334  0.3730
 2085SOL    HW117714   0.044   1.725   7.641  2.3593  0.9375 -2.2888
 2085SOL    HW217715   0.148   1.658   7.723 -0.6463 -0.2519  1.2332
 2086SOL     OW17716   0.417   2.066   3.927 -0.2874 -0.0450 -0.0987
 2086SOL    HW117717   0.395   2.029   4.012  0.7826  1.6162  0.8997
 2086SOL    HW217718   0.455   2.152   3.944 -0.6605 -0.2607  1.7640
 2087SOL     OW17719   0.404   1.810  11.376  0.0348  0.4793 -0.4779
 2087SOL    HW117720   0.450   1.794  11.294  0.1230 -0.8756 -0.1707
 2087SOL    HW217721   0.323   1.766  11.348  0.1036 -0.2264  0.4127
 2088SOL     OW17722   1.388   2.414  12.242 -0.1649  0.4134  0.3206
 2088SOL    HW117723   1.329   2.339  12.249 -0.0304  0.3033  0.2963
 2088SOL    HW217724   1.469   2.366  12.261 -1.1025 -1.2980 -0.0342
 2089SOL     OW17725   0.488   4.682  15.991  0.1243  0.1345  0.0934
 2089SOL    HW117726   0.500   4.598  16.035 -0.3575  0.4794  0.9110
 2089SOL    HW217727   0.396   4.682  15.963  0.1997 -0.1370 -0.1534
 2090SOL     OW17728   1.344   1.752   3.779  0.0529  0.8006  0.2573
 2090SOL    HW117729   1.292   1.683   3.820 -1.7136  2.9068  1.5837
 2090SOL    HW217730   1.432   1.716   3.765 -1.6994 -2.7893 -1.3223
 2091SOL     OW17731   4.491   0.020   4.994  0.9511 -0.5660 -0.5532
 2091SOL    HW117732   4.574   4.717   5.033 -0.1315 -0.1410  2.1193
 2091SOL    HW217733   4.527   0.027   4.906  1.2735 -1.8981 -0.5274
 2092SOL     OW17734   0.135   4.560   1.323  0.2327 -0.0955 -0.0419
 2092SOL    HW117735   0.169   4.646   1.298 -0.1581  0.1591  0.2900
 2092SOL    HW217736   0.085   4.529   1.247 -0.8081 -0.1267  0.6562
 2093SOL     OW17737   2.257   0.664   6.110 -0.6246 -0.0908  0.2923
 2093SOL    HW117738   2.187   0.718   6.073 -1.7263 -0.2875  2.1097
 2093SOL    HW217739   2.307   0.727   6.161 -1.3479 -1.9128  3.2356
 2094SOL     OW17740   2.470   4.165   2.607  0.1665 -0.0039  1.4014
 2094SOL    HW117741   2.538   4.192   2.545 -0.6399 -0.8373  0.1637
 2094SOL    HW217742   2.416   4.243   2.623 -0.7494 -0.2980 -0.2789
 2095SOL     OW17743   1.626   3.382  12.627 -0.4166 -0.1217 -0.0927
 2095SOL    HW117744   1.608   3.444  12.557  1.5320 -0.2974 -0.7415
 2095SOL    HW217745   1.567   3.313  12.596  0.5307 -1.4092  0.9428
 2096SOL     OW17746   1.865   0.184   0.475  0.1653  0.5219  0.2639
 2096SOL    HW117747   1.859   0.150   0.386 -1.5761 -1.6410  1.2190
 2096SOL    HW217748   1.927   0.122   0.515  0.4416  0.6384  0.0190
 2097SOL     OW17749   1.050   4.459   4.701 -0.3744  0.2159 -0.1225
 2097SOL    HW117750   1.071   4.374   4.664 -0.4080  1.0825 -2.1154
 2097SOL    HW217751   0.977   4.486   4.645  0.6298 -1.3541 -2.1792
 2098SOL     OW17752   1.422   3.391   8.441 -0.0393 -0.5892 -0.2681
 2098SOL    HW117753   1.485   3.382   8.369  0.6656  2.3088 -0.0223
 2098SOL    HW217754   1.347   3.359   8.392 -0.8395 -1.1881  1.3697
 2099SOL     OW17755   0.035   3.725  12.805  0.3794  0.4453  0.2963
 2099SOL    HW117756   4.679   3.753  12.766 -0.7262 -2.0885  0.8130
 2099SOL    HW217757   0.050   3.792  12.871  0.6144 -0.5106  1.2111
 2100SOL     OW17758   2.707   0.984   0.749  0.0268  0.1785  0.6001
 2100SOL    HW117759   2.773   1.010   0.685  0.1930  0.6296  0.9519
 2100SOL    HW217760   2.645   0.930   0.699 -2.2432  2.8475  0.5393
 2101SOL     OW17761   0.291   1.791   3.665 -0.2217 -0.5140  0.2605
 2101SOL    HW117762   0.215   1.827   3.712 -0.3093  1.3379 -1.2877
 2101SOL    HW217763   0.344   1.758   3.737  0.0877 -2.5997 -0.9096
 2102SOL     OW17764   2.828   4.531   2.205  0.1949 -0.1978 -0.1469
 2102SOL    HW117765   2.765   4.598   2.180 -0.2752 -0.5028  0.2391
 2102SOL    HW217766   2.879   4.577   2.272  1.2485  0.7888 -1.6103
 2103SOL     OW17767   3.321   1.547   8.602  0.0220  0.8271  0.2597
 2103SOL    HW117768   3.383   1.579   8.536 -0.5960  2.1544  0.3444
 2103SOL    HW217769   3.376   1.506   8.668  0.3136  1.8678  0.6604
 2104SOL     OW17770   3.821   3.593  13.376  0.0248 -0.4566  0.2558
 2104SOL    HW117771   3.825   3.625  13.286  0.3351  1.7678  1.0621
 2104SOL    HW217772   3.850   3.505  13.352 -0.5142 -0.4918 -0.2605
 2105SOL     OW17773   3.374   4.286   7.197  0.3497  0.0255 -0.9043
 2105SOL    HW117774   3.439   4.322   7.258  0.0961  0.5055 -0.9122
 2105SOL    HW217775   3.416   4.214   7.150  2.6666  0.7836 -0.0253
 2106SOL     OW17776   4.289   2.901   7.793  0.1458 -0.2173 -0.6356
 2106SOL    HW117777   4.281   2.813   7.757 -1.7053 -0.2319 -0.2055
 2106SOL    HW217778   4.363   2.890   7.852 -1.0130 -0.3043  0.7940
 2107SOL     OW17779   4.449   2.712   3.429  0.6025 -0.1712  0.0038
 2107SOL    HW117780   4.437   2.712   3.334 -0.2940 -0.7652  0.1124
 2107SOL    HW217781   4.537   2.750   3.430 -0.1331  1.5308  0.6836
 2108SOL     OW17782   2.034   3.696   3.302  0.2116 -0.3641  0.2284
 2108SOL    HW117783   1.952   3.703   3.255  0.7350  0.6730 -0.5268
 2108SOL    HW217784   2.045   3.602   3.287 -1.2906 -0.4182 -0.4578
 2109SOL     OW17785   1.466   0.510  15.318  0.0427 -0.2370 -0.3274
 2109SOL    HW117786   1.533   0.556  15.368 -0.8490  0.8240 -0.1132
 2109SOL    HW217787   1.505   0.435  15.272 -1.3781 -1.3813  0.3260
 2110SOL     OW17788   4.327   4.070   3.261  0.4618  0.1953  0.1563
 2110SOL    HW117789   4.408   4.109   3.295 -0.7358  1.0128  2.0893
 2110SOL    HW217790   4.268   4.086   3.335 -1.6912 -1.5066 -1.1726
 2111SOL     OW17791   2.305   0.152   8.517  0.6646 -0.1353  0.2051
 2111SOL    HW117792   2.384   0.115   8.477  0.8517 -0.1123  0.5472
 2111SOL    HW217793   2.342   0.180   8.601  0.9463 -0.2499  0.1206
 2112SOL     OW17794   2.416   2.720   4.468  0.3254  0.8081  0.4102
 2112SOL    HW117795   2.445   2.644   4.418  1.3585  1.7620 -0.4430
 2112SOL    HW217796   2.416   2.680   4.555 -0.1446  0.8891  0.4468
 2113SOL     OW17797   3.359   3.017   3.287 -0.0813  0.2015  0.7174
 2113SOL    HW117798   3.409   3.095   3.264 -0.8648  0.5823  0.3147
 2113SOL    HW217799   3.272   3.041   3.257  0.2176  1.2146  0.6442
 2114SOL     OW17800   4.107   3.433   5.832 -0.8558  0.0969 -0.6834
 2114SOL    HW117801   4.122   3.491   5.907 -3.6902  0.8267 -0.6966
 2114SOL    HW217802   4.185   3.447   5.778 -0.0391  2.2112  1.0668
 2115SOL     OW17803   2.659   1.433  13.258 -0.2648 -0.1801 -0.0641
 2115SOL    HW117804   2.580   1.396  13.219 -0.3365 -2.6012  2.3725
 2115SOL    HW217805   2.725   1.412  13.192  0.5213 -1.3919  1.1050
 2116SOL     OW17806   4.508   0.907   3.919 -0.2972  0.8817 -0.0821
 2116SOL    HW117807   4.494   0.934   3.829 -0.2306 -0.5654 -0.5286
 2116SOL    HW217808   4.603   0.893   3.926  0.0771  2.2945 -2.4892
 2117SOL     OW17809   3.564   2.775   7.814  0.3777 -0.0358 -0.0388
 2117SOL    HW117810   3.651   2.811   7.827  0.6553 -0.6499 -0.2092
 2117SOL    HW217811   3.589   2.688   7.783 -0.7278 -0.6660  0.8036
 2118SOL     OW17812   3.372   1.614  13.041  0.2264 -0.2494  0.3267
 2118SOL    HW117813   3.450   1.633  12.990 -1.1247  0.0082 -1.6284
 2118SOL    HW217814   3.405   1.551  13.105 -0.8725 -0.6827  0.4799
 2119SOL     OW17815   1.236   0.188   4.912 -0.2194  0.1046 -0.0237
 2119SOL    HW117816   1.172   0.259   4.910 -0.1918  0.1165 -0.6212
 2119SOL    HW217817   1.173   0.117   4.902  0.1728 -0.2566  0.0476
 2120SOL     OW17818   0.516   0.957   0.516  0.6264 -0.2670 -0.4492
 2120SOL    HW117819   0.549   1.003   0.439 -0.4649  1.9592  0.4075
 2120SOL    HW217820   0.442   1.014   0.536 -1.5346 -3.0887 -0.3570
 2121SOL     OW17821   3.099   3.918   7.527  0.3041  0.4007 -0.0390
 2121SOL    HW117822   3.077   3.936   7.436  0.4582 -0.3625 -0.2263
 2121SOL    HW217823   3.016   3.882   7.558 -0.7513  3.6151  0.8954
 2122SOL     OW17824   1.577   0.745   1.593  0.3973  0.1945  0.1411
 2122SOL    HW117825   1.541   0.830   1.570 -0.7608 -0.5518 -0.7923
 2122SOL    HW217826   1.632   0.722   1.518  0.3460  0.4841  0.0159
 2123SOL     OW17827   0.152   3.895   4.403  0.1956 -0.1744 -0.0838
 2123SOL    HW117828   0.231   3.936   4.368  2.3366 -2.5019  2.0794
 2123SOL    HW217829   0.178   3.855   4.486  1.2449 -0.3384 -0.4886
 2124SOL     OW17830   4.656   0.234  17.219 -0.1376  0.1077  0.2094
 2124SOL    HW117831   4.630   0.244  17.127  0.7713  3.7277  0.3231
 2124SOL    HW217832   4.663   0.139  17.220  1.0853  0.2206  1.6255
 2125SOL     OW17833   3.345   3.137   9.515  0.0114  0.0261  0.4355
 2125SOL    HW117834   3.422   3.101   9.560 -0.8523  0.3246  2.1599
 2125SOL    HW217835   3.348   3.225   9.553  0.1993  0.5937 -0.8843
 2126SOL     OW17836   0.082   0.489  16.716 -0.3969 -0.1388  0.3419
 2126SOL    HW117837   0.043   0.547  16.651  0.3671  2.1115  1.8701
 2126SOL    HW217838   0.080   0.408  16.665  1.3935 -0.0418  0.0987
 2127SOL     OW17839   1.995   4.103  10.891 -0.2458  0.3367 -0.4305
 2127SOL    HW117840   1.944   4.172  10.849  1.1944  2.0664  0.6879
 2127SOL    HW217841   2.066   4.155  10.928 -1.2506  0.6124  1.1212
 2128SOL     OW17842   0.460   0.103   7.553  0.1198  0.1478 -0.1277
 2128SOL    HW117843   0.420   0.045   7.618 -0.4757  0.3173 -0.3449
 2128SOL    HW217844   0.547   0.063   7.548  0.0069  0.0920 -1.6015
 2129SOL     OW17845   1.478   1.850   2.305 -0.1311  0.0391  0.1147
 2129SOL    HW117846   1.548   1.802   2.349  1.1339  0.6897 -1.1874
 2129SOL    HW217847   1.470   1.921   2.368  0.4773 -1.3264  1.7435
 2130SOL     OW17848   2.177   0.819   2.336  0.1304 -0.2143 -0.3271
 2130SOL    HW117849   2.271   0.802   2.336 -0.1581 -1.7988  0.3359
 2130SOL    HW217850   2.148   0.818   2.245  1.6925 -0.5251 -0.8209
 2131SOL     OW17851   2.010   3.290   0.192  0.1479  0.1262  0.0151
 2131SOL    HW117852   2.028   3.330   0.277 -3.1415 -0.3190  0.9032
 2131SOL    HW217853   2.033   3.362   0.134 -0.4118 -0.2586 -0.6724
 2132SOL     OW17854   3.915   1.196   2.074  0.4191  0.2323 -0.0340
 2132SOL    HW117855   3.850   1.227   2.011  0.1865 -0.2374 -0.0247
 2132SOL    HW217856   3.858   1.138   2.124 -0.3123  1.4847  0.5926
 2133SOL     OW17857   2.374   0.019   2.644  0.0433 -0.0052  0.1614
 2133SOL    HW117858   2.398   0.075   2.717  1.3364 -1.5211  0.8869
 2133SOL    HW217859   2.304   0.065   2.598  2.1098  1.3554 -1.6044
 2134SOL     OW17860   3.861   3.244   6.089 -0.6745  0.3425  0.2519
 2134SOL    HW117861   3.775   3.286   6.096 -1.1632 -0.2604 -2.1537
 2134SOL    HW217862   3.912   3.302   6.146 -2.3491  3.1610 -1.0845
 2135SOL     OW17863   4.197   4.139   1.854 -0.2419  0.1694 -0.3587
 2135SOL    HW117864   4.174   4.056   1.811 -2.6343  0.8127 -0.3090
 2135SOL    HW217865   4.252   4.185   1.791 -3.1927  1.8343 -1.7176
 2136SOL     OW17866   4.454   0.412  16.741 -0.0924 -0.8028 -0.2063
 2136SOL    HW117867   4.475   0.376  16.654 -1.2290  0.5886 -1.0573
 2136SOL    HW217868   4.435   0.501  16.711 -0.2723 -0.6986  0.2277
 2137SOL     OW17869   1.023   3.656  14.212 -0.2626  0.1026 -0.0164
 2137SOL    HW117870   0.937   3.642  14.251  0.5012  0.9164  1.9381
 2137SOL    HW217871   1.009   3.720  14.142 -0.5375  2.4886  2.2350
 2138SOL     OW17872   3.921   0.030  15.538 -0.1621 -0.4520  0.6078
 2138SOL    HW117873   3.992   4.712  15.492 -0.1996  1.1070 -0.9694
 2138SOL    HW217874   3.842   4.716  15.502  0.0563 -0.2706 -0.0837
 2139SOL     OW17875   1.461   1.108  13.310 -0.4871  0.1127 -0.4348
 2139SOL    HW117876   1.471   1.185  13.365 -0.3914 -1.5802  1.9307
 2139SOL    HW217877   1.511   1.137  13.234 -1.0656  0.0418 -0.8440
 2140SOL     OW17878   2.614   0.048   3.943 -0.4088  0.0185 -0.0293
 2140SOL    HW117879   2.644   0.131   3.979  0.0293 -0.4596  0.7153
 2140SOL    HW217880   2.539   0.068   3.887  1.5571  1.3524 -2.1411
 2141SOL     OW17881   2.299   1.110  10.203 -0.3572 -0.4086 -0.1393
 2141SOL    HW117882   2.382   1.132  10.247 -0.7822  0.3160  0.3018
 2141SOL    HW217883   2.317   1.145  10.116 -0.7740  1.4188  0.5014
 2142SOL     OW17884   3.501   1.971  14.586  0.4387 -0.1167  0.5698
 2142SOL    HW117885   3.453   1.989  14.666  0.1110 -2.5269  0.8951
 2142SOL    HW217886   3.573   2.034  14.593 -1.5792  2.1623  0.5430
 2143SOL     OW17887   0.267   0.036   2.469  0.0741  0.0867  0.4993
 2143SOL    HW117888   0.264   4.671   2.494 -1.8450 -0.3638 -1.4147
 2143SOL    HW217889   0.358   0.038   2.438 -0.2039  1.6793 -0.2088
 2144SOL     OW17890   2.844   3.895  16.778  0.3222  0.2010 -0.2814
 2144SOL    HW117891   2.769   3.836  16.794  0.6551 -0.0001  0.5407
 2144SOL    HW217892   2.898   3.852  16.712 -0.7785 -0.5677 -0.6981
 2145SOL     OW17893   4.233   3.757   7.726  0.3529 -0.1189  0.3103
 2145SOL    HW117894   4.297   3.747   7.797  0.0242  1.2330  0.8043
 2145SOL    HW217895   4.245   3.672   7.685 -1.2800  1.0365 -2.5876
 2146SOL     OW17896   4.253   2.990   3.145 -0.2675  0.1358  0.3851
 2146SOL    HW117897   4.177   3.044   3.123 -1.3881 -1.5543  0.0955
 2146SOL    HW217898   4.254   3.007   3.239  0.4924 -4.2064  1.1504
 2147SOL     OW17899   1.098   0.227   8.366 -1.1233 -0.1134 -0.1752
 2147SOL    HW117900   1.030   0.290   8.389  0.1565  0.3334  2.3825
 2147SOL    HW217901   1.090   0.227   8.271 -0.3560  0.2574 -0.2468
 2148SOL     OW17902   2.352   0.956   3.325  0.3224  0.0359 -0.1588
 2148SOL    HW117903   2.309   0.913   3.252 -0.8194  0.7302  0.1051
 2148SOL    HW217904   2.309   0.907   3.395  1.5041 -0.3576  0.3045
 2149SOL     OW17905   3.463   0.670   6.275 -0.4192  0.0642 -0.1799
 2149SOL    HW117906   3.477   0.586   6.231  0.0424 -1.0134  1.9876
 2149SOL    HW217907   3.414   0.657   6.356  0.0003  2.3217  0.4163
 2150SOL     OW17908   4.536   1.681  10.949  0.0505  0.1983 -0.0378
 2150SOL    HW117909   4.590   1.606  10.922  1.9656  0.8114  2.1131
 2150SOL    HW217910   4.597   1.740  10.993  0.1894  0.8190 -1.0561
 2151SOL     OW17911   3.394   3.276  14.787 -0.6053 -0.2630 -0.3332
 2151SOL    HW117912   3.472   3.259  14.734 -0.1900  1.1528 -0.1648
 2151SOL    HW217913   3.351   3.191  14.777 -2.9424  0.7047  1.5452
 2152SOL     OW17914   4.139   1.193   6.729 -0.1574 -0.0383 -0.6298
 2152SOL    HW117915   4.149   1.154   6.816 -1.7815  2.0042  0.4854
 2152SOL    HW217916   4.106   1.126   6.669 -0.0284  0.3555 -1.1430
 2153SOL     OW17917   0.086   4.055  13.688  0.2443  0.0804 -0.0632
 2153SOL    HW117918   0.084   3.972  13.640  1.1624 -1.2500  2.2002
 2153SOL    HW217919   0.074   4.033  13.780 -0.7972  0.6346 -0.0682
 2154SOL     OW17920   2.641   0.442   8.211  0.0463 -0.3027  0.3455
 2154SOL    HW117921   2.706   0.509   8.231 -1.6556  1.8970 -1.5347
 2154SOL    HW217922   2.594   0.418   8.292  1.4187 -0.2566  1.1570
 2155SOL     OW17923   4.087   2.064  16.219  0.0846  0.3945  0.8541
 2155SOL    HW117924   4.064   2.152  16.192  0.0647 -0.2161 -1.1095
 2155SOL    HW217925   4.057   2.073  16.310  0.5382 -1.1453  1.1707
 2156SOL     OW17926   1.416   1.634   4.943 -0.3478  0.0953 -0.1980
 2156SOL    HW117927   1.332   1.651   4.988  0.8854  0.3286  2.0252
 2156SOL    HW217928   1.394   1.552   4.899  3.0545  0.3282 -2.2321
 2157SOL     OW17929   1.882   4.485   4.980 -0.2373 -0.1638  0.1895
 2157SOL    HW117930   1.824   4.446   5.045  0.6610 -3.2241 -0.8573
 2157SOL    HW217931   1.944   4.538   5.031  0.0386  1.4169 -1.7511
 2158SOL     OW17932   2.034   1.846  17.663 -0.0670 -0.2785 -0.2347
 2158SOL    HW117933   2.024   1.858   0.049  0.4677 -0.9676 -0.0926
 2158SOL    HW217934   2.104   1.908  17.645 -0.1308 -0.3428 -0.6986
 2159SOL     OW17935   4.300   2.486  13.983 -0.1941  0.3767 -0.7010
 2159SOL    HW117936   4.349   2.405  13.968  0.5006  0.8538 -0.9678
 2159SOL    HW217937   4.325   2.545  13.913 -0.3916  1.4708  0.1483
 2160SOL     OW17938   1.346   2.776   7.855  0.4634  0.5142  0.2787
 2160SOL    HW117939   1.313   2.837   7.921  0.1598  0.2106  0.4082
 2160SOL    HW217940   1.257   2.744   7.840  1.0406 -0.2665 -1.5004
 2161SOL     OW17941   4.204   4.600   8.455 -0.6464  0.8448  1.0203
 2161SOL    HW117942   4.234   4.547   8.529  0.5010  2.0835  1.4486
 2161SOL    HW217943   4.111   4.607   8.475 -1.0723 -0.1803 -0.5908
 2162SOL     OW17944   1.587   2.823   4.782 -0.2412 -0.3824  0.5010
 2162SOL    HW117945   1.579   2.784   4.869 -1.0524  0.2370  0.7074
 2162SOL    HW217946   1.494   2.816   4.761  0.0753  0.1819 -1.0784
 2163SOL     OW17947   4.565   2.284   1.001 -0.5227 -0.0762  0.0261
 2163SOL    HW117948   4.523   2.366   1.028  0.9371  0.4130  0.8575
 2163SOL    HW217949   4.647   2.317   0.966  0.4819  0.9768  3.3446
 2164SOL     OW17950   4.251   1.466   3.735  0.6456  0.8673 -0.5318
 2164SOL    HW117951   4.256   1.387   3.683 -1.4446 -0.6885  1.6373
 2164SOL    HW217952   4.327   1.516   3.704  0.7123  0.9727 -0.2054
 2165SOL     OW17953   3.667   2.008  10.702  0.7091 -0.2162  0.3278
 2165SOL    HW117954   3.726   2.072  10.741  2.1795 -2.3873  1.6700
 2165SOL    HW217955   3.589   2.040  10.747  0.4342  0.4039 -0.5917
 2166SOL     OW17956   1.287   0.518   0.529 -0.5232 -0.0542 -0.5754
 2166SOL    HW117957   1.277   0.610   0.552 -1.1168 -0.2120 -0.2128
 2166SOL    HW217958   1.358   0.531   0.465 -0.8730  0.3457 -0.8813
 2167SOL     OW17959   3.737   1.229  14.371 -0.0225 -0.2556  0.5389
 2167SOL    HW117960   3.796   1.169  14.417  1.5715 -0.3749 -1.6581
 2167SOL    HW217961   3.760   1.317  14.402  2.6855  0.0096 -2.1572
 2168SOL     OW17962   3.544   0.091   7.427 -0.6174 -0.1161 -0.0446
 2168SOL    HW117963   3.450   0.077   7.422 -0.4465 -0.7121 -1.6610
 2168SOL    HW217964   3.551   0.164   7.365  0.5907  0.6059  0.9554
 2169SOL     OW17965   1.730   2.520   7.422  0.7925 -0.4761  0.1153
 2169SOL    HW117966   1.763   2.442   7.466  0.0837  0.0449  1.5684
 2169SOL    HW217967   1.655   2.478   7.379 -0.5779  3.2200 -1.0962
 2170SOL     OW17968   1.567   2.494   1.892 -0.1067 -0.5234 -0.1087
 2170SOL    HW117969   1.663   2.490   1.883  0.2145  0.3113  3.0626
 2170SOL    HW217970   1.561   2.563   1.958 -2.8580 -0.1921 -0.7009
 2171SOL     OW17971   0.301   1.857  12.153  0.0811 -0.1292  0.5561
 2171SOL    HW117972   0.252   1.797  12.209 -2.3520  0.2854 -1.0988
 2171SOL    HW217973   0.389   1.856  12.189  0.9840 -0.8724 -1.6941
 2172SOL     OW17974   0.380   4.469   2.253 -0.0826  0.2869 -0.1153
 2172SOL    HW117975   0.381   4.396   2.192 -4.9600  0.2991 -0.1869
 2172SOL    HW217976   0.287   4.491   2.262 -0.4594 -1.2090 -0.3579
 2173SOL     OW17977   1.264   2.154   2.055  0.0736  0.2295  0.4007
 2173SOL    HW117978   1.274   2.245   2.027 -1.5472  0.1775 -0.3336
 2173SOL    HW217979   1.355   2.136   2.078  0.2134  1.0662  0.5132
 2174SOL     OW17980   1.020   2.464   4.854 -0.3267  0.0646 -0.0668
 2174SOL    HW117981   0.934   2.425   4.871  0.6646 -0.7462  2.9739
 2174SOL    HW217982   1.067   2.411   4.918 -0.9487 -1.0294 -0.4974
 2175SOL     OW17983   4.549   3.637   2.962 -0.1269  0.4024  0.3544
 2175SOL    HW117984   4.559   3.732   2.971  0.3526  0.3653  0.2036
 2175SOL    HW217985   4.512   3.614   3.047  0.7378 -2.3161  0.0057
 2176SOL     OW17986   1.656   2.726  17.272 -0.1044 -0.3380 -0.0536
 2176SOL    HW117987   1.580   2.727  17.213  0.6490  0.0172 -1.0194
 2176SOL    HW217988   1.731   2.702  17.217  0.3025  0.2081  0.2672
 2177SOL     OW17989   1.483   3.965   0.351  0.1489  0.6864 -0.8197
 2177SOL    HW117990   1.478   4.000   0.440 -0.5598 -1.3102 -0.0677
 2177SOL    HW217991   1.454   3.877   0.374  0.4681  1.6580  3.2649
 2178SOL     OW17992   3.715   0.847   5.711  0.2177 -0.9750  0.5997
 2178SOL    HW117993   3.764   0.898   5.775 -2.3722  0.0417  1.8097
 2178SOL    HW217994   3.784   0.784   5.689 -0.9513 -1.8122 -0.7108
 2179SOL     OW17995   2.814   1.189   5.769  0.0322 -0.1151 -0.0382
 2179SOL    HW117996   2.860   1.173   5.687  2.2405  0.4528  1.0793
 2179SOL    HW217997   2.816   1.106   5.817  2.8530 -0.3508 -0.5780
 2180SOL     OW17998   2.681   4.033  10.189  0.1825 -0.6019 -0.0679
 2180SOL    HW117999   2.651   4.071  10.271 -0.1564  0.0338 -0.4860
 2180SOL    HW218000   2.716   3.956  10.233  0.3416 -0.8207 -0.5767
 2181SOL     OW18001   0.214   0.604   3.849  0.2314  0.3154 -0.2335
 2181SOL    HW118002   0.192   0.586   3.758 -0.5164 -0.4519  0.0983
 2181SOL    HW218003   0.249   0.693   3.839  1.7013 -0.5294 -2.5637
 2182SOL     OW18004   0.566   2.803   4.885 -0.0964 -0.0808  0.0219
 2182SOL    HW118005   0.505   2.792   4.957 -1.4655  1.4423 -0.9198
 2182SOL    HW218006   0.543   2.891   4.854  1.8061 -0.3213 -2.1134
 2183SOL     OW18007   3.509   4.379   8.911 -0.6225  0.0470  0.5668
 2183SOL    HW118008   3.479   4.290   8.928  1.2494 -0.7176 -0.1184
 2183SOL    HW218009   3.452   4.409   8.840 -1.4072 -1.7010  0.4759
 2184SOL     OW18010   1.824   1.332  15.126  0.8085  0.4176 -0.4262
 2184SOL    HW118011   1.787   1.263  15.070  0.5610 -0.1918  0.4759
 2184SOL    HW218012   1.841   1.399  15.060  1.9440 -0.2227 -0.7777
 2185SOL     OW18013   3.089   2.995   4.140 -0.6627  0.4462  0.4519
 2185SOL    HW118014   3.035   3.065   4.104  0.2043  0.4660 -0.8405
 2185SOL    HW218015   3.175   3.028   4.115 -0.5722 -0.7309 -0.8232
 2186SOL     OW18016   1.928   1.944  11.086  0.1004  0.4982 -0.1321
 2186SOL    HW118017   1.984   2.021  11.097  4.6488 -2.3747 -2.9847
 2186SOL    HW218018   1.934   1.913  11.176 -3.2099  0.6665  0.1437
 2187SOL     OW18019   1.936   2.719   1.074 -0.0780 -0.2281 -0.1657
 2187SOL    HW118020   1.904   2.648   1.130 -0.9170 -0.7228 -1.2567
 2187SOL    HW218021   1.989   2.671   1.011 -1.3336 -1.0875 -0.5769
 2188SOL     OW18022   3.226   0.478  13.804  0.4537 -0.0277 -0.4536
 2188SOL    HW118023   3.156   0.419  13.775  1.9486 -1.3548 -1.3673
 2188SOL    HW218024   3.276   0.465  13.724  2.6066  1.3546  0.6755
 2189SOL     OW18025   4.484   1.533   7.249  0.2824 -1.2021 -0.3102
 2189SOL    HW118026   4.456   1.597   7.315  0.1772 -0.7594 -0.7784
 2189SOL    HW218027   4.538   1.601   7.209 -0.2071 -1.6255 -1.6793
 2190SOL     OW18028   3.881   4.126  15.741 -0.3997 -0.2156 -0.3441
 2190SOL    HW118029   3.841   4.213  15.743  1.5786  0.6493  2.1373
 2190SOL    HW218030   3.873   4.106  15.648  0.3055  0.3346 -0.5279
 2191SOL     OW18031   4.239   4.058   3.842  0.1824 -0.1371  0.2769
 2191SOL    HW118032   4.176   4.118   3.802  0.6600  0.9343  1.0969
 2191SOL    HW218033   4.319   4.111   3.852 -0.9573  1.6011  0.1987
 2192SOL     OW18034   3.548   0.917   6.468  0.0129  0.8814  0.2302
 2192SOL    HW118035   3.513   0.833   6.437 -0.7238  0.9275  0.9297
 2192SOL    HW218036   3.553   0.957   6.381  1.0630 -1.2878 -0.7236
 2193SOL     OW18037   3.576   4.195   5.555  0.4143 -0.3091  0.2336
 2193SOL    HW118038   3.510   4.133   5.586 -0.7589  0.9037  0.1737
 2193SOL    HW218039   3.651   4.159   5.602  0.1527 -1.0364  0.0931
 2194SOL     OW18040   3.536   2.644   6.714  0.1050 -0.3582 -0.0687
 2194SOL    HW118041   3.626   2.666   6.690 -0.1549  1.9580  1.0529
 2194SOL    HW218042   3.519   2.550   6.705 -0.0838 -0.3215 -0.0984
 2195SOL     OW18043   1.708   0.755  10.782 -0.2707  0.3316  0.4214
 2195SOL    HW118044   1.668   0.756  10.869 -1.3480  2.9252 -0.0994
 2195SOL    HW218045   1.777   0.689  10.792 -0.1246  0.1302 -2.0627
 2196SOL     OW18046   3.652   0.245   7.931 -0.8086 -0.1706  0.1785
 2196SOL    HW118047   3.697   0.171   7.970  1.6172  0.4062 -1.5046
 2196SOL    HW218048   3.679   0.308   7.998 -4.5803  1.7371 -0.0831
 2197SOL     OW18049   2.462   2.191   1.861 -0.4450 -0.6271  0.4669
 2197SOL    HW118050   2.477   2.102   1.893 -1.3279  0.4682  3.9298
 2197SOL    HW218051   2.537   2.209   1.805 -3.2487 -1.1477 -3.4664
 2198SOL     OW18052   0.350   3.164  16.444  0.2943  0.1175 -0.8661
 2198SOL    HW118053   0.404   3.208  16.509  0.7650  2.0637 -2.5606
 2198SOL    HW218054   0.330   3.238  16.386  0.8588  0.0187 -1.1844
 2199SOL     OW18055   0.720   0.639  10.565 -0.0258  0.1020 -0.1992
 2199SOL    HW118056   0.799   0.642  10.618 -0.0989 -1.5022  0.0128
 2199SOL    HW218057   0.746   0.573  10.500 -2.8691  0.7345 -1.9718
 2200SOL     OW18058   1.420   2.407   5.838 -0.2346 -0.2404 -0.7561
 2200SOL    HW118059   1.420   2.434   5.746  1.3385  3.0574  0.2304
 2200SOL    HW218060   1.444   2.488   5.882 -0.2484  0.9278 -2.8918
 2201SOL     OW18061   2.445   0.344   3.040  0.3243 -0.0321 -0.1198
 2201SOL    HW118062   2.470   0.430   3.007  1.0402 -1.3304 -2.8809
 2201SOL    HW218063   2.349   0.351   3.041  0.2671 -0.7239 -0.7936
 2202SOL     OW18064   1.565   2.986   6.395  0.0087  0.1591  0.2450
 2202SOL    HW118065   1.497   2.920   6.408 -1.1471  1.6375  1.6242
 2202SOL    HW218066   1.640   2.960   6.448  0.6704  0.5081 -0.5217
 2203SOL     OW18067   1.139   4.494   4.364 -0.3402  0.1102 -0.4324
 2203SOL    HW118068   1.200   4.420   4.362  1.6656  1.7742 -0.1232
 2203SOL    HW218069   1.143   4.518   4.272  1.8427  1.5256  0.0434
 2204SOL     OW18070   3.794   0.187   5.234 -0.2189  0.0606 -0.1746
 2204SOL    HW118071   3.722   0.152   5.182 -1.6154  0.7792  1.2744
 2204SOL    HW218072   3.824   0.254   5.171 -1.4591 -1.0444 -1.9152
 2205SOL     OW18073   3.086   0.444   5.365 -0.0433 -0.0255  0.4671
 2205SOL    HW118074   3.141   0.464   5.289 -1.1335  1.2176  0.0004
 2205SOL    HW218075   3.007   0.422   5.315  1.1064 -1.0484 -0.9004
 2206SOL     OW18076   2.074   0.965   0.297  0.0350  0.0612 -0.2857
 2206SOL    HW118077   2.003   0.913   0.335 -1.2485  0.0777 -2.7081
 2206SOL    HW218078   2.139   0.948   0.366 -1.5235  0.2312  1.2201
 2207SOL     OW18079   2.825   0.612   5.458  0.1852  0.4132 -0.1314
 2207SOL    HW118080   2.850   0.595   5.549  4.3482  0.8601 -1.1849
 2207SOL    HW218081   2.790   0.525   5.440  2.8386 -0.5939 -0.5206
 2208SOL     OW18082   0.893   4.039   4.360 -0.0192  0.1227  0.1688
 2208SOL    HW118083   0.879   3.988   4.281 -1.6104  1.6573 -0.5163
 2208SOL    HW218084   0.931   3.968   4.413 -0.7739  0.6389  1.4051
 2209SOL     OW18085   2.242   2.184   0.464  0.3190 -0.6064 -0.7013
 2209SOL    HW118086   2.238   2.092   0.438  1.2685 -0.8586  0.0287
 2209SOL    HW218087   2.293   2.168   0.543  0.2115 -0.7689 -0.6665
 2210SOL     OW18088   4.277   1.922  14.223  0.4990  0.4756  0.0484
 2210SOL    HW118089   4.275   1.973  14.142 -0.7829 -0.4784 -0.5106
 2210SOL    HW218090   4.236   1.986  14.281 -0.1769  1.1799 -1.2031
 2211SOL     OW18091   0.792   1.505  12.902  0.5567  0.0533 -0.1920
 2211SOL    HW118092   0.854   1.555  12.956  0.4052  1.3590 -1.2245
 2211SOL    HW218093   0.827   1.416  12.907 -0.9960 -0.4085  2.3664
 2212SOL     OW18094   2.344   2.606   3.126  0.0621  0.1834 -0.0135
 2212SOL    HW118095   2.386   2.533   3.081 -1.5428  0.4711 -2.0173
 2212SOL    HW218096   2.425   2.653   3.145  0.4296 -1.0455  1.3717
 2213SOL     OW18097   3.939   4.331   5.697 -0.1462 -0.3654 -0.3924
 2213SOL    HW118098   3.931   4.403   5.760 -1.2576  1.7782 -2.9714
 2213SOL    HW218099   3.868   4.276   5.728 -0.7377  0.7142  0.1889
 2214SOL     OW18100   1.587   3.569  17.131  0.7093 -0.1394 -0.0259
 2214SOL    HW118101   1.568   3.622  17.054  1.5287 -1.7385 -1.3287
 2214SOL    HW218102   1.663   3.529  17.089  1.4047 -0.6695  1.7309
 2215SOL     OW18103   2.099   4.479   1.947 -0.0579  0.4537  0.1541
 2215SOL    HW118104   2.073   4.391   1.923 -0.2169  0.4565  0.3118
 2215SOL    HW218105   2.030   4.531   1.905 -0.4611 -0.6268 -0.5015
 2216SOL     OW18106   2.247   1.182   8.911  0.0593  0.6597 -0.2138
 2216SOL    HW118107   2.307   1.108   8.898  0.0234  0.3444  1.4355
 2216SOL    HW218108   2.285   1.246   8.851  0.7679 -0.9091 -1.4340
 2217SOL     OW18109   3.133   0.254   7.508  0.3445  0.4432 -0.1835
 2217SOL    HW118110   3.091   0.172   7.536 -0.2505  0.5109 -0.8730
 2217SOL    HW218111   3.137   0.250   7.413 -0.3415  0.1604 -0.2049
 2218SOL     OW18112   2.338   0.638  12.502  0.2912  0.1757  0.4851
 2218SOL    HW118113   2.341   0.733  12.509 -0.7189  0.1421  1.4937
 2218SOL    HW218114   2.325   0.634  12.407  0.7896  0.2466  0.4185
 2219SOL     OW18115   4.253   1.610   1.869 -0.0242 -0.1505 -0.4013
 2219SOL    HW118116   4.341   1.630   1.901  0.2808 -0.7522 -0.8649
 2219SOL    HW218117   4.200   1.617   1.948 -0.8079  0.1746 -0.9618
 2220SOL     OW18118   4.168   0.635   5.192 -0.0484 -0.1146 -0.0238
 2220SOL    HW118119   4.087   0.615   5.146  0.2155  1.6652 -1.2450
 2220SOL    HW218120   4.139   0.666   5.278 -1.3508 -1.0101 -0.1375
 2221SOL     OW18121   0.260   0.421  14.833 -0.5781 -0.1953  0.0077
 2221SOL    HW118122   0.250   0.327  14.851  0.5137 -0.0256  1.4952
 2221SOL    HW218123   0.354   0.436  14.845 -1.0317  1.2818  1.8298
 2222SOL     OW18124   0.982   1.728   7.832  0.6612 -0.1764  0.1090
 2222SOL    HW118125   0.993   1.684   7.916  0.9049 -2.1923 -0.9942
 2222SOL    HW218126   0.909   1.788   7.849 -0.5212 -1.3502 -0.7978
 2223SOL     OW18127   3.211   0.557   6.106  0.3115  0.3573 -0.1539
 2223SOL    HW118128   3.217   0.563   6.011 -0.3869 -0.5382 -0.2574
 2223SOL    HW218129   3.300   0.523   6.118  0.3575  0.3330 -0.5517
 2224SOL     OW18130   1.846   2.420   6.992  0.2354  0.3484 -0.4757
 2224SOL    HW118131   1.804   2.498   6.958 -2.2747 -1.0715 -0.6605
 2224SOL    HW218132   1.934   2.450   7.013 -0.4345  0.9044  1.5227
 2225SOL     OW18133   2.344   1.436   9.578  0.1654  0.4345  0.2912
 2225SOL    HW118134   2.379   1.512   9.624  0.2862  0.1010  0.7437
 2225SOL    HW218135   2.425   1.388   9.567 -1.0444 -1.6663  0.5159
 2226SOL     OW18136   2.207   3.279  15.982  0.8240  0.2530  0.3372
 2226SOL    HW118137   2.228   3.197  16.027  0.7135  0.7386  1.2658
 2226SOL    HW218138   2.112   3.270  15.967  0.7666  2.6459 -0.8395
 2227SOL     OW18139   4.428   1.295  12.792  0.1849 -0.0611  0.5214
 2227SOL    HW118140   4.402   1.352  12.864 -1.2326 -0.8327  0.6243
 2227SOL    HW218141   4.459   1.361  12.730  1.4008  0.2938  1.4955
 2228SOL     OW18142   0.790   1.345   8.061 -0.0759 -0.4208  0.1485
 2228SOL    HW118143   0.701   1.331   8.095 -0.2372 -0.6986 -0.3863
 2228SOL    HW218144   0.762   1.355   7.970 -2.7050  1.7984  1.1976
 2229SOL     OW18145   1.835   0.613   2.836  0.8340  0.5007  0.5610
 2229SOL    HW118146   1.877   0.528   2.821 -0.4451  0.0146 -0.2276
 2229SOL    HW218147   1.798   0.626   2.749  0.0974  0.1923  0.8248
 2230SOL     OW18148   3.190   0.479   2.952 -0.3734  0.1718 -0.3231
 2230SOL    HW118149   3.148   0.423   2.887 -2.3825  0.9240  0.3326
 2230SOL    HW218150   3.142   0.450   3.029 -1.5263  0.4470 -0.9394
 2231SOL     OW18151   0.090   3.831   5.306  0.4790 -0.0364 -0.6350
 2231SOL    HW118152   0.153   3.873   5.364  0.0162  0.1600 -0.2749
 2231SOL    HW218153   0.145   3.833   5.227 -0.5982 -0.9915 -1.4287
 2232SOL     OW18154   0.274   4.479   0.488 -0.1353  0.7608  0.8143
 2232SOL    HW118155   0.369   4.484   0.478 -0.1442 -2.5103 -1.2234
 2232SOL    HW218156   0.259   4.573   0.493 -0.5179  0.8933 -2.3140
 2233SOL     OW18157   0.323   2.270  11.626 -0.3602  1.0931  0.0268
 2233SOL    HW118158   0.393   2.273  11.692 -1.3553  3.3720  0.9701
 2233SOL    HW218159   0.280   2.193  11.662 -0.7949  0.5496 -1.6801
 2234SOL     OW18160   0.186   2.203   2.261 -0.1505 -0.2437 -0.7385
 2234SOL    HW118161   0.132   2.281   2.253  1.7868  1.1335 -0.4150
 2234SOL    HW218162   0.115   2.142   2.241 -0.7965  0.7188 -1.4021
 2235SOL     OW18163   2.066   3.337   8.580  0.3192  0.0141  0.5134
 2235SOL    HW118164   2.138   3.287   8.619  1.3248  0.8647 -0.2298
 2235SOL    HW218165   1.988   3.284   8.573 -1.0437  2.0651  0.0591
 2236SOL     OW18166   0.530   1.511   5.923  0.0483 -0.3056 -0.0782
 2236SOL    HW118167   0.466   1.573   5.958 -0.6253 -0.5363 -0.9056
 2236SOL    HW218168   0.504   1.440   5.981  1.3318  0.1267  1.0287
 2237SOL     OW18169   3.119   1.179  16.710  0.1077  0.6090 -0.6646
 2237SOL    HW118170   3.058   1.218  16.773  0.4981 -1.8217  1.2278
 2237SOL    HW218171   3.174   1.124  16.766 -0.5389  0.0571 -0.5646
 2238SOL     OW18172   2.399   2.688  17.112  0.0503 -0.6483 -0.4238
 2238SOL    HW118173   2.479   2.709  17.160 -0.4309  2.3752 -0.9643
 2238SOL    HW218174   2.424   2.633  17.038 -0.8079 -0.3323 -0.9561
 2239SOL     OW18175   3.588   0.741   3.585  0.0844 -0.0673 -0.1580
 2239SOL    HW118176   3.600   0.820   3.532 -1.2228  0.5225  0.4391
 2239SOL    HW218177   3.669   0.742   3.637  0.3083 -0.5967 -0.4987
 2240SOL     OW18178   0.097   1.057   8.839 -0.8603 -0.0620 -0.1962
 2240SOL    HW118179   0.111   1.112   8.762 -1.0024 -2.4774 -1.9522
 2240SOL    HW218180   0.123   1.119   8.907 -0.8240 -1.2338  0.8543
 2241SOL     OW18181   3.702   4.676   9.966  0.1202  0.1686 -0.1804
 2241SOL    HW118182   3.765   4.612   9.933 -0.6000  1.3603 -3.8884
 2241SOL    HW218183   3.741   4.717  10.042  2.6678 -1.4672 -0.6158
 2242SOL     OW18184   2.493   3.377   8.037 -0.3753  0.1342  0.0012
 2242SOL    HW118185   2.552   3.337   8.101  1.9699  0.3170 -2.0208
 2242SOL    HW218186   2.547   3.451   8.007  0.3727 -0.5707 -0.4027
 2243SOL     OW18187   2.362   2.110   7.660 -0.3829  0.1140  0.1399
 2243SOL    HW118188   2.303   2.035   7.655 -0.2703 -0.0162  0.7784
 2243SOL    HW218189   2.422   2.086   7.589 -0.4402  1.5750 -0.4069
 2244SOL     OW18190   2.152   0.869   9.024  0.4867 -0.0173  0.7091
 2244SOL    HW118191   2.063   0.869   8.988  0.6658 -0.5415  0.2733
 2244SOL    HW218192   2.202   0.893   8.946 -0.5691 -0.0383  0.0157
 2245SOL     OW18193   3.469   2.427  15.417  0.4250  0.0603 -0.4610
 2245SOL    HW118194   3.531   2.466  15.355  2.3607  1.6556  2.4504
 2245SOL    HW218195   3.421   2.358  15.372  1.1167 -0.1827 -0.8130
 2246SOL     OW18196   0.733   4.541  12.285  0.3999 -0.3443  0.4029
 2246SOL    HW118197   0.718   4.514  12.194 -1.4257  0.7303  0.3804
 2246SOL    HW218198   0.785   4.463  12.306 -0.1154 -1.1295 -1.1793
 2247SOL     OW18199   1.336   0.116   0.856  0.5022  0.3529 -0.2055
 2247SOL    HW118200   1.249   0.156   0.861  0.1204 -0.5594  0.3121
 2247SOL    HW218201   1.359   0.163   0.776 -0.5919  0.9513 -0.1682
 2248SOL     OW18202   2.884   4.342   7.971  0.1053  0.0595  0.4350
 2248SOL    HW118203   2.825   4.379   8.037  1.7541 -1.6882  2.9045
 2248SOL    HW218204   2.964   4.334   8.023  1.1707  2.4008 -0.8240
 2249SOL     OW18205   0.119   1.145  11.207 -0.4728 -0.1834 -0.1443
 2249SOL    HW118206   0.206   1.174  11.235 -1.1062 -0.0259  1.6684
 2249SOL    HW218207   0.137   1.051  11.211 -0.7659 -0.2293  0.0816
 2250SOL     OW18208   0.857   3.502  11.940 -0.3718  0.5810 -0.0197
 2250SOL    HW118209   0.776   3.455  11.922  0.3410 -0.6276 -0.0709
 2250SOL    HW218210   0.909   3.463  11.869 -1.4895 -0.0471 -0.4825
 2251SOL     OW18211   3.019   4.493   3.739  0.2590 -0.3836  0.3466
 2251SOL    HW118212   3.108   4.458   3.743  1.0493  1.3210 -1.9142
 2251SOL    HW218213   3.001   4.509   3.832 -1.9230 -0.4112 -0.0854
 2252SOL     OW18214   3.629   2.282   6.188 -0.0039  0.3155 -0.3476
 2252SOL    HW118215   3.575   2.274   6.110 -1.9564 -0.3628  1.0933
 2252SOL    HW218216   3.649   2.375   6.177  0.1165  0.1154 -1.9106
 2253SOL     OW18217   2.887   2.631   4.434  0.5506  0.0015  0.0971
 2253SOL    HW118218   2.859   2.554   4.384 -1.4793  0.3047  0.7619
 2253SOL    HW218219   2.814   2.693   4.428  0.7721  0.1891 -0.6600
 2254SOL     OW18220   3.970   3.335   4.087 -0.2524 -0.6440 -0.2596
 2254SOL    HW118221   3.972   3.265   4.022 -3.7141 -0.2847 -0.7614
 2254SOL    HW218222   3.877   3.328   4.108  0.0036  0.0474  1.0696
 2255SOL     OW18223   1.399   1.802   4.373 -0.2365  0.3017  0.2884
 2255SOL    HW118224   1.304   1.808   4.367 -0.5115 -1.3331  2.8659
 2255SOL    HW218225   1.424   1.784   4.283 -1.0193  0.4849  0.0373
 2256SOL     OW18226   3.492   2.830  12.743 -0.2674  0.3256 -0.0615
 2256SOL    HW118227   3.574   2.843  12.790 -0.1111 -0.0711 -0.2286
 2256SOL    HW218228   3.445   2.912  12.756 -0.3141  0.0663  1.4510
 2257SOL     OW18229   4.032   2.559   3.625  0.1681  0.4244 -0.4783
 2257SOL    HW118230   4.065   2.647   3.606 -0.0286  0.8965  1.3890
 2257SOL    HW218231   3.964   2.549   3.559  1.5640 -1.6200 -1.5879
 2258SOL     OW18232   2.142   3.887  13.671 -0.3339 -0.2358  0.2100
 2258SOL    HW118233   2.123   3.864  13.762 -0.5615 -0.3634  0.1334
 2258SOL    HW218234   2.117   3.804  13.629 -0.8229  1.6206 -3.1515
 2259SOL     OW18235   0.950   2.387   3.290 -0.3580 -0.2524 -0.5624
 2259SOL    HW118236   0.892   2.445   3.241 -0.2046  0.0831 -0.3439
 2259SOL    HW218237   1.003   2.362   3.214  0.4079 -0.1742 -0.0545
 2260SOL     OW18238   3.775   0.086   3.900 -0.4911  0.2853 -0.2709
 2260SOL    HW118239   3.749   0.163   3.850 -1.6342 -0.3141 -0.5791
 2260SOL    HW218240   3.809   0.127   3.980  0.4101 -0.4509 -0.2793
 2261SOL     OW18241   3.692   2.231   0.036 -0.0239 -0.0158 -0.2310
 2261SOL    HW118242   3.600   2.205   0.031 -0.5202  2.0368 -1.7379
 2261SOL    HW218243   3.706   2.278  17.662 -0.2734  0.7387  0.1555
 2262SOL     OW18244   2.208   0.789   2.687  0.1677 -0.0573 -0.1145
 2262SOL    HW118245   2.253   0.766   2.606  1.0516 -0.7315  0.5695
 2262SOL    HW218246   2.195   0.884   2.681  1.1073  0.0316 -0.7621
 2263SOL     OW18247   0.113   1.641   4.948 -0.2794  0.4009  0.4577
 2263SOL    HW118248   0.120   1.710   4.883  0.1044 -0.4795 -0.4337
 2263SOL    HW218249   0.151   1.570   4.896 -1.0556 -1.6725  2.7143
 2264SOL     OW18250   0.976   1.850   7.081 -0.4849 -0.2287  0.1887
 2264SOL    HW118251   0.948   1.900   7.004  1.0287  1.5689  0.8059
 2264SOL    HW218252   1.068   1.834   7.063 -0.0361  1.7650  0.7172
 2265SOL     OW18253   4.434   0.800   4.772  0.2158 -0.0225 -0.0431
 2265SOL    HW118254   4.433   0.707   4.750  0.3173 -0.0770  0.1792
 2265SOL    HW218255   4.437   0.802   4.868  1.3172 -0.9164 -0.0525
 2266SOL     OW18256   3.443   1.172  10.548  0.1119  0.0422  0.1941
 2266SOL    HW118257   3.464   1.095  10.600 -0.1150 -0.2591 -0.1618
 2266SOL    HW218258   3.348   1.174  10.554  0.1482 -0.6445  0.9375
 2267SOL     OW18259   1.989   0.766   7.749  0.0590 -1.1970 -0.1836
 2267SOL    HW118260   1.927   0.744   7.679 -0.5339 -0.3774  0.0908
 2267SOL    HW218261   1.945   0.714   7.817 -2.7638 -0.1308 -1.1830
 2268SOL     OW18262   3.684   1.632   1.145  0.1850  0.4819  0.1847
 2268SOL    HW118263   3.699   1.537   1.141  2.6781  0.9180 -0.3321
 2268SOL    HW218264   3.588   1.633   1.147  0.2248  0.4347  2.3896
 2269SOL     OW18265   2.314   3.324   7.537  0.0086 -0.0619 -0.1761
 2269SOL    HW118266   2.252   3.312   7.465 -1.0155 -1.6141  0.9562
 2269SOL    HW218267   2.338   3.238   7.572  1.2636 -0.8521 -3.0234
 2270SOL     OW18268   1.493   1.592   7.538  0.4208 -0.3042 -0.0922
 2270SOL    HW118269   1.506   1.516   7.595 -1.0893 -0.4811  0.0171
 2270SOL    HW218270   1.468   1.551   7.456  3.2345  1.5825 -1.8951
 2271SOL     OW18271   4.110   4.467   6.322 -0.4241  0.1875 -0.3635
 2271SOL    HW118272   4.160   4.519   6.385  2.5136 -0.8756 -1.8067
 2271SOL    HW218273   4.052   4.535   6.290  1.1573  1.8251  0.2508
 2272SOL     OW18274   0.395   3.595   3.261  0.2750 -0.2023  0.0252
 2272SOL    HW118275   0.456   3.617   3.190  0.4162 -0.6280  0.0130
 2272SOL    HW218276   0.432   3.642   3.335 -0.1575  1.5364 -0.8634
 2273SOL     OW18277   4.146   4.391   6.067 -0.6634 -0.2020 -0.0617
 2273SOL    HW118278   4.112   4.423   6.151 -1.1710  2.0310 -1.1347
 2273SOL    HW218279   4.140   4.472   6.017 -1.8972  0.6584  1.4696
 2274SOL     OW18280   4.702   0.861  16.710 -0.0051 -0.3509 -0.6022
 2274SOL    HW118281   0.071   0.856  16.705 -0.0033  1.7324 -2.4650
 2274SOL    HW218282   4.699   0.942  16.760  2.4135 -0.8032  0.2834
 2275SOL     OW18283   4.083   3.284   4.811 -0.2138 -0.6012 -0.1902
 2275SOL    HW118284   4.092   3.379   4.800  2.8697 -0.7715  0.6840
 2275SOL    HW218285   4.173   3.273   4.842 -0.4565 -2.8475 -0.3115
 2276SOL     OW18286   3.071   2.052   6.943  0.1129 -0.5710 -0.4215
 2276SOL    HW118287   3.156   2.094   6.932 -0.0255  0.1998  1.3659
 2276SOL    HW218288   3.096   1.962   6.923 -0.7705 -1.5975  2.9204
 2277SOL     OW18289   3.969   3.420   0.445 -0.2506 -0.5477  0.3260
 2277SOL    HW118290   3.974   3.326   0.461 -0.5861 -0.4531  0.9868
 2277SOL    HW218291   3.974   3.447   0.537  0.3370  1.1060 -0.1869
 2278SOL     OW18292   3.213   1.504   0.616 -0.0970 -1.1106  0.1866
 2278SOL    HW118293   3.226   1.507   0.711  0.7463 -1.7050  0.0909
 2278SOL    HW218294   3.119   1.491   0.603  0.0926 -1.7421 -0.5741
 2279SOL     OW18295   1.456   2.498   0.366  0.4563 -0.3012  0.4153
 2279SOL    HW118296   1.506   2.515   0.287 -0.6723  0.3759 -0.1507
 2279SOL    HW218297   1.452   2.593   0.378  0.1826 -0.2874  0.1956
 2280SOL     OW18298   3.004   0.768   2.070 -0.1072  0.1415  0.4832
 2280SOL    HW118299   3.014   0.850   2.022 -0.9944  1.0221  1.7811
 2280SOL    HW218300   3.047   0.793   2.152 -0.9301  3.9020 -0.1971
 2281SOL     OW18301   0.182   2.886  13.771 -0.5726  0.1418  0.0515
 2281SOL    HW118302   0.221   2.800  13.758 -0.0605 -0.0125  2.7951
 2281SOL    HW218303   0.123   2.881  13.845 -1.6242  0.7962 -0.7377
 2282SOL     OW18304   1.163   0.416   6.040  0.3717  0.1529  0.5367
 2282SOL    HW118305   1.254   0.407   6.012 -0.1140  3.4001 -2.1312
 2282SOL    HW218306   1.171   0.370   6.124 -0.8815 -0.3553  0.3745
 2283SOL     OW18307   1.701   0.896   8.605 -0.1777  0.1039  0.3483
 2283SOL    HW118308   1.784   0.940   8.586  0.7298 -0.8602  2.0657
 2283SOL    HW218309   1.750   0.815   8.620  1.0562  0.6855 -0.5304
 2284SOL     OW18310   0.211   1.185   2.044 -0.2077  0.2093  0.0225
 2284SOL    HW118311   0.212   1.126   2.119  0.3692  1.4906  1.0283
 2284SOL    HW218312   0.243   1.261   2.092  0.7121 -0.0220 -0.2297
 2285SOL     OW18313   2.732   1.429   2.918  0.5015  0.2721 -0.1301
 2285SOL    HW118314   2.708   1.472   2.836 -0.1541 -1.3694 -0.7948
 2285SOL    HW218315   2.671   1.355   2.912  0.5929 -0.0273  2.7066
 2286SOL     OW18316   1.471   3.078  17.336  0.6760  0.6895  0.1422
 2286SOL    HW118317   1.473   3.168  17.302  0.7985  0.1198 -1.3464
 2286SOL    HW218318   1.454   3.027  17.257  1.1812 -1.7333  1.6052
 2287SOL     OW18319   4.421   3.203   4.129 -0.3221 -0.2019 -0.3631
 2287SOL    HW118320   4.368   3.260   4.185 -2.2686 -1.2862 -1.1169
 2287SOL    HW218321   4.438   3.264   4.057  2.2766  1.1276  1.3354
 2288SOL     OW18322   4.486   4.332   5.028 -0.2210 -0.1196  0.4209
 2288SOL    HW118323   4.481   4.351   5.122 -0.2137 -1.6557  0.7316
 2288SOL    HW218324   4.567   4.281   5.033 -0.6058 -0.6391  1.2853
 2289SOL     OW18325   1.561   1.329   5.030 -0.2252  0.8241 -0.0018
 2289SOL    HW118326   1.478   1.299   5.066 -0.6137  0.3075 -1.2984
 2289SOL    HW218327   1.585   1.404   5.084 -0.1710  1.1265 -0.4476
 2290SOL     OW18328   2.922   3.605  12.819  0.4798  0.0034  0.6708
 2290SOL    HW118329   2.830   3.632  12.814  1.1644  2.4962  1.0763
 2290SOL    HW218330   2.923   3.519  12.778 -0.7854 -0.4330  1.5596
 2291SOL     OW18331   3.931   3.851   8.484 -0.0383  0.2267 -0.2728
 2291SOL    HW118332   3.961   3.796   8.556  1.5715  2.1505  0.5442
 2291SOL    HW218333   3.877   3.918   8.525 -0.2448  0.3421 -0.7345
 2292SOL     OW18334   2.173   3.148   3.397 -0.6829  0.2082  0.0547
 2292SOL    HW118335   2.103   3.209   3.370  1.3499  2.2898 -0.5233
 2292SOL    HW218336   2.144   3.069   3.352  4.8193 -1.2697 -0.8082
 2293SOL     OW18337   0.601   3.585   0.722 -0.0602 -0.5413 -0.8258
 2293SOL    HW118338   0.622   3.604   0.813 -1.7499 -0.4823 -0.4501
 2293SOL    HW218339   0.671   3.639   0.686  0.3196 -0.1465  0.4945
 2294SOL     OW18340   1.191   0.161   2.907 -0.2440 -0.1768  0.0044
 2294SOL    HW118341   1.267   0.199   2.950  1.3765 -3.7007  0.2645
 2294SOL    HW218342   1.159   0.245   2.874  0.1177 -0.2929 -0.6468
 2295SOL     OW18343   2.143   1.870  10.229  0.8282  0.4968 -0.7294
 2295SOL    HW118344   2.202   1.808  10.273 -0.2384 -0.8237 -1.1969
 2295SOL    HW218345   2.093   1.906  10.302  2.6614 -0.8132  1.1809
 2296SOL     OW18346   1.069   1.780  16.798 -0.3998  0.3882 -0.5881
 2296SOL    HW118347   1.124   1.831  16.858 -0.0557  0.3005 -0.8310
 2296SOL    HW218348   0.993   1.755  16.851  0.8325 -2.7109 -0.2438
 2297SOL     OW18349   1.756   2.407  11.143  0.6219 -0.0359  0.6139
 2297SOL    HW118350   1.825   2.473  11.146 -0.2962  0.8307  2.5198
 2297SOL    HW218351   1.770   2.369  11.056  0.7785  0.4072  0.4488
 2298SOL     OW18352   2.854   0.708  10.828 -0.2846 -0.1455 -0.0517
 2298SOL    HW118353   2.792   0.643  10.793 -1.3385  0.5472  0.5470
 2298SOL    HW218354   2.943   0.678  10.807 -0.1791  0.5166 -0.5478
 2299SOL     OW18355   2.330   3.103   8.197 -0.0604  0.1436  0.4922
 2299SOL    HW118356   2.310   3.081   8.288 -1.8136 -1.0969 -0.1929
 2299SOL    HW218357   2.425   3.110   8.187  0.0078  2.0157  2.4058
 2300SOL     OW18358   0.548   2.282   4.589  0.0711  0.2070  0.5441
 2300SOL    HW118359   0.642   2.270   4.600 -0.0683 -1.1966  0.1842
 2300SOL    HW218360   0.521   2.277   4.681  2.3333  2.2581  1.3296
 2301SOL     OW18361   1.486   1.402   2.345 -0.0862 -0.0167  0.4094
 2301SOL    HW118362   1.568   1.434   2.381  0.8081 -0.5258 -1.1951
 2301SOL    HW218363   1.432   1.406   2.424 -1.2186  3.0675 -0.5354
 2302SOL     OW18364   0.028   1.829  10.691 -0.2166 -0.3705  0.1930
 2302SOL    HW118365   0.000   1.762  10.630  0.5150  1.0169 -1.6829
 2302SOL    HW218366   0.036   1.783  10.774  0.7823  0.8605  0.7856
 2303SOL     OW18367   0.421   2.738   8.882 -0.4010 -0.1921 -0.1139
 2303SOL    HW118368   0.422   2.681   8.805  2.0488  0.5458 -0.6248
 2303SOL    HW218369   0.350   2.793   8.850 -0.2365  0.0853 -0.0016
 2304SOL     OW18370   0.700   3.586   4.978 -0.1867 -0.1668 -0.5923
 2304SOL    HW118371   0.626   3.623   4.930 -0.2608 -0.7637 -0.9412
 2304SOL    HW218372   0.767   3.604   4.912 -0.1390  1.3784 -0.1188
 2305SOL     OW18373   4.473   0.909  10.557 -0.0024 -0.0579  0.4805
 2305SOL    HW118374   4.450   0.936  10.646 -1.2675  0.4091  0.0250
 2305SOL    HW218375   4.472   0.814  10.567  2.0145 -0.0167  0.9585
 2306SOL     OW18376   2.506   0.770   2.644 -0.1614 -0.1685 -0.2639
 2306SOL    HW118377   2.572   0.750   2.709 -0.4626 -1.6937 -0.4283
 2306SOL    HW218378   2.555   0.791   2.564  1.9337 -1.8115  0.6111
 2307SOL     OW18379   4.566   0.957   1.410 -0.0624  0.1200 -0.4258
 2307SOL    HW118380   4.509   1.033   1.400 -0.1979 -0.1716 -1.9589
 2307SOL    HW218381   4.557   0.944   1.504  0.0160 -0.7817 -0.5399
 2308SOL     OW18382   1.795   2.857   0.175  0.3410 -0.5344 -0.2025
 2308SOL    HW118383   1.788   2.765   0.149 -0.9888 -0.3120 -0.6462
 2308SOL    HW218384   1.852   2.856   0.251 -0.8481 -1.2210  0.6852
 2309SOL     OW18385   2.478   1.830   6.388 -0.8063  0.5536 -0.1772
 2309SOL    HW118386   2.532   1.891   6.438 -0.7369 -0.0438  0.4640
 2309SOL    HW218387   2.401   1.886   6.380 -1.6608 -0.4150  1.3145
 2310SOL     OW18388   1.215   1.896  17.272  1.0564 -0.0834  0.4438
 2310SOL    HW118389   1.288   1.845  17.238  0.9374  0.4143 -0.5532
 2310SOL    HW218390   1.149   1.828  17.283  1.3813 -0.2215  1.6078
 2311SOL     OW18391   1.690   0.643   5.451  0.2804 -0.4570  0.3002
 2311SOL    HW118392   1.651   0.566   5.494 -1.8032  0.9801  0.9478
 2311SOL    HW218393   1.779   0.613   5.430  0.6829  0.1564  1.1245
 2312SOL     OW18394   2.721   1.240   0.793  0.5608 -0.0493  0.4046
 2312SOL    HW118395   2.687   1.151   0.780 -0.0620  0.3144 -0.4185
 2312SOL    HW218396   2.645   1.293   0.770 -0.0721 -0.7432  0.8924
 2313SOL     OW18397   3.343   1.199  15.187 -0.6327  0.5661  0.4673
 2313SOL    HW118398   3.378   1.250  15.260  1.2556 -0.8206  0.5349
 2313SOL    HW218399   3.367   1.259  15.116  2.6603 -0.9775  0.2701
 2314SOL     OW18400   2.713   3.651   3.877  0.5387 -0.1733  0.4110
 2314SOL    HW118401   2.722   3.657   3.782  0.4692 -0.9485  0.3511
 2314SOL    HW218402   2.621   3.626   3.881  0.9715 -1.6873  0.8571
 2315SOL     OW18403   4.214   2.549   0.864 -0.1570  0.1510  0.1141
 2315SOL    HW118404   4.128   2.522   0.832 -0.4538  0.3357  0.7646
 2315SOL    HW218405   4.266   2.552   0.784 -0.7249  1.9675 -0.1796
 2316SOL     OW18406   2.031   3.916   2.465  0.2954 -0.2899 -0.0317
 2316SOL    HW118407   2.116   3.960   2.463 -0.7701  1.8707  2.4953
 2316SOL    HW218408   2.006   3.939   2.376  1.5549 -0.6241 -0.4760
 2317SOL     OW18409   2.554   0.307   2.132 -0.0757  0.1197 -0.1837
 2317SOL    HW118410   2.644   0.340   2.132  0.2725 -0.8113 -1.1305
 2317SOL    HW218411   2.510   0.369   2.074 -1.9325  0.3591  1.4715
 2318SOL     OW18412   1.111   3.160   6.066 -0.8834 -0.1033 -0.5091
 2318SOL    HW118413   1.200   3.131   6.046 -1.5749 -1.4116 -1.6118
 2318SOL    HW218414   1.141   3.248   6.090 -0.2681 -0.0295 -1.5805
 2319SOL     OW18415   1.991   2.923  10.793 -0.4579 -0.2676  0.0252
 2319SOL    HW118416   1.972   2.831  10.812  2.3526 -0.3061  2.6757
 2319SOL    HW218417   1.909   2.934  10.744 -0.3661 -0.3062 -0.1375
 2320SOL     OW18418   1.088   4.279  12.992 -0.3065 -0.6797 -0.2066
 2320SOL    HW118419   1.054   4.198  12.955  1.0617 -1.2927 -0.0876
 2320SOL    HW218420   1.142   4.311  12.919  0.0253 -1.9500 -0.5122
 2321SOL     OW18421   2.379   1.170   8.532  0.3993  0.3107 -0.7020
 2321SOL    HW118422   2.374   1.218   8.615  0.1991 -0.5412 -0.2207
 2321SOL    HW218423   2.474   1.176   8.530  0.5824 -0.8327  3.2233
 2322SOL     OW18424   3.451   0.251   2.735  0.2967  0.0618 -0.2384
 2322SOL    HW118425   3.529   0.234   2.681  0.1332 -0.1153 -0.4230
 2322SOL    HW218426   3.470   0.337   2.771  1.4381  0.4771 -1.8260
 2323SOL     OW18427   0.655   4.692  12.645 -0.0188  0.0869 -0.2370
 2323SOL    HW118428   0.645   4.716  12.553 -1.4462  0.7579  0.0850
 2323SOL    HW218429   0.669   0.056  12.673 -0.1330 -0.5611  1.9845
 2324SOL     OW18430   3.122   4.394   4.569  0.3147  0.5470 -0.0538
 2324SOL    HW118431   3.094   4.484   4.582  0.9602  0.9837 -1.7219
 2324SOL    HW218432   3.071   4.354   4.639 -1.2866  0.0584 -1.4836
 2325SOL     OW18433   0.753   4.436   1.328  0.0397 -0.0263 -0.0341
 2325SOL    HW118434   0.753   4.365   1.392  1.8499 -0.2288 -0.2763
 2325SOL    HW218435   0.751   4.384   1.248  0.0056  1.2076 -0.8369
 2326SOL     OW18436   1.731   0.233  13.363 -0.2341 -0.3192  0.3188
 2326SOL    HW118437   1.653   0.288  13.357 -2.8016 -4.2332 -2.8382
 2326SOL    HW218438   1.773   0.270  13.286 -0.6712  0.8304  0.6350
 2327SOL     OW18439   1.380   0.257   4.684 -0.6142 -0.1538 -0.1528
 2327SOL    HW118440   1.313   0.241   4.751  0.2782 -0.6751  0.6329
 2327SOL    HW218441   1.324   0.281   4.610 -2.2091 -2.0744  0.4372
 2328SOL     OW18442   1.843   4.432  12.076 -0.4239 -0.0170 -0.3805
 2328SOL    HW118443   1.879   4.356  12.030 -0.3610  0.7153 -1.5533
 2328SOL    HW218444   1.768   4.408  12.130  0.6419  1.7241  1.8973
 2329SOL     OW18445   1.297   1.415   0.901 -0.0366  0.0591  0.3414
 2329SOL    HW118446   1.212   1.459   0.894 -0.5254 -0.6386  1.8732
 2329SOL    HW218447   1.330   1.460   0.824  1.5088 -1.4038  0.1510
 2330SOL     OW18448   2.915   3.194   9.901 -0.4550 -0.0286 -0.4390
 2330SOL    HW118449   2.939   3.158   9.816  0.0168  0.0865 -0.3562
 2330SOL    HW218450   2.938   3.286   9.897 -1.0141  0.0944 -0.7258
 2331SOL     OW18451   0.589   1.060   5.301  0.0730 -0.4133 -0.6193
 2331SOL    HW118452   0.582   0.998   5.374 -1.6973  0.8726  0.3070
 2331SOL    HW218453   0.628   1.130   5.352  0.0404 -0.5687 -0.3791
 2332SOL     OW18454   4.135   2.231  15.365 -0.1924 -1.0697 -0.1616
 2332SOL    HW118455   4.039   2.224  15.367 -0.2538  0.1145  1.0828
 2332SOL    HW218456   4.168   2.177  15.293 -0.9889 -1.8991  0.0927
 2333SOL     OW18457   3.561   0.155   6.303 -0.0917  0.0028  0.3765
 2333SOL    HW118458   3.536   0.112   6.385 -0.5101 -2.6321 -1.1381
 2333SOL    HW218459   3.505   0.110   6.240  1.2361 -2.3236  0.8366
 2334SOL     OW18460   1.412   1.679  16.885 -0.0698 -0.0253 -0.6357
 2334SOL    HW118461   1.360   1.634  16.818 -1.8566  0.1754  0.6260
 2334SOL    HW218462   1.350   1.746  16.914 -0.1507 -1.5085  2.6056
 2335SOL     OW18463   3.696   2.886   7.065 -0.0591 -0.6953 -0.0454
 2335SOL    HW118464   3.766   2.914   7.005  0.5609  1.5846  1.7657
 2335SOL    HW218465   3.724   2.927   7.146 -0.4401  1.4519 -1.0063
 2336SOL     OW18466   2.560   1.939  13.414  0.4308 -0.6682 -0.1975
 2336SOL    HW118467   2.555   1.859  13.363 -0.1637 -0.1655 -0.9325
 2336SOL    HW218468   2.478   1.928  13.461 -0.0327  0.0229 -0.8358
 2337SOL     OW18469   0.069   2.816   0.528 -0.0040  0.1281  0.3163
 2337SOL    HW118470   0.140   2.872   0.558 -0.5216  0.8751  0.1312
 2337SOL    HW218471   0.115   2.787   0.449 -1.2832  1.7895 -1.0400
 2338SOL     OW18472   4.192   1.268  16.692 -0.1571 -0.3702 -0.5499
 2338SOL    HW118473   4.108   1.243  16.730 -0.7757 -0.8240 -2.2697
 2338SOL    HW218474   4.251   1.193  16.700  0.5107  0.1527 -0.4780
 2339SOL     OW18475   3.953   4.680   6.290 -0.1208 -0.8653  0.5515
 2339SOL    HW118476   3.901   4.625   6.232 -0.3692 -1.5769  1.4534
 2339SOL    HW218477   3.907   0.037   6.279 -0.0114 -1.1770 -2.4640
 2340SOL     OW18478   1.583   0.461   7.247 -0.3239 -0.4252  0.2279
 2340SOL    HW118479   1.596   0.412   7.328 -3.7435  0.5470  1.3665
 2340SOL    HW218480   1.674   0.490   7.234  0.0776 -1.1312  1.4934
 2341SOL     OW18481   0.518   1.234   9.371 -0.1720 -0.4116  0.1127
 2341SOL    HW118482   0.546   1.186   9.293  0.5490 -0.1068  0.1815
 2341SOL    HW218483   0.549   1.323   9.352 -0.7214 -0.5608 -1.4863
 2342SOL     OW18484   2.341   3.217   1.745 -0.3014  0.0130  0.1618
 2342SOL    HW118485   2.375   3.215   1.834 -1.4579 -1.1458  0.5779
 2342SOL    HW218486   2.372   3.136   1.705  1.2427  0.1330  1.1415
 2343SOL     OW18487   1.466   3.624   4.977  0.2468  0.1644  0.0991
 2343SOL    HW118488   1.453   3.612   4.883 -0.9700  0.4454  0.2317
 2343SOL    HW218489   1.460   3.535   5.010 -2.0527 -0.3887 -1.8022
 2344SOL     OW18490   0.677   1.507   2.457 -0.1716  0.8670  0.0020
 2344SOL    HW118491   0.624   1.587   2.465 -0.9854  0.4635 -1.4060
 2344SOL    HW218492   0.616   1.451   2.504 -0.6137  0.7532 -0.7097
 2345SOL     OW18493   4.169   3.008  12.074 -0.1394 -0.2221 -0.1462
 2345SOL    HW118494   4.151   3.096  12.108  0.8633 -0.2628  0.4911
 2345SOL    HW218495   4.088   2.969  12.108  0.0107 -0.7234 -0.3597
 2346SOL     OW18496   4.574   0.342   2.890 -0.2344  0.1932 -0.5437
 2346SOL    HW118497   4.657   0.298   2.870 -0.1791 -0.0889  0.2885
 2346SOL    HW218498   4.517   0.265   2.888  0.1793 -0.1116 -0.5918
 2347SOL     OW18499   1.545   3.291   0.362 -0.6832 -0.3757 -0.4788
 2347SOL    HW118500   1.599   3.267   0.287 -0.2271 -0.7473 -0.0341
 2347SOL    HW218501   1.619   3.289   0.423  0.9685  1.0486 -2.4733
 2348SOL     OW18502   3.085   0.517  14.982 -0.2014  0.4794  0.3148
 2348SOL    HW118503   3.144   0.448  14.953  2.0121  1.3285  2.8347
 2348SOL    HW218504   3.033   0.524  14.902  2.3631 -2.5670 -1.6096
 2349SOL     OW18505   4.701   2.697   7.365 -0.4855 -0.3604 -0.3497
 2349SOL    HW118506   0.016   2.731   7.286 -0.0098 -0.7440 -0.2683
 2349SOL    HW218507   4.623   2.751   7.371  0.0848  0.3971  0.3377
 2350SOL     OW18508   0.178   1.584   1.931  0.2223 -0.5482 -0.0252
 2350SOL    HW118509   0.263   1.621   1.907  0.2315 -1.0166 -0.7439
 2350SOL    HW218510   0.188   1.608   2.023 -2.7579  1.1380 -0.1417
 2351SOL     OW18511   3.024   0.495   3.163  0.0466  0.2090 -0.0167
 2351SOL    HW118512   2.929   0.506   3.167 -0.1171 -1.8481  2.5244
 2351SOL    HW218513   3.030   0.412   3.212  0.2093  1.2280  1.7077
 2352SOL     OW18514   1.443   2.497   3.393  0.8539  1.0571 -0.2170
 2352SOL    HW118515   1.509   2.465   3.331 -1.5874 -3.8334 -0.3478
 2352SOL    HW218516   1.395   2.564   3.344  1.8383  1.3323 -0.8052
 2353SOL     OW18517   1.048   0.242   9.082  0.1011 -0.1432  0.7736
 2353SOL    HW118518   1.094   0.163   9.053  1.2993  0.5062  0.9133
 2353SOL    HW218519   0.955   0.223   9.087  0.2363 -0.8009  0.7722
 2354SOL     OW18520   1.147   1.998   8.774  0.3841  0.0325  0.3523
 2354SOL    HW118521   1.053   2.000   8.753 -0.3057  0.0891  3.3666
 2354SOL    HW218522   1.173   2.085   8.744 -1.3016 -0.0417 -1.3186
 2355SOL     OW18523   3.975   3.012   5.975  0.2557  0.0535  0.7206
 2355SOL    HW118524   3.954   3.095   6.017  1.0743  1.1180 -0.9848
 2355SOL    HW218525   4.070   3.013   5.987  0.4288  1.3367 -0.9077
 2356SOL     OW18526   1.202   3.710   3.359  0.1088 -0.0295  0.9745
 2356SOL    HW118527   1.269   3.664   3.411 -0.0530  0.2436  1.4208
 2356SOL    HW218528   1.165   3.638   3.308 -0.7809 -0.7489  2.6531
 2357SOL     OW18529   2.934   1.804   7.701  0.1050  0.2304 -0.2947
 2357SOL    HW118530   2.875   1.866   7.657  2.4139 -0.3069 -4.1546
 2357SOL    HW218531   2.951   1.866   7.772 -0.3327  0.5491 -0.4693
 2358SOL     OW18532   3.626   2.373   5.489 -0.1981 -0.0299 -0.2448
 2358SOL    HW118533   3.572   2.294   5.496  1.7399 -1.4821 -1.6393
 2358SOL    HW218534   3.637   2.415   5.574  0.1067  2.1750 -1.3637
 2359SOL     OW18535   0.970   1.980   7.677 -0.4690 -0.3564  0.0099
 2359SOL    HW118536   1.006   2.037   7.608  0.6025  0.8090  1.5379
 2359SOL    HW218537   1.014   1.896   7.667  1.9189  1.0367 -1.3579
 2360SOL     OW18538   0.703   2.279   9.457  0.2539 -0.0926 -0.0312
 2360SOL    HW118539   0.706   2.367   9.420 -0.2933 -0.3312 -0.6465
 2360SOL    HW218540   0.777   2.297   9.515  0.0835 -0.8350  0.4106
 2361SOL     OW18541   2.046   0.110   1.194  0.3170 -0.4931 -0.2399
 2361SOL    HW118542   2.036   0.169   1.120 -0.4978 -1.9568 -1.3058
 2361SOL    HW218543   2.060   0.028   1.146 -0.3910 -0.1826 -0.9666
 2362SOL     OW18544   3.796   3.349   8.369  0.6103 -0.2796 -0.2905
 2362SOL    HW118545   3.799   3.439   8.402  0.1219 -0.7750  1.0977
 2362SOL    HW218546   3.756   3.301   8.441  2.1953 -0.4273  0.4669
 2363SOL     OW18547   0.429   1.163   7.272  0.1462  0.5070  0.6113
 2363SOL    HW118548   0.400   1.120   7.192 -1.8121  1.0287  1.0480
 2363SOL    HW218549   0.463   1.251   7.253  0.5991  0.4076  0.9615
 2364SOL     OW18550   2.650   4.099  16.773  0.4121 -0.4888 -0.0449
 2364SOL    HW118551   2.731   4.054  16.798  0.6356  0.6898  1.3441
 2364SOL    HW218552   2.585   4.046  16.818 -0.8232 -1.0817 -2.5006
 2365SOL     OW18553   3.415   3.884   5.499  0.3569  0.0467  0.6019
 2365SOL    HW118554   3.393   3.929   5.418  0.5337  0.4621  0.7806
 2365SOL    HW218555   3.505   3.861   5.478 -0.0563 -1.6867  0.7587
 2366SOL     OW18556   0.133   2.860   5.847  0.1886  0.3513 -0.3424
 2366SOL    HW118557   0.193   2.836   5.918  2.2568  0.3042 -2.0972
 2366SOL    HW218558   0.074   2.785   5.846 -0.0891  0.5363  1.7925
 2367SOL     OW18559   4.008   4.404   0.310  0.2252 -0.0475  0.2184
 2367SOL    HW118560   4.048   4.340   0.251  0.2735  0.8055 -0.6781
 2367SOL    HW218561   3.930   4.352   0.332  0.2493 -0.2573 -0.2009
 2368SOL     OW18562   3.056   2.238   2.203 -0.0237 -0.0214  0.1322
 2368SOL    HW118563   3.108   2.248   2.124 -1.2356 -0.1868 -0.6796
 2368SOL    HW218564   3.049   2.143   2.206 -2.2565  0.1880  1.8214
 2369SOL     OW18565   1.294   2.203   7.138 -0.0822  0.1526  0.1364
 2369SOL    HW118566   1.377   2.243   7.110 -0.0704  1.5394  2.1215
 2369SOL    HW218567   1.322   2.119   7.173 -0.8216 -0.7449 -1.4513
 2370SOL     OW18568   3.079   0.472   9.468  0.3046 -0.7937 -0.6181
 2370SOL    HW118569   3.144   0.433   9.410 -1.2038 -2.0961 -1.4617
 2370SOL    HW218570   3.082   0.409   9.540  3.3119 -0.2765 -0.3022
 2371SOL     OW18571   3.352   2.350  13.874  0.1073  0.3446 -0.4219
 2371SOL    HW118572   3.345   2.443  13.896  0.3353 -0.0310  1.2963
 2371SOL    HW218573   3.262   2.325  13.897  0.1149  1.3439  0.7196
 2372SOL     OW18574   1.463   1.702  17.338  0.9978 -0.6955  0.0382
 2372SOL    HW118575   1.490   1.747  17.419 -0.9621  0.0629  0.2569
 2372SOL    HW218576   1.524   1.736  17.273  1.6922 -0.8409  0.5989
 2373SOL     OW18577   1.953   2.720   0.420 -0.1523  0.3088 -0.3031
 2373SOL    HW118578   1.928   2.646   0.476 -1.7018  1.6025  0.7321
 2373SOL    HW218579   2.029   2.684   0.374  0.5448  0.8113  0.4482
 2374SOL     OW18580   1.555   2.627   4.096 -0.2076  0.3975 -0.3922
 2374SOL    HW118581   1.580   2.715   4.068 -0.7493  0.7417  0.2073
 2374SOL    HW218582   1.633   2.609   4.148  0.4433 -0.3218 -1.6175
 2375SOL     OW18583   4.691   2.794  10.834 -0.4383 -0.9617 -0.6770
 2375SOL    HW118584   0.015   2.821  10.911  1.4791 -1.0064 -1.9202
 2375SOL    HW218585   4.605   2.781  10.874  0.0600 -1.2888  0.2956
 2376SOL     OW18586   3.342   2.849   6.305  1.4874 -0.2523 -0.0682
 2376SOL    HW118587   3.415   2.893   6.260  0.4216 -0.1394 -1.6932
 2376SOL    HW218588   3.375   2.835   6.394  0.0463 -0.4469  0.4253
 2377SOL     OW18589   4.603   3.937   7.316  0.4851  0.0637  0.5935
 2377SOL    HW118590   4.507   3.941   7.311  0.5119  0.6384  0.5585
 2377SOL    HW218591   4.620   3.875   7.387  1.6764 -1.0057 -0.6104
 2378SOL     OW18592   1.697   2.447   8.733  0.6660  0.1378  0.0241
 2378SOL    HW118593   1.768   2.387   8.756  3.5523  3.0901 -1.1037
 2378SOL    HW218594   1.751   2.526   8.721 -0.3644  0.2183 -4.0267
 2379SOL     OW18595   4.622   1.050   6.263  0.2583  0.0900  0.0343
 2379SOL    HW118596   4.584   1.137   6.271  1.0735  0.4032  0.5895
 2379SOL    HW218597   4.547   1.000   6.231 -0.4660  2.6352 -2.1671
 2380SOL     OW18598   1.459   0.677   8.768 -0.2196  0.3155  0.3695
 2380SOL    HW118599   1.368   0.652   8.781 -0.1368  0.1793  0.6842
 2380SOL    HW218600   1.501   0.592   8.782 -0.3699  0.2066  0.1443
 2381SOL     OW18601   3.060   1.166  16.459  0.1713 -0.0041 -0.3810
 2381SOL    HW118602   3.061   1.161  16.555 -2.4554 -0.8479 -0.3849
 2381SOL    HW218603   3.096   1.080  16.439 -0.5841  0.0874 -2.1014
 2382SOL     OW18604   3.660   4.680   0.414 -0.3553  0.0118  0.0458
 2382SOL    HW118605   3.604   0.031   0.419  0.1246  0.3409  0.2207
 2382SOL    HW218606   3.696   4.706   0.330 -1.0416 -0.7276 -0.4793
 2383SOL     OW18607   1.661   0.179   8.168  0.0735  0.5614 -0.3107
 2383SOL    HW118608   1.699   0.199   8.253  2.1731  1.5520 -1.4683
 2383SOL    HW218609   1.696   0.253   8.118  0.9062 -0.5192 -1.3202
 2384SOL     OW18610   4.186   0.167  12.127 -0.4554  0.3469 -0.0660
 2384SOL    HW118611   4.234   0.216  12.194 -1.3023  0.5073  0.4142
 2384SOL    HW218612   4.238   0.087  12.121 -0.9019  0.2355 -2.5037
 2385SOL     OW18613   2.448   0.813   8.308  0.0106  0.1432  0.0776
 2385SOL    HW118614   2.461   0.877   8.238  1.8097 -0.5640 -0.2464
 2385SOL    HW218615   2.527   0.760   8.297 -0.2903 -0.3119  0.0811
 2386SOL     OW18616   2.317   1.179   9.953 -0.2498 -0.5776 -0.2322
 2386SOL    HW118617   2.372   1.136   9.888  1.4503  0.3274  0.5835
 2386SOL    HW218618   2.262   1.230   9.894  0.8863  1.0178  0.0964
 2387SOL     OW18619   2.502   3.315   5.824 -0.1970  0.1034 -0.1044
 2387SOL    HW118620   2.560   3.261   5.876 -0.5577 -2.2893 -2.1941
 2387SOL    HW218621   2.419   3.272   5.845  1.0686 -1.4045  1.7464
 2388SOL     OW18622   4.440   2.340  17.173 -0.3868  0.6128 -0.0214
 2388SOL    HW118623   4.371   2.394  17.133  0.8336  1.5931 -0.8350
 2388SOL    HW218624   4.427   2.258  17.125  2.7873 -1.5225  2.7492
 2389SOL     OW18625   4.358   1.715  11.153 -0.1594 -0.0273 -0.1691
 2389SOL    HW118626   4.418   1.698  11.080 -3.2188  0.3767 -2.7891
 2389SOL    HW218627   4.297   1.779  11.118 -0.6110 -0.5849 -0.4133
 2390SOL     OW18628   0.860   0.027   2.754  0.1735  0.7396  0.2660
 2390SOL    HW118629   0.807   4.677   2.730  1.5571  0.5228 -2.0625
 2390SOL    HW218630   0.934   0.008   2.696 -0.3279  1.6326 -0.6466
 2391SOL     OW18631   4.545   0.145   5.702  0.5261 -0.0308 -0.2807
 2391SOL    HW118632   4.621   0.194   5.732 -1.1277  2.1624  0.3217
 2391SOL    HW218633   4.470   0.195   5.736  0.9089  1.8854 -2.3094
 2392SOL     OW18634   1.318   0.359   3.147 -0.2374  0.3718 -0.1411
 2392SOL    HW118635   1.392   0.411   3.117  1.2123 -0.9811  1.1618
 2392SOL    HW218636   1.355   0.271   3.137 -0.6017  0.2216 -0.1915
 2393SOL     OW18637   0.827   0.228  10.000  0.2123 -0.0722 -0.0599
 2393SOL    HW118638   0.850   0.166  10.069  0.6123 -1.3620 -1.3341
 2393SOL    HW218639   0.739   0.255  10.026 -0.4889 -1.9006 -0.5537
 2394SOL     OW18640   0.991   3.057   0.231 -1.1007  0.2237  0.1879
 2394SOL    HW118641   0.940   3.013   0.299  1.2974 -1.6486  0.7931
 2394SOL    HW218642   0.970   3.008   0.151 -3.3285  2.9031 -0.8336
 2395SOL     OW18643   2.126   3.530  11.131  0.3796 -0.1971  0.2314
 2395SOL    HW118644   2.061   3.468  11.097  2.3945 -2.7164  0.9862
 2395SOL    HW218645   2.206   3.478  11.135  0.8065  0.6754  2.7495
 2396SOL     OW18646   4.637   1.162   2.262 -0.3095  0.1742  0.2354
 2396SOL    HW118647   4.641   1.211   2.344  1.9471  0.2254  0.0811
 2396SOL    HW218648   4.545   1.171   2.236 -0.5214  0.0114  0.9011
 2397SOL     OW18649   1.427   2.355   9.054 -0.5637  0.5129 -0.8002
 2397SOL    HW118650   1.467   2.393   8.975 -0.3795 -0.1031 -1.0076
 2397SOL    HW218651   1.497   2.365   9.118  0.3889  0.2052 -1.7980
 2398SOL     OW18652   2.832   1.005  10.817 -0.6039  0.2219  0.5619
 2398SOL    HW118653   2.740   1.022  10.840 -0.7022  1.9910 -1.1427
 2398SOL    HW218654   2.838   0.910  10.833 -1.8657  0.0139 -0.1994
 2399SOL     OW18655   0.014   2.320   0.407  0.3853 -0.2766  0.2361
 2399SOL    HW118656   4.710   2.259   0.340  0.2691 -0.1205  0.1473
 2399SOL    HW218657   0.079   2.266   0.452 -0.3396 -0.7899  0.6596
 2400SOL     OW18658   4.575   2.178   3.405  0.3511  0.0367  0.8243
 2400SOL    HW118659   4.621   2.095   3.396 -1.1920 -0.8462  0.9428
 2400SOL    HW218660   4.625   2.213   3.479  1.6730  1.4184 -0.7456
 2401SOL     OW18661   1.350   0.375   7.633 -0.2451  0.0623  0.2182
 2401SOL    HW118662   1.363   0.452   7.688  2.0177  0.5642 -1.0475
 2401SOL    HW218663   1.307   0.315   7.694  1.5238 -1.3202  0.0811
 2402SOL     OW18664   1.784   2.016  15.142  0.0370 -0.1961 -0.0465
 2402SOL    HW118665   1.697   2.044  15.111 -0.2758 -0.4864  0.5698
 2402SOL    HW218666   1.795   1.931  15.099 -4.0298  0.8045 -3.1399
 2403SOL     OW18667   1.072   3.232   2.153  0.2974  0.6891  0.1521
 2403SOL    HW118668   0.994   3.274   2.116  1.7959  2.9883 -0.3551
 2403SOL    HW218669   1.118   3.308   2.188 -0.7846  1.5670 -0.3210
 2404SOL     OW18670   0.957   1.139   5.578 -0.3364 -0.2529 -0.1356
 2404SOL    HW118671   1.051   1.132   5.564 -0.2600 -0.5272  0.4946
 2404SOL    HW218672   0.935   1.052   5.611  1.0974  0.6620  3.2800
 2405SOL     OW18673   2.804   0.662  13.569 -0.1594  0.1541  0.3088
 2405SOL    HW118674   2.870   0.623  13.511 -1.2526 -1.0263 -0.1374
 2405SOL    HW218675   2.840   0.653  13.657 -0.2972  0.2696  0.3753
 2406SOL     OW18676   1.031   0.542   2.383 -0.2461 -0.3403 -0.0088
 2406SOL    HW118677   1.062   0.460   2.343  1.4288  0.2831  0.0195
 2406SOL    HW218678   1.004   0.586   2.302 -0.8373  0.8636  0.8531
 2407SOL     OW18679   4.524   1.927   7.518  0.0352 -0.2326 -0.1310
 2407SOL    HW118680   4.590   1.993   7.541  1.7183 -0.8418 -3.2801
 2407SOL    HW218681   4.507   1.956   7.429 -0.1496  2.7862  0.9010
 2408SOL     OW18682   2.733   1.084  15.620  0.2794 -0.3531  0.1695
 2408SOL    HW118683   2.812   1.055  15.575  0.1375 -0.8497  0.2413
 2408SOL    HW218684   2.744   1.178  15.605  0.8542 -0.8932 -2.6967
 2409SOL     OW18685   2.384   0.129   8.961  0.0754 -0.4074  0.1891
 2409SOL    HW118686   2.443   0.165   9.026  0.7409 -1.0992 -0.0347
 2409SOL    HW218687   2.348   0.051   9.004  0.7396  0.0751  1.5878
 2410SOL     OW18688   3.884   2.182   8.309 -0.5702 -0.3491 -0.3010
 2410SOL    HW118689   3.793   2.211   8.316 -0.4953  0.1077 -1.2000
 2410SOL    HW218690   3.932   2.235   8.373 -0.2785  2.2804 -2.6838
 2411SOL     OW18691   0.408   3.780   1.039  0.2119  0.0509 -0.3389
 2411SOL    HW118692   0.468   3.741   1.103  1.3543  1.5705 -0.4825
 2411SOL    HW218693   0.403   3.867   1.080 -0.7692 -0.4293  0.5500
 2412SOL     OW18694   1.370   4.251  13.587 -0.1524 -0.1735 -0.0808
 2412SOL    HW118695   1.366   4.315  13.516 -4.0842 -0.7029 -0.3520
 2412SOL    HW218696   1.327   4.306  13.653 -0.3522  2.0908 -2.1006
 2413SOL     OW18697   0.652   4.260   1.712 -0.1229  0.1809 -0.8465
 2413SOL    HW118698   0.612   4.225   1.791  1.3908  2.9151  1.1167
 2413SOL    HW218699   0.587   4.329   1.700 -0.3617  0.4993  2.3547
 2414SOL     OW18700   4.465   3.894   3.746  0.7304  0.1760 -0.3943
 2414SOL    HW118701   4.370   3.903   3.749  0.6592 -0.0062 -2.5799
 2414SOL    HW218702   4.488   3.983   3.774 -0.7007  0.0906  1.0762
 2415SOL     OW18703   4.553   1.335   8.300 -0.9166  0.2436  1.3304
 2415SOL    HW118704   4.641   1.336   8.337  0.4097  0.2902 -1.8054
 2415SOL    HW218705   4.530   1.242   8.300  1.6668 -0.4269  0.1479
 2416SOL     OW18706   1.822   3.196   4.411  0.0336 -0.0178  1.1300
 2416SOL    HW118707   1.903   3.189   4.361 -0.0914 -0.6234  1.0131
 2416SOL    HW218708   1.821   3.122   4.472 -1.0437 -1.0034 -0.0710
 2417SOL     OW18709   4.173   2.642   7.358 -0.4145 -0.2645 -0.4795
 2417SOL    HW118710   4.191   2.569   7.299  0.1666 -0.4132 -0.1184
 2417SOL    HW218711   4.124   2.597   7.427  2.1683 -1.2097  0.7169
 2418SOL     OW18712   2.333   2.206   3.906  0.1970  0.1476  0.3367
 2418SOL    HW118713   2.403   2.165   3.855 -0.7228  0.4938 -1.1958
 2418SOL    HW218714   2.277   2.245   3.839  1.2487  1.3184  0.1518
 2419SOL     OW18715   1.113   4.696   9.276 -0.2031 -0.0466  0.0443
 2419SOL    HW118716   1.138   4.623   9.220 -0.4504  1.0296 -1.4854
 2419SOL    HW218717   1.161   0.045   9.241 -0.5378 -0.8280 -2.1055
 2420SOL     OW18718   3.474   4.410   2.433  0.1366  0.1121 -0.4168
 2420SOL    HW118719   3.537   4.359   2.381  0.1622  1.1346 -1.3782
 2420SOL    HW218720   3.470   4.486   2.375 -0.4456 -0.6221 -1.3567
 2421SOL     OW18721   1.159   1.211   7.352  0.2002  0.0575 -0.0046
 2421SOL    HW118722   1.105   1.289   7.366  2.2282  1.3644  0.5771
 2421SOL    HW218723   1.206   1.245   7.276 -1.7824 -0.2533 -1.3795
 2422SOL     OW18724   2.743   4.684  12.809 -0.1354  0.5009  0.0328
 2422SOL    HW118725   2.682   4.612  12.826 -1.7484  2.2601  1.6363
 2422SOL    HW218726   2.717   4.709  12.720 -1.9137  0.7836  0.6184
 2423SOL     OW18727   3.824   4.249  15.480  0.4983  0.2119 -0.2283
 2423SOL    HW118728   3.787   4.337  15.493 -0.0999 -0.2165  0.9652
 2423SOL    HW218729   3.752   4.191  15.456  1.7768 -1.7559  0.7396
 2424SOL     OW18730   3.622   2.467   3.845 -0.3113 -0.2043  0.2978
 2424SOL    HW118731   3.539   2.458   3.798  0.5567 -2.2974 -0.8350
 2424SOL    HW218732   3.606   2.403   3.915 -1.5852 -0.3299 -0.1249
 2425SOL     OW18733   4.402   1.016  14.896 -0.1425 -0.0443  0.0781
 2425SOL    HW118734   4.491   1.033  14.926  0.1525 -1.8982  0.2033
 2425SOL    HW218735   4.377   1.100  14.856 -1.6864  1.0352  3.3296
 2426SOL     OW18736   0.386   3.922  10.775 -0.0852  0.4096  0.2021
 2426SOL    HW118737   0.441   3.848  10.749 -0.0770 -0.1603  1.8611
 2426SOL    HW218738   0.415   3.925  10.866 -2.4245 -0.0950  0.9661
 2427SOL     OW18739   3.548   1.347  10.329  0.1511 -0.4918  0.4069
 2427SOL    HW118740   3.508   1.275  10.378 -2.3759 -0.4467 -1.5804
 2427SOL    HW218741   3.514   1.427  10.368 -0.2201  0.4537 -1.8494
 2428SOL     OW18742   3.745   2.848   4.209  0.7349  0.0886 -0.4291
 2428SOL    HW118743   3.670   2.872   4.155 -0.2833  1.2278  1.4915
 2428SOL    HW218744   3.792   2.782   4.159  0.8786 -0.4261  0.3810
 2429SOL     OW18745   3.565   1.292  17.660  0.8119 -0.0460  0.5219
 2429SOL    HW118746   3.588   1.296  17.567  1.6273  0.4216  0.7462
 2429SOL    HW218747   3.492   1.353  17.663  0.1790 -0.7301 -0.9413
 2430SOL     OW18748   1.870   4.518   7.801 -0.2436 -1.0999  0.4894
 2430SOL    HW118749   1.823   4.543   7.880 -1.6724 -0.0903 -0.6679
 2430SOL    HW218750   1.935   4.588   7.790 -2.4789  1.0253  0.7643
 2431SOL     OW18751   0.691   4.254   3.218 -0.3550 -0.2391  0.7061
 2431SOL    HW118752   0.710   4.161   3.225 -0.2180 -0.1167  1.9252
 2431SOL    HW218753   0.773   4.285   3.180  0.4557  0.8816  3.3675
 2432SOL     OW18754   0.168   2.352  11.437  0.0498 -0.0220  0.6299
 2432SOL    HW118755   0.234   2.329  11.503  0.3494 -1.2069 -0.0887
 2432SOL    HW218756   0.092   2.306  11.472  1.1727 -1.5013  1.1444
 2433SOL     OW18757   4.106   1.752   2.448  0.1957  0.0357  0.1466
 2433SOL    HW118758   4.081   1.659   2.445 -2.2349  0.6909  0.4403
 2433SOL    HW218759   4.057   1.782   2.371  0.8666 -1.1052 -0.7438
 2434SOL     OW18760   1.040   2.684  16.329 -0.1541  0.5250 -0.1396
 2434SOL    HW118761   1.047   2.734  16.410 -0.6888  1.2512 -0.5412
 2434SOL    HW218762   1.087   2.737  16.264  0.5781  0.6578  0.4971
 2435SOL     OW18763   1.908   4.006  14.240 -0.4804 -0.4918 -0.1865
 2435SOL    HW118764   1.975   3.939  14.236 -0.5021 -0.5488  0.4471
 2435SOL    HW218765   1.862   3.971  14.164  0.2051 -1.0022 -0.3588
 2436SOL     OW18766   0.652   3.361   1.548  0.5428  0.6230  0.1307
 2436SOL    HW118767   0.660   3.390   1.639  2.3137  2.1854 -0.5027
 2436SOL    HW218768   0.587   3.425   1.521 -0.6989 -0.2260  1.1118
 2437SOL     OW18769   4.473   3.329   0.969  0.1917 -0.3430 -0.1560
 2437SOL    HW118770   4.551   3.370   1.007  0.8744  0.3467 -2.2835
 2437SOL    HW218771   4.413   3.333   1.043  1.6740 -0.6940  1.0788
 2438SOL     OW18772   3.551   2.702   4.620  0.6356 -0.1869  0.2838
 2438SOL    HW118773   3.516   2.633   4.564 -0.9226 -0.5285  1.7014
 2438SOL    HW218774   3.617   2.737   4.559  2.3144  1.1901  2.9114
 2439SOL     OW18775   4.535   0.198   7.289 -0.1930 -0.1955  0.0545
 2439SOL    HW118776   4.548   0.194   7.384  1.7046 -0.2882 -0.2032
 2439SOL    HW218777   4.460   0.257   7.282  2.0325  2.8072  1.6012
 2440SOL     OW18778   1.233   3.348  17.136 -0.4114 -0.0091  0.2066
 2440SOL    HW118779   1.211   3.362  17.044  1.3286  3.1437  0.2529
 2440SOL    HW218780   1.171   3.409  17.176 -1.2983 -0.9890  0.3146
 2441SOL     OW18781   0.899   2.650   7.169  0.0299  0.1066  0.5811
 2441SOL    HW118782   0.989   2.632   7.196  0.1947  0.1257  0.0433
 2441SOL    HW218783   0.895   2.595   7.091 -1.5386 -0.7028  1.2128
 2442SOL     OW18784   2.655   1.753   8.417  0.0945 -0.3052  0.4118
 2442SOL    HW118785   2.673   1.818   8.349 -3.3015  0.3559  0.1672
 2442SOL    HW218786   2.562   1.767   8.433  0.4684  1.5740  0.8526
 2443SOL     OW18787   4.721   4.557   1.101  0.5528 -0.3450 -0.1803
 2443SOL    HW118788   0.028   4.646   1.106  4.2317 -1.6377 -2.0007
 2443SOL    HW218789   4.638   4.553   1.149 -0.5038  1.4634 -1.8470
 2444SOL     OW18790   2.808   3.448  15.074  0.4759 -0.6564  0.1919
 2444SOL    HW118791   2.813   3.358  15.040  1.2174 -0.2320 -0.8220
 2444SOL    HW218792   2.780   3.485  14.991 -0.9592  1.3839  1.5869
 2445SOL     OW18793   4.256   1.826   7.719  0.3315  0.5614 -0.4323
 2445SOL    HW118794   4.208   1.789   7.646 -2.4565  0.2520  1.5803
 2445SOL    HW218795   4.195   1.894   7.748 -0.4428 -0.6376  0.6957
 2446SOL     OW18796   0.779   3.129   5.364  0.2769 -0.0666  0.8566
 2446SOL    HW118797   0.730   3.166   5.291  0.3855 -1.1385  0.2324
 2446SOL    HW218798   0.858   3.183   5.364  0.2372 -0.0088  1.0130
 2447SOL     OW18799   0.390   4.412   7.193  0.2436  0.2062  0.3126
 2447SOL    HW118800   0.432   4.385   7.112 -0.3099  0.8579 -0.1936
 2447SOL    HW218801   0.366   4.327   7.230 -0.1908  0.4511  0.5941
 2448SOL     OW18802   0.319   3.605   2.837 -0.1550  0.4448  0.1003
 2448SOL    HW118803   0.227   3.622   2.858 -0.5272  0.3616 -1.5045
 2448SOL    HW218804   0.348   3.581   2.925 -1.3437 -0.9276  0.1156
 2449SOL     OW18805   3.915   2.956  16.121 -0.2081 -0.3062 -0.1193
 2449SOL    HW118806   3.861   2.877  16.121 -1.7239  0.7265  0.1766
 2449SOL    HW218807   3.995   2.905  16.127  0.7361  0.9311 -2.1179
 2450SOL     OW18808   3.228   4.140   5.543 -0.4846 -0.2237  0.5140
 2450SOL    HW118809   3.260   4.091   5.468 -0.6610 -0.6518  0.7164
 2450SOL    HW218810   3.151   4.087   5.563 -1.3789  1.1680  0.7612
 2451SOL     OW18811   4.228   2.334   8.569 -0.0776 -0.3539 -0.0344
 2451SOL    HW118812   4.214   2.422   8.534 -0.6386  0.0864  1.2790
 2451SOL    HW218813   4.309   2.342   8.621 -0.5299  0.6300  0.5177
 2452SOL     OW18814   2.021   0.532   1.982  0.4776  0.7636  0.3314
 2452SOL    HW118815   1.980   0.502   1.901 -0.8678  2.4816  0.3839
 2452SOL    HW218816   1.967   0.478   2.039 -1.4125  0.5512 -1.6649
 2453SOL     OW18817   1.218   0.375  11.593 -0.0528 -0.2075  0.4945
 2453SOL    HW118818   1.283   0.305  11.581 -3.4278 -3.4219  1.0465
 2453SOL    HW218819   1.180   0.373  11.505 -1.0280 -4.5031  0.9986
 2454SOL     OW18820   1.698   2.475   8.288 -0.8252 -0.0078  0.1364
 2454SOL    HW118821   1.668   2.431   8.367 -2.8355 -0.7568 -1.0601
 2454SOL    HW218822   1.666   2.560   8.318 -1.4807 -0.1590 -0.1486
 2455SOL     OW18823   2.957   1.369   7.624 -0.3827  0.0380  0.1320
 2455SOL    HW118824   3.001   1.404   7.546 -0.8920  1.4200  0.4509
 2455SOL    HW218825   2.980   1.427   7.696 -0.1619 -0.5753  0.5520
 2456SOL     OW18826   3.726   0.823  12.599  0.7871 -0.0642  0.0689
 2456SOL    HW118827   3.795   0.879  12.633  0.7670 -0.1110  0.1859
 2456SOL    HW218828   3.759   0.744  12.642  0.3359 -0.5534 -0.4753
 2457SOL     OW18829   1.358   4.410   7.809  0.2259 -0.1168 -0.0001
 2457SOL    HW118830   1.402   4.336   7.766  0.0202  0.2824 -0.8835
 2457SOL    HW218831   1.421   4.478   7.785 -0.4638  1.1717  1.8156
 2458SOL     OW18832   2.355   1.165   3.549 -0.4924  0.6837 -0.0239
 2458SOL    HW118833   2.335   1.092   3.490 -0.0860 -0.8259  1.6734
 2458SOL    HW218834   2.357   1.114   3.630 -1.8332  1.0062  0.2171
 2459SOL     OW18835   2.519   2.355   6.233  0.1042 -0.1797 -0.0792
 2459SOL    HW118836   2.511   2.407   6.154  1.5973  1.2439  0.7085
 2459SOL    HW218837   2.426   2.343   6.253  0.4373  0.4330  1.8872
 2460SOL     OW18838   0.540   3.455   2.405 -0.1400  0.4499  0.0638
 2460SOL    HW118839   0.487   3.509   2.463 -2.3260 -0.1866 -1.3508
 2460SOL    HW218840   0.478   3.393   2.366 -1.3783  0.9798  1.2237
 2461SOL     OW18841   4.714   4.500   7.319 -0.0868 -0.0974  0.1086
 2461SOL    HW118842   4.721   4.424   7.376  1.0202 -0.6733 -0.7959
 2461SOL    HW218843   4.681   4.571   7.374 -0.1544 -0.0019 -0.0546
 2462SOL     OW18844   2.752   0.814   7.083 -0.3060  0.3506  0.1097
 2462SOL    HW118845   2.730   0.895   7.036 -1.1200 -0.4127 -0.8321
 2462SOL    HW218846   2.822   0.770   7.034  1.2809  2.0943  0.8147
 2463SOL     OW18847   3.665   3.547   8.108  0.2909  0.1371 -0.0977
 2463SOL    HW118848   3.756   3.577   8.108  0.8686 -1.6066 -0.8536
 2463SOL    HW218849   3.659   3.452   8.109 -0.6496  0.1814 -1.9063
 2464SOL     OW18850   1.893   2.084   1.778 -0.3261  0.4161  0.2757
 2464SOL    HW118851   1.842   2.068   1.698  0.6989 -0.4119 -0.2056
 2464SOL    HW218852   1.951   2.009   1.781 -1.2804 -0.3188  0.3549
 2465SOL     OW18853   4.193   2.239   4.385  0.1754  0.1433  0.0636
 2465SOL    HW118854   4.166   2.224   4.294 -0.2822  1.1632  0.0388
 2465SOL    HW218855   4.226   2.328   4.374  1.3556 -0.2349  0.5814
 2466SOL     OW18856   1.487   1.668   2.111 -0.2031  0.3381 -0.6319
 2466SOL    HW118857   1.407   1.620   2.130 -0.7733  1.0729 -1.2095
 2466SOL    HW218858   1.464   1.756   2.139 -3.4538 -0.4829 -0.7021
 2467SOL     OW18859   4.057   0.253   4.327 -0.1875 -0.2857 -0.2987
 2467SOL    HW118860   4.072   0.158   4.333 -1.8810 -0.5155  0.2306
 2467SOL    HW218861   4.149   0.273   4.345 -0.2746  0.1403 -0.3309
 2468SOL     OW18862   4.218   3.135   7.940  0.3181  0.0229  0.2723
 2468SOL    HW118863   4.229   3.062   7.880 -0.6970  2.8666 -3.4090
 2468SOL    HW218864   4.306   3.165   7.963  0.3956  1.0051 -1.2783
 2469SOL     OW18865   0.575   0.789   9.106  0.1054  0.4983 -0.1937
 2469SOL    HW118866   0.486   0.753   9.103 -0.3078  1.1227  4.2858
 2469SOL    HW218867   0.558   0.880   9.132  0.1163  0.8296 -1.3822
 2470SOL     OW18868   1.131   2.651   0.567  0.2415 -0.0730 -0.2619
 2470SOL    HW118869   1.058   2.694   0.522  0.5715  1.1770  0.3912
 2470SOL    HW218870   1.200   2.714   0.544  0.2311  0.0335 -0.0025
 2471SOL     OW18871   4.031   2.844   7.477 -0.4815  0.2795  0.1640
 2471SOL    HW118872   4.083   2.774   7.439 -1.0981 -1.0329  1.7283
 2471SOL    HW218873   3.976   2.798   7.540  1.2910  0.8032  2.1109
 2472SOL     OW18874   2.838   3.713   0.588  0.5120  0.4249  0.1935
 2472SOL    HW118875   2.812   3.748   0.673 -1.5708 -0.0017 -0.2619
 2472SOL    HW218876   2.924   3.673   0.600 -0.4292 -1.6844 -0.0890
 2473SOL     OW18877   4.488   1.807   6.517  0.0662 -0.1390  0.0870
 2473SOL    HW118878   4.493   1.887   6.466  0.5771  0.1412  0.5682
 2473SOL    HW218879   4.558   1.826   6.581  0.3260 -0.0077 -0.2364
 2474SOL     OW18880   2.563   1.064   6.998  0.5304 -0.3310  0.4077
 2474SOL    HW118881   2.533   0.975   6.980 -1.1439 -0.3686  3.5804
 2474SOL    HW218882   2.483   1.114   6.986 -0.2506 -1.2787  1.7264
 2475SOL     OW18883   0.666   0.180   8.420 -0.0065  0.1979 -0.8426
 2475SOL    HW118884   0.741   0.148   8.371  0.8460 -1.4828  1.5592
 2475SOL    HW218885   0.711   0.221   8.494 -2.0319 -1.7118  1.4238
 2476SOL     OW18886   1.771   4.063  14.471 -0.1878  0.3313  0.1146
 2476SOL    HW118887   1.824   4.065  14.392 -0.5357  1.1077 -0.1106
 2476SOL    HW218888   1.687   4.053  14.426 -1.0460  0.4337  1.6579
 2477SOL     OW18889   2.781   0.198   6.498  0.2336 -0.4861  0.6274
 2477SOL    HW118890   2.809   0.252   6.572  1.6273 -0.3288 -0.0146
 2477SOL    HW218891   2.753   0.264   6.434  2.0239 -1.2843 -0.9529
 2478SOL     OW18892   2.206   1.095   9.166 -0.2375 -0.6873  0.3554
 2478SOL    HW118893   2.189   1.009   9.128  1.1030  0.1635 -2.1844
 2478SOL    HW218894   2.233   1.157   9.097  0.4084 -2.0698 -0.6389
 2479SOL     OW18895   2.922   2.607   2.527 -0.3479  0.3551  0.0010
 2479SOL    HW118896   2.887   2.524   2.496 -2.8972  1.4837 -0.1479
 2479SOL    HW218897   2.882   2.610   2.614  0.0400  0.3175  0.1801
 2480SOL     OW18898   1.874   0.044  11.886  0.5201 -0.4083  0.1582
 2480SOL    HW118899   1.807   4.705  11.868 -0.0330 -0.1947  1.4302
 2480SOL    HW218900   1.911   0.004  11.965 -1.2665  1.2028  1.8258
 2481SOL     OW18901   1.191   0.509   6.611 -0.4222  0.2383  0.4365
 2481SOL    HW118902   1.142   0.521   6.692 -0.7110  3.5229 -0.2200
 2481SOL    HW218903   1.184   0.414   6.605  3.6227 -0.0240 -0.1037
 2482SOL     OW18904   0.310   1.001   3.247  0.1744 -0.3806  0.7448
 2482SOL    HW118905   0.328   1.094   3.231 -0.3520 -0.5050 -0.5738
 2482SOL    HW218906   0.217   1.012   3.268  0.0942 -0.6285  0.5156
 2483SOL     OW18907   3.159   1.129   0.209 -0.2189  0.3758 -0.3363
 2483SOL    HW118908   3.143   1.035   0.209 -2.3193  0.7480  2.1151
 2483SOL    HW218909   3.108   1.167   0.137  0.4250 -1.0977 -1.5751
 2484SOL     OW18910   0.621   2.489   7.843  0.3291  0.4246  0.4302
 2484SOL    HW118911   0.710   2.460   7.863  0.6704 -1.0385 -3.1123
 2484SOL    HW218912   0.572   2.481   7.924 -0.6207 -0.3834 -0.2190
 2485SOL     OW18913   3.737   1.718   3.772 -0.1915 -0.2695 -0.7388
 2485SOL    HW118914   3.795   1.679   3.706 -0.4558  0.1844 -1.2375
 2485SOL    HW218915   3.801   1.733   3.841  0.8982 -0.1427 -1.7651
 2486SOL     OW18916   1.740   3.036  10.433 -0.3582  0.2040  0.3049
 2486SOL    HW118917   1.795   3.113  10.420  0.4162 -0.3031  0.4904
 2486SOL    HW218918   1.694   3.032  10.349  0.1388  0.2733  0.0269
 2487SOL     OW18919   4.712   3.859   6.374 -0.3984  0.1954  0.2022
 2487SOL    HW118920   0.079   3.872   6.361 -0.9241  3.2842 -0.5981
 2487SOL    HW218921   4.673   3.858   6.287  0.1297 -0.4015 -0.0239
 2488SOL     OW18922   4.300   1.362   6.968  0.2548  0.5901 -0.2696
 2488SOL    HW118923   4.227   1.309   6.938  1.5628 -2.5329  1.9791
 2488SOL    HW218924   4.356   1.301   7.017 -0.4912 -0.5980 -0.9008
 2489SOL     OW18925   3.655   2.888  12.508 -0.5724 -0.2995  0.1075
 2489SOL    HW118926   3.663   2.980  12.531 -2.6313 -0.0136 -0.2581
 2489SOL    HW218927   3.603   2.865  12.586 -0.0372 -1.1371  0.2141
 2490SOL     OW18928   0.753   4.474   3.412  0.1257 -0.1861 -0.2760
 2490SOL    HW118929   0.765   4.382   3.435 -1.0655  0.8362  4.3401
 2490SOL    HW218930   0.686   4.477   3.343 -0.5851 -0.9156  0.3842
 2491SOL     OW18931   4.119   3.286   5.424 -0.0516 -0.1831 -0.3110
 2491SOL    HW118932   4.180   3.359   5.435  0.2642 -0.4405 -0.3466
 2491SOL    HW218933   4.168   3.213   5.463  1.1751  2.1646  2.5787
 2492SOL     OW18934   1.737   2.321   5.222 -0.6391 -0.1653  0.3753
 2492SOL    HW118935   1.642   2.331   5.225 -0.6729 -0.2208 -0.4693
 2492SOL    HW218936   1.754   2.338   5.129 -4.6813  1.5907 -0.0628
 2493SOL     OW18937   4.272   0.507   3.785  0.1015 -0.3591  0.3077
 2493SOL    HW118938   4.342   0.534   3.726 -1.1396 -0.5652 -1.2626
 2493SOL    HW218939   4.305   0.427   3.825  0.4261 -0.6887 -0.6028
 2494SOL     OW18940   4.712   0.632   7.764 -0.3642 -0.1695  0.2757
 2494SOL    HW118941   0.077   0.619   7.787 -0.3530 -1.1045 -0.3301
 2494SOL    HW218942   4.706   0.725   7.741 -0.4007 -0.6971 -1.7997
 2495SOL     OW18943   3.522   0.520   8.198 -0.0492 -0.4967  0.3422
 2495SOL    HW118944   3.596   0.482   8.150 -0.0828 -0.0029 -0.0998
 2495SOL    HW218945   3.523   0.477   8.283 -0.0089 -2.7374 -0.7932
 2496SOL     OW18946   1.128   4.471   3.272 -0.3266  0.2309  0.0221
 2496SOL    HW118947   1.110   4.422   3.192 -1.8622  1.9215 -0.6595
 2496SOL    HW218948   1.205   4.520   3.242 -1.3875  1.3766 -0.8409
 2497SOL     OW18949   0.119   0.999   7.475  0.2617 -0.0118 -0.0519
 2497SOL    HW118950   0.188   0.936   7.493 -0.3831 -1.2773 -1.9024
 2497SOL    HW218951   0.172   1.072   7.445 -0.0126 -0.2424 -1.1254
 2498SOL     OW18952   0.904   1.075   4.099 -0.3701  0.1531  0.5300
 2498SOL    HW118953   0.944   1.059   4.185  2.3033 -2.3985 -1.1728
 2498SOL    HW218954   0.960   1.017   4.047  0.8807 -0.0724  2.0963
 2499SOL     OW18955   1.599   2.021   5.263  1.0062  0.7809 -0.1235
 2499SOL    HW118956   1.622   2.065   5.344 -0.1728  1.8042 -0.3535
 2499SOL    HW218957   1.685   2.010   5.222  0.9391  3.3651 -0.9487
 2500SOL     OW18958   2.534   1.974   7.474 -0.2980  0.2619  0.3289
 2500SOL    HW118959   2.531   2.048   7.413 -0.3882  0.4679  0.5840
 2500SOL    HW218960   2.487   1.906   7.426 -0.0462 -0.4925  1.1605
 2501SOL     OW18961   4.254   4.173   7.183 -0.0283  0.7289 -0.3720
 2501SOL    HW118962   4.335   4.198   7.138 -0.9583  1.3873 -1.6809
 2501SOL    HW218963   4.234   4.254   7.229  2.2011  0.3926  1.1978
 2502SOL     OW18964   1.831   4.626   2.545 -0.1193 -0.5637 -0.4634
 2502SOL    HW118965   1.887   4.556   2.578 -0.7864 -0.3869  1.0508
 2502SOL    HW218966   1.742   4.601   2.569  0.0218 -0.2985  0.3423
 2503SOL     OW18967   1.511   3.494   8.040 -0.2075 -0.3327 -0.8087
 2503SOL    HW118968   1.576   3.425   8.024 -0.8871 -0.9328 -0.9734
 2503SOL    HW218969   1.430   3.446   8.027 -2.1356  2.0091  2.5540
 2504SOL     OW18970   2.518   0.977   7.460  0.2729  0.1169 -0.1990
 2504SOL    HW118971   2.541   1.025   7.380 -0.9730  2.5773  0.8960
 2504SOL    HW218972   2.539   1.052   7.516  1.5938 -0.1345 -0.3717
 2505SOL     OW18973   0.351   4.564   8.655 -0.0280 -0.5629  0.4118
 2505SOL    HW118974   0.389   4.652   8.658 -0.0257 -0.5906  1.2710
 2505SOL    HW218975   0.260   4.585   8.679  0.4038  0.7132  0.9294
 2506SOL     OW18976   4.272   4.547   3.641  0.6990  0.4013 -0.3719
 2506SOL    HW118977   4.180   4.571   3.626  0.3630  0.4648  1.7313
 2506SOL    HW218978   4.313   4.562   3.556 -0.6946 -0.0026 -1.1086
 2507SOL     OW18979   1.787   4.369   3.415  0.3968 -0.8921  0.4932
 2507SOL    HW118980   1.706   4.335   3.451 -0.6176 -0.0889 -1.0272
 2507SOL    HW218981   1.799   4.324   3.331 -2.0480 -0.0903 -0.2839
 2508SOL     OW18982   1.552   3.865   4.064  0.0328 -0.4001 -0.4262
 2508SOL    HW118983   1.574   3.871   4.157  0.7167 -1.3244 -0.5321
 2508SOL    HW218984   1.501   3.785   4.073 -0.9616  0.0572 -1.9210
 2509SOL     OW18985   1.981   3.676  10.889 -0.0125 -0.0166  0.5868
 2509SOL    HW118986   2.021   3.759  10.864 -0.0515  0.2275  1.3273
 2509SOL    HW218987   2.005   3.680  10.981 -0.0770 -0.7636  0.6348
 2510SOL     OW18988   0.857   2.166  17.665 -0.2961  0.5620  0.1688
 2510SOL    HW118989   0.918   2.108  17.619  0.8084  1.3500  0.6428
 2510SOL    HW218990   0.876   2.139   0.046 -2.5274 -0.4355  0.3490
 2511SOL     OW18991   2.518   3.352  11.840 -0.5139 -0.5436  0.4128
 2511SOL    HW118992   2.555   3.329  11.926  0.2285  0.1933  0.2876
 2511SOL    HW218993   2.478   3.271  11.808 -2.0348 -0.2214  1.4871
 2512SOL     OW18994   1.790   3.108   0.817 -0.0322 -0.3938 -0.1841
 2512SOL    HW118995   1.814   3.195   0.850 -0.9098  0.6153 -2.2020
 2512SOL    HW218996   1.855   3.058   0.868  1.0471  0.1498 -1.0141
 2513SOL     OW18997   3.318   4.394   6.913 -0.4796  0.4155 -0.3796
 2513SOL    HW118998   3.271   4.312   6.905 -0.0881  0.0422  1.1038
 2513SOL    HW218999   3.306   4.408   7.007  0.2253  1.3350 -0.4274
 2514SOL     OW19000   2.027   0.113   4.878 -0.7390 -0.5704  0.8038
 2514SOL    HW119001   2.056   0.186   4.932  0.0347 -1.2270  1.2837
 2514SOL    HW219002   2.083   0.116   4.801 -1.0121  1.7524  0.7061
 2515SOL     OW19003   0.044   3.385  10.752  0.2639 -0.0004 -0.3919
 2515SOL    HW119004   0.125   3.426  10.721  0.7555 -1.1082 -0.5708
 2515SOL    HW219005   4.711   3.428  10.690 -2.0438  0.4620  2.1523
 2516SOL     OW19006   4.148   2.136   6.360  0.6538 -0.1776 -0.0121
 2516SOL    HW119007   4.150   2.104   6.450  1.6592 -4.4763 -1.5451
 2516SOL    HW219008   4.084   2.083   6.313 -0.0598  0.2713  0.4563
 2517SOL     OW19009   0.736   0.063   7.859  0.0109  0.1288 -0.3768
 2517SOL    HW119010   0.750   4.695   7.866  0.6373  0.3089  0.9080
 2517SOL    HW219011   0.689   0.068   7.776 -2.6861 -1.2840  1.0862
 2518SOL     OW19012   2.225   0.200   4.723 -0.6281  0.1293 -0.3132
 2518SOL    HW119013   2.240   0.241   4.808 -0.4766  2.0166 -1.2398
 2518SOL    HW219014   2.189   0.273   4.673 -2.5706  2.2126  4.1221
 2519SOL     OW19015   3.476   4.680  10.243  0.0586 -0.1793  0.2849
 2519SOL    HW119016   3.568   4.707  10.243  0.0474 -0.1457  0.4766
 2519SOL    HW219017   3.434   0.038  10.228 -0.0709 -0.2156  0.4412
 2520SOL     OW19018   0.644   0.615  14.264 -0.1203  0.4142 -1.0255
 2520SOL    HW119019   0.738   0.609  14.245 -0.1317 -0.6304 -0.7421
 2520SOL    HW219020   0.633   0.542  14.324 -2.5026  1.6680  0.0598
 2521SOL     OW19021   2.489   1.499   4.860 -0.3152  0.6416  0.5557
 2521SOL    HW119022   2.506   1.590   4.882  0.0487  0.1735  2.1859
 2521SOL    HW219023   2.486   1.467   4.950  0.0657 -0.0282  0.3315
 2522SOL     OW19024   3.410   0.249  17.071  0.1236  0.8092 -0.6684
 2522SOL    HW119025   3.472   0.195  17.119  0.8934  2.4922  0.2314
 2522SOL    HW219026   3.330   0.211  17.107  0.4854 -0.1965 -0.9056
 2523SOL     OW19027   2.331   2.232  11.133  0.9259  0.0643  0.0934
 2523SOL    HW119028   2.246   2.275  11.140  0.0373 -1.8721  1.4147
 2523SOL    HW219029   2.335   2.203  11.042  1.1301 -3.2507  1.1400
 2524SOL     OW19030   3.128   1.046   3.851  0.1342 -0.4761 -0.1165
 2524SOL    HW119031   3.123   0.996   3.933 -0.3900  1.3668  0.9781
 2524SOL    HW219032   3.188   0.991   3.802  1.3142  0.0153  0.7752
 2525SOL     OW19033   2.080   0.996   3.952  0.4777 -0.0238  0.1290
 2525SOL    HW119034   2.095   1.076   3.902 -2.7845 -0.4382 -1.5181
 2525SOL    HW219035   2.124   0.933   3.896  1.2894 -0.6718  1.4813
 2526SOL     OW19036   0.236   3.543  16.476  0.2081  0.0421  0.3996
 2526SOL    HW119037   0.287   3.500  16.407 -1.4788  0.8270 -1.3412
 2526SOL    HW219038   0.151   3.502  16.458  1.0889 -0.6918 -2.0474
 2527SOL     OW19039   3.397   1.902   4.201  0.0842 -0.3176 -0.3497
 2527SOL    HW119040   3.393   1.807   4.193 -0.4527 -0.1985 -1.5572
 2527SOL    HW219041   3.491   1.913   4.186  0.0225 -0.5884 -0.9452
 2528SOL     OW19042   1.652   1.046   8.382 -0.3266  0.5035 -0.3458
 2528SOL    HW119043   1.577   1.024   8.327  1.6527  1.7608 -3.5396
 2528SOL    HW219044   1.637   0.981   8.450 -2.1030  0.5892 -0.6443
 2529SOL     OW19045   1.334   2.804  10.308 -0.1114 -0.1403  0.1241
 2529SOL    HW119046   1.383   2.782  10.387 -0.4932  0.3174  0.4911
 2529SOL    HW219047   1.287   2.722  10.292 -2.1458  1.1933 -0.8282
 2530SOL     OW19048   2.417   3.104   7.687 -0.4556 -0.1717 -0.6329
 2530SOL    HW119049   2.361   3.125   7.762 -1.0358 -0.7039 -0.9110
 2530SOL    HW219050   2.464   3.028   7.723 -0.9861  1.3395  3.1711
 2531SOL     OW19051   4.284   4.632   4.533  0.2965 -0.1530  0.3409
 2531SOL    HW119052   4.199   4.607   4.569  1.6646 -1.1949  2.8332
 2531SOL    HW219053   4.336   4.648   4.611  0.0842 -0.4350  0.5435
 2532SOL     OW19054   3.407   3.605   4.836  0.0392 -0.7094 -0.0558
 2532SOL    HW119055   3.481   3.604   4.776 -0.2952  0.8614 -0.5097
 2532SOL    HW219056   3.453   3.568   4.911  0.6997 -0.0169 -0.1118
 2533SOL     OW19057   0.886   2.382   4.410  0.0632  0.0154 -0.3599
 2533SOL    HW119058   0.852   2.466   4.441  0.3788 -0.5895  1.6570
 2533SOL    HW219059   0.878   2.336   4.494 -1.4272 -0.8893 -0.9962
 2534SOL     OW19060   0.522   3.108   1.467  0.0303 -0.1928 -0.2493
 2534SOL    HW119061   0.575   3.188   1.468 -1.3698  0.7361 -0.4329
 2534SOL    HW219062   0.537   3.081   1.557  0.8772  0.9043 -0.0601
 2535SOL     OW19063   4.658   2.948   3.466  0.4356 -0.0447  0.0288
 2535SOL    HW119064   4.692   3.023   3.417 -0.5814  0.0515 -0.5375
 2535SOL    HW219065   4.680   2.875   3.408  2.8292  1.1166 -0.5245
 2536SOL     OW19066   4.086   1.665  13.584 -0.1593 -0.4502  0.0209
 2536SOL    HW119067   4.052   1.649  13.672  0.0639 -2.2563 -0.2236
 2536SOL    HW219068   4.029   1.604  13.536 -1.5649  1.0404 -0.1876
 2537SOL     OW19069   0.581   3.683   3.472 -0.8273  0.4639 -0.2707
 2537SOL    HW119070   0.614   3.725   3.551  0.4928 -0.2379 -0.4551
 2537SOL    HW219071   0.657   3.648   3.426 -0.0163  0.7145  0.8768
 2538SOL     OW19072   4.419   2.334   4.968 -0.1040 -0.0859 -0.1693
 2538SOL    HW119073   4.372   2.302   5.045  0.0167  0.9828  0.3372
 2538SOL    HW219074   4.464   2.251   4.948  0.3547  0.1879 -0.2691
 2539SOL     OW19075   4.525   0.766   6.250 -0.1392 -0.4217 -0.3610
 2539SOL    HW119076   4.439   0.771   6.291 -0.3542  1.7303 -1.0754
 2539SOL    HW219077   4.563   0.691   6.296 -1.2675 -0.2346  0.8632
 2540SOL     OW19078   3.733   4.399   7.201  0.5715 -1.0357 -0.0181
 2540SOL    HW119079   3.668   4.440   7.258 -0.0300 -1.4482 -0.4040
 2540SOL    HW219080   3.742   4.317   7.250  2.1193 -0.0557  1.3231
 2541SOL     OW19081   0.317   1.646  16.940  0.0317 -0.4753 -0.6114
 2541SOL    HW119082   0.371   1.642  16.861  1.0285  0.2722  0.0234
 2541SOL    HW219083   0.262   1.723  16.925 -0.9898 -1.4415 -1.7537
 2542SOL     OW19084   0.534   1.973  16.795  0.0467  0.5290  0.3565
 2542SOL    HW119085   0.480   2.030  16.742 -0.4499 -1.3172 -1.1334
 2542SOL    HW219086   0.536   2.021  16.877 -1.5783 -0.3719  0.9250
 2543SOL     OW19087   4.519   3.897   1.894  0.7482  0.0717  0.5214
 2543SOL    HW119088   4.464   3.849   1.956  0.7686  0.6419  0.9778
 2543SOL    HW219089   4.578   3.826   1.868  0.5043  0.2975 -0.6548
 2544SOL     OW19090   0.793   3.997   0.275  0.1233  0.7183  0.2624
 2544SOL    HW119091   0.715   4.036   0.237 -0.0234 -1.8225 -2.0712
 2544SOL    HW219092   0.759   3.927   0.330 -0.7718  0.6787 -0.3367
 2545SOL     OW19093   2.091   0.351   7.458 -0.5195  0.0309 -0.4672
 2545SOL    HW119094   2.150   0.391   7.394 -1.8843  1.2199 -0.9925
 2545SOL    HW219095   2.025   0.415   7.487  1.4051  0.9202  1.9015
 2546SOL     OW19096   3.026   2.228   1.412 -0.2071  0.6962  0.4115
 2546SOL    HW119097   3.001   2.280   1.336  0.3215  0.4157  0.0457
 2546SOL    HW219098   2.961   2.231   1.483 -0.7126 -0.1466 -0.0184
 2547SOL     OW19099   0.119   3.324   7.414  0.7753 -0.1675  0.1960
 2547SOL    HW119100   0.191   3.264   7.394  1.4848  2.0333 -3.7439
 2547SOL    HW219101   0.160   3.407   7.438 -0.8470  0.3618  1.0981
 2548SOL     OW19102   0.245   4.152   1.976  0.2090 -0.6530 -0.0526
 2548SOL    HW119103   0.216   4.166   1.886 -0.5307  0.8705  0.4272
 2548SOL    HW219104   0.187   4.081   2.005 -0.9626  1.2306  2.2140
 2549SOL     OW19105   2.927   3.141   1.877  0.4835  0.4739  0.0935
 2549SOL    HW119106   2.868   3.066   1.883  1.8192 -0.5726 -0.0353
 2549SOL    HW219107   2.932   3.184   1.962  1.8176 -0.3449  0.4225
 2550SOL     OW19108   1.253   1.648   0.028 -0.0753  0.3240 -0.4569
 2550SOL    HW119109   1.247   1.738  17.703 -0.6671  0.4014 -0.1496
 2550SOL    HW219110   1.318   1.615  17.675  1.9603 -0.6801  2.2447
 2551SOL     OW19111   1.271   2.581   9.857 -0.1108  0.4009  0.2910
 2551SOL    HW119112   1.245   2.652   9.799 -0.4237  0.5209  0.5728
 2551SOL    HW219113   1.188   2.568   9.903 -1.4663  2.1068 -1.7141
 2552SOL     OW19114   4.276   1.804  16.396  0.2635  0.1440  0.6014
 2552SOL    HW119115   4.231   1.724  16.368  0.6408 -0.1452  0.8256
 2552SOL    HW219116   4.311   1.842  16.316 -0.7672  0.6599  0.4034
 2553SOL     OW19117   0.083   3.308  12.369 -0.4945  0.9859 -0.4053
 2553SOL    HW119118   0.064   3.288  12.461 -0.9422  0.9397 -0.5088
 2553SOL    HW219119   0.178   3.322  12.377 -0.3436 -0.4570  0.2935
 2554SOL     OW19120   2.721   2.012  14.547 -0.6234 -0.4839 -0.5070
 2554SOL    HW119121   2.698   1.920  14.560  0.4006 -0.6217  0.3323
 2554SOL    HW219122   2.685   2.052  14.626 -3.4128 -0.8628 -1.6028
 2555SOL     OW19123   2.235   4.156   6.624 -0.3093 -0.4161  0.2508
 2555SOL    HW119124   2.278   4.240   6.640  1.7457 -1.3551 -0.3512
 2555SOL    HW219125   2.305   4.101   6.661  0.6452  0.2876 -0.4980
 2556SOL     OW19126   3.676   0.224   8.675  0.5752 -0.4338  0.4557
 2556SOL    HW119127   3.632   0.198   8.757  1.4843 -0.7801  0.8388
 2556SOL    HW219128   3.748   0.163   8.685  1.4236  0.4223 -0.4884
 2557SOL     OW19129   0.554   4.609  13.016 -0.2948 -0.6564  0.5515
 2557SOL    HW119130   0.521   4.590  12.928 -2.4903  1.5494  0.8904
 2557SOL    HW219131   0.572   4.702  13.012  1.9057 -1.1469 -0.4333
 2558SOL     OW19132   3.698   0.469   7.057  0.2594 -0.0198 -0.2653
 2558SOL    HW119133   3.713   0.541   7.119  0.5490 -0.6674  0.4180
 2558SOL    HW219134   3.643   0.522   7.000  1.5745 -0.6218 -2.1175
 2559SOL     OW19135   4.066   3.262   2.626  0.8427  0.4780 -0.3237
 2559SOL    HW119136   4.037   3.173   2.606 -0.8823  1.2410 -1.1927
 2559SOL    HW219137   3.988   3.295   2.670  1.0277  1.4925 -0.7372
 2560SOL     OW19138   0.455   1.635   4.878  0.5287  0.2297 -0.3651
 2560SOL    HW119139   0.532   1.587   4.846  0.3057 -0.2727 -0.1491
 2560SOL    HW219140   0.386   1.569   4.877  0.7515 -0.0371  0.9778
 2561SOL     OW19141   2.277   2.023  15.070 -0.0035  0.7378 -0.0047
 2561SOL    HW119142   2.191   2.047  15.036 -0.1072 -0.9269 -0.8841
 2561SOL    HW219143   2.285   2.091  15.138  0.0563 -0.5576  1.2900
 2562SOL     OW19144   4.038   4.648   5.634 -0.0091 -0.1473 -0.0421
 2562SOL    HW119145   4.128   4.671   5.613 -1.3733  2.5435 -2.9785
 2562SOL    HW219146   4.006   4.622   5.548  1.6053 -0.1446 -0.6446
 2563SOL     OW19147   3.149   2.007   2.925 -0.2500 -0.1872 -1.0086
 2563SOL    HW119148   3.068   1.957   2.914  0.2941 -1.7174  1.7986
 2563SOL    HW219149   3.141   2.036   3.016 -0.3699 -0.7390 -0.8431
 2564SOL     OW19150   4.392   3.926   4.653  0.5186 -0.1921  0.7432
 2564SOL    HW119151   4.394   3.986   4.728 -3.9758 -0.5981  1.2375
 2564SOL    HW219152   4.472   3.953   4.609  0.7175  2.1331  2.5395
 2565SOL     OW19153   3.764   3.987   7.801 -0.4127  0.4442  0.4304
 2565SOL    HW119154   3.822   4.033   7.740 -0.1155 -0.2522  0.1868
 2565SOL    HW219155   3.693   3.963   7.741 -0.3352  0.6677  0.2483
 2566SOL     OW19156   4.669   2.029   2.174  0.1372 -0.3491 -0.0647
 2566SOL    HW119157   4.691   1.983   2.093  1.6053 -1.0984  0.7506
 2566SOL    HW219158   4.583   2.059   2.146  0.5894 -0.5102 -1.6006
 2567SOL     OW19159   1.584   2.378   3.950  0.2677  0.4476 -0.3773
 2567SOL    HW119160   1.579   2.472   3.967 -1.8699  0.1941  0.4618
 2567SOL    HW219161   1.674   2.366   3.980  0.1394  2.3256  0.7687
 2568SOL     OW19162   2.018   1.936   4.641 -0.3334 -0.0755 -0.1626
 2568SOL    HW119163   1.998   1.845   4.662  0.0532 -0.8023 -2.9779
 2568SOL    HW219164   1.932   1.972   4.660 -0.1187  1.0857 -1.3575
 2569SOL     OW19165   4.180   1.072   5.207 -0.0110  0.1204  0.2475
 2569SOL    HW119166   4.264   1.026   5.203 -0.5613 -0.7988 -0.8468
 2569SOL    HW219167   4.119   1.002   5.232  1.5593 -0.6601  1.8817
 2570SOL     OW19168   0.584   4.595   4.436  0.0936 -0.0589 -0.5199
 2570SOL    HW119169   0.536   4.678   4.447 -0.8242 -0.6234 -0.2154
 2570SOL    HW219170   0.530   4.544   4.376 -2.2838  0.6598  0.9718
 2571SOL     OW19171   3.299   2.394   2.650 -0.0034 -0.0845  0.0994
 2571SOL    HW119172   3.270   2.338   2.578  1.2738 -0.6812  0.0443
 2571SOL    HW219173   3.332   2.329   2.712 -1.7370 -0.3614  0.7441
 2572SOL     OW19174   1.540   1.345  13.466 -0.6350 -0.2566 -0.2437
 2572SOL    HW119175   1.634   1.336  13.478 -0.5143  2.5866  0.8611
 2572SOL    HW219176   1.538   1.402  13.389 -0.7367 -0.4794 -0.4065
 2573SOL     OW19177   1.067   0.253   2.597  0.2856 -0.0942 -0.5097
 2573SOL    HW119178   1.065   0.295   2.683 -0.2311 -0.6235 -0.2611
 2573SOL    HW219179   1.117   0.323   2.556 -0.3512  0.7585  0.1549
 2574SOL     OW19180   4.420   0.539   5.661 -0.3706 -0.0411 -0.3128
 2574SOL    HW119181   4.366   0.466   5.690 -0.2513  0.6456  1.6477
 2574SOL    HW219182   4.369   0.613   5.692 -0.7459 -0.4795  0.1124
 2575SOL     OW19183   0.967   2.539   6.524 -0.3789  0.1135 -0.1586
 2575SOL    HW119184   0.915   2.479   6.470  0.3667  1.0272 -1.8734
 2575SOL    HW219185   0.902   2.605   6.546 -0.2085 -0.3778  1.8177
 2576SOL     OW19186   1.708   2.601  10.807 -0.3543  0.3638 -0.9898
 2576SOL    HW119187   1.643   2.583  10.876  1.2358 -0.4691  0.3040
 2576SOL    HW219188   1.782   2.626  10.862 -0.7179 -1.5772  0.3962
 2577SOL     OW19189   4.695   3.023   5.532 -0.3022 -0.5076 -0.0753
 2577SOL    HW119190   0.042   2.962   5.536 -1.0510 -1.4178 -0.3004
 2577SOL    HW219191   4.727   3.062   5.450  0.7338 -1.3276 -0.0699
 2578SOL     OW19192   0.112   0.183   6.049  0.3306 -0.5580 -0.2107
 2578SOL    HW119193   0.088   0.091   6.058 -2.6356  0.3910  1.2525
 2578SOL    HW219194   0.197   0.158   6.011  1.0674  1.1569  0.3260
 2579SOL     OW19195   3.730   3.262   3.650 -0.4915  0.0711 -1.0297
 2579SOL    HW119196   3.664   3.196   3.667  0.5536 -0.4618  0.9689
 2579SOL    HW219197   3.804   3.230   3.702 -0.3458  0.1543 -1.1863
 2580SOL     OW19198   2.455   1.912   5.413  0.0721 -0.4159 -0.2911
 2580SOL    HW119199   2.471   2.002   5.384  1.2368 -0.5512 -0.0748
 2580SOL    HW219200   2.549   1.894   5.419  0.0150 -0.3810  0.6867
 2581SOL     OW19201   1.003   1.596   4.881 -0.1194 -1.0684  0.3028
 2581SOL    HW119202   1.073   1.532   4.893  0.8942  0.1296  0.7666
 2581SOL    HW219203   1.062   1.670   4.869 -2.2203  0.6041  0.3101
 2582SOL     OW19204   1.662   1.441   4.134 -0.8150  0.3978  0.8122
 2582SOL    HW119205   1.660   1.534   4.111  1.1661  0.5359  1.2022
 2582SOL    HW219206   1.754   1.429   4.157 -0.9366 -1.2840  0.4184
 2583SOL     OW19207   2.065   3.023  15.191  0.4712 -0.3661  0.2370
 2583SOL    HW119208   1.984   3.052  15.233 -0.1778  0.1408 -1.3765
 2583SOL    HW219209   2.126   3.058  15.256 -0.7677  0.0324  1.1787
 2584SOL     OW19210   3.371   1.812   7.163  0.4977 -0.1054 -0.0643
 2584SOL    HW119211   3.367   1.903   7.133 -1.3194 -0.7305 -1.7047
 2584SOL    HW219212   3.422   1.824   7.243  1.1328  1.2055 -0.6543
 2585SOL     OW19213   2.353   4.070   3.141 -0.3138  0.5801  0.2475
 2585SOL    HW119214   2.299   3.999   3.177  2.2605 -1.8950 -0.7796
 2585SOL    HW219215   2.356   4.032   3.053 -0.3126 -1.3735  1.0956
 2586SOL     OW19216   0.629   3.609  15.604 -0.3228  0.0131  0.0883
 2586SOL    HW119217   0.681   3.685  15.578  0.1340 -0.7852 -1.3628
 2586SOL    HW219218   0.647   3.547  15.533 -0.9521  0.5824 -0.5701
 2587SOL     OW19219   2.837   1.488   4.288 -0.0454  0.3835  0.2709
 2587SOL    HW119220   2.810   1.552   4.354  1.7957  0.9862  0.4146
 2587SOL    HW219221   2.791   1.529   4.214  2.5090 -0.1307 -1.5737
 2588SOL     OW19222   4.474   0.540   2.708 -0.7140 -0.1981 -0.0871
 2588SOL    HW119223   4.515   0.501   2.630 -1.7259 -1.0932 -0.1726
 2588SOL    HW219224   4.513   0.481   2.773 -2.7277 -0.1437  1.1378
 2589SOL     OW19225   2.153   1.356   9.813 -0.0738 -0.2439 -0.0733
 2589SOL    HW119226   2.066   1.369   9.851 -0.6257  1.7521 -2.0278
 2589SOL    HW219227   2.200   1.438   9.829 -2.9227  1.3290  0.3348
 2590SOL     OW19228   4.534   3.340   8.242  0.3042 -0.2572  0.2158
 2590SOL    HW119229   4.514   3.375   8.329  1.2785  2.2178 -0.5616
 2590SOL    HW219230   4.503   3.412   8.187 -1.8224  0.7837  2.7708
 2591SOL     OW19231   1.383   0.266  13.289 -0.3118  0.3123 -0.0747
 2591SOL    HW119232   1.422   0.226  13.367 -0.1217 -2.0017 -1.3647
 2591SOL    HW219233   1.346   0.191  13.242  2.1025 -1.0881  0.2872
 2592SOL     OW19234   2.493   4.390   2.353  0.0281 -0.1059 -0.0943
 2592SOL    HW119235   2.567   4.441   2.386  1.0271 -0.6018 -1.5656
 2592SOL    HW219236   2.423   4.454   2.362 -0.3649 -0.7136  1.1507
 2593SOL     OW19237   1.360   2.894   1.356  0.6384  0.5594 -1.0520
 2593SOL    HW119238   1.312   2.974   1.378 -1.9569 -0.9673 -1.2135
 2593SOL    HW219239   1.298   2.822   1.373  2.4353 -0.7301  0.0381
 2594SOL     OW19240   2.974   2.661  15.435 -0.0108 -0.0641 -0.1439
 2594SOL    HW119241   2.909   2.674  15.366 -0.1920  1.9545  0.4155
 2594SOL    HW219242   3.044   2.614  15.389  0.0815  0.1186 -0.1908
 2595SOL     OW19243   0.027   2.163   5.466 -0.3611  0.3545  1.0998
 2595SOL    HW119244   4.659   2.168   5.456  0.3165  2.0160 -4.6924
 2595SOL    HW219245   0.038   2.081   5.416 -1.4840  0.1774  1.1434
 2596SOL     OW19246   4.311   0.380  16.978  0.3650 -0.3201  0.3608
 2596SOL    HW119247   4.263   0.297  16.978  0.4870 -0.3903 -0.2011
 2596SOL    HW219248   4.367   0.383  16.901  0.6097 -0.9326  0.5094
 2597SOL     OW19249   0.928   3.837  15.920 -0.2257  0.0651  0.4872
 2597SOL    HW119250   0.950   3.760  15.973  1.6596  1.1714  1.3058
 2597SOL    HW219251   0.844   3.862  15.957  0.0045 -0.0098  1.0519
 2598SOL     OW19252   2.096   3.724   1.891  0.1537 -0.1571 -0.5248
 2598SOL    HW119253   2.012   3.711   1.936 -0.1663  0.8605 -0.8329
 2598SOL    HW219254   2.090   3.817   1.870  0.2907 -0.5583 -2.3301
 2599SOL     OW19255   0.289   2.155   5.254  0.6888  0.3365 -0.2659
 2599SOL    HW119256   0.238   2.231   5.225 -1.9831 -1.8908 -1.4147
 2599SOL    HW219257   0.213   2.096   5.259 -0.2880  1.5977 -0.1388
 2600SOL     OW19258   3.210   3.229   4.966 -0.6773 -0.2608 -0.2415
 2600SOL    HW119259   3.199   3.309   5.018 -0.3530 -1.7075  2.0311
 2600SOL    HW219260   3.263   3.167   5.016 -0.7948  0.4802  0.8153
 2601SOL     OW19261   1.743   1.029   7.151 -0.4534  0.3135  0.6932
 2601SOL    HW119262   1.814   1.014   7.214 -1.0894 -2.3612  0.7870
 2601SOL    HW219263   1.675   1.029   7.218 -1.3442 -0.9185 -0.2056
 2602SOL     OW19264   2.679   0.668   2.442 -0.1312  0.5581  0.3606
 2602SOL    HW119265   2.712   0.689   2.355 -0.8288  1.3001  0.2772
 2602SOL    HW219266   2.755   0.693   2.494 -0.4128  2.4502 -0.1542
 2603SOL     OW19267   3.073   2.474   1.831 -0.2539 -0.0173  0.0741
 2603SOL    HW119268   3.115   2.559   1.845  0.4439 -0.3738  0.1398
 2603SOL    HW219269   3.004   2.482   1.766  0.6535 -0.2049 -0.9111
 2604SOL     OW19270   0.550   1.094  10.427 -0.5601  0.2436 -0.3210
 2604SOL    HW119271   0.464   1.128  10.403 -0.9046  0.6160  1.4362
 2604SOL    HW219272   0.537   0.999  10.432 -0.0276  0.2191  0.5349
 2605SOL     OW19273   2.127   3.544  16.331 -0.1369 -0.1273 -0.2798
 2605SOL    HW119274   2.054   3.562  16.389  2.1871  0.8376  2.3648
 2605SOL    HW219275   2.140   3.452  16.353  0.1246 -0.5977 -2.3777
 2606SOL     OW19276   4.387   4.704   1.975 -0.6094 -0.3633 -0.0283
 2606SOL    HW119277   4.314   4.644   1.997 -1.2421 -0.0845 -1.4022
 2606SOL    HW219278   4.401   4.682   1.883  0.8161 -1.7995  0.5191
 2607SOL     OW19279   3.793   0.861   6.898  0.2253 -0.2298  0.1460
 2607SOL    HW119280   3.704   0.836   6.873  0.7221  0.9726 -2.8888
 2607SOL    HW219281   3.807   0.932   6.835 -1.2278  0.1974  0.2861
 2608SOL     OW19282   4.501   1.969   4.372  0.3044  0.0432  0.0371
 2608SOL    HW119283   4.464   2.006   4.452  0.4992  0.9883 -0.3117
 2608SOL    HW219284   4.594   1.976   4.397 -0.3501 -0.0674  2.4999
 2609SOL     OW19285   2.869   1.121  11.985 -0.0537 -0.2456  0.4962
 2609SOL    HW119286   2.945   1.085  12.032  0.3757  1.0283  0.7708
 2609SOL    HW219287   2.911   1.193  11.939  0.6086 -0.0634  1.3914
 2610SOL     OW19288   0.558   3.143   4.750  0.3020 -0.9415 -0.4497
 2610SOL    HW119289   0.651   3.124   4.756  0.9064  2.0979 -0.4594
 2610SOL    HW219290   0.531   3.117   4.661 -0.2932  0.8009 -0.7927
 2611SOL     OW19291   1.430   3.262  10.039  0.0182 -0.2634  0.7002
 2611SOL    HW119292   1.393   3.190   9.988 -1.3224  0.3181  0.8478
 2611SOL    HW219293   1.517   3.271   9.999 -0.0457 -1.0685  0.3797
 2612SOL     OW19294   0.153   0.651   3.327  0.0168 -0.1594 -0.1529
 2612SOL    HW119295   0.123   0.733   3.365  0.0273  0.5470 -1.6889
 2612SOL    HW219296   0.078   0.628   3.273 -0.2001 -0.1560  0.1437
 2613SOL     OW19297   0.897   4.632   8.807 -0.9577  0.5053  0.0673
 2613SOL    HW119298   0.842   4.602   8.879  0.0694 -0.6712  0.3750
 2613SOL    HW219299   0.869   4.572   8.737 -1.3046  1.5041 -0.6538
 2614SOL     OW19300   1.035   4.317   4.949  0.4883  0.7229 -0.3525
 2614SOL    HW119301   1.045   4.352   4.860 -0.4099 -1.3508 -1.2629
 2614SOL    HW219302   1.127   4.300   4.969 -0.1279 -1.1914  0.8731
 2615SOL     OW19303   2.848   2.803  15.966 -0.5507 -0.4904 -0.0852
 2615SOL    HW119304   2.832   2.853  16.046 -1.1584 -0.1599 -0.4129
 2615SOL    HW219305   2.913   2.747  16.010 -1.0708 -0.9812  0.0533
 2616SOL     OW19306   4.638   1.361   6.201 -0.3288  0.2567  0.1956
 2616SOL    HW119307   4.700   1.397   6.138 -1.4998  2.5666  0.3917
 2616SOL    HW219308   4.588   1.441   6.218  1.9014  0.9758  3.3142
 2617SOL     OW19309   3.459   0.786   1.034 -0.4164  0.6131  0.2524
 2617SOL    HW119310   3.459   0.716   1.099  0.3388  0.7382  0.3870
 2617SOL    HW219311   3.498   0.740   0.959 -1.9960 -0.2623 -0.0245
 2618SOL     OW19312   2.129   0.222   6.401  0.1085 -0.1324  0.2526
 2618SOL    HW119313   2.131   0.290   6.468 -0.2133 -1.3875  1.5363
 2618SOL    HW219314   2.042   0.227   6.363 -0.9134 -2.6709  2.2763
 2619SOL     OW19315   0.820   4.276   6.045  0.0156  0.1784  0.3098
 2619SOL    HW119316   0.765   4.285   6.123  0.1857 -1.7853  0.6529
 2619SOL    HW219317   0.770   4.215   5.992  1.8218 -2.3247  1.4696
 2620SOL     OW19318   0.559   4.500   3.205  0.0078 -0.1555 -0.0622
 2620SOL    HW119319   0.576   4.587   3.168 -1.5230  0.0979 -0.1466
 2620SOL    HW219320   0.584   4.447   3.129  2.0834  2.6012 -1.2970
 2621SOL     OW19321   0.583   0.333   7.481  0.0411 -0.4680  0.2180
 2621SOL    HW119322   0.554   0.245   7.508  0.8836 -1.5117 -2.3227
 2621SOL    HW219323   0.520   0.384   7.532  0.5138  0.7924 -0.4839
 2622SOL     OW19324   1.519   4.269   8.070 -0.7898 -0.2311  0.2237
 2622SOL    HW119325   1.427   4.244   8.079 -0.5403 -1.6266 -1.1290
 2622SOL    HW219326   1.524   4.239   7.979  0.6862  1.3026 -0.2126
 2623SOL     OW19327   0.683   2.065   5.442  0.1081  0.0891 -0.4216
 2623SOL    HW119328   0.653   2.000   5.379 -2.9234  0.3729  0.7642
 2623SOL    HW219329   0.765   2.026   5.474  0.4968  0.4027 -1.0326
 2624SOL     OW19330   1.582   3.394   2.777  0.2258 -0.2026 -0.2429
 2624SOL    HW119331   1.608   3.314   2.824 -0.2650  0.1707  0.6502
 2624SOL    HW219332   1.624   3.375   2.693  0.0601  1.4893 -0.6943
 2625SOL     OW19333   1.712   1.755   7.099  0.3563 -0.0181  0.7882
 2625SOL    HW119334   1.627   1.711   7.103 -0.4808  1.6234  0.8140
 2625SOL    HW219335   1.718   1.767   7.004  3.8372 -1.6464  0.7873
 2626SOL     OW19336   1.428   3.948   8.305  0.5760  0.0411  0.2977
 2626SOL    HW119337   1.436   3.894   8.227  0.4120  1.2896 -0.5708
 2626SOL    HW219338   1.467   3.888   8.369  2.4443  1.8801  0.8815
 2627SOL     OW19339   1.231   1.073   9.109  0.3787 -0.1480  0.2743
 2627SOL    HW119340   1.262   0.984   9.123 -1.8669 -0.9176  0.3691
 2627SOL    HW219341   1.310   1.109   9.150  1.6496 -1.2756 -1.2217
 2628SOL     OW19342   2.764   2.801  11.751 -0.2456 -0.2096  0.6677
 2628SOL    HW119343   2.687   2.806  11.807 -0.5930 -0.2424  0.1917
 2628SOL    HW219344   2.819   2.850  11.812 -0.7735  1.2452 -0.0316
 2629SOL     OW19345   4.019   2.750   5.457 -0.2168  0.3302 -0.4204
 2629SOL    HW119346   4.097   2.806   5.454  0.5953 -0.8779 -1.4560
 2629SOL    HW219347   3.959   2.817   5.424 -2.0328  0.1290  2.5259
 2630SOL     OW19348   1.421   0.487   4.383  0.4489 -0.1219  0.2623
 2630SOL    HW119349   1.369   0.414   4.418 -1.4791  0.5561 -1.2122
 2630SOL    HW219350   1.372   0.559   4.424 -2.9916 -0.7665 -2.7086
 2631SOL     OW19351   1.408   1.731  10.152 -0.3130 -0.3065 -0.2501
 2631SOL    HW119352   1.334   1.672  10.168 -1.6009  1.4677  0.3863
 2631SOL    HW219353   1.435   1.747  10.243  0.9839 -1.0246 -0.5059
 2632SOL     OW19354   2.455   3.772   4.747  0.2265 -0.1199  0.0320
 2632SOL    HW119355   2.511   3.762   4.671 -0.8479  2.4187 -1.0955
 2632SOL    HW219356   2.471   3.683   4.779  0.3302  0.1585  0.7615
 2633SOL     OW19357   0.883   1.600   4.613  0.4672 -0.6313 -0.3423
 2633SOL    HW119358   0.937   1.654   4.670 -1.8319  0.3145  0.9283
 2633SOL    HW219359   0.817   1.581   4.680  1.5504 -2.1249  0.3054
 2634SOL     OW19360   4.591   4.669  12.563  0.3501  0.5191  0.2015
 2634SOL    HW119361   4.630   4.719  12.636 -0.2668  0.0715  0.8327
 2634SOL    HW219362   4.611   4.578  12.585  0.0888  0.7847  1.5338
 2635SOL     OW19363   2.626   3.913   3.493 -0.4881  0.3880  0.5731
 2635SOL    HW119364   2.604   3.937   3.403 -0.8408 -0.3526  0.4636
 2635SOL    HW219365   2.564   3.965   3.544 -3.4162 -1.0321 -1.5768
 2636SOL     OW19366   3.485   1.747   4.626 -0.3623 -0.3192  0.7865
 2636SOL    HW119367   3.451   1.738   4.715  0.9769 -0.5619  1.2762
 2636SOL    HW219368   3.575   1.714   4.627  0.3614  1.7182  1.5245
 2637SOL     OW19369   2.495   1.134   5.203  0.3848  0.5720  0.2656
 2637SOL    HW119370   2.541   1.213   5.232 -0.9829  1.1945  0.7213
 2637SOL    HW219371   2.477   1.093   5.288 -0.7686  0.1154 -0.1999
 2638SOL     OW19372   0.137   1.275   5.062 -0.0607  0.1913  0.0326
 2638SOL    HW119373   0.229   1.287   5.087 -0.4296  1.9369  0.5932
 2638SOL    HW219374   0.133   1.181   5.047 -0.2932  0.1479  0.3937
 2639SOL     OW19375   1.903   3.279   7.800 -0.0525  0.1378 -0.1033
 2639SOL    HW119376   1.969   3.324   7.748  0.2167  0.6827  0.7177
 2639SOL    HW219377   1.924   3.187   7.783 -0.5392  0.0430 -0.1874
 2640SOL     OW19378   1.439   3.866   7.287  0.5876  0.0806  0.1423
 2640SOL    HW119379   1.482   3.813   7.354  2.7773 -0.3805 -1.6290
 2640SOL    HW219380   1.477   3.824   7.210  1.4142 -0.1433  0.6766
 2641SOL     OW19381   0.269   3.345  17.003  0.0702 -0.3894  0.1194
 2641SOL    HW119382   0.353   3.348  17.050 -0.6950 -0.8021  1.5354
 2641SOL    HW219383   0.288   3.355  16.910  0.4881 -0.9202  0.1454
 2642SOL     OW19384   0.507   4.258  11.866  0.7542 -0.6404  0.2361
 2642SOL    HW119385   0.524   4.187  11.927 -2.2712 -0.9809  0.6982
 2642SOL    HW219386   0.443   4.310  11.915  1.4507  1.6889 -1.3101
 2643SOL     OW19387   0.518   3.348   3.310 -0.8336  0.5061  0.3148
 2643SOL    HW119388   0.470   3.430   3.310 -0.6825  0.5951 -0.1012
 2643SOL    HW219389   0.467   3.314   3.236  0.3849 -2.6322  0.9324
 2644SOL     OW19390   3.831   2.310   7.871  0.4374  0.3468  0.5734
 2644SOL    HW119391   3.843   2.375   7.940  0.2819 -0.2609  1.1748
 2644SOL    HW219392   3.841   2.225   7.914  0.1389 -0.7791 -1.5673
 2645SOL     OW19393   1.877   3.557   7.830 -0.5199  0.0147  0.3079
 2645SOL    HW119394   1.884   3.461   7.824 -1.4425 -0.1688  2.0536
 2645SOL    HW219395   1.869   3.582   7.922  0.2057 -0.0311  0.3838
 2646SOL     OW19396   3.776   1.516   6.326  0.3287 -0.3135  0.1105
 2646SOL    HW119397   3.834   1.448   6.291 -1.2958 -1.3620 -0.5707
 2646SOL    HW219398   3.829   1.595   6.314  0.5343 -0.1487  2.1204
 2647SOL     OW19399   0.526   4.211   3.742  0.0452 -0.7153 -0.6756
 2647SOL    HW119400   0.599   4.272   3.734 -1.5178  1.2931  0.1369
 2647SOL    HW219401   0.523   4.206   3.837 -0.3435 -0.9849 -0.7005
 2648SOL     OW19402   2.642   0.679   7.880  0.0619 -0.4039 -0.1435
 2648SOL    HW119403   2.639   0.713   7.791 -2.7873  0.2535  0.2088
 2648SOL    HW219404   2.593   0.749   7.921 -0.0043 -0.3013 -0.4016
 2649SOL     OW19405   3.812   0.253   9.506  0.0939 -0.2131  0.2607
 2649SOL    HW119406   3.892   0.238   9.557 -0.0029 -1.8832 -0.0783
 2649SOL    HW219407   3.845   0.235   9.419 -1.6014 -1.8506 -0.0462
 2650SOL     OW19408   0.318   4.092   0.917  0.3510  0.4349  0.4751
 2650SOL    HW119409   0.291   4.181   0.939  1.0539  0.7323  0.1306
 2650SOL    HW219410   0.358   4.073   1.002  3.7242  2.0387 -0.7488
 2651SOL     OW19411   2.786   2.017   3.168 -0.0983  0.2233 -0.0473
 2651SOL    HW119412   2.733   2.015   3.088  1.7453  0.9633 -1.3004
 2651SOL    HW219413   2.842   1.939   3.163 -0.5117 -0.1161  0.8036
 2652SOL     OW19414   0.026   4.572   3.231 -0.4902 -0.5629  0.6651
 2652SOL    HW119415   0.060   4.658   3.206 -1.9176 -1.1602 -3.3232
 2652SOL    HW219416   0.059   4.575   3.321 -0.5006 -1.4055  0.6956
 2653SOL     OW19417   0.303   0.920  14.783 -0.7283  0.0219 -0.3796
 2653SOL    HW119418   0.386   0.966  14.794 -0.5276 -0.7699  1.2604
 2653SOL    HW219419   0.277   0.925  14.875 -1.0944 -0.9769 -0.4305
 2654SOL     OW19420   3.077   1.963   2.182 -0.6196  0.3109  0.4232
 2654SOL    HW119421   3.032   1.964   2.097  1.4563 -1.0756 -0.6813
 2654SOL    HW219422   3.168   1.952   2.157 -1.2908  0.1386 -1.9675
 2655SOL     OW19423   0.859   2.753   7.961 -0.8352 -0.4234 -0.0455
 2655SOL    HW119424   0.773   2.791   7.943  0.5011  1.4385 -2.5011
 2655SOL    HW219425   0.849   2.730   8.054  1.5731 -0.2378  0.2483
 2656SOL     OW19426   4.289   1.213   8.395 -0.1160  0.4732  0.2174
 2656SOL    HW119427   4.204   1.172   8.380  0.3499 -0.7981  1.0805
 2656SOL    HW219428   4.278   1.284   8.331  1.7603  0.0488 -0.5770
 2657SOL     OW19429   2.672   2.045   6.126 -0.8766  0.3686 -0.1559
 2657SOL    HW119430   2.753   2.031   6.078 -0.0921  1.1563  0.9162
 2657SOL    HW219431   2.677   2.125   6.178  0.6473  0.6877 -0.7856
 2658SOL     OW19432   1.781   3.264   8.641  0.3978  0.7205  0.2130
 2658SOL    HW119433   1.702   3.238   8.593  0.7818  0.9953 -0.5797
 2658SOL    HW219434   1.761   3.230   8.728 -1.7128  0.9377 -0.1833
 2659SOL     OW19435   3.138   3.869   3.234  0.5619  0.3229 -0.0828
 2659SOL    HW119436   3.194   3.932   3.280  0.1712  1.5509 -1.3100
 2659SOL    HW219437   3.205   3.834   3.175  2.1508 -1.5871  2.8221
 2660SOL     OW19438   3.213   4.493   6.291  0.1673  0.4241 -0.3855
 2660SOL    HW119439   3.248   4.467   6.206 -1.9806  0.7385 -1.3786
 2660SOL    HW219440   3.152   4.419   6.297  1.7703 -0.9758 -1.4554
 2661SOL     OW19441   4.080   2.531  17.411 -0.2078 -0.3809 -0.2540
 2661SOL    HW119442   4.039   2.614  17.388 -1.4938 -1.3416 -1.4259
 2661SOL    HW219443   4.050   2.483  17.334  1.4585 -0.5163 -0.8171
 2662SOL     OW19444   3.998   3.845   5.385 -0.6561  0.1018 -0.0304
 2662SOL    HW119445   4.070   3.886   5.434 -0.2638 -0.0964 -0.4423
 2662SOL    HW219446   4.024   3.872   5.297 -1.0202  0.2515 -0.0896
 2663SOL     OW19447   0.276   3.489   4.138 -0.2325 -0.3489 -0.0176
 2663SOL    HW119448   0.232   3.477   4.054 -0.5275  1.7597 -0.1602
 2663SOL    HW219449   0.223   3.427   4.189 -0.3984 -2.1753 -2.4407
 2664SOL     OW19450   4.166   4.002   4.098 -0.1274  0.0202 -0.0455
 2664SOL    HW119451   4.197   4.020   4.009  0.0006 -1.2538 -0.2685
 2664SOL    HW219452   4.073   4.021   4.090 -0.1971 -0.0923  0.5034
 2665SOL     OW19453   4.229   2.956  14.328 -0.2325 -0.0524 -0.2014
 2665SOL    HW119454   4.259   2.893  14.262 -0.0168 -0.5538  0.3737
 2665SOL    HW219455   4.159   2.906  14.371  0.7058 -1.8738 -0.8018
 2666SOL     OW19456   3.110   3.840   5.282  0.1726 -0.1555  0.6514
 2666SOL    HW119457   3.195   3.881   5.271  0.6220 -0.6081  2.3859
 2666SOL    HW219458   3.089   3.859   5.374  0.6456 -0.7816  0.8862
 2667SOL     OW19459   2.668   0.048  13.603 -0.1567 -0.9641  0.5304
 2667SOL    HW119460   2.706   0.020  13.687 -1.0239  1.9831  1.8922
 2667SOL    HW219461   2.702   0.136  13.587  1.3992 -1.5398  0.6280
 2668SOL     OW19462   1.593   0.740   8.219 -0.3318  0.1078  0.4525
 2668SOL    HW119463   1.577   0.721   8.311 -0.7781  1.7354  0.7219
 2668SOL    HW219464   1.684   0.711   8.218 -0.1200  0.7793 -0.2733
 2669SOL     OW19465   3.828   0.571   2.540  0.1237 -0.4202  0.0631
 2669SOL    HW119466   3.903   0.584   2.597  1.9341 -0.5848 -2.2919
 2669SOL    HW219467   3.755   0.558   2.601  0.3259 -1.1413  0.1578
 2670SOL     OW19468   2.482   2.019   3.293 -0.4584  0.0821 -0.3868
 2670SOL    HW119469   2.480   1.964   3.214 -0.2127 -0.2341 -0.1731
 2670SOL    HW219470   2.468   1.959   3.366 -0.8369 -0.6818 -1.0806
 2671SOL     OW19471   3.213   0.330   7.241 -0.5997  0.3858 -0.4936
 2671SOL    HW119472   3.272   0.382   7.186  0.3787 -0.5574 -0.3378
 2671SOL    HW219473   3.264   0.249   7.234  0.2706  0.8244  0.9645
 2672SOL     OW19474   2.883   3.198   6.102 -0.2150  0.2876 -0.6400
 2672SOL    HW119475   2.974   3.192   6.071 -0.1049  0.0993 -0.2866
 2672SOL    HW219476   2.861   3.291   6.089 -0.9368  0.0499 -1.0934
 2673SOL     OW19477   3.927   0.229   0.418  0.0653  0.3106 -0.4656
 2673SOL    HW119478   3.852   0.272   0.377 -0.4369  2.0524  2.2878
 2673SOL    HW219479   3.936   0.157   0.357  1.0397  0.6764 -0.7562
 2674SOL     OW19480   0.557   1.098   7.655  0.0075  0.0433  0.4950
 2674SOL    HW119481   0.605   1.028   7.612 -0.4971 -1.4067  2.2808
 2674SOL    HW219482   0.580   1.086   7.747  0.1349  0.3534  0.5053
 2675SOL     OW19483   0.522   3.272  16.637 -0.0027  0.2021 -0.3638
 2675SOL    HW119484   0.453   3.335  16.660 -1.3261 -1.4901  0.2446
 2675SOL    HW219485   0.528   3.223  16.718 -0.5488 -1.0321 -1.0729
 2676SOL     OW19486   2.965   3.034  12.214 -0.1449  0.3362  0.0404
 2676SOL    HW119487   2.943   3.074  12.298  2.0935  0.4147  0.5874
 2676SOL    HW219488   3.004   3.112  12.175  1.5733 -0.0763  0.9376
 2677SOL     OW19489   1.631   2.437   9.239 -0.6163 -0.3842 -0.0166
 2677SOL    HW119490   1.611   2.362   9.294  0.1795 -0.9912 -0.5555
 2677SOL    HW219491   1.709   2.464   9.287  0.0865 -1.9388 -0.2821
 2678SOL     OW19492   4.553   2.005   5.783 -0.0070  0.4094 -0.0283
 2678SOL    HW119493   4.643   1.973   5.790  0.5739  2.3359  1.2800
 2678SOL    HW219494   4.528   1.954   5.706  0.1201  1.4151 -0.7459
 2679SOL     OW19495   0.950   1.999   6.832  0.5071  0.3532  0.5325
 2679SOL    HW119496   0.876   2.008   6.772  0.1573  1.0310  1.0634
 2679SOL    HW219497   1.019   1.964   6.777 -0.6125 -0.2076 -0.5136
 2680SOL     OW19498   3.217   2.433   4.453  1.0279  0.2798 -0.3833
 2680SOL    HW119499   3.159   2.442   4.377 -0.5496  1.1706  0.9286
 2680SOL    HW219500   3.187   2.345   4.475 -0.9362  0.9179 -0.4915
 2681SOL     OW19501   2.228   0.039   3.143  0.0929 -0.7812  0.3531
 2681SOL    HW119502   2.263   0.092   3.216 -0.9416 -0.8737  0.9047
 2681SOL    HW219503   2.196   4.697   3.201  0.4236 -1.2974 -0.0795
 2682SOL     OW19504   3.993   4.652  16.966  0.3112 -0.2996  0.1021
 2682SOL    HW119505   3.903   4.620  16.953  0.3488 -0.4796  0.2924
 2682SOL    HW219506   4.024   4.676  16.879  1.2772 -0.8660  0.2927
 2683SOL     OW19507   3.079   1.648   9.693 -0.4654  0.2740 -0.4594
 2683SOL    HW119508   3.133   1.637   9.614  0.6536  0.7341  0.2331
 2683SOL    HW219509   3.096   1.734   9.731  1.4758 -0.3285  0.0703
 2684SOL     OW19510   0.627   3.262   6.216  0.3931 -0.3580 -0.1686
 2684SOL    HW119511   0.647   3.181   6.168  1.9894  1.3792 -2.4296
 2684SOL    HW219512   0.635   3.331   6.150  1.0798  1.1586  1.4976
 2685SOL     OW19513   4.141   2.583  14.358 -0.2794 -0.1502 -0.3842
 2685SOL    HW119514   4.096   2.661  14.388 -0.0115 -0.2883  0.4037
 2685SOL    HW219515   4.187   2.621  14.283  1.0715 -0.3798  0.3226
 2686SOL     OW19516   2.333   3.701   9.216 -0.2077 -0.0586  0.2816
 2686SOL    HW119517   2.382   3.640   9.270  0.8802 -0.2721 -0.9336
 2686SOL    HW219518   2.401   3.756   9.176 -0.5197  0.0017 -0.1592
 2687SOL     OW19519   4.507   2.542   7.802 -0.7946 -0.2661 -0.2331
 2687SOL    HW119520   4.428   2.579   7.761 -0.2646 -0.1024 -1.1041
 2687SOL    HW219521   4.460   2.471   7.847 -1.7066  1.3609  1.3989
 2688SOL     OW19522   2.549   0.768   4.234  0.0546 -0.3987  0.4347
 2688SOL    HW119523   2.532   0.845   4.179  1.1329 -0.5481 -0.1131
 2688SOL    HW219524   2.505   0.800   4.313 -0.9529 -0.1315 -0.2241
 2689SOL     OW19525   3.432   0.827   0.646 -0.4778  0.0938 -0.1474
 2689SOL    HW119526   3.348   0.834   0.692 -0.0030 -0.2558  0.7869
 2689SOL    HW219527   3.432   0.892   0.577  2.0278  0.7534  0.4735
 2690SOL     OW19528   3.607   3.479   6.785 -0.4656 -0.3219 -0.3153
 2690SOL    HW119529   3.514   3.497   6.770  0.1693  2.6547 -0.4761
 2690SOL    HW219530   3.614   3.534   6.863  0.0628 -2.8453  1.4221
 2691SOL     OW19531   2.832   4.396   2.600  0.0111 -0.4602  0.1577
 2691SOL    HW119532   2.772   4.470   2.588  0.8848  0.6235  2.6008
 2691SOL    HW219533   2.916   4.436   2.623 -1.3618  2.9413 -0.5942
 2692SOL     OW19534   0.877   1.513   6.466  0.2739  1.1586 -0.1053
 2692SOL    HW119535   0.812   1.580   6.447  0.4615  1.5923  0.7918
 2692SOL    HW219536   0.892   1.516   6.561  2.1468  1.7825 -0.4205
 2693SOL     OW19537   3.745   1.006   8.802 -0.2374 -0.1521 -0.0050
 2693SOL    HW119538   3.784   1.060   8.871  0.9661 -0.0341 -0.7581
 2693SOL    HW219539   3.803   0.930   8.798 -1.8407 -1.2758 -1.6545
 2694SOL     OW19540   2.229   0.301   0.702  0.5216  0.3960 -0.0079
 2694SOL    HW119541   2.243   0.392   0.675  0.4079 -0.1824 -2.0011
 2694SOL    HW219542   2.218   0.319   0.795 -0.5783  0.1493 -0.0808
 2695SOL     OW19543   0.316   4.658  12.462  0.6509 -0.2326 -0.0223
 2695SOL    HW119544   0.268   4.687  12.384 -1.4903 -0.7682  1.1016
 2695SOL    HW219545   0.405   4.663  12.427  1.2323  0.6304  1.5892
 2696SOL     OW19546   1.759   3.461  17.433  0.1893 -0.6234 -0.4504
 2696SOL    HW119547   1.779   3.413  17.353 -0.5116 -0.9379 -0.4397
 2696SOL    HW219548   1.784   3.392  17.494 -0.7716 -0.2223  0.4046
 2697SOL     OW19549   1.006   4.206   4.602 -0.1981  0.2520 -0.3421
 2697SOL    HW119550   1.068   4.195   4.530 -1.0954 -0.4849 -0.9978
 2697SOL    HW219551   0.975   4.116   4.612 -0.7147  0.5521  0.7282
 2698SOL     OW19552   4.612   3.168  10.658 -0.4500  0.5292  0.2728
 2698SOL    HW119553   4.603   3.177  10.563  0.5115 -1.2284 -0.0015
 2698SOL    HW219554   4.680   3.234  10.672 -1.1870  1.8079 -2.1986
 2699SOL     OW19555   1.122   3.316   7.782 -0.4866 -0.2379  0.1149
 2699SOL    HW119556   1.104   3.224   7.764  0.4322 -0.1594 -1.2341
 2699SOL    HW219557   1.112   3.354   7.695 -0.1619  0.5959  0.4360
 2700SOL     OW19558   0.553   2.091   3.384 -0.1912 -0.4544 -0.2269
 2700SOL    HW119559   0.475   2.127   3.425 -2.0237 -1.1599 -3.0631
 2700SOL    HW219560   0.553   2.139   3.302 -0.3718 -1.5082 -0.8454
 2701SOL     OW19561   0.561   0.289   5.666 -0.0045 -0.1120 -0.2712
 2701SOL    HW119562   0.550   0.228   5.593 -1.3154  0.0149 -0.1881
 2701SOL    HW219563   0.609   0.241   5.733 -0.3921 -1.4726 -0.9814
 2702SOL     OW19564   3.105   1.217  12.975  0.5466 -0.2708  0.0272
 2702SOL    HW119565   3.171   1.165  12.931  1.1561  0.6245 -0.1288
 2702SOL    HW219566   3.056   1.252  12.900 -1.7667 -0.6368  1.3658
 2703SOL     OW19567   2.355   0.708  14.022 -0.3118  0.3870 -0.0858
 2703SOL    HW119568   2.442   0.713  13.982 -0.5607  1.4679 -0.4832
 2703SOL    HW219569   2.320   0.785  13.978 -1.0985 -0.7860 -1.5263
 2704SOL     OW19570   3.000   0.218   5.193  0.2578 -0.0402  0.2634
 2704SOL    HW119571   2.924   0.256   5.149  0.1167 -2.2876 -1.4179
 2704SOL    HW219572   3.036   0.157   5.129  0.6197  0.8502 -0.3866
 2705SOL     OW19573   1.503   1.408  13.908 -0.0267  0.4055 -0.1200
 2705SOL    HW119574   1.449   1.369  13.840  0.1654 -1.0781  0.5718
 2705SOL    HW219575   1.525   1.488  13.861 -1.2899  0.8754  0.0849
 2706SOL     OW19576   4.259   4.445   8.666 -0.6022 -0.8422 -0.1181
 2706SOL    HW119577   4.284   4.372   8.610 -1.8690 -0.4937 -1.1480
 2706SOL    HW219578   4.284   4.417   8.754 -2.5818  2.1966  1.4226
 2707SOL     OW19579   4.523   0.195   7.779  0.2193 -0.1316 -0.4760
 2707SOL    HW119580   4.469   0.120   7.755 -0.3055 -1.2381  4.3120
 2707SOL    HW219581   4.585   0.205   7.706 -0.8635  0.7319 -1.2907
 2708SOL     OW19582   2.128   4.500   3.155  0.3739 -0.1634 -0.2575
 2708SOL    HW119583   2.153   4.434   3.219  0.1823 -1.1274 -1.1819
 2708SOL    HW219584   2.159   4.454   3.077 -1.0419  1.7613 -1.9836
 2709SOL     OW19585   3.923   0.935  12.771  0.0084  0.5546  0.7111
 2709SOL    HW119586   3.995   0.873  12.766 -0.1495  0.5252 -1.4128
 2709SOL    HW219587   3.986   1.006  12.782 -1.2570  1.6137  1.1687
 2710SOL     OW19588   1.747   2.653   3.232 -0.0507  0.3562 -0.1703
 2710SOL    HW119589   1.815   2.617   3.175 -0.0331 -0.3077  0.2772
 2710SOL    HW219590   1.675   2.593   3.219  1.6221 -1.3986 -1.3102
 2711SOL     OW19591   0.092   4.441   3.671 -0.5275  0.1116  0.7069
 2711SOL    HW119592   0.065   4.393   3.749 -0.5289  0.2696  0.8042
 2711SOL    HW219593   0.186   4.427   3.682 -0.4384 -0.5176 -0.9085
 2712SOL     OW19594   4.550   2.362  10.246 -0.2175  0.0303 -0.0178
 2712SOL    HW119595   4.542   2.377  10.340 -2.4594  4.6277 -0.9237
 2712SOL    HW219596   4.620   2.425  10.229 -0.0896 -0.1093 -0.0136
 2713SOL     OW19597   4.687   4.497  12.369  0.6730 -0.2666  0.1590
 2713SOL    HW119598   4.636   4.548  12.432  2.5824  1.5310  0.2515
 2713SOL    HW219599   0.043   4.492  12.416  1.2704  1.0248 -0.7727
 2714SOL     OW19600   4.275   2.664   4.141  0.0739 -0.0398  0.0650
 2714SOL    HW119601   4.206   2.710   4.189 -0.4324 -0.1624 -0.5519
 2714SOL    HW219602   4.327   2.738   4.108 -2.3730  1.4956 -0.2807
 2715SOL     OW19603   0.282   3.141   8.293 -0.0739  0.0821 -0.5272
 2715SOL    HW119604   0.237   3.209   8.343 -0.4771 -1.1444  0.7699
 2715SOL    HW219605   0.207   3.083   8.276 -1.2925  1.2296  0.9160
 2716SOL     OW19606   1.986   2.406   5.246  0.2411  0.8380  0.2519
 2716SOL    HW119607   1.991   2.370   5.335 -0.8010  2.4887  0.9563
 2716SOL    HW219608   1.892   2.417   5.241  0.1381 -0.7312 -1.6990
 2717SOL     OW19609   2.243   3.006  10.543 -0.5421 -0.3769 -0.3215
 2717SOL    HW119610   2.191   3.046  10.612  0.9226 -1.4326  1.4078
 2717SOL    HW219611   2.331   3.044  10.552 -2.1922  3.3293 -0.0137
 2718SOL     OW19612   0.985   0.095  13.401  0.1678 -0.5177  0.3090
 2718SOL    HW119613   0.934   0.126  13.476  2.1268  0.1442  1.3737
 2718SOL    HW219614   0.987   0.000  13.413 -0.5975 -0.7724 -1.4703
 2719SOL     OW19615   4.399   4.308   7.871  0.1084 -0.3823  0.4109
 2719SOL    HW119616   4.362   4.228   7.834  2.9096 -0.9957 -1.0314
 2719SOL    HW219617   4.427   4.277   7.957 -1.1731 -0.2510  0.8700
 2720SOL     OW19618   1.457   4.198   7.651  0.4254  0.0987 -0.3742
 2720SOL    HW119619   1.426   4.136   7.716 -0.4746  0.3460 -0.5726
 2720SOL    HW219620   1.415   4.169   7.570  1.0910 -2.8001  0.3298
 2721SOL     OW19621   3.891   0.157   2.656  0.3314  0.3606  0.1834
 2721SOL    HW119622   3.923   0.248   2.655 -1.0138  0.8633  1.7249
 2721SOL    HW219623   3.966   0.101   2.678  0.7408  0.9201  0.2222
 2722SOL     OW19624   4.071   3.568   4.812 -0.0567  0.2415  0.0230
 2722SOL    HW119625   4.122   3.646   4.790  4.8380 -1.9655  3.5766
 2722SOL    HW219626   4.039   3.589   4.900 -0.5033  0.7993 -0.2712
 2723SOL     OW19627   3.359   2.806   7.975  0.5313 -0.4314 -0.2891
 2723SOL    HW119628   3.288   2.787   7.912 -0.0978 -0.1183  0.3244
 2723SOL    HW219629   3.434   2.774   7.925 -0.0957 -2.5644  0.1138
 2724SOL     OW19630   2.523   4.160  12.037 -0.2075 -0.0179 -0.1482
 2724SOL    HW119631   2.574   4.097  11.986 -1.9589 -2.4285  1.0517
 2724SOL    HW219632   2.483   4.093  12.093 -0.6974 -1.1272 -1.8112
 2725SOL     OW19633   2.725   3.948   0.795  0.0535  0.3485 -0.1884
 2725SOL    HW119634   2.757   4.038   0.791  1.3248 -0.1064 -0.5422
 2725SOL    HW219635   2.639   3.960   0.756 -0.3643 -0.4555  0.4924
 2726SOL     OW19636   3.592   2.189   7.711  0.4844  0.2597 -0.1501
 2726SOL    HW119637   3.601   2.228   7.799  2.0418  0.8532 -0.5660
 2726SOL    HW219638   3.618   2.098   7.724  1.1938  0.4860 -0.0129
 2727SOL     OW19639   0.683   1.367   6.670  0.2884  0.5441 -0.1417
 2727SOL    HW119640   0.674   1.393   6.579  1.2258 -0.3959 -0.4950
 2727SOL    HW219641   0.718   1.449   6.706 -1.0507  0.1529  2.1118
 2728SOL     OW19642   1.730   2.809   6.548 -0.1956 -0.2931  0.5162
 2728SOL    HW119643   1.726   2.835   6.640  2.4685  0.2678  0.4686
 2728SOL    HW219644   1.676   2.730   6.552  0.0391 -0.4546  0.4517
 2729SOL     OW19645   2.343   2.359   7.777  0.3764 -0.2809 -0.4471
 2729SOL    HW119646   2.250   2.376   7.762  0.1825  0.7457  2.0619
 2729SOL    HW219647   2.349   2.273   7.735 -1.1241 -1.6590  2.1529
 2730SOL     OW19648   2.878   2.251  14.682  0.0661  0.0820  0.0622
 2730SOL    HW119649   2.785   2.228  14.684  0.0754  0.1050  0.7596
 2730SOL    HW219650   2.874   2.345  14.668 -1.0597 -0.1305 -1.0091
 2731SOL     OW19651   2.916   2.316  15.145  0.3497 -0.3462 -0.2528
 2731SOL    HW119652   2.984   2.342  15.082  0.0724  0.2004 -0.3241
 2731SOL    HW219653   2.970   2.303  15.223  2.6952  0.3280 -1.7474
 2732SOL     OW19654   4.383   4.424   8.333 -0.0133 -0.2695  0.2479
 2732SOL    HW119655   4.305   4.476   8.314  0.7752  1.0381  0.5647
 2732SOL    HW219656   4.444   4.496   8.349 -0.8796  1.0598 -2.4185
 2733SOL     OW19657   4.353   1.225   4.423 -0.0123  0.5303  0.3841
 2733SOL    HW119658   4.322   1.139   4.452 -0.7511  1.2613  1.7371
 2733SOL    HW219659   4.273   1.256   4.382 -0.0838 -0.2102 -0.0429
 2734SOL     OW19660   1.257   1.274  16.204 -0.3170 -0.0370 -0.7685
 2734SOL    HW119661   1.278   1.215  16.277 -1.8665  1.0265  0.5267
 2734SOL    HW219662   1.178   1.233  16.168 -0.3288  0.3125 -1.1424
 2735SOL     OW19663   3.548   1.622   8.469  0.2247 -0.3042  0.5561
 2735SOL    HW119664   3.586   1.536   8.487 -1.3558 -0.8278  1.4089
 2735SOL    HW219665   3.625   1.676   8.486 -0.8538  1.1853  0.6407
 2736SOL     OW19666   3.356   4.368   7.553  0.2602 -0.5987 -0.1307
 2736SOL    HW119667   3.263   4.352   7.539  0.7655 -1.2548 -2.7878
 2736SOL    HW219668   3.392   4.291   7.598  1.9068  0.8984  1.1282
 2737SOL     OW19669   2.175   3.682   7.011 -0.5705  0.5060 -0.1548
 2737SOL    HW119670   2.105   3.689   7.076  0.0428  1.6272  0.3739
 2737SOL    HW219671   2.138   3.616   6.952  0.3077  0.1765 -0.3308
 2738SOL     OW19672   3.122   4.464   8.692 -0.1806 -0.9087  0.2985
 2738SOL    HW119673   3.120   4.395   8.626  0.9764  0.9595 -1.6690
 2738SOL    HW219674   3.034   4.500   8.682  0.7743  0.9947 -1.1582
 2739SOL     OW19675   1.680   0.817   0.439  0.9173  0.0437  0.0599
 2739SOL    HW119676   1.773   0.827   0.458  1.6837 -2.9776 -2.0592
 2739SOL    HW219677   1.686   0.786   0.349 -0.5893 -0.6693  0.1983
 2740SOL     OW19678   0.823   0.285   8.079  0.2560 -0.7745 -0.4630
 2740SOL    HW119679   0.786   0.349   8.139 -0.6707 -0.3436 -1.4803
 2740SOL    HW219680   0.857   0.339   8.007  2.5231 -1.8247 -0.1793
 2741SOL     OW19681   2.332   2.495   6.544  0.0072  0.5390 -0.6094
 2741SOL    HW119682   2.258   2.449   6.584 -0.3205 -0.8090 -2.7317
 2741SOL    HW219683   2.386   2.420   6.517 -1.1385 -0.0397 -1.2523
 2742SOL     OW19684   4.664   0.144   4.214 -0.5473  0.4834  0.2126
 2742SOL    HW119685   4.681   0.165   4.122 -2.7537 -0.0357 -0.3065
 2742SOL    HW219686   4.584   0.092   4.210 -0.3882  0.3355 -1.2155
 2743SOL     OW19687   0.812   3.042   2.503  0.2453  0.2473 -0.4681
 2743SOL    HW119688   0.802   3.086   2.418 -1.7762  0.5370 -0.0862
 2743SOL    HW219689   0.749   3.098   2.550 -0.3618 -1.7979  1.1289
 2744SOL     OW19690   3.827   1.586  17.117  0.4164 -0.0317  0.0082
 2744SOL    HW119691   3.795   1.675  17.097 -1.0940 -0.4051  0.8138
 2744SOL    HW219692   3.834   1.554  17.027 -0.5724 -1.4453  0.4383
 2745SOL     OW19693   0.432   4.217   8.096 -0.6973 -0.5753  0.2835
 2745SOL    HW119694   0.366   4.155   8.065  0.1619 -0.3638 -1.9947
 2745SOL    HW219695   0.453   4.175   8.179 -2.5712  0.7185  1.4308
 2746SOL     OW19696   3.301   4.597   9.584  0.6335 -0.2401  0.3251
 2746SOL    HW119697   3.243   4.652   9.531  1.0203 -0.5797 -0.4531
 2746SOL    HW219698   3.372   4.576   9.524  1.1388 -0.3698  0.9752
 2747SOL     OW19699   4.082   2.522   7.951  0.2934 -0.4756 -0.1235
 2747SOL    HW119700   4.121   2.437   7.930 -1.2167 -1.3797  0.7339
 2747SOL    HW219701   3.995   2.500   7.984 -0.6714  0.4784 -2.0537
 2748SOL     OW19702   1.560   4.223   8.322 -0.6695  0.0469 -0.4057
 2748SOL    HW119703   1.543   4.130   8.311 -2.8594  0.4932 -0.7539
 2748SOL    HW219704   1.565   4.237   8.227 -1.2298  1.1953 -0.2624
 2749SOL     OW19705   0.537   0.820   4.693  0.0220  0.1337  0.0925
 2749SOL    HW119706   0.487   0.828   4.774  0.8752 -0.6218  0.6917
 2749SOL    HW219707   0.591   0.896   4.715 -0.5656  0.9357 -1.2267
 2750SOL     OW19708   3.981   4.490   3.590 -0.1310 -0.2086  0.3399
 2750SOL    HW119709   3.896   4.484   3.635  0.1583  2.2509  1.1737
 2750SOL    HW219710   3.960   4.465   3.500 -2.4596  0.7244  0.6297
 2751SOL     OW19711   2.944   4.365  10.743 -0.0478  0.1297  0.1359
 2751SOL    HW119712   2.924   4.318  10.662 -2.4717 -1.3215  1.5448
 2751SOL    HW219713   2.853   4.387  10.764  0.1455 -0.5405  1.6669
 2752SOL     OW19714   2.694   2.292   0.095  0.5155  0.0949  0.3433
 2752SOL    HW119715   2.664   2.379   0.124  1.8334 -0.1835  2.5659
 2752SOL    HW219716   2.670   2.242   0.173 -4.2329  1.4434 -0.2235
 2753SOL     OW19717   2.315   1.866   2.674  0.1185 -0.9292 -0.2176
 2753SOL    HW119718   2.265   1.943   2.647  0.7129  0.1732  1.8523
 2753SOL    HW219719   2.249   1.830   2.733 -0.1205 -2.4806 -1.4340
 2754SOL     OW19720   0.873   1.939  13.004  0.1362 -0.0881 -0.0297
 2754SOL    HW119721   0.954   1.893  12.983  1.4980  1.6889  1.4205
 2754SOL    HW219722   0.908   2.000  13.069 -1.0223 -0.8075  1.2784
 2755SOL     OW19723   2.969   1.998   3.387 -0.2315 -0.1513 -0.4746
 2755SOL    HW119724   2.965   1.962   3.476 -0.8386 -2.6400 -1.5173
 2755SOL    HW219725   2.880   2.028   3.367  0.0208  0.8800 -0.0718
 2756SOL     OW19726   4.498   2.873   5.384 -0.3406  0.8224  0.1485
 2756SOL    HW119727   4.529   2.927   5.457 -1.7476  1.8504 -0.0271
 2756SOL    HW219728   4.524   2.929   5.312 -1.3933 -0.0823 -0.9280
 2757SOL     OW19729   3.774   4.560   2.891  1.0482  0.1921 -0.4449
 2757SOL    HW119730   3.786   4.567   2.796 -0.0262  0.2826 -0.5749
 2757SOL    HW219731   3.688   4.599   2.902  1.0733  0.1980 -0.2768
 2758SOL     OW19732   2.798   0.892   5.443  0.0745 -0.2623  0.6291
 2758SOL    HW119733   2.707   0.884   5.470 -0.7276 -2.0122 -2.6136
 2758SOL    HW219734   2.826   0.802   5.460 -0.9594 -0.9370 -1.3007
 2759SOL     OW19735   1.684   0.205   8.898 -0.0594  0.2434 -0.1488
 2759SOL    HW119736   1.721   0.177   8.814 -0.6511 -0.2894 -0.2367
 2759SOL    HW219737   1.685   0.117   8.933  3.3494  0.6716  0.7560
 2760SOL     OW19738   1.932   3.897   5.053 -0.4460  0.2444 -0.2564
 2760SOL    HW119739   1.840   3.888   5.078  0.4690 -0.8335  2.7163
 2760SOL    HW219740   1.930   3.835   4.980  0.9003 -1.4792  1.1742
 2761SOL     OW19741   1.244   3.413   5.563  0.1554  0.1085 -0.0398
 2761SOL    HW119742   1.160   3.458   5.549 -0.1007  0.3833  2.4598
 2761SOL    HW219743   1.289   3.471   5.623  1.4800  1.7629 -2.6419
 2762SOL     OW19744   0.076   0.563  10.614 -0.0393  0.4235  0.4900
 2762SOL    HW119745   0.055   0.586  10.524 -3.0657 -1.2551  0.7693
 2762SOL    HW219746   0.161   0.519  10.614 -0.7209 -0.9054  1.0176
 2763SOL     OW19747   3.370   1.375   4.882 -0.3615  0.0941  0.1024
 2763SOL    HW119748   3.442   1.347   4.938 -1.2164  0.4930  1.4036
 2763SOL    HW219749   3.293   1.344   4.930 -0.5066 -0.8382 -0.7269
 2764SOL     OW19750   2.346   0.467   9.908  0.4962 -0.1952  0.3428
 2764SOL    HW119751   2.319   0.385   9.948 -2.2577  0.2101 -0.7383
 2764SOL    HW219752   2.417   0.481   9.971  1.7217 -1.9886 -0.6346
 2765SOL     OW19753   1.679   2.272  12.162  0.7292 -0.4439  0.7115
 2765SOL    HW119754   1.625   2.196  12.143  0.8272  0.0772 -1.6809
 2765SOL    HW219755   1.744   2.260  12.092 -1.7767 -2.2312 -1.2841
 2766SOL     OW19756   0.569   4.015  11.972  0.3316 -0.2618  0.5105
 2766SOL    HW119757   0.600   3.966  12.048  1.0766 -1.3124 -0.4700
 2766SOL    HW219758   0.551   3.943  11.911 -0.9549 -1.2411  2.0272
 2767SOL     OW19759   2.001   2.685   1.489  0.1569  0.0122  0.0443
 2767SOL    HW119760   1.920   2.714   1.530 -0.7107 -2.1998 -0.1084
 2767SOL    HW219761   2.022   2.760   1.433 -1.2812 -1.7466 -2.8251
 2768SOL     OW19762   0.935   4.506   6.042  0.1857  0.0363 -0.2306
 2768SOL    HW119763   0.996   4.505   6.115  0.6364 -0.9099 -0.6195
 2768SOL    HW219764   0.894   4.420   6.035 -0.3192  0.3885 -1.5722
 2769SOL     OW19765   3.378   4.376  13.358 -0.1119  0.0867 -0.0555
 2769SOL    HW119766   3.358   4.454  13.409  1.4641 -2.2084  4.0036
 2769SOL    HW219767   3.342   4.418  13.279 -0.9836  0.2595  0.4266
 2770SOL     OW19768   3.507   0.898   8.432  0.2905 -0.1827 -0.7848
 2770SOL    HW119769   3.462   0.966   8.382  0.1286 -0.4743 -1.0360
 2770SOL    HW219770   3.471   0.817   8.396  0.2094 -0.1607 -0.7549
 2771SOL     OW19771   4.505   1.487   1.349  0.1445 -0.0030  0.3544
 2771SOL    HW119772   4.442   1.534   1.295  0.5694 -0.7394 -0.7651
 2771SOL    HW219773   4.483   1.519   1.437  0.7111 -1.0265  0.8692
 2772SOL     OW19774   0.677   2.969   2.175 -0.0061 -0.3520 -0.4989
 2772SOL    HW119775   0.706   3.054   2.208 -0.2865  0.4688 -2.3965
 2772SOL    HW219776   0.736   2.956   2.101  0.2693  0.0540 -0.3493
 2773SOL     OW19777   3.245   0.714   1.763 -0.3042 -0.4459  0.6947
 2773SOL    HW119778   3.167   0.763   1.786  1.0690  2.4814 -0.8702
 2773SOL    HW219779   3.274   0.766   1.688 -0.4776 -0.9359  0.2843
 2774SOL     OW19780   1.452   3.610   4.036  0.5606  0.0005  0.3574
 2774SOL    HW119781   1.515   3.552   4.078 -0.9680 -1.2843  0.9063
 2774SOL    HW219782   1.373   3.556   4.048  0.5385 -0.0268  0.0819
 2775SOL     OW19783   0.883   2.386   7.881  0.4602  0.1919  0.4943
 2775SOL    HW119784   0.898   2.326   7.954  0.6962  1.5523  1.5508
 2775SOL    HW219785   0.972   2.410   7.854  0.3188 -0.7524 -0.8641
 2776SOL     OW19786   3.791   2.680   0.783  0.2895 -0.1156  0.0724
 2776SOL    HW119787   3.718   2.652   0.728 -0.6460  0.0033  1.2475
 2776SOL    HW219788   3.868   2.651   0.734  0.6349 -0.3639  0.7647
 2777SOL     OW19789   4.596   2.670  17.357 -1.1586  0.0680 -0.1196
 2777SOL    HW119790   4.594   2.650  17.264  1.8420  1.5850 -0.5185
 2777SOL    HW219791   4.503   2.652  17.370 -1.4638  2.3112  0.9451
 2778SOL     OW19792   3.425   1.017   2.415  0.0195  1.0254 -0.4201
 2778SOL    HW119793   3.464   1.099   2.448 -1.7671  0.8764  2.0127
 2778SOL    HW219794   3.334   1.032   2.437 -0.0270 -0.6525  0.5240
 2779SOL     OW19795   1.108   3.048  11.983 -1.0481  0.0053  0.1868
 2779SOL    HW119796   1.091   2.958  12.012  1.6028 -1.5209 -2.9659
 2779SOL    HW219797   1.201   3.069  11.987 -0.8649 -0.4231 -1.8133
 2780SOL     OW19798   2.844   0.027  11.790 -0.0548  0.3250 -0.5883
 2780SOL    HW119799   2.824   0.008  11.882 -1.1669  0.2283 -0.8522
 2780SOL    HW219800   2.933   0.062  11.791 -0.6479  1.8401 -0.5128
 2781SOL     OW19801   3.222   0.548   5.826 -0.0090  0.2025 -0.0731
 2781SOL    HW119802   3.175   0.497   5.760  2.8165 -1.3704 -0.8706
 2781SOL    HW219803   3.265   0.616   5.774 -2.0338  1.0102 -0.6996
 2782SOL     OW19804   0.885   4.100   2.751 -0.0521  0.0042  0.3034
 2782SOL    HW119805   0.793   4.093   2.777 -0.2401  1.7415  0.1065
 2782SOL    HW219806   0.885   4.035   2.681  0.6530 -0.8269  1.0723
 2783SOL     OW19807   0.588   1.393   5.241  0.1887  0.1605 -0.8341
 2783SOL    HW119808   0.619   1.351   5.321  0.8370  1.3365 -0.4622
 2783SOL    HW219809   0.660   1.393   5.178  0.5644 -0.0675 -0.3970
 2784SOL     OW19810   4.026   3.328   7.598 -0.0244 -0.4154 -0.3377
 2784SOL    HW119811   3.939   3.328   7.557 -0.1747  1.8389 -0.0352
 2784SOL    HW219812   4.044   3.236   7.616 -0.1806 -0.0753  1.5254
 2785SOL     OW19813   1.594   1.321   4.388 -0.0820 -0.1273  0.0852
 2785SOL    HW119814   1.611   1.375   4.311  0.5652 -0.0568  0.2836
 2785SOL    HW219815   1.533   1.367   4.446 -1.3716 -0.8898 -0.6439
 2786SOL     OW19816   0.865   2.878   5.795 -0.0197 -0.2451  0.0706
 2786SOL    HW119817   0.770   2.883   5.784  0.0944  4.0639  1.0621
 2786SOL    HW219818   0.858   2.826   5.875 -1.6318 -1.4147 -0.8328
 2787SOL     OW19819   2.415   4.133   1.457  0.5118  0.1149  0.1241
 2787SOL    HW119820   2.419   4.156   1.364 -0.5111 -1.2110 -0.2436
 2787SOL    HW219821   2.451   4.045   1.457 -2.1226 -0.9653 -0.7052
 2788SOL     OW19822   3.140   3.921   6.742 -0.5744  0.1456 -0.0769
 2788SOL    HW119823   3.171   3.888   6.826 -0.7741  1.0238  0.3387
 2788SOL    HW219824   3.089   3.993   6.778 -1.3139 -0.8787  0.9532
 2789SOL     OW19825   0.710   3.078   0.114  0.5030 -0.0680 -0.0094
 2789SOL    HW119826   0.753   3.004   0.071 -2.2599 -3.7548  3.6137
 2789SOL    HW219827   0.631   3.042   0.154  0.7376  1.1239  1.5393
 2790SOL     OW19828   3.754   3.457  16.134  0.0245 -0.3472  0.7708
 2790SOL    HW119829   3.772   3.538  16.085  1.0318 -0.9594  0.1277
 2790SOL    HW219830   3.787   3.395  16.069 -0.2045  2.5133 -2.1204
 2791SOL     OW19831   0.493   0.800  13.906 -0.2314  0.5724 -0.2404
 2791SOL    HW119832   0.440   0.829  13.981 -1.7641 -3.1905  0.1527
 2791SOL    HW219833   0.542   0.877  13.878  0.5735 -0.9485 -2.9956
 2792SOL     OW19834   4.558   2.429   3.230  0.2271  0.1100  0.6034
 2792SOL    HW119835   4.649   2.410   3.253  0.3980  0.7581  0.4622
 2792SOL    HW219836   4.516   2.366   3.288  2.2135 -2.6410 -0.9477
 2793SOL     OW19837   0.233   3.798   4.024  0.2521 -0.4860  0.0103
 2793SOL    HW119838   0.250   3.704   4.017  1.0820 -0.1245 -2.5791
 2793SOL    HW219839   0.137   3.790   4.028  0.1321  0.2518 -1.4278
 2794SOL     OW19840   0.149   0.741   4.210  0.4435  0.2038  0.1827
 2794SOL    HW119841   0.191   0.663   4.174 -0.0658  0.6494 -1.3874
 2794SOL    HW219842   0.149   0.710   4.300 -0.4021  1.5020  0.6287
 2795SOL     OW19843   0.157   1.308  16.886  0.0788 -0.4363  0.1287
 2795SOL    HW119844   0.098   1.374  16.923  0.6916 -1.3917  2.7964
 2795SOL    HW219845   0.191   1.366  16.817 -2.2465 -0.4229 -1.0106
 2796SOL     OW19846   4.246   0.923   2.960  0.0359  0.0976 -0.0145
 2796SOL    HW119847   4.228   1.003   2.910  0.8492 -0.2674 -0.8812
 2796SOL    HW219848   4.281   0.855   2.903  1.5142  0.2814  0.6792
 2797SOL     OW19849   0.548   4.457   9.431  0.4610  0.4266 -0.5304
 2797SOL    HW119850   0.610   4.387   9.411 -0.9298 -0.1015 -2.8861
 2797SOL    HW219851   0.464   4.413   9.444  0.1789  0.6201 -1.7864
 2798SOL     OW19852   3.880   1.674   3.982 -0.3030 -0.2294  0.4874
 2798SOL    HW119853   3.870   1.581   4.002  0.6531 -1.1841 -3.4038
 2798SOL    HW219854   3.975   1.675   3.966  0.0928  1.2259  2.9829
 2799SOL     OW19855   1.528   2.750   5.057 -0.3966 -0.0852  0.3420
 2799SOL    HW119856   1.463   2.680   5.047  0.3176 -0.3252 -2.6379
 2799SOL    HW219857   1.538   2.744   5.152  0.8338  1.2760  0.2898
 2800SOL     OW19858   4.483   4.003  10.404  0.1351 -0.1878  0.6206
 2800SOL    HW119859   4.460   3.938  10.471 -1.3453  1.1900  1.4597
 2800SOL    HW219860   4.396   4.041  10.396 -0.5918 -1.3663  3.0374
 2801SOL     OW19861   4.303   4.703   5.175  0.5762 -0.3232 -0.0821
 2801SOL    HW119862   4.328   0.066   5.199 -0.4581 -0.1702  0.3975
 2801SOL    HW219863   4.369   4.694   5.106  0.5330  1.2816 -0.3346
 2802SOL     OW19864   2.594   1.916  14.278  0.8041  0.0506  0.1239
 2802SOL    HW119865   2.587   1.826  14.309 -0.9707 -0.6469 -2.3087
 2802SOL    HW219866   2.620   1.956  14.361 -2.7230 -0.5401  1.5434
 2803SOL     OW19867   3.586   0.260  13.305  0.0349  0.1508 -0.0331
 2803SOL    HW119868   3.518   0.194  13.319 -0.3288  0.1951 -1.6356
 2803SOL    HW219869   3.640   0.222  13.236 -0.6025 -0.6970 -0.0660
 2804SOL     OW19870   0.700   0.259   5.064 -0.1003 -0.1418  0.6621
 2804SOL    HW119871   0.718   0.173   5.028 -2.7429 -0.2965 -0.2439
 2804SOL    HW219872   0.720   0.241   5.156 -0.4843 -2.1594  0.3474
 2805SOL     OW19873   2.641   0.782   6.315  0.3432 -0.3773  0.0657
 2805SOL    HW119874   2.639   0.858   6.373 -2.4358  0.4782 -1.1714
 2805SOL    HW219875   2.731   0.798   6.285 -0.4209  1.5335 -1.2081
 2806SOL     OW19876   0.833   4.199   9.226  0.3061  0.3457 -0.3045
 2806SOL    HW119877   0.756   4.205   9.169 -0.5048 -0.5541  0.6840
 2806SOL    HW219878   0.790   4.221   9.309 -0.0715  1.3247 -0.7637
 2807SOL     OW19879   0.419   1.285   4.670 -0.1842 -0.6202 -0.3561
 2807SOL    HW119880   0.372   1.276   4.587 -0.2743 -0.3243 -0.3357
 2807SOL    HW219881   0.499   1.327   4.637 -0.6656  1.0946  0.6451
 2808SOL     OW19882   0.528   3.357  10.766 -0.2256 -0.0871 -0.8389
 2808SOL    HW119883   0.452   3.318  10.724 -0.6157  0.3792 -0.5710
 2808SOL    HW219884   0.599   3.336  10.706  0.1933  1.6574 -0.9588
 2809SOL     OW19885   1.659   0.947   1.242 -0.5214 -0.6183  0.0915
 2809SOL    HW119886   1.641   1.040   1.237  3.2914  0.1320  0.4243
 2809SOL    HW219887   1.569   0.917   1.254 -0.9010  1.0165  1.2606
 2810SOL     OW19888   4.634   0.402   3.486  0.6370 -0.4528  0.1391
 2810SOL    HW119889   4.575   0.477   3.494 -0.7857 -1.2282 -2.8638
 2810SOL    HW219890   4.699   0.438   3.545 -1.3635  1.8812  0.9153
 2811SOL     OW19891   1.119   1.718   8.745  0.3429  0.4840 -0.4010
 2811SOL    HW119892   1.194   1.683   8.696  0.5014  0.8895 -0.4410
 2811SOL    HW219893   1.147   1.808   8.756  0.3713  0.0991  2.7107
 2812SOL     OW19894   4.517   1.641   1.963  0.0337 -0.1657 -0.3284
 2812SOL    HW119895   4.593   1.698   1.972 -0.5640  0.5571  0.0311
 2812SOL    HW219896   4.553   1.556   1.987 -0.7362 -0.2918  0.3679
 2813SOL     OW19897   2.142   2.975   3.634 -0.1545  0.1035  0.1200
 2813SOL    HW119898   2.171   3.044   3.574 -0.0293 -1.9589 -2.1669
 2813SOL    HW219899   2.111   3.036   3.702 -3.9313 -1.4004 -0.2331
 2814SOL     OW19900   0.237   2.915   4.652 -0.0342  0.3675  0.0598
 2814SOL    HW119901   0.156   2.965   4.639 -1.7762 -2.1049  1.3549
 2814SOL    HW219902   0.195   2.834   4.681  3.2589 -1.5546 -0.5294
 2815SOL     OW19903   3.199   2.754  14.857 -0.7729 -0.0144 -0.3895
 2815SOL    HW119904   3.140   2.808  14.804  0.8266  0.9725 -1.1819
 2815SOL    HW219905   3.164   2.665  14.859  0.4006 -0.4922 -0.5394
 2816SOL     OW19906   1.568   4.246  12.990 -0.1717 -0.6027 -0.4364
 2816SOL    HW119907   1.655   4.206  12.988  0.9060  1.7544 -0.7797
 2816SOL    HW219908   1.530   4.215  13.072  0.4449 -0.6182 -0.1593
 2817SOL     OW19909   2.571   1.628   7.526  0.0030  0.4544 -0.1014
 2817SOL    HW119910   2.479   1.626   7.499  0.2154 -1.8853 -0.6067
 2817SOL    HW219911   2.565   1.671   7.611  2.4030  3.5916 -1.4848
 2818SOL     OW19912   2.161   1.179   4.186 -0.6941 -0.2055 -0.2346
 2818SOL    HW119913   2.167   1.116   4.114  1.3181 -1.1195  0.7134
 2818SOL    HW219914   2.214   1.150   4.260 -0.0218  2.0534  0.1687
 2819SOL     OW19915   1.285   0.988  16.106 -0.5378 -0.4234 -0.5742
 2819SOL    HW119916   1.197   0.954  16.118 -0.3741 -0.3134  0.8800
 2819SOL    HW219917   1.307   1.007  16.197 -1.3447  1.3090 -0.7343
 2820SOL     OW19918   0.739   4.074   6.985  0.0626 -0.2470 -0.2633
 2820SOL    HW119919   0.786   3.991   6.986  0.9397  0.2543  1.5694
 2820SOL    HW219920   0.732   4.093   7.079  0.6656 -0.2447 -0.2179
 2821SOL     OW19921   4.174   2.572   5.289 -0.5465 -0.3740 -0.6399
 2821SOL    HW119922   4.089   2.608   5.315  1.5321  1.8459  2.9125
 2821SOL    HW219923   4.218   2.548   5.370  0.5533  1.1410 -0.7967
 2822SOL     OW19924   0.492   1.993  12.991 -0.2650  0.0214 -0.1400
 2822SOL    HW119925   0.419   1.995  12.929 -1.0564 -1.1668  0.7516
 2822SOL    HW219926   0.482   2.080  13.031 -0.2047  0.9631 -2.1483
 2823SOL     OW19927   2.863   3.467   2.586 -0.4570 -0.2502  0.4480
 2823SOL    HW119928   2.947   3.456   2.631 -1.2832  0.5264  2.1600
 2823SOL    HW219929   2.804   3.502   2.652 -0.9899 -1.4111  0.5872
 2824SOL     OW19930   0.998   2.817   7.473  0.2730 -0.1619 -0.5485
 2824SOL    HW119931   0.952   2.772   7.544  0.7632  0.1247 -0.0447
 2824SOL    HW219932   1.015   2.746   7.411 -0.8569 -1.2121  0.3679
 2825SOL     OW19933   0.351   2.780   2.486 -0.1283 -0.1285  0.0855
 2825SOL    HW119934   0.385   2.814   2.403  0.2843  0.7315  0.6080
 2825SOL    HW219935   0.329   2.691   2.459  0.2686 -0.4618  0.8685
 2826SOL     OW19936   2.961   0.951  12.878  0.1104 -0.2409 -0.2464
 2826SOL    HW119937   3.020   0.991  12.814 -1.1694 -0.0355 -1.2944
 2826SOL    HW219938   2.885   1.001  12.849 -0.3277 -1.7792 -1.7190
 2827SOL     OW19939   2.240   4.267   4.981 -0.4591 -0.1260  0.0634
 2827SOL    HW119940   2.192   4.271   5.064 -0.0956  0.5981  0.2369
 2827SOL    HW219941   2.190   4.197   4.939  0.0836 -0.0004 -0.8042
 2828SOL     OW19942   0.457   1.299   6.159 -0.8752  0.2517  0.9507
 2828SOL    HW119943   0.439   1.324   6.250 -1.2924  2.0925  0.3543
 2828SOL    HW219944   0.484   1.207   6.163 -1.5121 -0.0373 -1.3096
 2829SOL     OW19945   3.767   1.629   5.108 -0.1237  0.1061  0.1410
 2829SOL    HW119946   3.826   1.705   5.113 -0.6800  0.6463 -1.8320
 2829SOL    HW219947   3.763   1.605   5.016 -1.8273  1.0865 -0.0554
 2830SOL     OW19948   3.778   4.242   0.354  0.0287 -0.2042  0.0350
 2830SOL    HW119949   3.744   4.209   0.271 -0.5982 -0.2443  0.3099
 2830SOL    HW219950   3.818   4.158   0.376 -0.9931 -0.4970  0.7451
 2831SOL     OW19951   3.041   1.902   5.222  0.0970 -0.1732  0.5841
 2831SOL    HW119952   3.081   1.986   5.199 -1.8944 -0.1334 -2.5717
 2831SOL    HW219953   3.064   1.903   5.315 -0.8271 -1.3832  0.8131
 2832SOL     OW19954   3.626   2.915  13.755  0.8230 -0.2827  0.6770
 2832SOL    HW119955   3.574   2.841  13.786 -1.1496  0.8907  0.1986
 2832SOL    HW219956   3.640   2.897  13.662 -1.4112  0.6499  0.1557
 2833SOL     OW19957   0.199   2.490  10.163  0.0413  0.8171 -0.1214
 2833SOL    HW119958   0.174   2.410  10.116 -0.4747  0.5215  0.6653
 2833SOL    HW219959   0.256   2.524  10.093 -0.0497 -3.6735 -2.4041
 2834SOL     OW19960   3.229   2.142   6.575 -0.6209  0.3981  0.2363
 2834SOL    HW119961   3.246   2.154   6.668  0.7527  2.4306 -0.2963
 2834SOL    HW219962   3.150   2.088   6.584 -0.3970  0.3748  1.9635
 2835SOL     OW19963   2.084   0.449   6.059 -0.0003 -0.0852 -0.9230
 2835SOL    HW119964   2.142   0.385   6.100 -0.1317  1.4268  1.6275
 2835SOL    HW219965   2.132   0.528   6.083 -0.9099 -0.6089  2.5417
 2836SOL     OW19966   2.471   4.557   6.950 -0.5392 -0.5540 -0.4863
 2836SOL    HW119967   2.381   4.525   6.946 -0.3665 -0.6617 -3.0786
 2836SOL    HW219968   2.458   4.652   6.952 -1.2204 -0.6242 -1.8177
 2837SOL     OW19969   2.636   3.162   6.835 -0.0151 -0.0772 -0.0242
 2837SOL    HW119970   2.550   3.205   6.828 -0.2856 -0.7420 -0.8135
 2837SOL    HW219971   2.680   3.196   6.757 -0.7380  2.3514  0.6108
 2838SOL     OW19972   0.911   4.461  11.634 -0.6423 -0.1430 -0.2105
 2838SOL    HW119973   0.871   4.548  11.625 -2.9342 -1.3316 -1.5377
 2838SOL    HW219974   0.834   4.405  11.626 -0.6402  0.1110 -2.1788
 2839SOL     OW19975   3.796   3.297   6.759 -0.0259  0.6436 -0.3044
 2839SOL    HW119976   3.758   3.273   6.674  0.2451  0.0060 -0.2495
 2839SOL    HW219977   3.730   3.363   6.780 -0.0856 -0.5916  3.3219
 2840SOL     OW19978   4.664   3.352   3.117 -0.4362  0.4252 -0.0351
 2840SOL    HW119979   4.680   3.278   3.175  0.4436  1.5424  1.1566
 2840SOL    HW219980   4.718   3.421   3.157  1.6451 -0.2737 -1.5994
 2841SOL     OW19981   1.426   3.379   7.673 -0.0524 -0.2136  0.4881
 2841SOL    HW119982   1.366   3.378   7.748 -0.6486 -2.2507 -0.0164
 2841SOL    HW219983   1.380   3.450   7.626 -0.2925 -0.7805 -0.1282
 2842SOL     OW19984   1.673   2.040   6.062  0.0664  0.2718 -0.4245
 2842SOL    HW119985   1.641   2.083   5.982 -0.1039 -0.9473 -1.0164
 2842SOL    HW219986   1.726   1.971   6.022  2.3413  1.7479  0.0747
 2843SOL     OW19987   2.722   1.849  12.174  0.9467 -0.2492 -0.1489
 2843SOL    HW119988   2.695   1.819  12.261 -0.6017 -2.8861 -1.5594
 2843SOL    HW219989   2.712   1.943  12.188  1.3292 -0.3437  0.7675
 2844SOL     OW19990   1.165   2.865   4.097 -0.0363 -0.2335 -0.4085
 2844SOL    HW119991   1.209   2.799   4.044  0.2056 -1.6310  1.5263
 2844SOL    HW219992   1.205   2.837   4.179 -0.5484 -0.8388 -0.3603
 2845SOL     OW19993   0.011   0.274   9.150  0.4216  0.0364 -0.6377
 2845SOL    HW119994   0.041   0.352   9.197  0.2523  0.5310 -1.3458
 2845SOL    HW219995   4.655   0.306   9.114  1.2794  1.9098 -0.9650
 2846SOL     OW19996   3.092   4.271   5.075 -0.2685  0.2330  0.3551
 2846SOL    HW119997   3.176   4.284   5.118 -0.2355 -1.0385  0.6875
 2846SOL    HW219998   3.042   4.224   5.143 -2.3162  1.0368 -0.5875
 2847SOL     OW19999   4.033   4.446   7.616  0.4069  0.2630  0.0844
 2847SOL    HW120000   4.104   4.475   7.673 -0.1209  1.9206 -0.0780
 2847SOL    HW220001   3.989   4.529   7.596 -0.7804 -0.6015 -0.8639
 2848SOL     OW20002   2.909   4.030   4.486  0.5098 -0.5169  0.3619
 2848SOL    HW120003   2.816   4.016   4.467  1.1605 -1.7457 -1.9138
 2848SOL    HW220004   2.916   4.000   4.576  0.7777  1.7436  1.0950
 2849SOL     OW20005   1.439   1.794   5.272 -0.1780 -0.3113 -0.4025
 2849SOL    HW120006   1.518   1.761   5.228  0.2980  0.6597 -0.2939
 2849SOL    HW220007   1.471   1.879   5.302  0.7786 -0.7057 -0.2917
 2850SOL     OW20008   0.075   4.470   0.704 -0.3228 -0.0893 -0.1022
 2850SOL    HW120009   0.114   4.457   0.618  0.5833 -0.8081  0.4265
 2850SOL    HW220010   0.092   4.563   0.718  1.0567 -0.8754  3.2916
 2851SOL     OW20011   4.062   4.329   8.305  0.1718  0.3737 -0.3074
 2851SOL    HW120012   4.114   4.354   8.229  0.5322 -1.0626 -0.5350
 2851SOL    HW220013   4.008   4.408   8.307 -0.2481  0.0697  0.4060
 2852SOL     OW20014   4.046   2.185   4.611  0.1790 -0.4908  0.3312
 2852SOL    HW120015   4.088   2.216   4.530 -1.5386 -0.8250 -0.6953
 2852SOL    HW220016   4.116   2.182   4.676  0.8331  0.2770 -0.3231
 2853SOL     OW20017   2.414   2.608   0.125 -0.3722  0.2121 -0.2863
 2853SOL    HW120018   2.402   2.521   0.164  2.5023 -0.3378 -0.6463
 2853SOL    HW220019   2.491   2.611   0.067  0.4132  0.8590  0.8050
 2854SOL     OW20020   4.448   3.668   2.426  0.1331  0.5213 -0.4281
 2854SOL    HW120021   4.359   3.634   2.425 -0.1744  1.3197  1.7877
 2854SOL    HW220022   4.487   3.623   2.501  2.1173  1.6450 -0.7890
 2855SOL     OW20023   0.286   0.742   8.265 -0.3552 -0.5534 -0.2785
 2855SOL    HW120024   0.267   0.660   8.309  0.0867 -0.9947 -0.9084
 2855SOL    HW220025   0.314   0.797   8.338 -1.5527 -0.2097 -0.0814
 2856SOL     OW20026   2.323   1.561   6.606  0.0243  0.4367  0.2930
 2856SOL    HW120027   2.305   1.467   6.611 -0.3646  0.5449  0.9546
 2856SOL    HW220028   2.386   1.563   6.534  0.6652 -1.7923  0.7926
 2857SOL     OW20029   3.286   2.241   6.195  0.1163  0.1792 -0.0716
 2857SOL    HW120030   3.192   2.250   6.215  0.0978  0.7519 -0.4218
 2857SOL    HW220031   3.328   2.270   6.276  1.1000  0.4465 -0.6786
 2858SOL     OW20032   2.280   2.703   6.025 -0.3273  0.1038  0.3857
 2858SOL    HW120033   2.224   2.645   6.076 -0.5922 -1.1017 -1.3064
 2858SOL    HW220034   2.366   2.688   6.065 -1.0388  1.4914  2.4680
 2859SOL     OW20035   4.198   1.071   7.677  0.4915 -0.6369 -0.1749
 2859SOL    HW120036   4.254   0.994   7.664  0.3868 -0.2770 -2.8128
 2859SOL    HW220037   4.252   1.149   7.664 -1.1615  0.4560 -0.3846
 2860SOL     OW20038   1.984   2.666  10.872  0.0384  0.2104 -0.5291
 2860SOL    HW120039   2.022   2.586  10.836 -1.5704 -1.5779  1.6963
 2860SOL    HW220040   1.958   2.638  10.960  0.6193 -2.1273 -1.0889
 2861SOL     OW20041   2.461   3.089  11.773  0.1712 -0.3757 -0.5598
 2861SOL    HW120042   2.367   3.072  11.778 -0.2892  1.6407 -1.8836
 2861SOL    HW220043   2.500   3.025  11.832  1.2086 -0.5509 -1.4221
 2862SOL     OW20044   3.943   0.555   4.061 -0.4965 -0.7623  0.1216
 2862SOL    HW120045   3.866   0.529   4.112 -0.9359 -0.3393 -0.3346
 2862SOL    HW220046   4.007   0.581   4.127  1.3387 -3.9874 -0.3424
 2863SOL     OW20047   0.454   0.778   5.181 -0.1080  0.7765 -0.6879
 2863SOL    HW120048   0.386   0.824   5.230  0.5563 -0.6632  1.5781
 2863SOL    HW220049   0.531   0.783   5.238  0.3908 -0.8687 -1.2273
 2864SOL     OW20050   0.332   4.071   8.959  0.5201 -0.2044  0.1720
 2864SOL    HW120051   0.332   4.134   9.031  0.2314 -0.3671  0.3091
 2864SOL    HW220052   0.417   4.032   8.980 -0.6109 -1.7220  1.9123
 2865SOL     OW20053   0.550   1.252   8.213  0.5932 -0.1975  0.3140
 2865SOL    HW120054   0.476   1.227   8.159  0.7126  0.9798 -0.3746
 2865SOL    HW220055   0.560   1.176   8.271 -0.0391  0.2778  1.0371
 2866SOL     OW20056   2.728   4.631  13.841 -0.5675  0.2436 -0.1022
 2866SOL    HW120057   2.640   4.598  13.824  0.2758 -2.5692  1.0021
 2866SOL    HW220058   2.742   4.595  13.929 -3.0316 -1.0763 -0.2456
 2867SOL     OW20059   4.582   4.394   2.392 -0.1789  0.2694  0.2932
 2867SOL    HW120060   4.541   4.373   2.309 -0.9389  1.2964  0.4122
 2867SOL    HW220061   4.516   4.358   2.451  1.2767 -0.2485  1.6271
 2868SOL     OW20062   0.235   1.278   2.727  0.0215 -0.0797  0.3309
 2868SOL    HW120063   0.203   1.226   2.654  1.2931 -0.9912  0.4181
 2868SOL    HW220064   0.192   1.359   2.701  0.8565  0.9621  2.1647
 2869SOL     OW20065   4.264   1.890   8.131 -0.3494 -0.8251  0.3151
 2869SOL    HW120066   4.198   1.942   8.085  0.2404 -0.5472 -0.2215
 2869SOL    HW220067   4.213   1.832   8.187 -2.1678  0.5744  0.0971
 2870SOL     OW20068   2.854   0.079   2.580 -0.0406 -0.1691 -0.4913
 2870SOL    HW120069   2.867   0.158   2.632  0.3211  0.7473 -1.9747
 2870SOL    HW220070   2.898   0.102   2.498  1.6006  0.1250  0.4602
 2871SOL     OW20071   1.023   2.546   9.956 -0.3323 -0.4667  0.0756
 2871SOL    HW120072   0.985   2.461   9.973  1.2662 -1.1346  0.3719
 2871SOL    HW220073   0.947   2.579   9.908 -0.2100 -0.4816 -0.1270
 2872SOL     OW20074   0.909   2.177   2.829  0.0766 -0.3900  0.2983
 2872SOL    HW120075   0.934   2.088   2.856 -0.8149 -1.7080 -3.2534
 2872SOL    HW220076   0.931   2.231   2.905  2.5762 -0.3175 -0.4875
 2873SOL     OW20077   2.089   2.667   8.768 -0.4150 -0.0302 -0.3040
 2873SOL    HW120078   2.081   2.675   8.863  2.6192 -0.4323 -0.0174
 2873SOL    HW220079   2.171   2.619   8.777 -0.0604  0.6488  0.1275
 2874SOL     OW20080   0.147   2.375  10.731  0.5367  0.0573 -0.1416
 2874SOL    HW120081   0.235   2.347  10.706 -0.0843 -1.8759 -0.1154
 2874SOL    HW220082   0.090   2.299  10.722  0.7911  0.1993 -2.7662
 2875SOL     OW20083   3.934   3.913   1.713  0.4492 -0.6937 -0.0735
 2875SOL    HW120084   3.965   3.895   1.802  0.5426  0.0087  0.0364
 2875SOL    HW220085   3.981   3.841   1.672 -0.0132 -1.1813  0.2445
 2876SOL     OW20086   0.368   0.426   5.838  0.0128 -0.3251 -0.4029
 2876SOL    HW120087   0.442   0.393   5.787 -0.1113  2.0074 -2.0825
 2876SOL    HW220088   0.406   0.510   5.864 -1.4592 -0.0038  0.6924
 2877SOL     OW20089   3.421   2.004   4.897 -0.1887 -0.5363  0.0939
 2877SOL    HW120090   3.329   2.032   4.901  0.1282  0.9569 -2.7529
 2877SOL    HW220091   3.458   2.075   4.844  1.9878 -1.2085  0.7052
 2878SOL     OW20092   1.103   3.777   6.330 -0.1167 -0.9427 -0.0302
 2878SOL    HW120093   1.040   3.721   6.374  0.8926 -1.9460  0.1471
 2878SOL    HW220094   1.067   3.757   6.243 -3.5622 -0.7178  1.3744
 2879SOL     OW20095   0.182   1.880  16.918 -0.0869 -0.1139 -0.0081
 2879SOL    HW120096   0.101   1.905  16.963  2.0856 -1.2851  4.5684
 2879SOL    HW220097   0.179   1.924  16.833 -1.1640 -0.9755 -0.4152
 2880SOL     OW20098   2.063   1.827   2.825 -0.4213 -0.2309  0.4990
 2880SOL    HW120099   1.976   1.850   2.857 -0.0789  1.2182  0.4211
 2880SOL    HW220100   2.062   1.732   2.815 -2.9225  0.0903 -2.0582
 2881SOL     OW20101   1.964   1.205   1.434 -0.1313  0.5180  0.6058
 2881SOL    HW120102   2.040   1.186   1.489 -0.3074  3.0804  1.6956
 2881SOL    HW220103   1.961   1.134   1.370 -0.2988 -0.1046  1.2862
 2882SOL     OW20104   2.241   3.518   4.053 -0.1429 -0.1641 -0.3074
 2882SOL    HW120105   2.324   3.526   4.101  1.0770 -0.0213 -2.3838
 2882SOL    HW220106   2.221   3.611   4.040 -0.0072 -0.1615 -0.5119
 2883SOL     OW20107   2.170   4.468   4.379  0.0640  0.2380 -0.2388
 2883SOL    HW120108   2.150   4.505   4.464  0.1961 -0.5283  0.1249
 2883SOL    HW220109   2.166   4.533   4.309  1.2192 -1.6417 -2.0703
 2884SOL     OW20110   1.036   4.030   6.431  0.2287  0.0677  0.3177
 2884SOL    HW120111   1.080   4.028   6.516  0.1012  0.6085  0.3909
 2884SOL    HW220112   1.056   3.940   6.403  1.9678  1.2547 -2.1468
 2885SOL     OW20113   1.223   0.129   9.722  0.3683 -0.1299 -0.3898
 2885SOL    HW120114   1.181   0.109   9.638 -0.8648 -0.9181  0.4087
 2885SOL    HW220115   1.295   0.178   9.682 -1.1311  0.5774 -2.1843
 2886SOL     OW20116   1.110   1.806  12.971  0.3818  0.3465 -0.2799
 2886SOL    HW120117   1.117   1.725  12.921 -0.6474  1.1387 -1.7153
 2886SOL    HW220118   1.197   1.844  12.978  0.8478 -0.9049  0.6428
 2887SOL     OW20119   0.732   0.635   5.953 -0.4583  0.0194 -0.1062
 2887SOL    HW120120   0.713   0.710   5.895  0.1511 -0.4367 -0.8978
 2887SOL    HW220121   0.823   0.651   5.975 -0.6769  1.5319 -0.2969
 2888SOL     OW20122   4.678   1.354  13.455  0.0176  0.1373  0.2848
 2888SOL    HW120123   4.707   1.349  13.546  0.5499  1.9554  0.2319
 2888SOL    HW220124   4.648   1.267  13.430  0.0704 -0.4273  2.1519
 2889SOL     OW20125   0.153   4.095   6.224  0.6395  0.8456 -0.0355
 2889SOL    HW120126   0.091   4.030   6.190  0.7251  2.1658 -2.6484
 2889SOL    HW220127   0.141   4.169   6.165 -0.1179 -1.0027 -2.2135
 2890SOL     OW20128   2.357   3.115   0.270  0.1982 -0.2166  0.1522
 2890SOL    HW120129   2.434   3.170   0.283 -0.5285  0.9693 -0.5481
 2890SOL    HW220130   2.322   3.114   0.360  0.9059 -1.7831  0.4077
 2891SOL     OW20131   1.344   0.753   6.910 -0.0073  0.5213 -0.2384
 2891SOL    HW120132   1.253   0.734   6.934  0.7098 -2.0257  0.4595
 2891SOL    HW220133   1.363   0.670   6.867 -0.0159 -0.4397  1.6077
 2892SOL     OW20134   1.052   3.099   3.266 -0.5819 -0.0026 -0.3443
 2892SOL    HW120135   1.051   3.035   3.337  0.0620  1.0201  0.5800
 2892SOL    HW220136   1.119   3.061   3.208 -1.3950 -0.0244 -1.2758
 2893SOL     OW20137   1.712   3.348   3.534 -0.0700  0.2394  0.0860
 2893SOL    HW120138   1.787   3.350   3.593  0.5561  1.9975 -0.7753
 2893SOL    HW220139   1.743   3.400   3.460 -0.4449  1.3390  0.6881
 2894SOL     OW20140   0.623   4.480   2.041  0.2319  0.0068 -0.5119
 2894SOL    HW120141   0.601   4.572   2.057  0.3585  0.0285 -0.4632
 2894SOL    HW220142   0.617   4.475   1.946  1.1528  0.6222 -0.6073
 2895SOL     OW20143   3.856   0.295   6.864  0.6292  0.1127  0.3891
 2895SOL    HW120144   3.851   0.389   6.884  1.4734  0.1539  0.4332
 2895SOL    HW220145   3.899   0.254   6.939 -2.3614  0.2817  2.2003
 2896SOL     OW20146   0.418   1.135  12.586 -0.1212 -0.0825  0.4915
 2896SOL    HW120147   0.342   1.135  12.528  2.4116 -0.3100 -2.8062
 2896SOL    HW220148   0.454   1.222  12.568  0.6039 -0.6570 -0.7515
 2897SOL     OW20149   4.320   2.903   2.717 -0.0859 -0.1919 -0.0646
 2897SOL    HW120150   4.231   2.938   2.726  0.2400  1.0270 -1.5309
 2897SOL    HW220151   4.321   2.880   2.624  0.0386  1.1280 -0.3918
 2898SOL     OW20152   3.921   1.712   1.020  0.0637 -0.4445  0.9543
 2898SOL    HW120153   3.843   1.696   1.074 -1.6828 -0.8938 -1.6769
 2898SOL    HW220154   3.905   1.803   0.996 -0.6869 -0.4617  1.3673
 2899SOL     OW20155   2.684   4.160   3.752 -0.0242 -0.1382  0.0628
 2899SOL    HW120156   2.758   4.166   3.692 -0.7410 -0.0685 -0.8241
 2899SOL    HW220157   2.638   4.241   3.732  0.6829 -0.3322 -2.3504
 2900SOL     OW20158   0.325   4.267   5.083 -0.2240  0.9220  0.5600
 2900SOL    HW120159   0.379   4.332   5.037  1.6600 -0.6298  0.6070
 2900SOL    HW220160   0.335   4.188   5.030 -0.3914 -1.2267  3.7382
 2901SOL     OW20161   1.853   1.614  12.046  0.6292 -0.9563  0.3777
 2901SOL    HW120162   1.900   1.547  12.095  2.6014 -1.6324 -2.4716
 2901SOL    HW220163   1.883   1.692  12.093 -1.8456  0.1703  0.0676
 2902SOL     OW20164   1.569   2.244   9.429 -0.2067  0.4254  0.7161
 2902SOL    HW120165   1.634   2.174   9.421 -1.4465 -0.5437 -0.8704
 2902SOL    HW220166   1.584   2.251   9.523 -2.5418 -3.9594  1.4174
 2903SOL     OW20167   0.290   3.282  13.151 -0.1523 -0.0690  0.3247
 2903SOL    HW120168   0.363   3.324  13.107 -1.1201  0.3419 -0.8788
 2903SOL    HW220169   0.334   3.219  13.208 -1.5026 -1.3603 -0.0565
 2904SOL     OW20170   1.401   2.952   7.232 -0.4257 -0.0917 -0.3122
 2904SOL    HW120171   1.337   2.998   7.287 -0.2571  0.6805 -0.7556
 2904SOL    HW220172   1.408   2.868   7.278 -1.3974  1.2338  2.2758
 2905SOL     OW20173   2.605   0.730  13.912 -0.2778 -0.2928  0.0621
 2905SOL    HW120174   2.644   0.818  13.918 -0.9521 -0.0891  1.3525
 2905SOL    HW220175   2.683   0.676  13.896  1.7143  2.2209  1.2915
 2906SOL     OW20176   0.870   2.703   5.998 -0.6622 -0.4150  0.0337
 2906SOL    HW120177   0.944   2.664   6.043 -0.2152 -1.1487 -1.3274
 2906SOL    HW220178   0.795   2.661   6.041 -1.6495  0.8984 -0.4062
 2907SOL     OW20179   3.802   3.464   7.141 -0.0810  0.3450  0.0676
 2907SOL    HW120180   3.883   3.432   7.180  0.4337  0.1839 -1.1384
 2907SOL    HW220181   3.750   3.458   7.221 -1.5492  0.5936 -0.8799
 2908SOL     OW20182   2.568   2.311  12.378  0.3169  0.1202  0.2189
 2908SOL    HW120183   2.640   2.369  12.404  1.0728 -0.7283  0.0471
 2908SOL    HW220184   2.521   2.371  12.321 -2.2403  0.4094  2.6300
 2909SOL     OW20185   0.073   3.555   3.759  0.0874 -0.7023 -0.4449
 2909SOL    HW120186   0.134   3.629   3.758  0.1698 -0.7601  2.1356
 2909SOL    HW220187   4.720   3.596   3.792 -0.5833 -2.8106  0.5174
 2910SOL     OW20188   2.405   2.980   0.038 -0.5519  0.2476  0.2934
 2910SOL    HW120189   2.422   2.895   0.079 -1.5062 -0.6830 -1.2551
 2910SOL    HW220190   2.398   3.042   0.110 -0.8553  0.7217 -0.1445
 2911SOL     OW20191   3.573   0.300  11.040  0.3070  0.0113 -0.1337
 2911SOL    HW120192   3.605   0.215  11.011  1.1996  1.0357 -2.2084
 2911SOL    HW220193   3.549   0.339  10.955  1.7826 -2.2666 -1.6012
 2912SOL     OW20194   1.140   2.557   9.232 -0.2759 -0.7041  0.5490
 2912SOL    HW120195   1.117   2.533   9.322  2.2203 -0.5177  1.2260
 2912SOL    HW220196   1.229   2.522   9.224  0.3457  0.6037  1.6799
 2913SOL     OW20197   1.443   2.626  11.382 -0.1902 -0.3872  0.1904
 2913SOL    HW120198   1.424   2.536  11.410 -1.1748  0.0259  0.8950
 2913SOL    HW220199   1.410   2.670  11.461 -0.4435 -1.7413  0.8447
 2914SOL     OW20200   0.271   1.613   8.572  0.4423  0.0837  0.1673
 2914SOL    HW120201   0.351   1.657   8.603  1.3313 -0.1505 -1.8330
 2914SOL    HW220202   0.257   1.544   8.637 -2.1802  0.5677  0.1090
 2915SOL     OW20203   2.992   1.566   2.397  0.5111  0.2185  0.5064
 2915SOL    HW120204   2.966   1.494   2.454  0.5509  0.9151  1.4129
 2915SOL    HW220205   3.084   1.550   2.376  0.3070  1.4012 -1.2412
 2916SOL     OW20206   4.478   2.073   8.533 -0.0453  0.5384 -0.3214
 2916SOL    HW120207   4.488   2.140   8.601  1.6090  1.4901 -1.4849
 2916SOL    HW220208   4.567   2.075   8.497  0.0628  0.8675 -0.0413
 2917SOL     OW20209   4.726   4.565   2.879  0.4230 -0.2582  0.4184
 2917SOL    HW120210   0.023   4.593   2.967  0.6306  0.8523  0.0105
 2917SOL    HW220211   0.019   4.651   2.842 -1.0494 -0.6904 -1.3462
 2918SOL     OW20212   3.591   1.139   6.266  0.2169  0.0256  0.3948
 2918SOL    HW120213   3.497   1.126   6.253  0.6134 -1.5684 -0.8380
 2918SOL    HW220214   3.592   1.225   6.309 -0.4382 -0.8216  2.1022
 2919SOL     OW20215   2.711   2.503   5.192 -0.0990 -0.3323 -0.1898
 2919SOL    HW120216   2.718   2.587   5.146 -1.2387  0.5849  1.3182
 2919SOL    HW220217   2.727   2.536   5.280  0.9638 -1.1874 -0.0590
 2920SOL     OW20218   0.715   4.661   9.439 -0.2089  0.3527 -0.2359
 2920SOL    HW120219   0.743   4.680   9.528 -0.6606  1.2779 -0.2931
 2920SOL    HW220220   0.652   4.591   9.453  0.4537  0.1763  1.8122
 2921SOL     OW20221   1.129   2.254   3.876  0.1418  0.2309 -0.0034
 2921SOL    HW120222   1.128   2.249   3.972  1.8008 -1.6596 -0.0676
 2921SOL    HW220223   1.042   2.286   3.855  0.4631  0.6894 -0.6166
 2922SOL     OW20224   4.642   1.300   1.556 -0.0084 -0.3917  0.4250
 2922SOL    HW120225   4.676   1.214   1.579 -1.4483 -0.9855  0.3459
 2922SOL    HW220226   4.638   1.347   1.640 -1.0757  2.3512 -1.1650
 2923SOL     OW20227   4.677   0.347  10.214  0.1028  0.2460 -0.1161
 2923SOL    HW120228   4.646   0.269  10.168  0.3469 -0.7015  1.3285
 2923SOL    HW220229   4.626   0.340  10.294 -1.2156  2.2690 -0.7955
 2924SOL     OW20230   3.018   3.589   2.850  0.3091  0.1971 -0.1076
 2924SOL    HW120231   2.977   3.673   2.869 -1.2859 -0.8243  0.9504
 2924SOL    HW220232   3.098   3.619   2.806  1.2881 -3.1850 -0.6179
 2925SOL     OW20233   4.305   0.892   7.374  0.3014  0.0762 -0.4577
 2925SOL    HW120234   4.397   0.902   7.350  1.1884 -0.0774  2.9157
 2925SOL    HW220235   4.309   0.908   7.468 -1.9245 -2.7875  0.1050
 2926SOL     OW20236   3.339   1.941   9.607 -0.6097 -0.0522 -0.2874
 2926SOL    HW120237   3.408   1.888   9.647 -0.4856 -0.2974 -0.8237
 2926SOL    HW220238   3.351   1.922   9.514  0.7382  0.5241 -0.2340
 2927SOL     OW20239   2.092   2.040  16.518 -0.5877 -0.2978 -0.8068
 2927SOL    HW120240   2.090   2.107  16.450  0.1026  0.1025 -0.4369
 2927SOL    HW220241   2.078   2.100  16.592 -1.5022  0.2481 -1.4314
 2928SOL     OW20242   2.765   3.012   5.760  0.0812  0.3511 -0.0457
 2928SOL    HW120243   2.740   3.092   5.807 -0.4289 -1.4641  2.7121
 2928SOL    HW220244   2.846   2.988   5.805  0.1939 -1.3574 -1.1415
 2929SOL     OW20245   1.584   0.336   6.365  0.2461  0.4054 -0.0332
 2929SOL    HW120246   1.553   0.409   6.312  1.2299  2.0282  1.6720
 2929SOL    HW220247   1.525   0.346   6.439  1.0455 -0.2585  0.6838
 2930SOL     OW20248   4.563   1.388   3.056  0.3994 -0.1356  0.0719
 2930SOL    HW120249   4.496   1.450   3.026 -0.0633 -1.0915 -0.8385
 2930SOL    HW220250   4.637   1.444   3.034  0.8580 -0.8610 -0.2199
 2931SOL     OW20251   1.654   0.548   4.690  0.0836  0.4329 -0.5733
 2931SOL    HW120252   1.628   0.568   4.600  2.6247  0.6638 -1.2591
 2931SOL    HW220253   1.588   0.601   4.734 -0.4844 -2.0017  1.4697
 2932SOL     OW20254   1.526   0.673   9.759  0.3410  0.4750 -0.5985
 2932SOL    HW120255   1.444   0.624   9.753  0.5514  0.1851 -1.1143
 2932SOL    HW220256   1.569   0.630   9.833 -2.0137 -1.6727 -0.4737
 2933SOL     OW20257   1.500   1.958   9.328  0.2577  0.5709 -0.5763
 2933SOL    HW120258   1.446   2.027   9.368  1.3852  0.7633  0.6093
 2933SOL    HW220259   1.557   2.006   9.268 -1.1192  1.2685 -1.3526
 2934SOL     OW20260   0.780   1.766   6.454  0.4359 -0.4856  0.6152
 2934SOL    HW120261   0.763   1.773   6.548  2.0389  1.8492  0.7398
 2934SOL    HW220262   0.728   1.835   6.412  0.2743 -1.1369 -0.2565
 2935SOL     OW20263   4.667   2.331  11.647  0.4167 -0.0517  0.1469
 2935SOL    HW120264   4.713   2.263  11.695 -0.6671 -0.5812  0.4299
 2935SOL    HW220265   4.713   2.415  11.655  0.8171 -0.2114 -0.5142
 2936SOL     OW20266   2.858   0.662   6.492 -0.5130 -0.6743  0.4149
 2936SOL    HW120267   2.911   0.583   6.488 -2.0995 -1.7136  0.1930
 2936SOL    HW220268   2.767   0.642   6.472 -0.5679  0.9479 -0.9612
 2937SOL     OW20269   3.653   1.410   3.512  0.4814 -0.2944  0.1442
 2937SOL    HW120270   3.657   1.497   3.474 -0.0692 -0.1480  0.4129
 2937SOL    HW220271   3.616   1.361   3.439 -1.2971 -0.2003  0.9833
 2938SOL     OW20272   2.337   1.319  12.760  0.0465  0.0110 -0.6971
 2938SOL    HW120273   2.275   1.354  12.697  0.7877 -1.8978 -2.4789
 2938SOL    HW220274   2.368   1.240  12.715  2.9308 -0.3839  1.9559
 2939SOL     OW20275   3.983   1.049  14.253 -0.2248 -0.0704 -0.4913
 2939SOL    HW120276   3.932   1.053  14.334 -0.6265  1.0318 -0.7986
 2939SOL    HW220277   3.976   0.955  14.236  1.0299  0.0310 -1.5167
 2940SOL     OW20278   2.209   0.062   5.965  0.0963 -0.0155  0.0533
 2940SOL    HW120279   2.295   0.034   5.996 -0.2499 -1.3838 -0.2389
 2940SOL    HW220280   2.204   0.151   6.000 -0.5071 -0.6052  1.4342
 2941SOL     OW20281   1.992   2.688  14.136  0.2012 -0.1240  0.2849
 2941SOL    HW120282   1.916   2.745  14.123  1.3762  1.1259 -1.0125
 2941SOL    HW220283   1.954   2.614  14.089 -1.1119  0.4414  0.4574
 2942SOL     OW20284   2.050   0.789   2.078 -0.0353  0.2332 -0.2923
 2942SOL    HW120285   2.001   0.708   2.066 -1.0235  0.5355  1.8478
 2942SOL    HW220286   2.117   0.788   2.009  1.5094  1.4948  1.1950
 2943SOL     OW20287   1.144   0.141  10.167 -0.0384 -0.5035 -0.5438
 2943SOL    HW120288   1.060   0.119  10.207 -1.1326  0.6451 -2.2478
 2943SOL    HW220289   1.150   0.233  10.193 -0.0649 -0.1725 -1.7214
 2944SOL     OW20290   3.551   2.931  12.250  0.0469  0.5017 -0.1089
 2944SOL    HW120291   3.621   2.902  12.192 -2.2450  3.0052 -4.1370
 2944SOL    HW220292   3.585   2.890  12.329  3.0542  0.7606 -1.2405
 2945SOL     OW20293   4.681   1.706   4.321  0.1973 -0.0557 -0.6810
 2945SOL    HW120294   4.657   1.792   4.286  0.9448  0.4022 -0.0744
 2945SOL    HW220295   4.649   1.647   4.253 -0.0423 -3.1700  2.1579
 2946SOL     OW20296   4.123   2.844   8.445  0.3377 -0.4454  0.6015
 2946SOL    HW120297   4.199   2.848   8.503 -1.5263  0.0191  3.0238
 2946SOL    HW220298   4.146   2.882   8.361 -1.5425  1.2730  0.8523
 2947SOL     OW20299   3.838   1.297   5.952 -0.9834  0.1027 -0.1834
 2947SOL    HW120300   3.885   1.298   6.035 -0.1697 -0.7466 -0.6312
 2947SOL    HW220301   3.751   1.331   5.973 -0.6411  1.6648 -1.2705
 2948SOL     OW20302   0.035   0.655  10.358  0.2407  0.6790  0.4224
 2948SOL    HW120303   4.726   0.656  10.269 -1.8016 -1.5136  1.2201
 2948SOL    HW220304   0.119   0.697  10.338  0.5701 -0.0380  0.3272
 2949SOL     OW20305   3.711   0.674  13.535 -0.0009  0.5836 -0.4544
 2949SOL    HW120306   3.730   0.664  13.441 -0.6060 -2.1131 -0.2865
 2949SOL    HW220307   3.722   0.768  13.545  1.7613  0.6090 -2.5322
 2950SOL     OW20308   4.233   0.366  13.028  0.0247 -0.4372 -0.1805
 2950SOL    HW120309   4.201   0.335  12.943  1.2886 -1.4999 -0.2691
 2950SOL    HW220310   4.174   0.332  13.095 -1.8690 -1.1424 -2.1645
 2951SOL     OW20311   0.252   0.764  10.866  0.5731  0.1543 -0.4303
 2951SOL    HW120312   0.312   0.715  10.809 -1.1611 -2.2654 -0.1740
 2951SOL    HW220313   0.189   0.787  10.798 -0.5746  0.0703  0.6102
 2952SOL     OW20314   4.382   3.587   9.436  0.2166 -0.2420 -0.2423
 2952SOL    HW120315   4.434   3.595   9.356 -1.6785  0.8301 -1.3470
 2952SOL    HW220316   4.428   3.517   9.483 -0.7958  0.3667  1.6834
 2953SOL     OW20317   4.708   3.396  15.149  0.3636 -0.3465 -0.4721
 2953SOL    HW120318   0.005   3.319  15.201  1.5011 -0.3942 -1.0737
 2953SOL    HW220319   4.694   3.465  15.214 -0.2078  1.9218 -3.0040
 2954SOL     OW20320   0.036   2.581   5.661 -0.0734 -0.1786  0.1209
 2954SOL    HW120321   4.703   2.635   5.609  0.4082  0.3342  0.1079
 2954SOL    HW220322   4.713   2.502   5.684 -0.2069 -0.4852 -1.2475
 2955SOL     OW20323   3.184   2.158   8.140  0.0938 -0.1000  0.1187
 2955SOL    HW120324   3.138   2.216   8.201 -0.1677 -3.1898  2.8533
 2955SOL    HW220325   3.185   2.212   8.061 -1.7085 -1.4821 -0.8429
 2956SOL     OW20326   4.130   3.502   4.507 -0.6947 -0.4346 -0.0582
 2956SOL    HW120327   4.052   3.452   4.485 -0.5303 -2.0392  3.0031
 2956SOL    HW220328   4.104   3.547   4.588 -1.0114  2.2295 -1.6419
 2957SOL     OW20329   1.193   4.526   9.056 -0.1849  0.3204 -0.0449
 2957SOL    HW120330   1.132   4.452   9.062  1.4438 -0.9628  0.7815
 2957SOL    HW220331   1.278   4.482   9.056 -0.2866  0.1215 -1.7975
 2958SOL     OW20332   3.135   0.912   7.530 -0.0452  0.3023  0.3101
 2958SOL    HW120333   3.217   0.864   7.542  0.2871  1.1264  1.3647
 2958SOL    HW220334   3.157   0.988   7.476  2.1915 -1.5118 -1.3534
 2959SOL     OW20335   2.958   0.989   7.211  0.8475 -0.0411 -0.4850
 2959SOL    HW120336   2.912   1.073   7.218  1.9685  0.7808 -2.8808
 2959SOL    HW220337   2.888   0.925   7.200  0.5570  0.2515 -0.3466
 2960SOL     OW20338   0.149   3.737   9.137  0.0621  0.6765  0.2225
 2960SOL    HW120339   0.231   3.707   9.098  0.5612  1.5868  0.5721
 2960SOL    HW220340   0.123   3.668   9.198 -1.6201  1.4978  0.4469
 2961SOL     OW20341   0.211   1.444   7.115  0.7781 -0.3629  0.0920
 2961SOL    HW120342   0.289   1.471   7.164 -0.2065  2.4249  0.1142
 2961SOL    HW220343   0.145   1.440   7.184 -0.2645  1.8352 -0.7798
 2962SOL     OW20344   2.439   4.526   7.532 -0.1058 -0.3607 -0.7567
 2962SOL    HW120345   2.432   4.463   7.603  1.7811 -0.2682 -0.4748
 2962SOL    HW220346   2.524   4.566   7.550  0.1532  0.3951 -3.6427
 2963SOL     OW20347   1.492   3.988   3.522  0.2044  0.1296 -0.1653
 2963SOL    HW120348   1.410   4.027   3.491 -0.9666 -0.4606  2.1656
 2963SOL    HW220349   1.486   4.006   3.615  0.1717  2.1138 -0.5672
 2964SOL     OW20350   4.345   2.954   4.479 -0.0846  0.0193  0.3807
 2964SOL    HW120351   4.417   2.964   4.541 -0.5885  1.1320  0.7934
 2964SOL    HW220352   4.294   2.902   4.542 -1.6036 -0.6456 -1.3587
 2965SOL     OW20353   3.990   1.763   5.340 -0.2256 -0.1307 -0.2947
 2965SOL    HW120354   4.016   1.855   5.342  0.5153 -0.3476  0.0872
 2965SOL    HW220355   3.935   1.750   5.417 -0.0486  0.1525 -0.1215
 2966SOL     OW20356   3.227   4.128  12.804 -0.2135 -0.1236 -1.0263
 2966SOL    HW120357   3.286   4.128  12.880 -1.4766  0.0291 -0.0531
 2966SOL    HW220358   3.145   4.149  12.848 -0.1609 -1.3027 -0.3694
 2967SOL     OW20359   3.975   3.457   0.716 -0.2045 -0.3423 -0.5031
 2967SOL    HW120360   3.962   3.545   0.750  0.1595 -0.7160  0.5969
 2967SOL    HW220361   3.996   3.406   0.794  0.8248  1.0931  0.1634
 2968SOL     OW20362   4.665   1.572   8.199 -0.6496  0.1460  0.0521
 2968SOL    HW120363   4.679   1.657   8.241  1.1468  1.0307 -2.3505
 2968SOL    HW220364   4.614   1.521   8.262 -1.0406  0.9810  0.4049
 2969SOL     OW20365   0.401   3.085   5.557 -0.2185  0.2381 -0.4356
 2969SOL    HW120366   0.489   3.053   5.538  0.0723  1.2857 -0.8804
 2969SOL    HW220367   0.343   3.012   5.536 -1.8178  1.3928 -0.0781
 2970SOL     OW20368   3.605   4.056   8.303 -0.3477 -0.7884 -0.0790
 2970SOL    HW120369   3.647   4.001   8.237  0.1192 -2.2803  1.4523
 2970SOL    HW220370   3.574   4.000   8.374  1.9252 -0.1710  1.3970
 2971SOL     OW20371   4.425   0.205  11.727 -0.3601  0.0808  0.0186
 2971SOL    HW120372   4.513   0.187  11.693 -0.8484  0.6241 -1.5456
 2971SOL    HW220373   4.369   0.195  11.650  0.9750 -1.2908 -0.7790
 2972SOL     OW20374   4.706   4.604   5.793 -0.3932  0.4025  0.2007
 2972SOL    HW120375   0.018   4.670   5.736 -0.5539  0.1147 -0.2488
 2972SOL    HW220376   0.015   4.531   5.742 -4.0409 -0.2846 -1.3857
 2973SOL     OW20377   2.235   3.010  10.840  0.5841 -0.5410  0.2750
 2973SOL    HW120378   2.287   2.933  10.859 -0.0444 -1.0708 -0.1439
 2973SOL    HW220379   2.157   2.977  10.795  0.6537  1.5935 -1.4210
 2974SOL     OW20380   1.923   3.296   3.761 -0.1173  0.4281 -0.3015
 2974SOL    HW120381   2.005   3.297   3.712 -0.9399  0.7912 -1.6704
 2974SOL    HW220382   1.934   3.205   3.789 -0.9900  0.7205  1.0123
 2975SOL     OW20383   2.455   4.057   8.290 -0.4747 -0.0631 -0.0099
 2975SOL    HW120384   2.371   4.062   8.337 -1.8857  0.0576 -2.5542
 2975SOL    HW220385   2.431   4.059   8.197 -0.4461  0.8794  0.0023
 2976SOL     OW20386   1.444   0.599   5.799 -0.1778  0.1360  0.0390
 2976SOL    HW120387   1.539   0.592   5.807 -0.1758 -0.4625 -0.5237
 2976SOL    HW220388   1.430   0.509   5.770  0.4210  0.1571 -0.3404
 2977SOL     OW20389   4.245   3.498   7.681 -0.1014 -0.1821  0.3406
 2977SOL    HW120390   4.170   3.461   7.634  0.1767  0.3647 -0.5503
 2977SOL    HW220391   4.306   3.425   7.690  0.4237  0.1526 -0.4272
 2978SOL     OW20392   0.163   0.422   8.961 -0.1085  0.1650  0.0574
 2978SOL    HW120393   0.168   0.358   8.890  2.8117 -0.0117  0.4045
 2978SOL    HW220394   0.106   0.380   9.025  0.0561 -0.8188 -0.4397
 2979SOL     OW20395   0.787   2.134   5.747  1.3109  1.4869 -0.4214
 2979SOL    HW120396   0.798   2.049   5.705  3.2822  1.7425 -0.3908
 2979SOL    HW220397   0.692   2.144   5.734  0.9740  0.2087  1.0842
 2980SOL     OW20398   1.651   1.113  12.524 -0.5402 -0.2445 -0.0215
 2980SOL    HW120399   1.656   1.145  12.615 -1.3542 -0.8095  0.2234
 2980SOL    HW220400   1.722   1.048  12.522  0.7115  1.1782 -1.0904
 2981SOL     OW20401   2.343   3.184   7.937  0.3523 -0.0081 -0.0602
 2981SOL    HW120402   2.385   3.259   7.977 -0.8242 -0.3405  1.8159
 2981SOL    HW220403   2.279   3.160   8.005  0.8814  0.8701  0.7474
 2982SOL     OW20404   0.311   0.268   5.325  0.3878  0.6038  0.1139
 2982SOL    HW120405   0.384   0.329   5.319  1.0689 -0.2453 -0.1693
 2982SOL    HW220406   0.326   0.216   5.246  0.7149  1.1917 -0.2108
 2983SOL     OW20407   2.951   0.281   8.332 -0.4638 -0.2640  0.4317
 2983SOL    HW120408   2.995   0.206   8.372  1.2506  0.5237  0.0220
 2983SOL    HW220409   2.858   0.271   8.353 -0.3289 -0.4734  0.9349
 2984SOL     OW20410   0.069   4.711   7.659 -0.6651 -0.0025  0.2273
 2984SOL    HW120411   0.158   4.703   7.626 -0.2881 -1.2875  1.5570
 2984SOL    HW220412   0.042   0.066   7.619  0.0359 -0.7571 -1.7737
 2985SOL     OW20413   1.389   1.293  14.974 -0.5062  0.3066  0.1227
 2985SOL    HW120414   1.391   1.209  15.018  1.7879 -0.7004 -1.9034
 2985SOL    HW220415   1.413   1.277  14.883 -2.4887  0.2456 -0.3950
 2986SOL     OW20416   3.458   1.852   7.845  0.2223 -0.0938  0.1043
 2986SOL    HW120417   3.453   1.787   7.915  0.6424  0.0946  0.3064
 2986SOL    HW220418   3.388   1.910   7.878 -0.6867  0.2059 -2.3689
 2987SOL     OW20419   0.989   0.441   7.616  0.1096 -0.1252 -0.0513
 2987SOL    HW120420   1.014   0.355   7.580  2.0308 -1.0132  3.4331
 2987SOL    HW220421   1.050   0.507   7.583 -0.7283  1.8008  2.2652
 2988SOL     OW20422   1.249   2.825  17.627 -0.4191  0.9087 -0.2997
 2988SOL    HW120423   1.231   2.804   0.010 -0.2757  2.5420  0.0930
 2988SOL    HW220424   1.284   2.913  17.628 -0.1779  0.8164 -0.5329
 2989SOL     OW20425   3.491   3.161   7.755  0.6749 -0.1059 -0.3554
 2989SOL    HW120426   3.407   3.118   7.737 -1.2755  2.1069  3.3675
 2989SOL    HW220427   3.502   3.129   7.844 -0.4908 -2.1566 -0.9297
 2990SOL     OW20428   0.726   0.963   9.452  0.5980  0.5883 -0.3665
 2990SOL    HW120429   0.706   1.044   9.499 -0.3779  0.7241 -1.0025
 2990SOL    HW220430   0.653   0.905   9.476  2.1612 -2.0693 -1.9586
 2991SOL     OW20431   3.950   4.413   9.263  0.0809 -0.2300 -0.5741
 2991SOL    HW120432   3.994   4.377   9.340 -1.0516  1.0763  0.6756
 2991SOL    HW220433   3.869   4.361   9.257 -1.0995  1.7368 -1.5547
 2992SOL     OW20434   1.748   3.052  17.267  0.2916  0.2763  0.0443
 2992SOL    HW120435   1.708   2.978  17.221  2.3954 -1.7174  1.3846
 2992SOL    HW220436   1.682   3.070  17.334 -0.9630  0.3225 -1.2212
 2993SOL     OW20437   2.197   3.097   6.725 -0.4491 -0.2243  0.2746
 2993SOL    HW120438   2.269   3.100   6.662 -0.9400  1.3006 -0.2060
 2993SOL    HW220439   2.210   3.007   6.755  2.4556  0.6852  1.7347
 2994SOL     OW20440   1.922   2.589   6.721  0.5359 -0.1407 -0.1841
 2994SOL    HW120441   1.973   2.670   6.725 -2.5983  1.8633 -0.9811
 2994SOL    HW220442   1.995   2.527   6.717 -0.3577 -1.5179  4.7685
 2995SOL     OW20443   2.371   1.011   6.518  0.1533 -0.2720 -0.5695
 2995SOL    HW120444   2.463   0.986   6.514  0.3895  0.3992  0.6176
 2995SOL    HW220445   2.342   0.969   6.599  0.2300 -1.0227 -0.9299
 2996SOL     OW20446   1.959   1.522   4.024 -0.1388  0.1128 -0.7372
 2996SOL    HW120447   1.969   1.574   4.104  2.4082 -0.3015 -0.7798
 2996SOL    HW220448   1.961   1.590   3.957 -1.3213  0.0012 -0.8927
 2997SOL     OW20449   4.328   0.246   5.819  0.0454  0.3276 -0.4586
 2997SOL    HW120450   4.239   0.211   5.825  1.1407 -2.4172 -0.0758
 2997SOL    HW220451   4.350   0.264   5.910 -1.2680 -2.0561  0.3186
 2998SOL     OW20452   4.438   2.110   6.196 -0.5484  0.1519  0.2331
 2998SOL    HW120453   4.467   2.198   6.174  0.6250 -0.3216 -0.1128
 2998SOL    HW220454   4.362   2.101   6.139  0.1545  1.1217 -0.8618
 2999SOL     OW20455   4.499   2.672  14.703 -0.0368  0.0236  0.6906
 2999SOL    HW120456   4.419   2.620  14.694  1.0783 -1.6713  0.4515
 2999SOL    HW220457   4.555   2.629  14.638 -0.0030 -1.2696  1.5650
 3000SOL     OW20458   1.610   4.468   0.017  0.0417 -0.2057  0.8629
 3000SOL    HW120459   1.623   4.378   0.047 -0.6112 -1.0625 -1.3938
 3000SOL    HW220460   1.525   4.486   0.056 -0.3200  3.3480 -1.6103
 3001SOL     OW20461   3.285   0.674   8.381 -0.4856 -0.2093 -0.0528
 3001SOL    HW120462   3.213   0.611   8.380 -0.2439 -0.4729 -0.9554
 3001SOL    HW220463   3.308   0.665   8.288  1.7266 -2.4791  0.7453
 3002SOL     OW20464   2.999   3.511   5.758 -0.1561 -0.4635 -0.8013
 3002SOL    HW120465   2.991   3.427   5.713  0.3499 -1.4022  0.8593
 3002SOL    HW220466   2.904   3.527   5.765 -0.3393 -1.7034 -0.5561
 3003SOL     OW20467   2.380   1.767  14.059 -0.7317 -0.3063 -0.3480
 3003SOL    HW120468   2.387   1.676  14.088  0.7077 -0.2507 -0.5064
 3003SOL    HW220469   2.325   1.757  13.982  0.0999  3.1093 -1.3965
 3004SOL     OW20470   4.190   1.184   4.956 -0.6808  0.7512  0.3350
 3004SOL    HW120471   4.165   1.142   5.038  0.9836  0.6361  0.7795
 3004SOL    HW220472   4.284   1.189   4.975 -0.2597 -0.7998 -1.2816
 3005SOL     OW20473   2.148   2.511  15.693  0.5998  0.2529 -0.4153
 3005SOL    HW120474   2.186   2.575  15.633 -2.1408  1.6003 -0.7146
 3005SOL    HW220475   2.192   2.437  15.651 -3.4269 -1.8659 -0.9038
 3006SOL     OW20476   3.008   2.133   3.979 -0.3106 -0.4967 -0.5767
 3006SOL    HW120477   3.083   2.184   3.949  0.3621 -0.8172  0.5646
 3006SOL    HW220478   3.052   2.059   4.020  0.0316  0.1918  0.2953
 3007SOL     OW20479   3.114   3.575   6.901  0.2692 -0.0044  0.7526
 3007SOL    HW120480   3.053   3.517   6.947 -0.2846 -1.5057 -1.8096
 3007SOL    HW220481   3.069   3.631   6.837  0.1534 -1.7391 -0.6874
 3008SOL     OW20482   1.969   1.163   8.885  0.1106  0.1310 -0.0179
 3008SOL    HW120483   2.063   1.181   8.888 -0.3301  2.4973 -0.9056
 3008SOL    HW220484   1.937   1.228   8.947 -0.9872 -1.2556  0.8930
 3009SOL     OW20485   0.756   2.463   2.581 -0.0223  0.7310  0.3237
 3009SOL    HW120486   0.803   2.401   2.524 -0.1702 -0.7849  1.8622
 3009SOL    HW220487   0.668   2.460   2.543  0.9691  1.3825 -2.0380
 3010SOL     OW20488   4.014   0.637   6.606  0.1151 -0.4958  0.1887
 3010SOL    HW120489   4.044   0.572   6.543 -0.9216 -0.4365 -0.3660
 3010SOL    HW220490   3.957   0.690   6.550  0.8755  1.8186  1.6056
 3011SOL     OW20491   2.373   3.844   5.260 -0.2844  0.1009  0.3258
 3011SOL    HW120492   2.284   3.835   5.295 -0.0397  0.0612  0.9429
 3011SOL    HW220493   2.363   3.898   5.182  2.4218  1.1870  0.7191
 3012SOL     OW20494   2.306   4.384   5.379 -0.2894 -0.1168 -0.5102
 3012SOL    HW120495   2.320   4.404   5.472  0.2967  0.1577 -0.6602
 3012SOL    HW220496   2.303   4.289   5.375  0.2817 -0.1186 -0.8483
 3013SOL     OW20497   4.440   2.048   1.242  0.2232  0.6007  0.0058
 3013SOL    HW120498   4.357   2.035   1.195  0.3115 -0.8651  0.2707
 3013SOL    HW220499   4.456   1.963   1.282 -2.6192 -0.7020 -1.6201
 3014SOL     OW20500   3.423   1.922  12.505 -0.4990  0.4558 -0.2496
 3014SOL    HW120501   3.435   2.006  12.461  3.6445 -0.4196 -0.7567
 3014SOL    HW220502   3.483   1.869  12.453 -0.0712  0.0844  0.6094
 3015SOL     OW20503   3.655   4.558  15.759 -0.3728  0.1761 -0.1775
 3015SOL    HW120504   3.689   4.616  15.827  0.1200 -2.3233  1.7174
 3015SOL    HW220505   3.666   4.473  15.803  0.5869 -0.0483 -0.8271
 3016SOL     OW20506   3.360   2.033   6.022  0.0684  0.1878 -0.1133
 3016SOL    HW120507   3.364   2.093   6.096 -0.7332  1.4438 -1.0831
 3016SOL    HW220508   3.337   1.951   6.065 -0.6253  1.1880  1.4125
 3017SOL     OW20509   2.324   2.277   5.601 -0.4101  0.4030 -0.5275
 3017SOL    HW120510   2.398   2.324   5.637 -1.9635  0.1154  3.0072
 3017SOL    HW220511   2.253   2.303   5.660 -0.7296  0.5559 -0.9799
 3018SOL     OW20512   1.574   4.583   2.609 -0.4297 -0.3597 -0.5234
 3018SOL    HW120513   1.522   4.661   2.626 -1.7248 -1.4568  0.4905
 3018SOL    HW220514   1.541   4.552   2.525 -0.1743 -3.3035  0.4908
 3019SOL     OW20515   0.017   0.403   9.824 -0.1817 -0.1081 -0.0874
 3019SOL    HW120516   4.723   0.321   9.869  0.4527  0.0228  0.4464
 3019SOL    HW220517   4.676   0.457   9.864  0.7634 -0.0686  1.4685
 3020SOL     OW20518   1.665   2.321   8.501  0.5483  0.2587 -0.3924
 3020SOL    HW120519   1.701   2.235   8.520 -0.8548 -0.0536  0.8524
 3020SOL    HW220520   1.674   2.376   8.579 -0.5764 -0.0106 -0.0696
 3021SOL     OW20521   1.191   4.253  14.282 -0.1090 -0.5216 -0.2923
 3021SOL    HW120522   1.210   4.334  14.329 -0.5969  0.0929 -1.1560
 3021SOL    HW220523   1.124   4.209  14.334 -1.6125  0.9333 -1.0188
 3022SOL     OW20524   1.738   4.091   4.569  0.3341 -0.5126 -0.0833
 3022SOL    HW120525   1.807   4.025   4.563  0.1966 -0.6922  0.3359
 3022SOL    HW220526   1.742   4.141   4.487 -1.2457  1.2369  0.8801
 3023SOL     OW20527   3.752   1.178   7.989 -0.2261 -0.6830  0.1815
 3023SOL    HW120528   3.846   1.168   7.999  0.1046  2.3093  0.0733
 3023SOL    HW220529   3.716   1.168   8.077 -1.8516 -2.2016 -0.6527
 3024SOL     OW20530   2.664   3.326  17.562 -0.1350 -0.3662  0.2342
 3024SOL    HW120531   2.650   3.310  17.655  0.0294 -0.4170  0.2488
 3024SOL    HW220532   2.736   3.268  17.540  1.4408  0.0006  4.4711
 3025SOL     OW20533   1.452   1.434   1.387  0.0804 -0.1479  0.3135
 3025SOL    HW120534   1.534   1.448   1.341  0.7031 -0.6798  1.2499
 3025SOL    HW220535   1.474   1.490   1.462  1.1791  0.0484 -0.1503
 3026SOL     OW20536   0.084   1.001   5.085  0.4402  0.2740 -0.2566
 3026SOL    HW120537   0.161   0.983   5.140  0.1410  2.6023  0.9364
 3026SOL    HW220538   0.036   0.918   5.088  2.6307 -1.0416 -1.6086
 3027SOL     OW20539   0.079   2.862   3.702  0.2428  0.1219  0.1361
 3027SOL    HW120540   0.113   2.950   3.718  0.0949  0.0801  0.6806
 3027SOL    HW220541   0.000   2.875   3.648  1.8895 -1.7424 -2.6929
 3028SOL     OW20542   0.799   3.271   8.133 -0.2156 -0.4432  0.5637
 3028SOL    HW120543   0.782   3.326   8.057  2.9808 -2.9121 -1.9113
 3028SOL    HW220544   0.871   3.214   8.105  0.6411  1.2540 -0.7200
 3029SOL     OW20545   3.639   4.321  10.564  0.0134 -0.3021 -0.2361
 3029SOL    HW120546   3.606   4.401  10.523  1.5292  0.6540  0.4037
 3029SOL    HW220547   3.688   4.278  10.494  1.4480 -1.2374  1.3722
 3030SOL     OW20548   1.209   1.572   3.118  0.1026 -0.9405  0.4044
 3030SOL    HW120549   1.189   1.599   3.207  0.0623  1.9034 -0.4701
 3030SOL    HW220550   1.260   1.493   3.134  1.0134 -0.3381  0.4398
 3031SOL     OW20551   3.024   1.232   6.827  0.1611  0.2138  0.5056
 3031SOL    HW120552   3.031   1.271   6.914 -1.6647 -0.1434  0.8045
 3031SOL    HW220553   2.952   1.169   6.834  0.5597 -0.5565 -2.0741
 3032SOL     OW20554   4.055   3.173   5.707  0.1872  0.4209  0.0190
 3032SOL    HW120555   4.091   3.257   5.737 -1.0176  0.7660  0.4896
 3032SOL    HW220556   3.999   3.196   5.633  2.2678 -0.6609 -1.9108
 3033SOL     OW20557   2.079   4.347   5.220 -0.0577 -0.4987  0.5182
 3033SOL    HW120558   2.066   4.435   5.185 -1.5198 -0.4059  1.3092
 3033SOL    HW220559   2.135   4.365   5.296  3.5002 -1.2945 -1.8807
 3034SOL     OW20560   2.428   3.900   5.945 -0.2992 -0.0002 -0.3321
 3034SOL    HW120561   2.358   3.939   5.892  0.2935 -0.5799 -1.5347
 3034SOL    HW220562   2.436   3.818   5.896 -2.0132  0.0681 -0.7501
 3035SOL     OW20563   0.314   3.228   5.316  0.7722  0.4131  0.0418
 3035SOL    HW120564   0.355   3.192   5.394  0.9901  0.3197 -0.1157
 3035SOL    HW220565   0.328   3.147   5.267 -1.9692 -0.4847  0.7675
 3036SOL     OW20566   0.188   0.992   1.848 -0.4036  0.3309  0.3148
 3036SOL    HW120567   0.238   0.941   1.911 -1.3075 -1.0895 -0.1314
 3036SOL    HW220568   0.173   1.073   1.897 -2.1483  1.6683 -2.4552
 3037SOL     OW20569   2.516   1.724  13.281 -0.0157  0.6050 -0.2160
 3037SOL    HW120570   2.491   1.720  13.188 -0.8321  0.1379  0.0243
 3037SOL    HW220571   2.566   1.643  13.294  0.0684  0.6439 -0.2952
 3038SOL     OW20572   4.236   4.108  10.506  0.3824  0.4413 -0.1234
 3038SOL    HW120573   4.149   4.148  10.497  0.1774 -0.4862 -2.2448
 3038SOL    HW220574   4.216   4.015  10.502  0.1057  0.4755  0.4480
 3039SOL     OW20575   0.988   3.781  12.784  0.6666 -0.2175  0.0458
 3039SOL    HW120576   0.930   3.705  12.780  0.0939  0.2328 -0.1019
 3039SOL    HW220577   1.058   3.763  12.847  0.1280 -1.7212  0.2152
 3040SOL     OW20578   2.621   2.232  15.809 -0.1143 -0.2582  0.2036
 3040SOL    HW120579   2.591   2.146  15.781  1.6727 -1.5675  2.3621
 3040SOL    HW220580   2.628   2.274  15.723  0.9907  0.5852  0.7139
 3041SOL     OW20581   2.816   0.429   2.119 -0.9426 -0.0354 -0.2122
 3041SOL    HW120582   2.799   0.522   2.139  1.4313 -0.2435  2.8227
 3041SOL    HW220583   2.905   0.433   2.086 -0.6715 -4.8786 -0.0027
 3042SOL     OW20584   0.018   3.155  14.186  0.1407  0.2148  0.1136
 3042SOL    HW120585   4.659   3.120  14.210 -0.6231  1.6230 -0.5641
 3042SOL    HW220586   0.003   3.175  14.094 -0.8887  1.9488  0.6547
 3043SOL     OW20587   0.891   2.382   9.052  0.3301 -0.4486 -0.4067
 3043SOL    HW120588   0.891   2.288   9.037 -0.0101 -0.4151 -0.6039
 3043SOL    HW220589   0.960   2.389   9.118 -0.8093  1.8754  0.5564
 3044SOL     OW20590   3.332   2.344   6.438  0.0242 -0.5852 -0.4312
 3044SOL    HW120591   3.290   2.271   6.484  0.2602 -0.4838 -0.0550
 3044SOL    HW220592   3.268   2.408   6.466  0.2431 -0.8702  0.7093
 3045SOL     OW20593   0.180   1.122  12.441 -0.1129  0.6968  0.4743
 3045SOL    HW120594   0.172   1.127  12.346  0.0881  2.0593  0.5291
 3045SOL    HW220595   0.090   1.129  12.473  0.0986 -0.4105  1.3248
 3046SOL     OW20596   0.146   3.756   7.356  0.9760 -0.1083  0.2815
 3046SOL    HW120597   0.161   3.758   7.451 -0.0833 -1.9327  0.4696
 3046SOL    HW220598   0.214   3.817   7.326  1.1302 -1.0792 -1.3194
 3047SOL     OW20599   3.209   2.658   0.538  0.0484  0.1468 -0.7166
 3047SOL    HW120600   3.265   2.713   0.482  0.6915  1.1310  0.9042
 3047SOL    HW220601   3.220   2.707   0.619  0.9150 -1.2819  0.0404
 3048SOL     OW20602   3.273   1.457  11.860  0.3752 -0.4524  0.3422
 3048SOL    HW120603   3.243   1.548  11.856  0.2511 -0.5506 -0.9477
 3048SOL    HW220604   3.351   1.461  11.804  2.1743  0.3151  2.8924
 3049SOL     OW20605   1.626   2.951   2.675 -0.1900 -0.6613  0.2819
 3049SOL    HW120606   1.563   2.979   2.741  0.2913 -0.2409  0.5714
 3049SOL    HW220607   1.599   2.860   2.662  0.9583 -1.1615  1.4160
 3050SOL     OW20608   4.120   2.095   4.158  0.5550 -0.3665 -0.3865
 3050SOL    HW120609   4.029   2.067   4.172  0.2352  1.7101  1.6861
 3050SOL    HW220610   4.099   2.177   4.112 -0.2085 -0.9181 -1.0433
 3051SOL     OW20611   4.328   0.144   2.647  0.0344  0.4472 -0.2594
 3051SOL    HW120612   4.314   0.208   2.717  0.7628  0.4361 -0.1048
 3051SOL    HW220613   4.423   0.133   2.642  0.4066  2.0783  3.3984
 3052SOL     OW20614   3.998   0.369  13.634 -0.0755 -0.9779 -0.3201
 3052SOL    HW120615   3.927   0.405  13.686  1.8447 -1.3262  2.5254
 3052SOL    HW220616   3.952   0.349  13.552 -1.6324 -0.3477  0.4111
 3053SOL     OW20617   1.325   4.641   6.474  0.2688  0.0702 -0.0171
 3053SOL    HW120618   1.379   4.684   6.540 -1.4304  1.3498  0.5468
 3053SOL    HW220619   1.262   4.601   6.534  0.2923  0.5191  0.3007
 3054SOL     OW20620   3.534   2.809   1.909 -0.1417 -0.2909 -0.0115
 3054SOL    HW120621   3.498   2.736   1.960 -0.8181  0.4024  0.4937
 3054SOL    HW220622   3.628   2.790   1.905 -0.2691 -1.0539  0.5095
 3055SOL     OW20623   4.406   1.712   7.436  0.0066 -0.1173 -0.1508
 3055SOL    HW120624   4.349   1.686   7.509  2.7274 -1.8395  1.3352
 3055SOL    HW220625   4.442   1.792   7.473 -0.7629  0.4582 -0.6264
 3056SOL     OW20626   3.497   3.976   2.817  0.6291  0.0972 -0.0781
 3056SOL    HW120627   3.487   4.070   2.831 -1.5629 -0.4819  2.0895
 3056SOL    HW220628   3.555   3.950   2.888  2.2972 -0.6701 -1.7243
 3057SOL     OW20629   3.918   0.105   8.410  0.0590 -0.0389  0.2206
 3057SOL    HW120630   3.862   0.177   8.381 -0.6821  0.0307  1.8334
 3057SOL    HW220631   3.976   0.088   8.336 -0.7252 -0.7316 -0.2312
 3058SOL     OW20632   2.203   2.056   2.290  0.9116  0.1854 -0.3079
 3058SOL    HW120633   2.182   1.986   2.228  0.5398 -1.8736  2.1528
 3058SOL    HW220634   2.274   2.008   2.333  1.2376 -1.7750 -3.0478
 3059SOL     OW20635   3.021   4.137   1.690  0.0786  0.6009 -0.2610
 3059SOL    HW120636   3.115   4.152   1.687  0.1557  0.0516 -0.8258
 3059SOL    HW220637   3.002   4.207   1.753 -2.1706 -0.6758  0.4899
 3060SOL     OW20638   3.412   3.803   6.305  0.4187 -0.3731  0.2893
 3060SOL    HW120639   3.321   3.818   6.277  0.9209  1.4743 -0.3843
 3060SOL    HW220640   3.399   3.808   6.400 -3.5492  0.1166 -0.2732
 3061SOL     OW20641   3.401   4.011   4.122  0.0963  0.1365 -0.8953
 3061SOL    HW120642   3.343   3.937   4.139 -0.6768  1.0224  0.2399
 3061SOL    HW220643   3.376   4.075   4.189  0.8579 -1.2850  0.7459
 3062SOL     OW20644   0.130   1.230   8.311 -0.4938  0.0570 -0.0108
 3062SOL    HW120645   0.122   1.300   8.246 -1.4043 -0.3322 -0.3292
 3062SOL    HW220646   0.101   1.158   8.255  0.8385 -1.1029  0.8097
 3063SOL     OW20647   4.477   3.430   5.201 -0.7057  0.1778  0.7636
 3063SOL    HW120648   4.487   3.404   5.292  1.1319 -0.5471  0.3584
 3063SOL    HW220649   4.487   3.355   5.143 -0.4503 -0.6284  1.8606
 3064SOL     OW20650   4.556   1.530   2.665 -0.6539  0.0711  0.1630
 3064SOL    HW120651   4.518   1.592   2.603  1.4998 -0.6493 -1.8666
 3064SOL    HW220652   4.608   1.592   2.717  0.4928 -0.1461 -0.7459
 3065SOL     OW20653   1.662   3.331   7.498  0.3425 -0.3722  0.3384
 3065SOL    HW120654   1.586   3.360   7.548  0.2870 -0.3162  0.2205
 3065SOL    HW220655   1.711   3.413   7.502 -2.8999  1.6046 -0.3554
 3066SOL     OW20656   3.263   3.642   8.234  0.1526  0.0537  0.5346
 3066SOL    HW120657   3.224   3.686   8.310  1.5717  0.8781  0.7921
 3066SOL    HW220658   3.350   3.673   8.259  1.4459 -3.7921  0.8298
 3067SOL     OW20659   4.320   0.762   6.429  0.4033  0.6111 -0.9345
 3067SOL    HW120660   4.333   0.826   6.499  0.1466 -0.7870  0.3636
 3067SOL    HW220661   4.353   0.682   6.470 -1.1498  0.9417  0.9581
 3068SOL     OW20662   3.050   1.369   6.596  0.4910 -0.4700  0.0848
 3068SOL    HW120663   3.036   1.313   6.673  1.0782 -1.1861 -0.3239
 3068SOL    HW220664   3.142   1.357   6.574  0.3563 -1.2748 -0.0714
 3069SOL     OW20665   1.751   0.747   3.983 -0.4495 -0.3896  0.5272
 3069SOL    HW120666   1.742   0.842   3.997  1.3890 -0.0015 -0.8235
 3069SOL    HW220667   1.693   0.718   4.052 -3.8831  1.2549 -1.6345
 3070SOL     OW20668   1.098   4.049   7.589 -0.0908  0.0755 -0.1732
 3070SOL    HW120669   1.022   4.013   7.544 -0.2564 -1.2214  1.1525
 3070SOL    HW220670   1.067   4.133   7.622 -0.3708  0.8063 -2.3025
 3071SOL     OW20671   4.680   1.813   8.332  0.7610 -0.5006  0.7819
 3071SOL    HW120672   0.029   1.854   8.289  1.5728 -1.9188  0.8549
 3071SOL    HW220673   4.607   1.869   8.306  0.2401 -2.1087 -1.2943
 3072SOL     OW20674   0.788   0.346   8.957 -0.2650  0.3235 -0.1754
 3072SOL    HW120675   0.692   0.350   8.952 -0.5236 -3.8231  1.3151
 3072SOL    HW220676   0.805   0.411   9.025 -0.2195 -0.0989  0.2140
 3073SOL     OW20677   1.319   0.402   3.613 -0.1997  0.2312 -0.3169
 3073SOL    HW120678   1.267   0.470   3.657  0.2224  0.5543 -0.3166
 3073SOL    HW220679   1.393   0.406   3.673 -0.7649  0.4608  0.3729
 3074SOL     OW20680   4.612   4.680   6.991  0.1412  0.3376  0.2462
 3074SOL    HW120681   4.540   4.661   7.050 -1.9665  0.9721 -2.1540
 3074SOL    HW220682   4.651   0.026   7.039  1.4827  0.9189 -1.7474
 3075SOL     OW20683   3.688   1.929   7.720  0.4805  0.1872  0.3214
 3075SOL    HW120684   3.706   1.841   7.689 -1.7257  0.2591 -1.1722
 3075SOL    HW220685   3.621   1.902   7.782 -1.3041  0.6359 -1.3902
 3076SOL     OW20686   3.503   3.596   2.359 -0.2827  0.1373  0.1468
 3076SOL    HW120687   3.492   3.691   2.364  5.2925  0.7588  1.1050
 3076SOL    HW220688   3.596   3.583   2.376 -0.5211 -2.2316 -0.4023
 3077SOL     OW20689   3.550   4.480   6.102  0.3750  0.0036  0.0586
 3077SOL    HW120690   3.635   4.521   6.089 -0.8627  1.4964 -3.1885
 3077SOL    HW220691   3.559   4.443   6.190  3.6989  1.6945  0.4314
 3078SOL     OW20692   0.329   4.357  13.823 -0.0426  0.0908  0.2817
 3078SOL    HW120693   0.362   4.445  13.802  0.5831 -0.0464  0.6905
 3078SOL    HW220694   0.247   4.356  13.774  0.4935  1.3008 -0.6510
 3079SOL     OW20695   2.576   2.849   8.211 -0.5973 -0.3851  0.1490
 3079SOL    HW120696   2.638   2.789   8.251  0.2382 -0.1809 -0.8265
 3079SOL    HW220697   2.498   2.811   8.250  0.5886 -1.3713  1.5335
 3080SOL     OW20698   2.124   0.522   2.688 -0.4440 -0.3758 -0.1015
 3080SOL    HW120699   2.217   0.507   2.669 -0.1126  1.3095  0.1828
 3080SOL    HW220700   2.111   0.613   2.714  1.7804 -0.1297  0.2125
 3081SOL     OW20701   1.447   2.829   0.735 -0.0437  0.1572 -0.9223
 3081SOL    HW120702   1.358   2.863   0.743 -0.2443 -0.4484 -0.5773
 3081SOL    HW220703   1.428   2.750   0.785  1.9187  0.3224  0.0780
 3082SOL     OW20704   1.692   3.826   0.943  0.1955 -0.4855 -0.2838
 3082SOL    HW120705   1.670   3.735   0.927 -2.7960  0.1561  0.0816
 3082SOL    HW220706   1.659   3.858   1.027  0.1276 -1.1288 -0.0720
 3083SOL     OW20707   3.968   1.521   7.117 -0.7032 -0.0138 -0.2274
 3083SOL    HW120708   3.973   1.442   7.170  0.5205 -0.9477 -1.7448
 3083SOL    HW220709   4.009   1.594   7.164  1.6345 -1.4419 -0.0720
 3084SOL     OW20710   3.368   2.561   5.285  0.6997 -0.0782 -0.2508
 3084SOL    HW120711   3.370   2.502   5.360  0.6879  0.4085  0.1336
 3084SOL    HW220712   3.453   2.544   5.244  1.2484 -1.2488  1.3681
 3085SOL     OW20713   4.481   2.934  13.923  0.0242  0.4727 -0.2969
 3085SOL    HW120714   4.507   2.843  13.907  2.5051  1.1341  0.0126
 3085SOL    HW220715   4.411   2.938  13.858 -0.7093 -0.3356  0.4424
 3086SOL     OW20716   2.136   3.996   4.920 -0.4932  0.2028 -0.4183
 3086SOL    HW120717   2.066   3.995   4.985  0.2604 -2.3538  0.3371
 3086SOL    HW220718   2.143   3.906   4.889  1.5139  0.1362  0.2246
 3087SOL     OW20719   2.059   1.231  15.174 -0.4865  0.1766  0.0408
 3087SOL    HW120720   2.031   1.139  15.179  0.1943 -0.0983 -1.1815
 3087SOL    HW220721   1.975   1.274  15.192 -0.1053  0.2727  1.5610
 3088SOL     OW20722   3.586   0.352  14.781  0.0360 -0.1819  0.2454
 3088SOL    HW120723   3.642   0.276  14.768  1.9842  1.0468  1.3692
 3088SOL    HW220724   3.656   0.415  14.801 -0.7573  0.0463  2.3292
 3089SOL     OW20725   0.440   0.496   3.365 -0.1988 -0.2223 -0.7258
 3089SOL    HW120726   0.371   0.431   3.376 -1.7364  1.4178 -0.6026
 3089SOL    HW220727   0.444   0.505   3.270  2.4005  0.2175 -0.5773
 3090SOL     OW20728   0.663   3.970   6.128 -0.1124  1.0400  0.0064
 3090SOL    HW120729   0.586   4.023   6.150  0.7361  0.4050  4.5601
 3090SOL    HW220730   0.713   3.975   6.210 -0.6960  1.0650  0.3634
 3091SOL     OW20731   2.417   4.107   1.195  0.3724 -0.1005  0.2543
 3091SOL    HW120732   2.416   4.123   1.101  0.8472 -4.7669 -0.5500
 3091SOL    HW220733   2.483   4.040   1.210  1.8241  1.5410  1.2378
 3092SOL     OW20734   2.846   4.037   9.089  0.3043 -0.3174  0.3086
 3092SOL    HW120735   2.933   4.068   9.063 -0.3906 -0.7952 -2.6017
 3092SOL    HW220736   2.819   3.978   9.018  1.9468  0.4716 -0.9676
 3093SOL     OW20737   1.828   2.302   8.094 -0.0053 -0.1935  0.6445
 3093SOL    HW120738   1.915   2.304   8.134 -0.2943 -0.8129  1.3073
 3093SOL    HW220739   1.776   2.354   8.156 -2.1788 -0.8711 -0.6168
 3094SOL     OW20740   2.082   1.054  12.590  0.7766 -0.0136  0.5138
 3094SOL    HW120741   2.059   1.146  12.591 -0.5253 -0.2991 -2.0221
 3094SOL    HW220742   2.000   1.005  12.589  1.3043 -0.8829 -0.8236
 3095SOL     OW20743   2.544   0.411   8.903  0.0163  0.2958  0.6713
 3095SOL    HW120744   2.566   0.390   8.994  1.3866 -3.8742 -0.5911
 3095SOL    HW220745   2.466   0.463   8.917  0.3544  1.5641 -2.2430
 3096SOL     OW20746   3.469   2.538   4.434  0.0430 -0.0211 -0.1863
 3096SOL    HW120747   3.541   2.495   4.386  1.0083  0.4554  0.8231
 3096SOL    HW220748   3.403   2.469   4.438  0.0444  0.0495  0.9886
 3097SOL     OW20749   3.611   3.586   6.266  0.3798  0.5745  0.0770
 3097SOL    HW120750   3.547   3.657   6.265 -1.2672 -0.9402 -1.4069
 3097SOL    HW220751   3.555   3.535   6.325  1.1206 -0.0183  0.2584
 3098SOL     OW20752   3.090   4.301   5.754  0.2678 -0.4894  0.3567
 3098SOL    HW120753   3.145   4.242   5.702  0.2412  1.5453 -2.0230
 3098SOL    HW220754   3.039   4.337   5.681 -0.8040 -1.7005  0.5032
 3099SOL     OW20755   3.056   2.160  14.863  0.4606 -0.4504 -0.0205
 3099SOL    HW120756   3.005   2.101  14.918 -0.2019  3.1203  3.2532
 3099SOL    HW220757   2.984   2.184  14.804  1.3151 -4.6496 -2.7582
 3100SOL     OW20758   2.439   3.119   4.697  0.4007 -0.1664 -0.1509
 3100SOL    HW120759   2.371   3.128   4.631  1.4742  1.8948 -0.9528
 3100SOL    HW220760   2.455   3.207   4.729  0.8073 -0.2185 -0.2139
 3101SOL     OW20761   2.422   3.229  12.985  0.2298  0.0147  0.5789
 3101SOL    HW120762   2.495   3.279  13.021 -0.7684  2.6137 -0.9525
 3101SOL    HW220763   2.397   3.193  13.070 -0.8803  0.3130  0.3872
 3102SOL     OW20764   1.357   2.293   1.199  0.5078  0.1031 -0.1487
 3102SOL    HW120765   1.409   2.367   1.229  0.9925 -1.0502  1.9056
 3102SOL    HW220766   1.368   2.299   1.104 -0.4473 -3.3791 -0.4922
 3103SOL     OW20767   2.436   2.193   1.237  0.0035 -0.0831  0.1379
 3103SOL    HW120768   2.447   2.286   1.258  4.4862 -0.2694 -1.4334
 3103SOL    HW220769   2.520   2.160   1.268 -0.0549  0.2157  0.6081
 3104SOL     OW20770   4.673   3.148   9.012 -0.3588 -0.1617  0.4146
 3104SOL    HW120771   4.618   3.219   8.978  1.4738  1.5425  1.0543
 3104SOL    HW220772   0.023   3.205   9.016 -0.9289  0.6736 -0.4504
 3105SOL     OW20773   0.522   3.829  11.787  0.3212  0.3183  0.1306
 3105SOL    HW120774   0.616   3.826  11.768  0.0061  0.2280 -1.4204
 3105SOL    HW220775   0.485   3.814  11.700 -0.4048 -0.0244  0.5032
 3106SOL     OW20776   3.274   1.773   4.462  0.1969  0.4216 -0.1712
 3106SOL    HW120777   3.367   1.766   4.482 -0.4172 -1.0183  2.1926
 3106SOL    HW220778   3.234   1.694   4.498 -1.6667  1.0880 -0.8006
 3107SOL     OW20779   2.956   1.828   4.278 -0.1271  0.0284  0.3230
 3107SOL    HW120780   3.040   1.874   4.284  0.3030 -1.0894  2.7661
 3107SOL    HW220781   2.915   1.883   4.212  0.6601  0.3711  0.1132
 3108SOL     OW20782   3.675   3.302   2.090  0.0268  0.2674 -0.0350
 3108SOL    HW120783   3.717   3.276   2.008  0.5581  0.3417  0.2127
 3108SOL    HW220784   3.692   3.223   2.141 -1.2456 -0.1951 -0.3311
 3109SOL     OW20785   1.774   4.585   7.471 -0.2659 -0.5392  0.2706
 3109SOL    HW120786   1.745   4.670   7.437 -0.9953 -0.7123  0.4627
 3109SOL    HW220787   1.860   4.613   7.503 -0.4276 -1.0401  1.1197
 3110SOL     OW20788   0.665   2.893   3.189 -0.3757  0.3581  0.1963
 3110SOL    HW120789   0.624   2.938   3.263  2.0204 -0.1542  1.8192
 3110SOL    HW220790   0.598   2.825   3.178  0.1004 -0.1912  0.7196
 3111SOL     OW20791   1.697   3.038   1.360  0.4565  0.4990  0.6971
 3111SOL    HW120792   1.637   3.088   1.415 -0.3374 -0.4258  0.6825
 3111SOL    HW220793   1.674   3.079   1.276 -2.4911 -1.4226  0.5254
 3112SOL     OW20794   3.940   1.385   5.515 -0.1160  0.1691 -0.5858
 3112SOL    HW120795   4.014   1.411   5.460  0.6717  1.0658  0.8975
 3112SOL    HW220796   3.879   1.367   5.443  0.8186 -0.2646 -1.2665
 3113SOL     OW20797   3.317   4.226   8.314 -0.4333  0.2574 -0.4362
 3113SOL    HW120798   3.376   4.155   8.289 -2.0594 -0.1881 -2.9479
 3113SOL    HW220799   3.370   4.304   8.293 -0.7082  0.4383 -0.4552
 3114SOL     OW20800   3.760   2.438   2.776  0.1203 -0.0487  0.0447
 3114SOL    HW120801   3.844   2.482   2.762 -0.2608  1.2460  1.8888
 3114SOL    HW220802   3.764   2.377   2.702 -1.0838  1.0405 -0.9177
 3115SOL     OW20803   3.345   0.468   5.252 -0.1031 -0.1158  0.1064
 3115SOL    HW120804   3.383   0.522   5.321 -0.7232 -0.9985  1.1439
 3115SOL    HW220805   3.402   0.392   5.250  0.0568 -0.0099  0.6124
 3116SOL     OW20806   1.004   3.682   4.669  0.3160  0.0882 -0.1562
 3116SOL    HW120807   1.082   3.636   4.700 -0.9366 -0.9696  1.4692
 3116SOL    HW220808   1.014   3.680   4.574  2.1160  0.4053  0.0437
 3117SOL     OW20809   1.363   3.804   8.714 -0.1876  0.1899 -0.4124
 3117SOL    HW120810   1.365   3.791   8.620 -1.6599  2.9704 -0.8078
 3117SOL    HW220811   1.403   3.723   8.746  2.3533  1.8451  0.6132
 3118SOL     OW20812   0.972   4.495   5.445  0.2243  0.1337  0.3159
 3118SOL    HW120813   0.981   4.443   5.366  1.3673  0.6375  0.1212
 3118SOL    HW220814   0.993   4.581   5.410 -1.3664  0.6394  0.5988
 3119SOL     OW20815   4.103   0.297   5.106  0.1391  0.0123  0.1507
 3119SOL    HW120816   4.125   0.213   5.147 -0.3787 -0.7333 -1.1172
 3119SOL    HW220817   4.008   0.295   5.095  0.0363 -0.4238  1.0896
 3120SOL     OW20818   1.597   3.202   5.875 -0.4828 -0.2544  0.1883
 3120SOL    HW120819   1.564   3.112   5.875 -1.8227  0.2256 -1.8155
 3120SOL    HW220820   1.576   3.220   5.783 -1.0514  0.1657  0.4024
 3121SOL     OW20821   0.960   2.989   9.344  0.4910 -0.0854  0.4810
 3121SOL    HW120822   0.975   2.940   9.426 -0.4235  0.0727  0.7372
 3121SOL    HW220823   0.987   2.932   9.272 -1.4534  1.5319 -1.4686
 3122SOL     OW20824   3.140   3.478   0.420  0.0159 -0.1327  0.1561
 3122SOL    HW120825   3.057   3.442   0.451  0.8431 -1.5658  0.7066
 3122SOL    HW220826   3.156   3.545   0.488  1.4669  0.0765 -0.4020
 3123SOL     OW20827   2.022   1.193   3.698 -0.1554  0.4424 -0.2643
 3123SOL    HW120828   2.028   1.231   3.785 -0.1632 -2.5045  1.0491
 3123SOL    HW220829   2.082   1.251   3.651  1.2580 -0.9188 -0.1359
 3124SOL     OW20830   3.183   0.199   7.995 -0.6678 -0.0037  0.1769
 3124SOL    HW120831   3.198   0.218   7.903 -1.6515  1.2308  0.2759
 3124SOL    HW220832   3.268   0.169   8.026 -0.2633  2.0495  1.0097
 3125SOL     OW20833   1.180   1.781   1.684  0.2179  0.4855 -0.4276
 3125SOL    HW120834   1.182   1.721   1.610  0.7331  0.9562 -0.7992
 3125SOL    HW220835   1.252   1.843   1.673 -0.8318  1.8684  0.4906
 3126SOL     OW20836   3.303   2.212   6.811  0.4479  0.0777 -1.0581
 3126SOL    HW120837   3.336   2.209   6.901 -1.3683  1.0947 -0.3568
 3126SOL    HW220838   3.278   2.304   6.809  2.6408  0.6669 -1.5619
 3127SOL     OW20839   1.578   2.945   7.904 -0.5099  0.3416 -0.2549
 3127SOL    HW120840   1.572   2.858   7.944  0.8860  0.3533 -0.0043
 3127SOL    HW220841   1.658   2.929   7.854  0.1571  1.0211  0.5842
 3128SOL     OW20842   1.157   1.804   3.351 -0.3344  0.5513 -0.4584
 3128SOL    HW120843   1.157   1.889   3.306  4.9425  1.5285  1.3442
 3128SOL    HW220844   1.102   1.837   3.422  0.4219  1.6035 -0.3499
 3129SOL     OW20845   1.372   4.610   2.998 -0.1868 -0.0589 -0.1722
 3129SOL    HW120846   1.334   4.604   2.910  1.8631  1.6723 -1.1830
 3129SOL    HW220847   1.339   4.529   3.035 -1.5732 -0.0368 -1.3482
 3130SOL     OW20848   2.079   4.427   7.327  0.9502  0.1129 -0.3414
 3130SOL    HW120849   2.027   4.445   7.249  3.2168  2.0324 -1.4059
 3130SOL    HW220850   2.087   4.333   7.308  3.4190  0.3678 -0.5573
 3131SOL     OW20851   4.456   2.162   4.567 -0.2518 -0.1857  0.2592
 3131SOL    HW120852   4.397   2.234   4.547 -0.9391 -1.3372 -1.8430
 3131SOL    HW220853   4.444   2.159   4.662 -1.1275 -1.7536  0.0882
 3132SOL     OW20854   3.877   1.402   4.032  0.5654  0.0493  0.3129
 3132SOL    HW120855   3.915   1.355   3.958 -0.1588 -0.0357 -0.0030
 3132SOL    HW220856   3.793   1.358   4.043  0.4356 -0.4070 -2.5776
 3133SOL     OW20857   3.321   2.851   3.954 -0.1472 -0.3650 -0.2074
 3133SOL    HW120858   3.414   2.845   3.933  0.1234  0.6692  0.6455
 3133SOL    HW220859   3.286   2.834   3.867 -1.1089  2.3558 -0.3570
 3134SOL     OW20860   1.479   0.130   3.038 -0.5726  0.0326  0.3174
 3134SOL    HW120861   1.455   0.037   3.037 -1.4748  0.2713  0.1932
 3134SOL    HW220862   1.557   0.134   2.982 -0.5265  0.3110  0.4033
 3135SOL     OW20863   4.182   3.851   8.953  0.2700  0.2441  0.6061
 3135SOL    HW120864   4.162   3.758   8.942  2.6884 -0.1711 -0.3062
 3135SOL    HW220865   4.093   3.878   8.975  1.3451  2.9659  1.5883
 3136SOL     OW20866   4.382   1.503   4.497  0.0058 -0.0344  0.9084
 3136SOL    HW120867   4.319   1.517   4.427  0.5471 -1.1184  0.1962
 3136SOL    HW220868   4.378   1.408   4.509 -1.3454 -0.2086 -0.9053
 3137SOL     OW20869   4.702   4.686   1.898  0.4138 -0.3545  0.2325
 3137SOL    HW120870   4.726   4.636   1.976  0.8847 -1.5482 -0.6789
 3137SOL    HW220871   4.622   0.006   1.922 -0.4585 -0.7734 -1.8460
 3138SOL     OW20872   0.480   0.731   3.079 -0.0276  0.4421 -0.3600
 3138SOL    HW120873   0.448   0.816   3.047  0.5183  0.4291 -0.9149
 3138SOL    HW220874   0.504   0.687   2.998  0.1647  0.8906 -0.5483
 3139SOL     OW20875   4.550   1.427   5.809 -0.1879  0.3030 -0.2082
 3139SOL    HW120876   4.508   1.362   5.866  3.1181 -0.9227  0.8010
 3139SOL    HW220877   4.509   1.413   5.723 -0.8088  0.3078  0.0864
 3140SOL     OW20878   3.261   1.453   0.889 -0.0787  0.6060  0.8640
 3140SOL    HW120879   3.293   1.368   0.858 -0.0961  0.6688  0.6697
 3140SOL    HW220880   3.186   1.428   0.942  0.1823 -0.8963  0.5278
 3141SOL     OW20881   0.543   4.546   3.597 -0.0235 -0.0882  0.1982
 3141SOL    HW120882   0.581   4.527   3.511 -0.0832 -2.1354  0.6272
 3141SOL    HW220883   0.626   4.535   3.644  0.0339 -2.2341 -0.4126
 3142SOL     OW20884   4.031   4.140   6.091  0.3706 -0.0419 -0.0486
 3142SOL    HW120885   4.010   4.129   6.183  1.9714 -3.5413 -0.1243
 3142SOL    HW220886   4.068   4.229   6.086  1.5105 -0.5431 -0.5428
 3143SOL     OW20887   1.843   3.234  17.555  0.0692 -0.3298 -0.0075
 3143SOL    HW120888   1.928   3.203  17.522  1.1702  1.5533  1.0162
 3143SOL    HW220889   1.791   3.159  17.581  0.1566  0.6956  3.1635
 3144SOL     OW20890   2.051   2.508  17.579 -0.6575  0.0059  0.1724
 3144SOL    HW120891   2.092   2.567  17.515  2.0110 -0.9998  0.9327
 3144SOL    HW220892   2.043   2.561  17.658 -0.9664  0.0479  0.1123
 3145SOL     OW20893   3.408   2.573   1.978  0.2881  0.1362 -0.5453
 3145SOL    HW120894   3.367   2.521   2.047  3.2209 -0.9916  0.3738
 3145SOL    HW220895   3.445   2.495   1.936 -0.9334 -1.2644  0.9618
 3146SOL     OW20896   1.601   3.348   3.231  0.0750  0.0947  0.1237
 3146SOL    HW120897   1.556   3.427   3.200 -0.7475  0.1415  1.4338
 3146SOL    HW220898   1.555   3.339   3.315  0.9960  1.7314  0.8024
 3147SOL     OW20899   0.079   3.516   2.553 -0.0362  0.6388 -0.4343
 3147SOL    HW120900   0.012   3.575   2.588  2.6948  3.0308  0.7495
 3147SOL    HW220901   0.025   3.450   2.509 -0.5528 -0.0534  1.2515
 3148SOL     OW20902   1.606   0.355   5.518 -0.2866  0.3923  0.5200
 3148SOL    HW120903   1.682   0.306   5.486  1.1976  3.1907 -0.2177
 3148SOL    HW220904   1.533   0.311   5.473 -0.9177  3.4638 -1.4846
 3149SOL     OW20905   3.726   1.904   7.198 -0.2046 -0.3129  0.6640
 3149SOL    HW120906   3.693   1.944   7.117  2.7955  2.3165  0.7770
 3149SOL    HW220907   3.667   1.942   7.263 -0.4703  0.3419  0.0392
 3150SOL     OW20908   1.385   2.493   5.442 -0.3983 -0.1588 -0.6741
 3150SOL    HW120909   1.358   2.405   5.467  3.0559 -2.0110 -3.4622
 3150SOL    HW220910   1.448   2.472   5.373 -0.8951 -1.4191 -0.7274
 3151SOL     OW20911   3.270   2.579  16.787 -0.2567 -0.2190  0.1380
 3151SOL    HW120912   3.241   2.513  16.725 -1.5376  1.8732 -1.4786
 3151SOL    HW220913   3.326   2.517  16.835 -0.4070  1.0081  1.8998
 3152SOL     OW20914   4.593   0.274   6.303  0.1823 -0.3235 -0.6788
 3152SOL    HW120915   4.534   0.252   6.375  1.2261  0.9435  0.5693
 3152SOL    HW220916   4.665   0.218   6.332  0.8243  0.4127 -0.8266
 3153SOL     OW20917   2.782   0.003   6.278 -0.2198 -0.1377  0.1254
 3153SOL    HW120918   2.725   0.064   6.325 -2.2984 -1.5811 -0.5319
 3153SOL    HW220919   2.863   0.010   6.328 -0.1898 -0.3533  0.1054
 3154SOL     OW20920   4.276   3.114   3.429  0.1816 -0.2054 -0.0177
 3154SOL    HW120921   4.204   3.159   3.385 -0.6107 -0.7354  0.7425
 3154SOL    HW220922   4.234   3.042   3.476  1.0776 -0.9281 -0.3305
 3155SOL     OW20923   4.067   4.135   1.586  0.4962 -0.0731 -0.6232
 3155SOL    HW120924   4.099   4.081   1.514  2.5715  2.6643 -1.7315
 3155SOL    HW220925   3.999   4.081   1.626 -2.8271  3.7891 -1.0378
 3156SOL     OW20926   2.597   0.987   4.036 -0.1899 -0.1275 -0.2907
 3156SOL    HW120927   2.615   0.990   3.942  0.4758 -0.3377 -0.1697
 3156SOL    HW220928   2.683   1.014   4.068 -0.0112  0.8007 -1.5799
 3157SOL     OW20929   0.111   3.675   2.989 -0.0388 -0.1878 -0.5859
 3157SOL    HW120930   0.018   3.654   2.987  0.3106 -1.7511 -0.4887
 3157SOL    HW220931   0.116   3.733   3.064  0.8593 -0.7309 -0.2201
 3158SOL     OW20932   1.608   0.750   6.470  0.3195 -0.0200  0.6003
 3158SOL    HW120933   1.634   0.836   6.502 -1.1045  1.0227 -1.0456
 3158SOL    HW220934   1.693   0.709   6.485  0.7534  0.3339 -0.9333
 3159SOL     OW20935   4.387   3.484   5.687  0.0676  0.7133 -0.0139
 3159SOL    HW120936   4.396   3.495   5.782  0.4901  1.0849 -0.0990
 3159SOL    HW220937   4.476   3.461   5.659  0.4707  1.1770  0.8828
 3160SOL     OW20938   2.229   3.617   0.240 -0.2684  0.3521 -0.1111
 3160SOL    HW120939   2.175   3.580   0.170 -0.4309 -1.8845  1.2077
 3160SOL    HW220940   2.265   3.694   0.195 -0.1188  1.3349  1.6578
 3161SOL     OW20941   0.078   2.505   8.862 -0.2695 -0.6697 -0.1395
 3161SOL    HW120942   0.101   2.429   8.808  0.6249  0.5987 -1.5210
 3161SOL    HW220943   0.124   2.485   8.944 -2.5666 -1.6288  0.9266
 3162SOL     OW20944   0.634   2.825   1.672  0.3805  0.2053  0.0490
 3162SOL    HW120945   0.596   2.771   1.741  0.4199  1.8741  1.3984
 3162SOL    HW220946   0.600   2.778   1.596 -0.6757 -1.8951  1.8433
 3163SOL     OW20947   1.064   1.124   0.257  0.6690  0.1059  0.3275
 3163SOL    HW120948   1.006   1.096   0.187  0.5167  0.8545  0.1530
 3163SOL    HW220949   1.148   1.088   0.228  1.4994  1.8370  0.5899
 3164SOL     OW20950   2.521   1.056   8.830  0.1417 -0.2040 -0.2366
 3164SOL    HW120951   2.606   1.014   8.823 -0.4566 -1.4343 -0.1090
 3164SOL    HW220952   2.467   0.996   8.779  0.5014 -0.4859 -0.2819
 3165SOL     OW20953   3.936   1.367   8.276  0.0156 -0.4952 -0.0796
 3165SOL    HW120954   3.958   1.364   8.370  2.2309  1.2813 -0.5304
 3165SOL    HW220955   3.944   1.276   8.248  1.1758  0.2094 -2.0028
 3166SOL     OW20956   1.130   2.663   0.194 -0.1179  0.3614  0.1524
 3166SOL    HW120957   1.035   2.674   0.190 -0.0258  0.4389 -1.5696
 3166SOL    HW220958   1.154   2.571   0.179  0.6321  0.4885  0.5254
 3167SOL     OW20959   0.278   2.329  12.690  0.2655 -0.0597 -0.2062
 3167SOL    HW120960   0.200   2.364  12.647  1.0731  0.6472 -1.1135
 3167SOL    HW220961   0.232   2.267  12.747  2.0926 -2.4018 -1.2802
 3168SOL     OW20962   0.092   1.214  14.330 -0.3639  0.1123  0.2250
 3168SOL    HW120963   0.136   1.130  14.343  0.2867  0.6192  1.2436
 3168SOL    HW220964   0.041   1.231  14.409 -0.9969 -1.2252  0.1080
 3169SOL     OW20965   3.566   3.819   1.495 -0.2552  0.0207  0.3655
 3169SOL    HW120966   3.474   3.842   1.508  0.2427  0.9377  2.3300
 3169SOL    HW220967   3.602   3.887   1.553 -2.2087  2.5615 -1.3829
 3170SOL     OW20968   3.575   3.160  11.940  0.2572 -0.6062  0.6917
 3170SOL    HW120969   3.536   3.172  11.854 -0.5924 -0.7536  1.0510
 3170SOL    HW220970   3.665   3.143  11.913  1.2053  2.3022  1.9817
 3171SOL     OW20971   4.675   0.764   5.081  0.0506 -0.1098 -0.5427
 3171SOL    HW120972   4.687   0.701   5.152  1.5197 -0.3441 -1.0035
 3171SOL    HW220973   4.589   0.736   5.050  0.5457 -1.9825 -0.2400
 3172SOL     OW20974   0.067   2.094   8.943 -0.3755 -0.0937  0.0953
 3172SOL    HW120975   0.054   2.003   8.917  2.0469 -0.9685  1.9969
 3172SOL    HW220976   0.115   2.135   8.872 -1.8251 -1.5221 -1.7086
 3173SOL     OW20977   4.208   3.028   6.682  1.1771  0.1659 -0.0842
 3173SOL    HW120978   4.161   3.013   6.600 -0.2684  0.4925  0.6906
 3173SOL    HW220979   4.148   3.010   6.753  0.1497 -0.4688 -1.1233
 3174SOL     OW20980   3.110   4.528   2.615  0.0210 -0.2188  0.2968
 3174SOL    HW120981   3.137   4.493   2.700  0.5081 -0.8361 -0.1101
 3174SOL    HW220982   3.115   4.623   2.624 -0.1556 -0.3180  1.4801
 3175SOL     OW20983   0.149   0.597   6.045 -0.1987 -0.7879 -0.2657
 3175SOL    HW120984   0.071   0.625   5.997  0.6416  3.8339  1.1254
 3175SOL    HW220985   0.120   0.564   6.130  1.2185  1.0382  0.9299
 3176SOL     OW20986   0.399   4.275   1.206 -0.2233  0.1092 -0.0716
 3176SOL    HW120987   0.390   4.338   1.134  0.2484  1.5113  1.1070
 3176SOL    HW220988   0.422   4.334   1.277  1.2677 -1.2630  0.5892
 3177SOL     OW20989   4.565   3.310  17.113 -0.5861 -0.5779 -0.5618
 3177SOL    HW120990   4.542   3.363  17.190 -1.5744  0.3380 -1.4930
 3177SOL    HW220991   4.548   3.221  17.145  0.7830  0.0555  1.9588
 3178SOL     OW20992   3.800   0.725   2.176 -0.1907  0.6103  0.3958
 3178SOL    HW120993   3.770   0.757   2.261  1.0380  0.5301  0.8760
 3178SOL    HW220994   3.740   0.651   2.164  0.7900 -0.3701  1.4312
 3179SOL     OW20995   1.354   4.578   0.879 -0.1320 -0.2497  0.4863
 3179SOL    HW120996   1.305   4.562   0.798 -0.3994 -1.8876  0.9607
 3179SOL    HW220997   1.378   4.670   0.881 -0.0565 -0.2700  0.5031
 3180SOL     OW20998   2.004   2.998   1.680  0.2659  0.2982 -0.2088
 3180SOL    HW120999   2.005   2.990   1.585 -0.0581  1.5810 -0.3255
 3180SOL    HW221000   1.987   3.092   1.682  0.2705  0.2453  2.5306
 3181SOL     OW21001   4.636   2.529   4.026  0.3533  0.5362 -0.2641
 3181SOL    HW121002   4.723   2.523   3.985  0.7417  0.3752  0.5797
 3181SOL    HW221003   4.579   2.518   3.951 -1.3434 -0.5805  1.1983
 3182SOL     OW21004   0.468   3.290   5.772  0.0500  0.3298 -0.4197
 3182SOL    HW121005   0.418   3.216   5.738 -0.2719  0.3379  0.0384
 3182SOL    HW221006   0.495   3.251   5.855 -0.5198 -0.8557 -0.7891
 3183SOL     OW21007   1.746   4.579   4.443  0.0630  0.2838  0.7133
 3183SOL    HW121008   1.798   4.660   4.447 -0.6854  0.7467  1.2179
 3183SOL    HW221009   1.677   4.584   4.510 -0.7427 -1.7090  0.0296
 3184SOL     OW21010   2.579   3.069  11.521  0.5433 -0.0507 -0.0011
 3184SOL    HW121011   2.534   3.071  11.605  1.3429 -0.4805  0.4328
 3184SOL    HW221012   2.504   3.074  11.462  0.4055 -1.4786  0.0563
 3185SOL     OW21013   1.368   1.854  12.980 -0.0106 -0.1451 -0.2107
 3185SOL    HW121014   1.452   1.891  13.007  0.0093  0.0183 -0.4951
 3185SOL    HW221015   1.400   1.812  12.899  3.0111  0.4450  0.6694
 3186SOL     OW21016   1.453   3.892  16.758  0.3011 -0.6558  0.4212
 3186SOL    HW121017   1.495   3.978  16.764 -1.2930 -0.0175  2.5799
 3186SOL    HW221018   1.445   3.886  16.663 -2.4743 -2.7308  0.7734
 3187SOL     OW21019   2.366   2.975   7.148 -0.0080 -0.1205  0.2290
 3187SOL    HW121020   2.332   2.914   7.084 -0.1018  1.4834 -1.2413
 3187SOL    HW221021   2.348   3.058   7.105  2.4694  0.6676  0.7046
 3188SOL     OW21022   3.062   2.343   3.065 -0.0468 -0.0746  0.3780
 3188SOL    HW121023   3.082   2.250   3.072 -1.0045 -0.2785  0.3318
 3188SOL    HW221024   3.117   2.375   3.136  0.7110 -0.2320 -0.1362
 3189SOL     OW21025   0.531   3.037   7.675 -0.6006  0.8244  0.0078
 3189SOL    HW121026   0.473   2.995   7.612 -1.1054  0.6231  0.6077
 3189SOL    HW221027   0.455   3.042   7.733 -1.2482 -1.9345 -0.6265
 3190SOL     OW21028   0.973   3.293   5.310 -0.3115  0.2234 -0.1738
 3190SOL    HW121029   1.040   3.319   5.247  0.7578 -0.9749  0.4598
 3190SOL    HW221030   0.991   3.364   5.372  1.9498 -1.4580  1.1185
 3191SOL     OW21031   0.317   4.401   3.344 -0.0427 -0.1930  0.3890
 3191SOL    HW121032   0.285   4.486   3.374  1.8014  0.7800 -0.3776
 3191SOL    HW221033   0.396   4.429   3.299 -0.3643  1.4653  0.8510
 3192SOL     OW21034   4.425   1.128  16.715 -0.1859  0.1927 -0.0802
 3192SOL    HW121035   4.424   1.061  16.783  1.3247  1.7047  1.4165
 3192SOL    HW221036   4.511   1.168  16.724  1.4939 -3.3846 -0.5647
 3193SOL     OW21037   3.507   0.657  16.281 -0.2857 -0.0370  0.1138
 3193SOL    HW121038   3.539   0.587  16.338 -1.9230  0.8660  2.1404
 3193SOL    HW221039   3.539   0.619  16.199 -0.5115 -1.1576  0.5413
 3194SOL     OW21040   4.061   2.253   8.087 -0.2003 -0.1593 -0.1732
 3194SOL    HW121041   4.004   2.197   8.141 -0.9369 -0.2889 -1.0888
 3194SOL    HW221042   4.076   2.319   8.155 -2.0156  1.6262 -1.5326
 3195SOL     OW21043   1.187   2.866   7.077  0.2642 -0.1658  0.1830
 3195SOL    HW121044   1.184   2.773   7.056  2.9703 -0.2009 -0.0806
 3195SOL    HW221045   1.278   2.876   7.105 -0.5641  1.2139  2.3239
 3196SOL     OW21046   2.202   4.468   6.956  0.1272  0.1333  0.2860
 3196SOL    HW121047   2.133   4.507   7.009 -0.4489  1.8908 -1.7368
 3196SOL    HW221048   2.179   4.376   6.959 -1.7076  0.5918  0.1684
 3197SOL     OW21049   4.719   3.264   2.841  0.1914  0.1407 -0.3798
 3197SOL    HW121050   4.692   3.284   2.930  0.1044 -2.6357  0.1922
 3197SOL    HW221051   4.647   3.210   2.808  1.2032 -0.5997 -1.3856
 3198SOL     OW21052   3.000   3.701   2.024 -0.4332  0.4663 -0.2432
 3198SOL    HW121053   3.091   3.730   2.015  0.6648 -2.8405  0.4105
 3198SOL    HW221054   3.004   3.641   1.950 -1.8794  0.0895 -0.0069
 3199SOL     OW21055   0.799   1.949   7.890  0.2960  0.0689 -0.0215
 3199SOL    HW121056   0.879   1.963   7.840  0.5094  0.4511  0.4383
 3199SOL    HW221057   0.811   1.997   7.971  0.7549 -1.0474  0.5694
 3200SOL     OW21058   3.218   2.639  16.419  0.0115  0.4145  0.0382
 3200SOL    HW121059   3.301   2.595  16.401 -0.0378 -0.1846  1.2362
 3200SOL    HW221060   3.188   2.581  16.490 -1.9892  1.1466 -0.2068
 3201SOL     OW21061   4.611   0.382   2.511 -0.2376  0.0419  0.5228
 3201SOL    HW121062   4.596   0.295   2.547 -1.7933 -1.0097 -2.6562
 3201SOL    HW221063   4.704   0.377   2.490  0.1634  0.6707  2.1322
 3202SOL     OW21064   3.995   1.766   2.975 -0.5669  0.2250  0.9495
 3202SOL    HW121065   4.040   1.834   2.926 -0.5170  1.0577  2.1318
 3202SOL    HW221066   4.066   1.732   3.030  0.5718 -1.1468 -1.3899
 3203SOL     OW21067   2.380   1.511  12.979  0.0913 -0.2601  0.1663
 3203SOL    HW121068   2.423   1.451  13.039  1.5359 -0.6885 -1.2909
 3203SOL    HW221069   2.351   1.457  12.905  1.5458 -2.0374  0.8988
 3204SOL     OW21070   3.702   2.909  13.488  0.4868 -0.2276 -0.2086
 3204SOL    HW121071   3.773   2.906  13.424  0.5598  2.4528 -0.2649
 3204SOL    HW221072   3.690   3.003  13.496  0.4224 -0.5213  2.9918
 3205SOL     OW21073   0.563   4.047   8.647  0.5164  0.6970  0.2392
 3205SOL    HW121074   0.510   4.111   8.695 -1.9782 -0.7086 -0.6496
 3205SOL    HW221075   0.637   4.041   8.708  0.2128  1.2280  0.6656
 3206SOL     OW21076   0.330   3.713   8.884 -0.4707  0.1073  0.4143
 3206SOL    HW121077   0.351   3.767   8.808 -0.1310 -1.5829 -0.6984
 3206SOL    HW221078   0.408   3.698   8.938 -0.0133  0.5337 -0.1339
 3207SOL     OW21079   1.780   2.894   3.011 -0.1173 -0.2699 -0.0230
 3207SOL    HW121080   1.826   2.812   2.993  0.0043  0.3852 -2.7563
 3207SOL    HW221081   1.847   2.961   3.025 -0.1196 -0.2955  0.1068
 3208SOL     OW21082   0.133   1.369   7.606  0.8642 -0.1705  0.2586
 3208SOL    HW121083   0.224   1.342   7.595  2.4373  4.3954  1.7546
 3208SOL    HW221084   0.093   1.365   7.520  0.2602  0.1194  0.5258
 3209SOL     OW21085   2.516   2.765   6.186  0.3912 -0.4335 -0.3552
 3209SOL    HW121086   2.598   2.767   6.137  0.1784  2.5697 -0.5472
 3209SOL    HW221087   2.493   2.857   6.174 -0.1926 -0.5081  0.2008
 3210SOL     OW21088   1.967   0.040   6.759 -0.5483  0.2471 -0.3941
 3210SOL    HW121089   1.877   0.062   6.736 -1.6601 -2.4585  1.5018
 3210SOL    HW221090   1.988   4.716   6.680  1.0815  0.1395  0.1010
 3211SOL     OW21091   4.544   4.678   9.127 -0.4466  0.5209  0.0723
 3211SOL    HW121092   4.578   4.594   9.157  0.6995  1.1019  0.4289
 3211SOL    HW221093   4.623   4.726   9.099  0.7124 -0.9024  0.9047
 3212SOL     OW21094   2.263   1.441  10.092  0.0029  0.5702  0.3781
 3212SOL    HW121095   2.304   1.364  10.052 -3.5493 -0.7973 -0.6948
 3212SOL    HW221096   2.286   1.503  10.024  0.4698 -0.1376 -0.1101
 3213SOL     OW21097   1.727   1.421  17.295 -0.3412  0.2532  0.1568
 3213SOL    HW121098   1.774   1.345  17.330  0.3473  0.2453 -0.7912
 3213SOL    HW221099   1.732   1.483  17.367  0.0727  1.1195 -0.6195
 3214SOL     OW21100   3.419   3.610   7.764 -0.0735  0.7646 -0.0153
 3214SOL    HW121101   3.340   3.557   7.760  1.0145 -0.9470  1.2254
 3214SOL    HW221102   3.415   3.665   7.686 -1.2666 -1.1620 -1.3008
 3215SOL     OW21103   3.253   0.824   4.415  0.1988 -0.6171 -0.4545
 3215SOL    HW121104   3.272   0.915   4.392  1.5983 -0.4771  1.2632
 3215SOL    HW221105   3.158   0.825   4.412  0.1815  0.1375  0.2482
 3216SOL     OW21106   2.272   0.378   5.236 -0.0546 -0.0098  0.0198
 3216SOL    HW121107   2.340   0.445   5.228  1.0350 -0.9716  1.3022
 3216SOL    HW221108   2.285   0.351   5.327 -1.7698  0.3503  0.3691
 3217SOL     OW21109   1.892   3.525   5.178 -0.1565  0.3534  0.0243
 3217SOL    HW121110   1.820   3.523   5.241  1.2092  2.2510  1.6313
 3217SOL    HW221111   1.850   3.575   5.109  0.3934 -0.7826 -1.1395
 3218SOL     OW21112   1.683   1.078  17.232 -0.2898 -0.0444  0.1925
 3218SOL    HW121113   1.740   1.100  17.306 -0.7087  0.9206  0.2374
 3218SOL    HW221114   1.735   1.102  17.155  0.9054 -0.7453  0.7831
 3219SOL     OW21115   2.234   1.631  12.688 -0.5619 -0.6260  0.0501
 3219SOL    HW121116   2.150   1.667  12.718 -1.3125 -1.7801 -0.6534
 3219SOL    HW221117   2.193   1.547  12.666 -2.5727  1.1749 -3.1039
 3220SOL     OW21118   1.384   1.560   4.483  0.5059  0.5342  0.1659
 3220SOL    HW121119   1.390   1.650   4.451  0.8950 -0.1227 -1.6048
 3220SOL    HW221120   1.291   1.539   4.480 -0.0128  2.6617  1.1823
 3221SOL     OW21121   3.165   4.546  11.962 -0.2772  0.6567 -0.1292
 3221SOL    HW121122   3.119   4.479  11.910 -0.0937  1.0415 -0.7836
 3221SOL    HW221123   3.178   4.498  12.044 -0.3671 -0.9032 -1.0222
 3222SOL     OW21124   2.486   2.343   0.302 -0.5562 -0.4638 -0.2819
 3222SOL    HW121125   2.550   2.276   0.324  0.0161 -0.7255 -2.6843
 3222SOL    HW221126   2.406   2.328   0.352  0.9385  0.8574  2.4572
 3223SOL     OW21127   2.205   2.122   2.610  0.3772  0.1117 -0.2773
 3223SOL    HW121128   2.224   2.206   2.653  1.2820  1.3611 -3.1056
 3223SOL    HW221129   2.284   2.116   2.557 -0.9397 -0.7697 -2.1199
 3224SOL     OW21130   0.129   2.256   1.525 -0.1106 -0.0585  0.2252
 3224SOL    HW121131   0.071   2.263   1.449  0.2292 -1.0907 -0.1264
 3224SOL    HW221132   0.072   2.285   1.597 -0.1423 -2.5494  1.2107
 3225SOL     OW21133   1.191   0.838   7.314  0.0518  0.2870  0.4030
 3225SOL    HW121134   1.138   0.916   7.299 -0.3624 -0.4059 -1.8052
 3225SOL    HW221135   1.283   0.864   7.311  0.2827 -0.6194 -0.3961
 3226SOL     OW21136   3.638   3.661   3.656  0.0955  0.2958  0.2560
 3226SOL    HW121137   3.734   3.657   3.661  0.0325 -0.6485  0.6388
 3226SOL    HW221138   3.619   3.749   3.688  1.8930 -0.0983  2.3998
 3227SOL     OW21139   1.138   0.683  16.125 -0.5133 -0.1431  0.1098
 3227SOL    HW121140   1.083   0.605  16.123 -0.5775 -0.0928 -0.1614
 3227SOL    HW221141   1.073   0.752  16.136 -1.2087 -0.6288 -0.9217
 3228SOL     OW21142   3.288   1.637   3.897 -0.9951  0.0881 -0.0924
 3228SOL    HW121143   3.370   1.590   3.886 -0.1674  1.2080  1.3479
 3228SOL    HW221144   3.254   1.600   3.978  1.0861 -0.3686  0.5631
 3229SOL     OW21145   4.628   1.212   7.423 -0.0894  0.4902 -0.0020
 3229SOL    HW121146   4.544   1.207   7.468 -1.5558  2.1044 -2.5553
 3229SOL    HW221147   4.652   1.121   7.406  1.0028 -0.2818  5.6288
 3230SOL     OW21148   1.554   0.748   7.179  0.0791 -0.1741 -1.0179
 3230SOL    HW121149   1.581   0.667   7.221 -0.5844  0.1962  0.1093
 3230SOL    HW221150   1.469   0.717   7.146 -0.2865  1.4495 -1.5808
 3231SOL     OW21151   2.077   2.487   7.156  0.7238  0.6861 -0.6723
 3231SOL    HW121152   2.136   2.420   7.124 -0.2112  1.1222 -3.3053
 3231SOL    HW221153   2.126   2.519   7.233  0.5769 -0.7826  0.0351
 3232SOL     OW21154   1.021   2.886   3.816  0.2266  0.5068 -0.2665
 3232SOL    HW121155   0.958   2.921   3.753 -0.1725 -1.7571 -1.1350
 3232SOL    HW221156   1.010   2.791   3.804  2.0610  0.3812 -0.9800
 3233SOL     OW21157   2.757   0.493   3.152  0.4654  0.4651  0.4442
 3233SOL    HW121158   2.726   0.410   3.187 -0.1959  0.6715  0.3489
 3233SOL    HW221159   2.676   0.539   3.171 -0.2095 -0.9088  0.9024
 3234SOL     OW21160   4.460   4.335   4.620  0.4077  0.4525  0.0872
 3234SOL    HW121161   4.542   4.374   4.587 -1.1003  1.1982 -2.7514
 3234SOL    HW221162   4.465   4.365   4.711 -0.1256 -2.2743  0.9814
 3235SOL     OW21163   3.911   2.278   6.577  0.3207 -0.0902 -0.2310
 3235SOL    HW121164   3.866   2.359   6.555  0.2511  0.6404  2.6990
 3235SOL    HW221165   4.002   2.299   6.554 -0.1909 -1.0355 -3.2153
 3236SOL     OW21166   1.868   0.066   7.012 -1.1380 -0.1636  0.5264
 3236SOL    HW121167   1.780   0.030   7.021 -0.8444 -0.3308  2.8851
 3236SOL    HW221168   1.885   0.041   6.921 -1.0522 -0.3456  0.5917
 3237SOL     OW21169   1.174   2.611   5.283  0.3708  0.2787  0.3043
 3237SOL    HW121170   1.099   2.562   5.318 -1.2481  1.2045 -1.9049
 3237SOL    HW221171   1.234   2.571   5.346 -1.2959 -2.1454  0.3549
 3238SOL     OW21172   2.992   3.911   7.286 -0.2530 -0.1378 -0.0372
 3238SOL    HW121173   2.938   3.988   7.272  0.5233  0.3829 -0.1656
 3238SOL    HW221174   2.933   3.840   7.260 -1.3472  1.0037 -0.6297
 3239SOL     OW21175   2.938   0.719   2.537  0.0852 -0.3124  0.4286
 3239SOL    HW121176   3.002   0.775   2.492 -2.3061  1.7285 -0.3981
 3239SOL    HW221177   2.977   0.635   2.513 -0.1127  0.0894 -1.2680
 3240SOL     OW21178   4.498   4.234  16.028 -0.1129 -0.2612 -0.2551
 3240SOL    HW121179   4.502   4.192  16.114  1.1089 -1.6987 -1.0216
 3240SOL    HW221180   4.404   4.236  16.013 -0.0102 -0.7028 -0.9890
 3241SOL     OW21181   3.363   1.196   8.226 -0.1251  0.5048  0.0599
 3241SOL    HW121182   3.296   1.264   8.216 -2.5922 -2.0059 -0.3723
 3241SOL    HW221183   3.329   1.153   8.304  0.2946 -0.4105 -0.2612
 3242SOL     OW21184   0.960   3.060   6.973  0.3829 -0.0056  0.4386
 3242SOL    HW121185   1.001   3.147   6.967  1.4109 -0.3806  1.8648
 3242SOL    HW221186   1.028   3.006   7.012  0.7434 -1.0095 -1.5677
 3243SOL     OW21187   3.663   0.659   8.553  0.2938 -0.4070 -0.7343
 3243SOL    HW121188   3.716   0.647   8.631 -0.4755 -1.1044 -0.3279
 3243SOL    HW221189   3.620   0.744   8.566 -0.2062 -0.5532 -1.4044
 3244SOL     OW21190   3.592   2.879   6.134  0.2465 -0.3487  0.5344
 3244SOL    HW121191   3.666   2.854   6.080 -0.7342 -3.1985  0.5463
 3244SOL    HW221192   3.535   2.898   6.060 -1.1631 -0.7657  1.5180
 3245SOL     OW21193   0.315   3.919   2.290 -0.1000  0.2543  0.2218
 3245SOL    HW121194   0.379   3.974   2.245  0.3843 -1.1968 -0.8475
 3245SOL    HW221195   0.333   3.947   2.380  1.1549 -0.2020  0.1119
 3246SOL     OW21196   2.274   1.210   7.697  0.2083 -0.0396  0.4960
 3246SOL    HW121197   2.287   1.116   7.706  0.7307  0.0175  0.3367
 3246SOL    HW221198   2.224   1.231   7.776  2.0789  0.6433  1.4970
 3247SOL     OW21199   2.665   3.843   7.483  0.5763  0.1345 -0.0764
 3247SOL    HW121200   2.595   3.823   7.545 -0.9118  2.0556 -1.1516
 3247SOL    HW221201   2.741   3.856   7.540 -0.5305  1.1508  1.1808
 3248SOL     OW21202   2.156   3.190   7.026 -0.2513 -0.2777 -0.4932
 3248SOL    HW121203   2.076   3.167   7.074  0.6062  1.0209  1.5108
 3248SOL    HW221204   2.167   3.124   6.957 -3.4272 -0.9514 -0.3758
 3249SOL     OW21205   0.708   3.916   5.304 -0.4827  0.2674 -0.2442
 3249SOL    HW121206   0.615   3.934   5.290 -0.2206  0.9407 -1.1419
 3249SOL    HW221207   0.710   3.820   5.301  0.9945  0.3076 -0.7219
 3250SOL     OW21208   3.382   3.098   2.319 -0.6127 -0.1076  0.5497
 3250SOL    HW121209   3.360   3.031   2.254 -1.9108  1.5900 -0.7476
 3250SOL    HW221210   3.307   3.154   2.299  0.0180  0.9722  1.2432
 3251SOL     OW21211   0.920   3.879   7.003  0.1386  0.3057  0.2596
 3251SOL    HW121212   0.970   3.832   7.070  0.5962 -0.2830 -0.4937
 3251SOL    HW221213   0.831   3.844   7.012  0.6121 -1.2344 -1.0454
 3252SOL     OW21214   4.722   0.187  12.599 -0.6415 -0.6891 -0.1818
 3252SOL    HW121215   0.013   0.155  12.511 -1.9235 -1.2967 -0.2115
 3252SOL    HW221216   0.060   0.258  12.604 -0.6091 -0.7450  0.2268
 3253SOL     OW21217   0.933   1.743   0.112 -0.3785 -0.0093  0.2578
 3253SOL    HW121218   0.976   1.819   0.151 -0.8725  0.1168  0.5518
 3253SOL    HW221219   1.009   1.690   0.086  0.3638  0.7040  0.9917
 3254SOL     OW21220   0.113   2.220   7.924  0.1895  0.2426  0.2984
 3254SOL    HW121221   0.109   2.125   7.936 -0.0918  0.3629  1.1341
 3254SOL    HW221222   0.041   2.244   7.983 -1.1297 -1.3225 -0.6455
 3255SOL     OW21223   4.611   4.196   7.663  0.3526 -0.2375 -0.1279
 3255SOL    HW121224   4.531   4.235   7.697  0.2451 -1.0715  0.5742
 3255SOL    HW221225   4.591   4.104   7.681  0.3806 -0.7702 -2.8347
 3256SOL     OW21226   1.088   3.459   7.535  0.8646 -0.0971  0.3925
 3256SOL    HW121227   1.029   3.535   7.539  0.8822 -0.1163  0.9743
 3256SOL    HW221228   1.161   3.491   7.482  1.6828 -1.8494  0.4938
 3257SOL     OW21229   0.935   1.631   1.485 -0.1932 -0.2510  0.3742
 3257SOL    HW121230   0.866   1.672   1.538 -0.5962 -1.4102  0.7576
 3257SOL    HW221231   0.884   1.555   1.458  0.5298 -0.9953  1.0638
 3258SOL     OW21232   3.253   1.649  13.777 -0.3627  0.0621  0.0956
 3258SOL    HW121233   3.332   1.640  13.831  1.1118  0.2756 -2.0494
 3258SOL    HW221234   3.247   1.560  13.742 -3.1184  1.0327 -1.8596
 3259SOL     OW21235   3.909   1.997   1.145 -0.7274  0.4824 -0.3457
 3259SOL    HW121236   3.824   1.965   1.174  0.2172 -3.2419 -1.6229
 3259SOL    HW221237   3.946   2.014   1.231  0.8380 -2.2390 -0.4856
 3260SOL     OW21238   0.095   4.217   3.437 -0.5948 -0.3342  0.0250
 3260SOL    HW121239   0.170   4.176   3.481 -0.0714  0.9943  0.3950
 3260SOL    HW221240   0.139   4.298   3.410 -0.0140 -1.2653 -1.7659
 3261SOL     OW21241   1.982   4.008  10.493  0.2514  0.6258 -0.1533
 3261SOL    HW121242   1.890   3.994  10.470 -0.1004  0.2395  1.4465
 3261SOL    HW221243   2.004   4.088  10.447 -2.0349  0.4085 -1.5964
 3262SOL     OW21244   4.510   3.113  14.913 -0.2710  0.1529  0.2045
 3262SOL    HW121245   4.528   3.033  14.961 -1.9909  0.9684  2.2130
 3262SOL    HW221246   4.556   3.086  14.834 -0.4715  0.8547 -0.1518
 3263SOL     OW21247   3.449   0.274   3.119  0.3502 -0.2511 -0.1931
 3263SOL    HW121248   3.374   0.269   3.179 -0.3639 -2.1634 -1.2266
 3263SOL    HW221249   3.520   0.231   3.166 -1.8459 -1.8734  1.6808
 3264SOL     OW21250   0.711   0.810   6.370  0.1077  0.7501  0.1439
 3264SOL    HW121251   0.771   0.736   6.377  0.0364  0.7516  0.7836
 3264SOL    HW221252   0.678   0.812   6.460 -3.9931 -0.7737 -1.3033
 3265SOL     OW21253   0.678   2.010   4.878 -0.0342 -0.1176  0.0121
 3265SOL    HW121254   0.728   1.943   4.925  0.5937  1.8184  2.1686
 3265SOL    HW221255   0.744   2.047   4.820  0.0721  0.4298  0.4775
 3266SOL     OW21256   0.071   0.828   2.646 -0.0559 -0.6106 -0.1043
 3266SOL    HW121257   4.707   0.856   2.637  0.0260  0.3282  1.9658
 3266SOL    HW221258   0.108   0.894   2.704 -0.2362 -0.8393  0.2727
 3267SOL     OW21259   0.022   4.004   8.315  0.1330  0.1494 -0.2993
 3267SOL    HW121260   4.701   4.086   8.321  1.5687  0.8530  1.5697
 3267SOL    HW221261   4.687   3.958   8.372  1.3032 -1.7438 -0.5277
 3268SOL     OW21262   1.149   1.746   4.351 -0.2580 -0.3753  0.1206
 3268SOL    HW121263   1.095   1.820   4.378  2.8976  1.7571  0.4779
 3268SOL    HW221264   1.099   1.714   4.275  1.8747 -0.6333 -1.1630
 3269SOL     OW21265   1.281   0.060   9.018  0.2476  0.1043 -0.0137
 3269SOL    HW121266   1.228   4.707   9.023 -0.8447  0.6880 -2.5364
 3269SOL    HW221267   1.361   0.024   9.058 -1.2147 -0.9055  2.0348
 3270SOL     OW21268   2.519   1.582   6.430  0.1565 -0.0614  0.3397
 3270SOL    HW121269   2.604   1.549   6.399 -0.3766 -1.6065  0.4954
 3270SOL    HW221270   2.536   1.675   6.417 -0.8115 -0.1577 -1.5235
 3271SOL     OW21271   1.192   3.368  15.686  0.4212  0.3786  0.1079
 3271SOL    HW121272   1.199   3.276  15.659 -1.2136  0.6461 -1.1830
 3271SOL    HW221273   1.148   3.359  15.771  1.9439 -0.7555  0.7814
 3272SOL     OW21274   1.260   1.773  11.783 -0.5338 -0.3085  0.3096
 3272SOL    HW121275   1.313   1.745  11.858  0.8336 -1.5373 -1.1181
 3272SOL    HW221276   1.298   1.717  11.714 -2.4274  0.2215 -1.1421
 3273SOL     OW21277   2.269   0.425   7.687  0.2738  0.3513 -0.0430
 3273SOL    HW121278   2.297   0.335   7.700  1.1365  0.5641 -0.4068
 3273SOL    HW221279   2.245   0.411   7.595 -1.3856 -1.2492  0.6462
 3274SOL     OW21280   2.726   0.338  14.982  0.4871 -0.2821 -0.8760
 3274SOL    HW121281   2.664   0.362  15.051  3.2268 -1.5359  2.0621
 3274SOL    HW221282   2.663   0.307  14.918 -0.0063 -0.2776 -0.3941
 3275SOL     OW21283   4.074   0.982   1.486  0.0451  0.5013  0.4365
 3275SOL    HW121284   4.139   0.937   1.431 -2.0402 -1.5901 -0.3670
 3275SOL    HW221285   4.116   1.065   1.466 -2.6223  1.5436 -0.7752
 3276SOL     OW21286   1.110   1.435   6.380 -0.0174 -0.5619 -0.1904
 3276SOL    HW121287   1.134   1.367   6.443 -1.3404 -0.7842  0.0655
 3276SOL    HW221288   1.020   1.455   6.403  0.1840  0.4130 -0.2372
 3277SOL     OW21289   4.389   1.318   9.391 -0.1151  0.1502 -0.2078
 3277SOL    HW121290   4.330   1.292   9.461  0.7578  4.0463  1.9800
 3277SOL    HW221291   4.471   1.309   9.441 -0.7691 -0.3829  0.7683
 3278SOL     OW21292   0.059   3.949  13.037 -0.2464 -0.2354  0.4420
 3278SOL    HW121293   0.110   3.958  13.117 -1.5658 -0.7368  1.3396
 3278SOL    HW221294   4.712   4.006  13.056  0.4282  0.8094 -0.0578
 3279SOL     OW21295   4.047   3.168  16.244 -0.3432  0.0073  0.2958
 3279SOL    HW121296   3.977   3.115  16.205  0.6927 -1.2398  0.1246
 3279SOL    HW221297   4.005   3.244  16.284  0.6608 -0.7455  2.7802
 3280SOL     OW21298   0.499   1.530   7.025  0.4673 -0.1886  0.6174
 3280SOL    HW121299   0.409   1.522   6.992 -0.1516  0.6567  2.0841
 3280SOL    HW221300   0.528   1.617   6.998  1.5283 -0.2179  1.6875
 3281SOL     OW21301   4.084   1.553   0.888 -0.1601 -0.4185  0.8332
 3281SOL    HW121302   4.021   1.608   0.935  0.8366  1.3462  0.1246
 3281SOL    HW221303   4.130   1.523   0.966 -0.0216 -3.3171 -0.3721
 3282SOL     OW21304   3.305   4.062  13.733 -0.4235 -0.2048 -0.0470
 3282SOL    HW121305   3.362   4.066  13.810  0.6650 -0.4226 -0.8357
 3282SOL    HW221306   3.228   4.113  13.758  0.7383  1.1298  0.8172
 3283SOL     OW21307   1.362   0.663   6.302 -0.5016 -0.6143 -0.7883
 3283SOL    HW121308   1.453   0.658   6.331 -0.4698  0.4360 -0.7105
 3283SOL    HW221309   1.358   0.633   6.211 -3.4978  1.3141 -1.2961
 3284SOL     OW21310   3.616   0.423  11.658 -0.4333  0.1788 -0.4377
 3284SOL    HW121311   3.594   0.452  11.746 -2.5525 -2.6860 -0.0102
 3284SOL    HW221312   3.663   0.340  11.670 -1.7684 -0.7618 -1.6120
 3285SOL     OW21313   3.423   2.374   7.640  0.4215 -0.0351 -0.2466
 3285SOL    HW121314   3.411   2.407   7.551 -1.0012  0.3262  0.0824
 3285SOL    HW221315   3.458   2.285   7.635 -0.0936 -0.2808  0.5476
 3286SOL     OW21316   1.128   0.816   8.073 -0.0147  0.3806 -0.2312
 3286SOL    HW121317   1.108   0.891   8.129  1.7943  0.5587  0.1722
 3286SOL    HW221318   1.051   0.804   8.018 -1.1619  1.0529  1.2094
 3287SOL     OW21319   0.446   1.597   4.317  0.1129  0.2256 -0.0706
 3287SOL    HW121320   0.456   1.502   4.309 -1.6403  0.1635 -1.5847
 3287SOL    HW221321   0.536   1.614   4.342  0.6678 -2.2493 -0.3719
 3288SOL     OW21322   4.558   2.847  10.484  0.6092  0.4695 -0.4920
 3288SOL    HW121323   4.629   2.910  10.473  2.2354 -0.9962  1.4641
 3288SOL    HW221324   4.496   2.913  10.454 -2.0441 -1.8532 -0.1604
 3289SOL     OW21325   2.693   1.823   5.504  0.8040 -0.2393 -0.0480
 3289SOL    HW121326   2.717   1.755   5.440 -1.5188 -1.7548  0.6688
 3289SOL    HW221327   2.659   1.762   5.570 -1.6453  0.1684 -0.9159
 3290SOL     OW21328   0.614   1.634   0.653 -0.2830 -0.4574 -0.8385
 3290SOL    HW121329   0.606   1.540   0.668 -0.7943 -0.7390 -2.8591
 3290SOL    HW221330   0.530   1.674   0.677  1.0938  2.2460 -0.5711
 3291SOL     OW21331   3.383   1.786  12.751 -0.0646  0.3026 -0.1433
 3291SOL    HW121332   3.403   1.850  12.683 -0.8090  1.1208  0.4024
 3291SOL    HW221333   3.412   1.826  12.834  0.8329 -0.0351 -0.2976
 3292SOL     OW21334   0.631   4.344   4.685  0.0675 -0.3162 -0.1925
 3292SOL    HW121335   0.675   4.328   4.602 -0.2118 -0.2534 -0.3527
 3292SOL    HW221336   0.636   4.263   4.736  1.0370 -0.2443 -0.1779
 3293SOL     OW21337   0.030   0.912   4.026  0.4247  0.6093  0.2053
 3293SOL    HW121338   0.101   0.875   4.078  0.5488  0.2581 -0.2113
 3293SOL    HW221339   0.085   0.925   3.948 -0.6149  0.4409 -0.5665
 3294SOL     OW21340   3.491   4.490   9.897  0.5767  0.2770 -0.1591
 3294SOL    HW121341   3.555   4.560   9.897  0.3837  0.4525 -0.3063
 3294SOL    HW221342   3.410   4.540   9.893  1.5127  1.7729 -0.1506
 3295SOL     OW21343   0.391   3.359   7.468  0.5160  0.1918 -0.3004
 3295SOL    HW121344   0.397   3.454   7.461 -0.5872  0.1377 -1.9277
 3295SOL    HW221345   0.476   3.336   7.432  0.2666 -2.3417  0.6838
 3296SOL     OW21346   4.601   1.093  11.072  0.0177 -0.0694  0.1222
 3296SOL    HW121347   4.673   1.123  11.016 -1.2380 -0.6434 -1.7487
 3296SOL    HW221348   4.613   1.163  11.138 -0.9444  0.7544 -0.5799
 3297SOL     OW21349   3.809   2.281   4.719  0.3054 -0.0881  0.8994
 3297SOL    HW121350   3.886   2.239   4.680 -0.3260  1.5125 -2.1249
 3297SOL    HW221351   3.808   2.357   4.660 -1.0310 -0.7256  0.0944
 3298SOL     OW21352   0.462   4.459   1.707 -0.6215 -0.2257 -0.1080
 3298SOL    HW121353   0.493   4.530   1.650  0.5942 -1.3017 -0.7867
 3298SOL    HW221354   0.380   4.498   1.737 -0.8542 -2.5840  2.3577
 3299SOL     OW21355   3.131   1.252  15.408 -0.1002  0.4848  0.1050
 3299SOL    HW121356   3.136   1.254  15.504 -1.1001 -2.5549  0.2213
 3299SOL    HW221357   3.220   1.265  15.376  1.1619 -1.4636  2.7476
 3300SOL     OW21358   2.394   2.270  12.106  0.1482 -0.0957 -0.0363
 3300SOL    HW121359   2.388   2.284  12.011 -1.2054  0.1959  0.0909
 3300SOL    HW221360   2.343   2.349  12.124 -1.7248 -0.7388 -2.4460
 3301SOL     OW21361   3.538   2.059   6.519 -0.6039  0.3037 -0.8003
 3301SOL    HW121362   3.586   2.089   6.597 -0.3729 -2.9902  0.3146
 3301SOL    HW221363   3.451   2.090   6.546 -1.1530  0.1112 -2.3757
 3302SOL     OW21364   3.768   4.111   5.731 -0.7003  0.1744 -0.5504
 3302SOL    HW121365   3.810   4.026   5.721 -0.4062  0.4741 -1.8662
 3302SOL    HW221366   3.721   4.104   5.814 -0.7503  2.2361 -0.4006
 3303SOL     OW21367   3.094   3.144   7.574 -0.0438 -0.4146 -0.3827
 3303SOL    HW121368   3.150   3.076   7.537  1.6679  1.4948 -1.2837
 3303SOL    HW221369   3.084   3.210   7.505  1.0716 -2.3108 -2.3529
 3304SOL     OW21370   3.485   0.439   7.726 -0.0949  0.8261  0.0741
 3304SOL    HW121371   3.553   0.396   7.778  0.2767  1.6887  0.3182
 3304SOL    HW221372   3.523   0.526   7.736 -0.6391  1.2024 -1.0965
 3305SOL     OW21373   0.773   1.056   0.111  0.4689 -0.0924  0.1936
 3305SOL    HW121374   0.738   1.017   0.031 -2.4582  0.4240  1.2362
 3305SOL    HW221375   0.814   0.980   0.152 -1.6268 -1.2640  0.0757
 3306SOL     OW21376   3.684   4.579   8.903 -0.1475  0.1286 -0.0362
 3306SOL    HW121377   3.754   4.539   8.851  1.5558  2.3741  0.5259
 3306SOL    HW221378   3.630   4.501   8.913 -0.3024  0.0095 -1.8839
 3307SOL     OW21379   1.151   4.485  10.635 -0.4625  0.1388 -0.4394
 3307SOL    HW121380   1.188   4.570  10.610  0.7047 -0.9439 -2.3092
 3307SOL    HW221381   1.150   4.491  10.731 -1.5355 -0.6079 -0.3994
 3308SOL     OW21382   0.775   4.523  13.144  0.6331 -0.2581 -0.3815
 3308SOL    HW121383   0.765   4.445  13.199  0.6899  0.4188  0.5806
 3308SOL    HW221384   0.687   4.540  13.111  0.1444 -0.3980  0.8719
 3309SOL     OW21385   1.652   4.070   6.421 -0.5035 -0.2383 -0.2284
 3309SOL    HW121386   1.687   4.033   6.340  0.2101 -1.3794  0.6018
 3309SOL    HW221387   1.630   4.160   6.396  0.6675 -0.3024 -1.5618
 3310SOL     OW21388   1.088   1.348   8.651 -0.4561  0.5567  0.0208
 3310SOL    HW121389   1.084   1.430   8.699 -0.4234  0.7710 -0.3487
 3310SOL    HW221390   1.118   1.384   8.568 -0.2492  1.6802  0.5927
 3311SOL     OW21391   4.372   1.519   2.894  0.8810 -0.0867 -0.2262
 3311SOL    HW121392   4.425   1.501   2.816  1.8163 -0.6335  0.5444
 3311SOL    HW221393   4.293   1.466   2.887 -0.1927  1.3030  1.4379
 3312SOL     OW21394   1.839   3.670   8.136  0.1330 -0.0263 -0.4168
 3312SOL    HW121395   1.931   3.687   8.155  0.0386 -1.2329  1.0401
 3312SOL    HW221396   1.832   3.576   8.150 -1.2285  0.0869 -0.2898
 3313SOL     OW21397   1.871   3.297   7.148 -0.6354  0.4775  0.2414
 3313SOL    HW121398   1.872   3.207   7.179  0.8662  0.3146 -0.2792
 3313SOL    HW221399   1.783   3.327   7.172  0.1725  0.6692  2.9228
 3314SOL     OW21400   0.089   2.282   4.167 -0.9764 -0.3906 -0.0256
 3314SOL    HW121401   0.032   2.248   4.099 -2.9425 -1.1666  1.9938
 3314SOL    HW221402   0.135   2.203   4.196 -0.9174 -0.9194 -1.5846
 3315SOL     OW21403   2.851   0.180   5.820  0.4611 -0.5547  0.6354
 3315SOL    HW121404   2.835   0.266   5.782 -0.5980 -1.7806 -1.6552
 3315SOL    HW221405   2.891   0.201   5.905  0.5589 -1.5071  0.8279
 3316SOL     OW21406   3.749   2.786   8.150 -0.2176 -0.3588  0.4293
 3316SOL    HW121407   3.677   2.785   8.213  0.1239  3.6596  0.8461
 3316SOL    HW221408   3.805   2.860   8.174 -1.7846  0.1704  2.4001
 3317SOL     OW21409   0.039   3.277  13.197  0.1121 -0.2405  0.4984
 3317SOL    HW121410   0.135   3.272  13.190  0.3862  2.6406  1.9668
 3317SOL    HW221411   0.025   3.196  13.246  3.1742 -0.3247  1.2320
 3318SOL     OW21412   2.992   1.219   0.410 -0.6832 -0.3740 -0.0147
 3318SOL    HW121413   3.054   1.179   0.349 -0.1177 -0.5870  0.6911
 3318SOL    HW221414   2.980   1.299   0.359 -0.9913 -1.2260 -1.2801
 3319SOL     OW21415   4.059   0.245  13.180  0.4565  0.3777 -0.4380
 3319SOL    HW121416   3.999   0.224  13.252  0.8107 -0.1403 -0.3028
 3319SOL    HW221417   4.117   0.169  13.181 -0.2121 -0.1168  0.7516
 3320SOL     OW21418   2.152   2.202   1.272 -0.0005 -0.1577 -0.2114
 3320SOL    HW121419   2.244   2.177   1.277  0.2743  0.8636 -0.2337
 3320SOL    HW221420   2.137   2.240   1.359  0.7644 -0.5847  0.1137
 3321SOL     OW21421   4.635   0.753   7.090 -0.3563  0.0605  0.0452
 3321SOL    HW121422   4.710   0.721   7.040 -1.6631 -0.1371 -1.7955
 3321SOL    HW221423   4.564   0.719   7.035 -0.0014  0.5858 -0.7415
 3322SOL     OW21424   4.623   3.211   5.042  0.6588 -1.0866  0.0387
 3322SOL    HW121425   4.611   3.116   5.041 -2.5144 -0.6807 -2.0160
 3322SOL    HW221426   4.589   3.241   4.957 -0.4588 -0.4776  0.6969
 3323SOL     OW21427   3.733   4.554   7.572  0.1893 -0.1871 -0.3606
 3323SOL    HW121428   3.761   4.641   7.545  2.3532 -1.1179 -1.1132
 3323SOL    HW221429   3.788   4.552   7.650 -0.0083  1.2437 -0.1973
 3324SOL     OW21430   0.523   3.578   4.172  0.2984 -0.4091 -0.1729
 3324SOL    HW121431   0.553   3.582   4.081  0.9304 -0.5623  0.0290
 3324SOL    HW221432   0.432   3.553   4.159  0.5367 -0.9731 -0.7791
 3325SOL     OW21433   3.508   2.977   4.775  0.3973 -0.5243 -0.1393
 3325SOL    HW121434   3.557   3.023   4.707  3.1913 -1.6959  1.0829
 3325SOL    HW221435   3.523   2.884   4.756 -2.1458 -0.8361 -0.6216
 3326SOL     OW21436   2.859   0.356  13.112 -0.2055 -0.6699  0.1148
 3326SOL    HW121437   2.916   0.434  13.112 -2.4023  0.9138 -1.7841
 3326SOL    HW221438   2.894   0.297  13.179  1.1508  1.7916  1.6102
 3327SOL     OW21439   0.401   0.142   6.692 -0.7101  0.1707 -0.3248
 3327SOL    HW121440   0.471   0.165   6.753  0.6964  0.4341 -2.0014
 3327SOL    HW221441   0.434   0.198   6.621 -1.8153  0.0321 -0.9331
 3328SOL     OW21442   4.423   1.281   0.052  0.0574  0.1031  0.2771
 3328SOL    HW121443   4.499   1.226   0.030 -1.6208 -1.9184 -0.3926
 3328SOL    HW221444   4.372   1.245  17.688  0.1610 -1.2360  0.8747
 3329SOL     OW21445   3.223   0.684   9.641 -0.0880 -0.1841  0.0565
 3329SOL    HW121446   3.170   0.748   9.594 -0.2074 -1.5682 -1.6745
 3329SOL    HW221447   3.298   0.689   9.583 -0.4016 -0.5221 -0.3806
 3330SOL     OW21448   1.650   1.492   8.464 -0.1233  0.5896  0.1920
 3330SOL    HW121449   1.692   1.407   8.464  1.8851  1.5802 -1.8083
 3330SOL    HW221450   1.692   1.531   8.387 -2.5571  1.0359 -0.9450
 3331SOL     OW21451   1.311   1.562   8.543 -0.3539  0.6756  0.7410
 3331SOL    HW121452   1.324   1.654   8.519 -0.2927  0.0894 -1.4312
 3331SOL    HW221453   1.387   1.512   8.515 -0.5180 -0.1850  1.8435
 3332SOL     OW21454   0.591   3.560  11.023  0.1842  0.4849 -0.3292
 3332SOL    HW121455   0.654   3.609  10.970  2.3199 -1.8424  0.1026
 3332SOL    HW221456   0.615   3.468  11.029  0.6045  0.5177 -1.4304
 3333SOL     OW21457   4.175   2.976   5.414 -0.0331  0.0103 -0.0357
 3333SOL    HW121458   4.264   2.973   5.450  0.2565 -0.8977 -0.8315
 3333SOL    HW221459   4.197   3.012   5.328 -0.4540 -0.1619 -0.2135
 3334SOL     OW21460   3.573   2.628   0.618 -0.3731 -0.2322  0.0533
 3334SOL    HW121461   3.495   2.676   0.646  0.7562  2.0377 -0.7435
 3334SOL    HW221462   3.545   2.537   0.606 -1.2344 -0.2312  2.0542
 3335SOL     OW21463   1.962   2.522   2.517 -0.1487  0.3526  0.0499
 3335SOL    HW121464   2.028   2.570   2.468  1.4263 -1.5751  0.2767
 3335SOL    HW221465   1.984   2.428   2.514  0.3085  0.4313  0.7758
 3336SOL     OW21466   2.053   4.542   2.201 -0.2151  0.0760  0.4615
 3336SOL    HW121467   2.075   4.519   2.111 -0.6050  0.8241  0.1783
 3336SOL    HW221468   2.137   4.579   2.226 -0.4927  1.3744 -0.5882
 3337SOL     OW21469   0.854   2.677   0.256 -0.2170 -0.3651 -0.0135
 3337SOL    HW121470   0.830   2.587   0.279  1.6666 -0.7351  0.4758
 3337SOL    HW221471   0.841   2.657   0.163  0.5461  0.7306 -0.3517
 3338SOL     OW21472   0.012   2.531   2.565  0.6015  0.8444 -0.8653
 3338SOL    HW121473   4.677   2.505   2.496 -2.7988 -0.2909  2.5802
 3338SOL    HW221474   4.680   2.553   2.638  2.5399  2.0227  0.3585
 3339SOL     OW21475   2.338   1.227   6.958 -0.5866  0.5117 -0.1768
 3339SOL    HW121476   2.302   1.237   7.046  1.4615  1.4893  0.5456
 3339SOL    HW221477   2.263   1.208   6.901 -1.7328  0.5816  1.3057
 3340SOL     OW21478   1.879   3.346   1.224 -0.2379  0.5329  0.5253
 3340SOL    HW121479   1.830   3.345   1.306 -0.7626 -1.9832  0.1852
 3340SOL    HW221480   1.946   3.281   1.246  1.4556  2.0985  0.0483
 3341SOL     OW21481   1.277   0.493   2.650 -0.3648  0.5228  0.2016
 3341SOL    HW121482   1.361   0.470   2.689  0.0038 -0.1040 -0.9655
 3341SOL    HW221483   1.298   0.524   2.562  0.7748 -0.7291  0.0319
 3342SOL     OW21484   1.159   2.026   3.176  0.0658 -0.0223  0.5714
 3342SOL    HW121485   1.189   2.112   3.204  1.3181 -0.1809 -0.2823
 3342SOL    HW221486   1.229   1.993   3.120 -1.9785 -1.3366 -1.1951
 3343SOL     OW21487   0.816   0.384   5.921 -0.2298  0.2039 -0.2179
 3343SOL    HW121488   0.883   0.403   5.986 -1.1462  0.6583  0.5816
 3343SOL    HW221489   0.774   0.468   5.905 -1.5681 -0.4505 -0.1409
 3344SOL     OW21490   1.129   2.612   8.163 -0.3473  0.6949  0.4569
 3344SOL    HW121491   1.132   2.653   8.249 -2.1701  0.8659  0.4445
 3344SOL    HW221492   1.053   2.659   8.129 -0.1795 -0.6488 -1.8167
 3345SOL     OW21493   0.869   0.669  16.137 -0.1380 -0.1303 -0.0285
 3345SOL    HW121494   0.815   0.612  16.082 -0.2798 -0.2275  0.2129
 3345SOL    HW221495   0.812   0.680  16.213  0.2672 -0.2692  0.2904
 3346SOL     OW21496   4.427   2.733   9.335 -0.1507  0.3056  0.2844
 3346SOL    HW121497   4.371   2.667   9.293  0.9671 -0.5211  0.0994
 3346SOL    HW221498   4.401   2.807   9.279 -0.2018 -0.8537 -1.2493
 3347SOL     OW21499   0.690   0.149   5.849  0.3736 -0.5421  0.4237
 3347SOL    HW121500   0.722   0.234   5.879  0.8280  0.0065 -1.6340
 3347SOL    HW221501   0.772   0.101   5.858  1.7373  2.0139  1.4713
 3348SOL     OW21502   0.372   3.845  13.684  0.1913  0.5966  0.2976
 3348SOL    HW121503   0.392   3.810  13.771  0.8464  1.4440  0.4882
 3348SOL    HW221504   0.379   3.940  13.697 -1.2620  0.7426 -0.0123
 3349SOL     OW21505   1.198   4.049   2.083  0.0244  0.7747  0.5910
 3349SOL    HW121506   1.135   3.984   2.053  0.5509  0.7563 -0.4925
 3349SOL    HW221507   1.246   3.993   2.145 -1.9127 -0.8617  0.6163
 3350SOL     OW21508   0.247   3.036   6.772 -0.1684  0.3028 -0.1533
 3350SOL    HW121509   0.237   2.942   6.786 -0.6205  0.5514  1.1317
 3350SOL    HW221510   0.263   3.035   6.677  2.2083 -2.1423  0.2711
 3351SOL     OW21511   4.027   3.144   8.492  0.0428 -0.1054 -0.3498
 3351SOL    HW121512   4.053   3.112   8.405  0.9478  2.1845 -0.9001
 3351SOL    HW221513   3.993   3.225   8.456  1.9885  0.6362 -0.5133
 3352SOL     OW21514   4.104   0.638   8.665 -0.0421  1.1510 -0.1848
 3352SOL    HW121515   4.136   0.707   8.607  0.8277  0.7740 -0.1597
 3352SOL    HW221516   4.055   0.690   8.729  0.9948  0.6069  1.0444
 3353SOL     OW21517   2.280   2.627   9.795 -0.8611  0.1885  0.8571
 3353SOL    HW121518   2.283   2.712   9.837  2.2375  1.1427 -1.2614
 3353SOL    HW221519   2.335   2.585   9.861  0.8494  1.0555 -0.0163
 3354SOL     OW21520   4.137   0.170   3.952  0.0898  0.7889  0.1735
 3354SOL    HW121521   4.065   0.126   3.997  0.2722  0.7659  0.4415
 3354SOL    HW221522   4.130   0.135   3.864 -0.3822  2.6856 -0.5527
 3355SOL     OW21523   0.185   2.216   7.667  0.0854 -0.2803  0.0541
 3355SOL    HW121524   0.183   2.233   7.761 -1.3523  1.5840 -0.3201
 3355SOL    HW221525   0.235   2.290   7.632 -0.4652 -1.1346 -2.4737
 3356SOL     OW21526   1.204   4.061   5.334  0.1519  0.5642 -0.1248
 3356SOL    HW121527   1.185   4.060   5.428 -1.4751 -2.2373 -0.4858
 3356SOL    HW221528   1.115   4.059   5.299  0.5606 -0.8862 -1.0801
 3357SOL     OW21529   2.062   4.061  14.537  0.5670  0.1993 -0.4931
 3357SOL    HW121530   2.062   4.026  14.448  1.3875 -0.7328 -0.1160
 3357SOL    HW221531   1.973   4.097  14.542  0.0678 -0.8870 -1.4510
 3358SOL     OW21532   1.563   3.987  14.354  0.5103  0.3403 -0.3822
 3358SOL    HW121533   1.552   3.942  14.270  1.0844 -0.3215 -0.1077
 3358SOL    HW221534   1.587   3.910  14.407 -3.2379 -1.6366 -1.5587
 3359SOL     OW21535   1.337   2.890   2.694 -0.0094  0.1816  0.2709
 3359SOL    HW121536   1.244   2.880   2.712  0.5665 -2.4675  1.9132
 3359SOL    HW221537   1.339   2.908   2.600  0.2703 -0.0066  0.2391
 3360SOL     OW21538   0.656   4.248   9.017  0.2621  0.1344 -0.3250
 3360SOL    HW121539   0.660   4.167   8.967 -1.0805 -0.1011 -0.0552
 3360SOL    HW221540   0.589   4.301   8.974 -0.5179 -1.2389 -0.7787
 3361SOL     OW21541   0.341   1.180   8.038  0.2768  0.3009 -0.1556
 3361SOL    HW121542   0.275   1.215   8.098 -0.4185 -1.8817  0.3902
 3361SOL    HW221543   0.334   1.246   7.970  3.5014 -1.3286 -2.0447
 3362SOL     OW21544   0.476   3.650   7.498 -0.2203  0.3800 -0.1268
 3362SOL    HW121545   0.399   3.706   7.486 -1.2127 -0.4687  2.3682
 3362SOL    HW221546   0.541   3.719   7.503  1.1307 -1.0263  1.9271
 3363SOL     OW21547   3.570   0.003  14.208 -0.2653 -0.0104 -0.1342
 3363SOL    HW121548   3.503   4.664  14.189  1.0493 -1.4964  0.3662
 3363SOL    HW221549   3.652   4.695  14.174 -0.2875 -0.1696 -0.0284
 3364SOL     OW21550   3.430   4.668  15.648 -0.1858 -0.5334 -0.2577
 3364SOL    HW121551   3.504   4.622  15.688  1.1502  0.6349 -1.3998
 3364SOL    HW221552   3.432   4.626  15.562  1.2838 -1.7784  0.3791
 3365SOL     OW21553   2.331   2.799   1.719  0.4933 -0.2368 -0.5795
 3365SOL    HW121554   2.410   2.762   1.758  0.0787 -2.2851 -1.6520
 3365SOL    HW221555   2.356   2.888   1.694  0.6942  0.1417  0.9548
 3366SOL     OW21556   1.610   2.376   0.538  0.5650 -0.7220  0.2567
 3366SOL    HW121557   1.567   2.359   0.622 -1.5590  1.7750 -0.3223
 3366SOL    HW221558   1.546   2.404   0.472  0.1119  0.3311  1.1455
 3367SOL     OW21559   3.383   2.924  12.043 -0.2242 -0.0178  0.2841
 3367SOL    HW121560   3.339   3.008  12.052  0.0384 -0.0168  1.7245
 3367SOL    HW221561   3.441   2.940  12.118 -1.0574 -0.6534  1.0717
 3368SOL     OW21562   0.223   0.790   4.497  0.1650  0.1491  0.6596
 3368SOL    HW121563   0.243   0.862   4.556  0.2328  0.0507  0.7565
 3368SOL    HW221564   0.133   0.774   4.525  0.4181 -1.2671  0.6761
 3369SOL     OW21565   0.542   1.032   4.463  0.4825 -0.0914  0.3910
 3369SOL    HW121566   0.565   0.976   4.537  1.9395 -1.3536 -1.0366
 3369SOL    HW221567   0.627   1.076   4.455  1.1010 -1.1341  1.3064
 3370SOL     OW21568   0.969   4.026   5.195 -0.6453  0.0701  0.2963
 3370SOL    HW121569   0.967   4.002   5.103 -2.0021  1.5344 -0.0541
 3370SOL    HW221570   0.894   3.977   5.228 -1.3555 -0.1594 -1.6983
 3371SOL     OW21571   0.240   0.449   8.654  0.1384 -0.1319 -0.7154
 3371SOL    HW121572   0.293   0.475   8.578 -0.3644 -1.3579 -1.4782
 3371SOL    HW221573   0.248   0.354   8.651  1.3784 -0.0432 -0.4993
 3372SOL     OW21574   2.836   2.232   5.744 -0.2594 -0.3494 -0.3137
 3372SOL    HW121575   2.846   2.154   5.688 -3.3599  0.2395 -1.6988
 3372SOL    HW221576   2.890   2.295   5.697 -1.4083  0.4177 -0.5889
 3373SOL     OW21577   1.986   4.244  16.566  0.0155 -0.1723 -0.2786
 3373SOL    HW121578   1.970   4.266  16.474 -0.4366  2.4677  0.4494
 3373SOL    HW221579   2.044   4.168  16.563  0.7550  0.2464  3.1301
 3374SOL     OW21580   4.500   2.571   8.612 -0.2449  0.0615 -0.5673
 3374SOL    HW121581   4.507   2.544   8.520  0.3872 -0.5672 -0.3250
 3374SOL    HW221582   4.449   2.653   8.611 -0.3165  0.0240  0.1692
 3375SOL     OW21583   0.899   1.289  11.378 -0.4930 -0.3263 -0.2715
 3375SOL    HW121584   0.933   1.253  11.460 -0.2765  0.2074 -0.1322
 3375SOL    HW221585   0.980   1.281  11.327  0.9223  0.6160  1.8531
 3376SOL     OW21586   1.379   3.136   6.285 -0.1509 -0.1542 -0.3705
 3376SOL    HW121587   1.457   3.091   6.318 -1.2810 -0.1019  2.4003
 3376SOL    HW221588   1.409   3.226   6.278 -1.4062  0.2640 -0.3481
 3377SOL     OW21589   1.568   1.103   1.771  0.7752  0.0605 -0.1112
 3377SOL    HW121590   1.617   1.028   1.738  0.3231 -1.2216  2.1130
 3377SOL    HW221591   1.534   1.142   1.690 -0.9637  0.1714  0.6742
 3378SOL     OW21592   3.452   3.714   3.919  0.4096  0.2202 -0.4086
 3378SOL    HW121593   3.373   3.664   3.899 -0.1442  0.7296  0.4837
 3378SOL    HW221594   3.446   3.783   3.853  0.6965  1.0518  0.4291
 3379SOL     OW21595   3.294   3.911   8.127 -0.3455  0.1892 -0.3695
 3379SOL    HW121596   3.277   3.883   8.217  2.3047 -1.5835 -0.4198
 3379SOL    HW221597   3.349   3.838   8.101 -0.3937 -0.8037  2.3368
 3380SOL     OW21598   3.213   3.878   2.034  0.4662 -0.6621  0.0815
 3380SOL    HW121599   3.200   3.910   1.945  1.6146 -2.4664 -0.7483
 3380SOL    HW221600   3.199   3.960   2.082 -1.5859 -0.9040 -0.0834
 3381SOL     OW21601   0.462   4.001   5.216  0.3362 -0.5404  0.2961
 3381SOL    HW121602   0.382   3.954   5.189  3.1079 -4.5149 -0.9269
 3381SOL    HW221603   0.425   4.079   5.256  1.2539 -1.5416  3.0518
 3382SOL     OW21604   2.603   0.084   8.351 -0.2024  0.8192  0.2445
 3382SOL    HW121605   2.651   0.160   8.384 -0.2896  0.8475  0.3073
 3382SOL    HW221606   2.666   0.043   8.293 -0.3353 -0.2348  0.8417
 3383SOL     OW21607   1.967   0.791   4.265  0.1115 -0.2496 -0.2152
 3383SOL    HW121608   1.923   0.866   4.223  0.1273 -0.0743  0.0792
 3383SOL    HW221609   1.997   0.827   4.349 -0.5265  0.4943 -0.3069
 3384SOL     OW21610   1.945   3.315  15.913 -0.1900  0.2718 -0.1124
 3384SOL    HW121611   1.926   3.405  15.939 -0.3687  0.0280  0.6011
 3384SOL    HW221612   1.869   3.272  15.953  1.7802 -1.1577  2.0868
 3385SOL     OW21613   1.307   1.805   9.468 -0.0407 -0.0757 -0.5294
 3385SOL    HW121614   1.258   1.869   9.417 -1.9281 -0.1826  1.1431
 3385SOL    HW221615   1.393   1.845   9.457 -1.8819  4.0926  0.2600
 3386SOL     OW21616   2.841   2.432   8.205 -0.0776  0.4742  0.1839
 3386SOL    HW121617   2.761   2.423   8.153 -0.7330  1.1777  1.0643
 3386SOL    HW221618   2.908   2.423   8.137 -1.1207  0.8630 -0.8986
 3387SOL     OW21619   0.101   2.914   8.080 -0.1512 -0.0241 -0.2920
 3387SOL    HW121620   0.091   2.982   8.013  1.3305 -0.5268 -1.0416
 3387SOL    HW221621   0.100   2.827   8.039 -0.0803  0.8659 -2.2043
 3388SOL     OW21622   2.422   3.650   6.877 -0.3559 -0.4040  0.0619
 3388SOL    HW121623   2.407   3.607   6.793  1.0605 -1.3687  0.2905
 3388SOL    HW221624   2.340   3.691   6.903 -0.4288  0.1794 -1.0652
 3389SOL     OW21625   0.295   1.065  15.270 -0.6719 -0.1980  0.3443
 3389SOL    HW121626   0.328   1.054  15.359  1.0366 -0.4986 -0.3313
 3389SOL    HW221627   0.345   1.136  15.230 -1.8735  0.6207  0.2920
 3390SOL     OW21628   1.145   1.396   6.115  0.0863  0.2037 -0.5887
 3390SOL    HW121629   1.239   1.406   6.131 -0.4682  0.7070  2.4016
 3390SOL    HW221630   1.119   1.410   6.206  0.5191  1.3223 -0.6424
 3391SOL     OW21631   2.568   1.219   2.910 -0.2794  0.2911  0.0162
 3391SOL    HW121632   2.592   1.131   2.882 -1.1871 -0.0456  0.2708
 3391SOL    HW221633   2.487   1.236   2.861 -2.2758 -1.8770  2.5002
 3392SOL     OW21634   3.175   0.251   2.791  0.1567 -0.1044 -0.2665
 3392SOL    HW121635   3.270   0.241   2.798  0.0742 -0.8064 -0.1514
 3392SOL    HW221636   3.160   0.174   2.737 -1.3238  0.1493 -0.2172
 3393SOL     OW21637   1.985   1.653  17.258 -0.0775 -0.0625  0.2644
 3393SOL    HW121638   1.934   1.714  17.311  0.5684  1.6511 -1.1055
 3393SOL    HW221639   2.054   1.627  17.320  0.7023  0.4264 -0.4049
 3394SOL     OW21640   0.307   0.798   3.597 -0.0982 -0.4067  0.0430
 3394SOL    HW121641   0.376   0.857   3.626  0.7148 -1.7484  0.8415
 3394SOL    HW221642   0.309   0.792   3.501  2.0934  0.2100  0.0422
 3395SOL     OW21643   0.355   0.271   3.097 -0.2301 -0.7842 -0.5140
 3395SOL    HW121644   0.404   0.300   3.020  1.2463 -0.9157  0.3870
 3395SOL    HW221645   0.279   0.318   3.062 -0.2013 -1.2539 -1.2033
 3396SOL     OW21646   2.967   0.511  13.391 -0.4749 -0.1780 -0.4677
 3396SOL    HW121647   3.033   0.544  13.330  0.0145  1.8865  1.1912
 3396SOL    HW221648   3.014   0.440  13.436 -1.2134  0.9644  2.1106
 3397SOL     OW21649   2.470   0.689  17.626 -0.1056  0.7340 -0.2537
 3397SOL    HW121650   2.464   0.601  17.590 -0.0427  1.0889 -1.1452
 3397SOL    HW221651   2.376   0.700  17.641 -0.1481 -0.5546  0.3530
 3398SOL     OW21652   4.099   2.272   9.556 -0.1443 -0.6988  0.1810
 3398SOL    HW121653   4.168   2.210   9.581  2.6512  1.7408 -1.4626
 3398SOL    HW221654   4.116   2.345   9.615  0.1426 -0.2491 -0.4648
 3399SOL     OW21655   0.120   2.753  14.580  0.4921 -0.1029  0.0208
 3399SOL    HW121656   0.076   2.778  14.662  0.6664  1.3595 -0.3274
 3399SOL    HW221657   0.054   2.696  14.538 -0.0524  0.6728 -0.1828
 3400SOL     OW21658   3.027   0.451   6.432  0.1974 -0.0865  0.0360
 3400SOL    HW121659   3.045   0.425   6.522 -0.0369 -1.6331 -0.3665
 3400SOL    HW221660   3.077   0.385   6.385  2.8982  1.0287  1.3366
 3401SOL     OW21661   2.489   0.550   9.161  0.0593  0.3756 -0.0277
 3401SOL    HW121662   2.410   0.601   9.183 -1.6108 -2.7396  1.1858
 3401SOL    HW221663   2.519   0.596   9.082  1.1499  1.8513  1.2510
 3402SOL     OW21664   1.979   2.038  13.102  0.0848  0.3922 -0.6202
 3402SOL    HW121665   2.051   2.027  13.165  0.5184  1.0574 -1.0027
 3402SOL    HW221666   1.944   2.121  13.133 -3.5958 -1.9418  1.4928
 3403SOL     OW21667   1.756   2.901   4.230  1.0017 -0.2440 -0.4300
 3403SOL    HW121668   1.843   2.883   4.194  1.6132  2.3567 -0.3186
 3403SOL    HW221669   1.700   2.916   4.154 -0.0296 -2.0093 -0.0193
 3404SOL     OW21670   3.346   3.592   2.912 -0.2828  0.3105  0.4939
 3404SOL    HW121671   3.281   3.552   2.969 -2.1055  3.3530  0.5676
 3404SOL    HW221672   3.415   3.527   2.922  1.1651  2.0046  1.4776
 3405SOL     OW21673   1.048   0.318   3.736 -0.6350  0.0621 -0.0366
 3405SOL    HW121674   1.011   0.383   3.676 -1.8456  0.3045  0.9892
 3405SOL    HW221675   1.078   0.257   3.669  0.2429  1.0285 -0.5352
 3406SOL     OW21676   2.958   0.251  15.104 -0.1616 -0.1418  0.4983
 3406SOL    HW121677   2.966   0.172  15.051 -1.0192  0.0901  0.0229
 3406SOL    HW221678   2.878   0.293  15.072 -0.3348 -0.3538  0.6579
 3407SOL     OW21679   0.947   2.942   4.989  0.5268  0.5358  0.2460
 3407SOL    HW121680   1.024   2.990   5.020  2.0466 -0.3893 -2.1424
 3407SOL    HW221681   0.901   2.938   5.073  0.2550  2.0394  0.1683
 3408SOL     OW21682   0.972   4.242   4.209  0.1190  0.1538 -0.3680
 3408SOL    HW121683   0.932   4.174   4.263  0.0380  0.4803 -0.0168
 3408SOL    HW221684   1.058   4.244   4.251 -1.5962 -3.7754  3.4163
 3409SOL     OW21685   0.207   0.077   2.135  0.2767 -0.6292 -0.4887
 3409SOL    HW121686   0.141   0.009   2.146  1.0668 -1.1400  1.0031
 3409SOL    HW221687   0.165   0.137   2.196 -1.8699 -0.6147 -1.9942
 3410SOL     OW21688   0.999   0.851   4.962 -0.1266  0.0930 -0.1193
 3410SOL    HW121689   0.972   0.920   5.023 -1.6225 -0.5909  0.0132
 3410SOL    HW221690   0.962   0.781   5.016 -1.3231 -0.1939 -1.3107
 3411SOL     OW21691   2.651   4.275  14.690 -0.1934  0.1438 -0.3556
 3411SOL    HW121692   2.660   4.296  14.597 -0.5249 -1.5586 -0.7659
 3411SOL    HW221693   2.642   4.180  14.682 -1.0486  0.3465 -1.7123
 3412SOL     OW21694   0.091   1.737   2.465 -0.3761 -0.1599  0.6479
 3412SOL    HW121695   0.105   1.800   2.536 -2.2273 -0.3127  1.1394
 3412SOL    HW221696   4.723   1.731   2.469 -0.4878  1.0781  0.0396
 3413SOL     OW21697   1.129   0.970   0.509  0.6935  0.4967 -0.4659
 3413SOL    HW121698   1.072   0.941   0.438  0.4008  1.8908 -0.7909
 3413SOL    HW221699   1.069   1.016   0.567  0.2670 -0.6656  0.0132
 3414SOL     OW21700   3.771   1.782   2.472  0.4342  0.1332 -0.0036
 3414SOL    HW121701   3.801   1.731   2.397 -0.2161 -0.7249  0.3162
 3414SOL    HW221702   3.696   1.728   2.499  1.4600 -0.9094  0.7345
 3415SOL     OW21703   3.315   1.213  12.355 -0.3127  0.2923  0.1138
 3415SOL    HW121704   3.306   1.253  12.441  0.7183  1.2080 -0.1935
 3415SOL    HW221705   3.359   1.132  12.382  0.9889  0.6654 -0.8476
 3416SOL     OW21706   4.581   1.479   2.331  0.2811 -0.6173 -0.0880
 3416SOL    HW121707   4.539   1.557   2.296  1.1083  0.0003  0.3243
 3416SOL    HW221708   4.501   1.441   2.369  0.2622  0.0246  0.5121
 3417SOL     OW21709   1.835   2.169   7.134 -0.6175 -0.0347  0.7450
 3417SOL    HW121710   1.837   2.245   7.076 -1.9092 -0.9641 -0.4932
 3417SOL    HW221711   1.853   2.092   7.079  1.2073  0.8419  0.1066
 3418SOL     OW21712   1.521   2.106   2.126 -0.4823 -1.0067 -0.3345
 3418SOL    HW121713   1.582   2.178   2.143  0.5320 -1.9987  0.1796
 3418SOL    HW221714   1.561   2.037   2.178 -1.1426 -0.9660  0.2188
 3419SOL     OW21715   1.064   2.847   7.789  0.4318 -0.0985 -0.3852
 3419SOL    HW121716   1.110   2.894   7.860 -0.2911  0.3480 -0.2146
 3419SOL    HW221717   1.000   2.808   7.849  0.1244  0.5424 -0.2884
 3420SOL     OW21718   0.069   1.392   2.508  0.0458 -0.2304 -0.7666
 3420SOL    HW121719   0.050   1.465   2.450 -1.1436  0.6615  0.7650
 3420SOL    HW221720   4.704   1.377   2.528  0.1761  2.0649  1.5854
 3421SOL     OW21721   4.246   1.941   3.761 -0.0709  0.4664 -0.1055
 3421SOL    HW121722   4.313   1.894   3.811 -0.1962 -0.8803 -1.2051
 3421SOL    HW221723   4.257   2.032   3.789  0.5947  0.8867 -1.6941
 3422SOL     OW21724   3.323   3.909   6.533 -0.5893 -0.0801 -0.4401
 3422SOL    HW121725   3.309   4.002   6.518  0.9276  0.3331  0.7484
 3422SOL    HW221726   3.275   3.904   6.616 -0.8089 -1.2265 -0.6294
 3423SOL     OW21727   4.356   3.410   6.699 -0.1649  0.3110 -0.5900
 3423SOL    HW121728   4.399   3.487   6.737  0.0810  0.1210 -0.4804
 3423SOL    HW221729   4.282   3.453   6.658 -2.0995 -2.5951 -0.1139
 3424SOL     OW21730   1.266   1.793   7.022 -0.7085  0.3465 -0.0070
 3424SOL    HW121731   1.296   1.881   7.046  0.2692 -0.0037  0.0708
 3424SOL    HW221732   1.346   1.743   7.039 -1.4665 -1.4210 -1.6935
 3425SOL     OW21733   4.001   4.395   9.005 -0.2421 -0.5405  0.5375
 3425SOL    HW121734   3.931   4.334   8.983 -0.3881 -1.5713  3.7410
 3425SOL    HW221735   3.992   4.400   9.101  1.7332 -1.3789  0.7803
 3426SOL     OW21736   2.149   2.783  12.093 -0.6139  0.3284  0.1525
 3426SOL    HW121737   2.177   2.873  12.114 -0.4458  0.2710  0.1747
 3426SOL    HW221738   2.075   2.765  12.150 -0.7435 -0.9283 -0.4098
 3427SOL     OW21739   0.349   2.262   2.066  0.2129  0.0062 -0.5451
 3427SOL    HW121740   0.304   2.245   2.149 -1.5009 -0.7332 -1.6247
 3427SOL    HW221741   0.295   2.211   2.005  0.9839 -0.0398 -1.1803
 3428SOL     OW21742   3.865   1.187   5.295 -0.1862  0.2670  0.5444
 3428SOL    HW121743   3.798   1.255   5.299 -0.2972  0.2829 -1.5175
 3428SOL    HW221744   3.856   1.139   5.377  0.4643  0.1746  0.5632
 3429SOL     OW21745   2.505   2.803   7.707 -0.1647  0.8647 -0.5987
 3429SOL    HW121746   2.570   2.764   7.648 -1.2253  0.7823 -1.7207
 3429SOL    HW221747   2.536   2.793   7.797 -2.2366 -1.6944 -0.1684
 3430SOL     OW21748   4.140   0.773  16.554  0.6276  0.2725 -0.0266
 3430SOL    HW121749   4.152   0.867  16.572  1.4187  0.5218 -1.9192
 3430SOL    HW221750   4.058   0.778  16.505  0.4354 -1.3995  0.1559
 3431SOL     OW21751   3.121   0.712   3.302  0.2449  0.7391  0.0070
 3431SOL    HW121752   3.189   0.680   3.360 -1.1265 -0.1010  1.1674
 3431SOL    HW221753   3.079   0.628   3.284 -0.4065  0.4087  3.0385
 3432SOL     OW21754   1.030   2.666   3.329  0.0703  0.1060  0.0047
 3432SOL    HW121755   1.075   2.624   3.256 -1.1171 -1.0620 -0.0556
 3432SOL    HW221756   1.045   2.612   3.406 -2.3828 -1.1625 -0.4091
 3433SOL     OW21757   4.375   1.325   2.422 -0.3062 -0.3431 -0.2803
 3433SOL    HW121758   4.405   1.255   2.481 -1.5308 -1.1514 -0.6024
 3433SOL    HW221759   4.328   1.278   2.353  3.2260  1.0531 -3.5526
 3434SOL     OW21760   4.476   3.102   7.494  0.5375  0.2692  0.9637
 3434SOL    HW121761   4.404   3.119   7.433  0.6268  1.0038  1.0638
 3434SOL    HW221762   4.526   3.034   7.449  1.3518  2.3762 -1.3068
 3435SOL     OW21763   0.789   3.484   3.078 -0.8548 -0.1800  0.6736
 3435SOL    HW121764   0.847   3.498   3.003 -0.6298  1.2751  1.1045
 3435SOL    HW221765   0.792   3.390   3.091 -0.9656 -0.0336  1.8086
 3436SOL     OW21766   0.329   2.632   6.266 -0.1082  0.0116 -0.0596
 3436SOL    HW121767   0.368   2.573   6.331 -0.6116 -1.5407 -1.1513
 3436SOL    HW221768   0.257   2.666   6.320 -0.1699  0.1813 -0.2467
 3437SOL     OW21769   2.212   3.975   7.547  0.0066 -0.0077  0.0357
 3437SOL    HW121770   2.269   4.032   7.496 -0.5160 -1.5653 -2.3013
 3437SOL    HW221771   2.263   3.894   7.546  0.6966  0.4433 -1.0164
 3438SOL     OW21772   2.787   0.620   6.069 -0.3633  0.0737 -0.1587
 3438SOL    HW121773   2.831   0.577   6.142  2.3003  0.3539 -1.6209
 3438SOL    HW221774   2.859   0.650   6.014 -0.0236 -2.1394 -0.9047
 3439SOL     OW21775   4.599   4.682   6.580  0.3339  0.1018  0.1834
 3439SOL    HW121776   4.609   4.589   6.603  1.2296  0.4989  1.3789
 3439SOL    HW221777   4.542   4.664   6.505 -1.6945  0.9943  1.5297
 3440SOL     OW21778   3.100   1.565  16.360  0.4670 -0.6517 -0.3769
 3440SOL    HW121779   3.192   1.539  16.364  0.3459 -0.7813  1.5268
 3440SOL    HW221780   3.077   1.529  16.274  3.2013 -1.3086 -0.8182
 3441SOL     OW21781   1.133   0.781   2.287  0.1551  0.5299  0.0122
 3441SOL    HW121782   1.051   0.779   2.338 -0.8020 -1.4541 -1.6210
 3441SOL    HW221783   1.154   0.874   2.279 -0.5938  0.7344  0.3377
 3442SOL     OW21784   1.394   0.119   8.209 -0.6099  0.2922  0.2642
 3442SOL    HW121785   1.351   0.162   8.136 -2.2562 -3.4300 -0.9582
 3442SOL    HW221786   1.483   0.155   8.202 -0.8783  1.0578  0.7509
 3443SOL     OW21787   1.931   2.315   7.344  0.1648 -0.3046 -0.0957
 3443SOL    HW121788   1.971   2.388   7.296  0.7206 -1.7301 -1.8333
 3443SOL    HW221789   1.876   2.275   7.276 -1.4782  1.1673  0.3684
 3444SOL     OW21790   2.133   1.674   7.332 -0.3506 -0.2231  0.0711
 3444SOL    HW121791   2.045   1.707   7.313 -1.4249 -3.8216 -1.0955
 3444SOL    HW221792   2.123   1.583   7.304 -1.8432  0.2327 -0.8893
 3445SOL     OW21793   4.053   4.178   5.041  0.2866  0.5796  0.2901
 3445SOL    HW121794   4.109   4.116   5.089  3.2849  0.9820 -2.7419
 3445SOL    HW221795   4.124   4.220   4.993  1.2786  2.8813  3.7712
 3446SOL     OW21796   4.611   0.157   2.632  0.1108 -0.2664 -0.6477
 3446SOL    HW121797   4.679   0.146   2.698 -1.2737 -0.8348  0.6969
 3446SOL    HW221798   4.633   0.085   2.573 -0.5099 -0.5395 -0.5506
 3447SOL     OW21799   0.333   3.139   1.974 -0.1939  0.1153  0.0127
 3447SOL    HW121800   0.288   3.073   2.027 -0.1970 -1.0065 -1.3795
 3447SOL    HW221801   0.287   3.214   2.012 -0.0762 -0.0356  0.4528
 3448SOL     OW21802   1.212   4.449   4.074  0.1733  0.1504 -0.0939
 3448SOL    HW121803   1.177   4.452   3.985 -0.3786 -0.0235  0.1219
 3448SOL    HW221804   1.218   4.355   4.092 -2.4055  0.0395  0.2126
 3449SOL     OW21805   3.407   1.336  15.401  0.6861 -0.1795 -0.2477
 3449SOL    HW121806   3.455   1.408  15.361 -0.4629  0.2859 -0.7778
 3449SOL    HW221807   3.437   1.340  15.491 -0.9299  3.9485  0.1108
 3450SOL     OW21808   4.656   0.110   8.515 -0.1022 -0.4965  0.2142
 3450SOL    HW121809   4.569   0.094   8.552  0.6446  0.0486  2.1892
 3450SOL    HW221810   4.663   0.204   8.533  0.0236 -0.6590  0.9933
 3451SOL     OW21811   3.967   2.936   6.551  0.3082  0.3387  0.0578
 3451SOL    HW121812   3.983   2.884   6.472 -0.7440  0.9664 -0.5612
 3451SOL    HW221813   3.917   3.013   6.524  1.1394  1.0076  0.4333
 3452SOL     OW21814   3.492   1.822   6.395 -0.5251 -0.2004  0.7847
 3452SOL    HW121815   3.438   1.901   6.408 -2.0207 -1.0110 -0.4500
 3452SOL    HW221816   3.573   1.843   6.441 -0.6410  2.7177 -0.3170
 3453SOL     OW21817   0.024   0.849   6.740  0.1515 -0.0347  0.1204
 3453SOL    HW121818   0.038   0.756   6.758 -1.5467 -0.4882 -0.9481
 3453SOL    HW221819   4.664   0.867   6.777  0.2817 -0.6877  0.7343
 3454SOL     OW21820   2.715   4.307  17.439  0.3270  0.4937  0.2602
 3454SOL    HW121821   2.733   4.392  17.398 -0.6695  0.2297 -0.7147
 3454SOL    HW221822   2.805   4.273  17.435  0.5497  1.1798 -0.5995
 3455SOL     OW21823   1.232   3.293   6.570 -0.1790 -0.0967 -0.3604
 3455SOL    HW121824   1.292   3.360   6.602 -0.8055  0.3474 -0.1256
 3455SOL    HW221825   1.212   3.328   6.483  2.1672  0.2088 -0.7873
 3456SOL     OW21826   0.569   1.581  17.316  0.5162  0.6271 -0.9322
 3456SOL    HW121827   0.653   1.613  17.347  0.6018  0.2134 -0.7385
 3456SOL    HW221828   0.530   1.567  17.403  0.7562  0.1389 -0.9003
 3457SOL     OW21829   0.452   0.322   3.928  0.3281 -0.2667  0.2745
 3457SOL    HW121830   0.527   0.266   3.909  0.0455 -0.2395 -0.9314
 3457SOL    HW221831   0.469   0.398   3.871  0.8066 -0.9250 -0.4526
 3458SOL     OW21832   1.287   3.743   7.849 -0.1433  0.3134  0.3431
 3458SOL    HW121833   1.196   3.738   7.819  0.3742 -0.8284 -1.0260
 3458SOL    HW221834   1.254   3.733   7.938 -0.0479 -0.7285  0.2536
 3459SOL     OW21835   2.011   1.954   8.463 -0.5719 -0.4079 -0.3410
 3459SOL    HW121836   1.921   1.973   8.436 -0.3477  0.9022 -0.1444
 3459SOL    HW221837   2.016   1.859   8.450  0.2861 -0.7147  2.2430
 3460SOL     OW21838   1.990   0.882   8.325 -0.7890  0.5134  0.3892
 3460SOL    HW121839   2.085   0.895   8.331 -0.1904 -2.9852 -1.3965
 3460SOL    HW221840   1.967   0.856   8.414  0.5364  0.7349  0.8059
 3461SOL     OW21841   3.712   1.377   9.420  0.1664  0.3633 -0.0087
 3461SOL    HW121842   3.629   1.422   9.437  0.2883  0.4700  0.3158
 3461SOL    HW221843   3.715   1.306   9.484 -2.3845 -1.0123 -1.4429
 3462SOL     OW21844   0.406   1.499   8.848 -0.6156 -0.2294  0.0119
 3462SOL    HW121845   0.319   1.538   8.859 -0.2370  0.4387  0.6231
 3462SOL    HW221846   0.445   1.523   8.932  0.0319  0.8342 -0.5842
 3463SOL     OW21847   0.152   0.179   8.807 -0.2139 -0.3772 -0.7684
 3463SOL    HW121848   0.237   0.157   8.845 -1.6881 -1.1552  2.0634
 3463SOL    HW221849   0.160   0.123   8.730 -1.5445  0.6940 -1.6794
 3464SOL     OW21850   0.191   1.042  14.567  0.4493  0.0046  0.3646
 3464SOL    HW121851   0.209   1.136  14.573 -0.3081  0.2177 -0.6229
 3464SOL    HW221852   0.234   0.992  14.636 -0.0401  0.4843  1.0195
 3465SOL     OW21853   2.124   1.502  16.213 -0.2233 -0.4404  0.0977
 3465SOL    HW121854   2.216   1.490  16.236 -0.3505 -1.8223 -0.1387
 3465SOL    HW221855   2.106   1.410  16.195  0.4095 -0.1546 -2.0141
 3466SOL     OW21856   3.729   2.562   2.334  0.2794 -0.1255  0.0505
 3466SOL    HW121857   3.654   2.569   2.393  1.4479 -0.9357  1.6285
 3466SOL    HW221858   3.752   2.470   2.332  1.6247  0.1998  0.1592
 3467SOL     OW21859   4.085   2.492  17.698 -0.2639  0.1375 -0.1698
 3467SOL    HW121860   4.090   2.585   0.013 -3.3093  0.3025 -0.1497
 3467SOL    HW221861   4.080   2.495  17.603 -1.9488 -1.1931 -0.1194
 3468SOL     OW21862   1.387   0.398  16.044 -0.8941 -0.0178  0.2108
 3468SOL    HW121863   1.408   0.367  15.956 -2.5257 -0.9859  0.1762
 3468SOL    HW221864   1.473   0.390  16.086  0.6174  0.5152 -2.7581
 3469SOL     OW21865   0.837   2.221   8.342  0.1662  0.0118 -0.5434
 3469SOL    HW121866   0.922   2.261   8.363 -0.2473 -0.8327  2.6221
 3469SOL    HW221867   0.810   2.199   8.430 -2.2011  0.7462 -1.0993
 3470SOL     OW21868   3.120   1.527   8.766 -0.2363  0.3168 -0.3159
 3470SOL    HW121869   3.115   1.622   8.769 -0.6886  0.2597  0.5903
 3470SOL    HW221870   3.198   1.513   8.711  0.0061  2.1926 -0.4438
 3471SOL     OW21871   2.693   3.938   1.064 -0.5478  0.0778  0.1734
 3471SOL    HW121872   2.613   3.887   1.056  0.8744 -2.2148  0.5267
 3471SOL    HW221873   2.707   3.989   0.984  2.3484 -0.2452  0.4887
 3472SOL     OW21874   2.291   0.837  10.220 -0.3284 -0.0907  0.4583
 3472SOL    HW121875   2.266   0.929  10.221 -2.5674 -0.6735 -0.3568
 3472SOL    HW221876   2.376   0.841  10.176  0.9637 -3.2097  2.6492
 3473SOL     OW21877   4.643   0.394   7.081  0.4333 -0.3951  0.0707
 3473SOL    HW121878   4.664   0.302   7.101  0.6331 -0.8370 -2.1669
 3473SOL    HW221879   4.568   0.411   7.138 -0.4376 -0.8922 -0.9317
 3474SOL     OW21880   1.445   1.480  17.587 -0.4491  0.9276 -0.3834
 3474SOL    HW121881   1.518   1.466  17.527  0.3818  1.9616  0.3940
 3474SOL    HW221882   1.391   1.405  17.561 -0.9477  0.5933  1.6738
 3475SOL     OW21883   3.611   3.291  15.949  0.1968  0.1933  0.3788
 3475SOL    HW121884   3.672   3.218  15.942  0.9999  0.7748  1.2741
 3475SOL    HW221885   3.635   3.320  16.037  0.8871  0.6113  0.0544
 3476SOL     OW21886   3.835   3.985   0.380 -0.1652  0.0505 -0.0917
 3476SOL    HW121887   3.901   3.958   0.317 -1.5339 -1.2625 -0.9644
 3476SOL    HW221888   3.860   3.925   0.449  1.3704  1.2685  0.3999
 3477SOL     OW21889   3.793   4.500   3.889 -0.1132  0.2055  0.6928
 3477SOL    HW121890   3.861   4.456   3.941  1.0672 -0.2539 -1.2276
 3477SOL    HW221891   3.822   4.591   3.890  0.4250  0.0342  0.9681
 3478SOL     OW21892   2.216   1.922   8.921  0.2851  0.5124  0.2664
 3478SOL    HW121893   2.304   1.947   8.950  1.4644 -2.1488 -1.0506
 3478SOL    HW221894   2.173   1.899   9.004  2.0598  0.1411  1.0863
 3479SOL     OW21895   1.104   0.105   4.326  0.1831  0.2747  0.0794
 3479SOL    HW121896   1.013   0.126   4.307 -0.7502 -3.2836  0.6273
 3479SOL    HW221897   1.135   0.085   4.237 -0.7327  1.9499 -0.6110
 3480SOL     OW21898   4.355   0.760   5.065  0.3022  0.8810 -0.4610
 3480SOL    HW121899   4.279   0.713   5.097 -0.8448  2.1025 -1.3738
 3480SOL    HW221900   4.343   0.832   5.128 -1.7530 -0.6331  0.8635
 3481SOL     OW21901   3.406   2.598  10.400 -0.3307 -0.0207 -0.5065
 3481SOL    HW121902   3.385   2.677  10.350 -2.2781  0.0600  0.4113
 3481SOL    HW221903   3.320   2.564  10.425  0.6981 -3.2716 -1.4116
 3482SOL     OW21904   2.165   3.278  10.892  0.2228 -0.1244 -0.2860
 3482SOL    HW121905   2.099   3.273  10.961  0.5122 -2.4720 -0.1642
 3482SOL    HW221906   2.211   3.194  10.895 -1.2960 -0.9548  0.0155
 3483SOL     OW21907   3.600   3.027  13.097 -0.8063 -0.1477 -0.0691
 3483SOL    HW121908   3.695   3.029  13.085 -0.2658 -2.6072  3.8507
 3483SOL    HW221909   3.600   2.976  13.178  1.3862 -1.2196 -0.7328
 3484SOL     OW21910   2.969   1.127   0.776  0.1151 -0.2206 -0.3316
 3484SOL    HW121911   2.897   1.190   0.779  0.8680  0.6662 -0.8998
 3484SOL    HW221912   2.999   1.130   0.685  0.3456  0.5256 -0.2264
 3485SOL     OW21913   0.367   4.719   1.554 -0.4163 -0.3536 -0.3066
 3485SOL    HW121914   0.283   0.037   1.558  0.4513  1.5434 -3.1711
 3485SOL    HW221915   0.401   0.037   1.632 -1.5855 -0.0338  0.0137
 3486SOL     OW21916   1.785   2.064   9.417 -0.7214  0.0018  0.2574
 3486SOL    HW121917   1.751   2.002   9.352 -0.6273 -0.3276  0.5196
 3486SOL    HW221918   1.841   2.108   9.354 -1.0005 -0.2987 -0.1997
 3487SOL     OW21919   1.122   4.113   3.768 -0.3617  0.1554  0.4977
 3487SOL    HW121920   1.038   4.069   3.752 -0.2729 -0.1754  0.9465
 3487SOL    HW221921   1.097   4.205   3.776  1.8584  0.7612  0.4481
 3488SOL     OW21922   2.946   0.264   7.181 -0.4776 -0.2227  0.1407
 3488SOL    HW121923   2.991   0.193   7.135 -0.0984  0.5138 -0.6055
 3488SOL    HW221924   3.026   0.311   7.201 -0.9354  0.6805 -0.1422
 3489SOL     OW21925   1.306   1.821   3.035  0.7014 -0.3706  0.6412
 3489SOL    HW121926   1.268   1.821   2.947 -1.1474  0.8704  1.4128
 3489SOL    HW221927   1.274   1.739   3.071 -1.2105 -0.4831 -1.3027
 3490SOL     OW21928   1.725   0.745   6.956  0.2276 -0.0512  0.0436
 3490SOL    HW121929   1.694   0.795   7.031  1.1720 -1.5540  1.4555
 3490SOL    HW221930   1.642   0.707   6.925  1.0588 -1.2057 -0.7787
 3491SOL     OW21931   4.611   1.144   2.839  0.2294 -0.3066 -0.5212
 3491SOL    HW121932   4.563   1.143   2.756  0.0925  1.6918 -0.4851
 3491SOL    HW221933   4.567   1.203   2.901  0.7966 -2.1411  1.6063
 3492SOL     OW21934   1.820   1.004   8.137  0.2916 -0.4475  0.0626
 3492SOL    HW121935   1.868   0.948   8.198 -0.1276 -0.2317  0.5901
 3492SOL    HW221936   1.791   1.073   8.196  0.3598  0.5001 -0.9982
 3493SOL     OW21937   4.352   2.754  15.809  0.1752 -0.1329  0.3823
 3493SOL    HW121938   4.275   2.722  15.856 -0.2577 -0.8625 -0.8197
 3493SOL    HW221939   4.365   2.683  15.746 -0.3168 -0.1689  0.3249
 3494SOL     OW21940   0.355   1.185   0.445  0.8305 -0.2133 -0.1130
 3494SOL    HW121941   0.422   1.227   0.391  0.0893  0.8398 -0.2072
 3494SOL    HW221942   0.317   1.260   0.491  0.2824 -0.7644  0.3288
 3495SOL     OW21943   3.794   3.104  15.925 -0.0602 -0.3422 -0.3113
 3495SOL    HW121944   3.877   3.146  15.904  0.9967 -1.6334  1.3296
 3495SOL    HW221945   3.820   3.040  15.992  1.1740  0.4197 -0.0761
 3496SOL     OW21946   2.018   0.652   3.995  0.0469 -0.6210  0.0182
 3496SOL    HW121947   1.925   0.672   4.003  0.0042 -0.2597 -1.4412
 3496SOL    HW221948   2.044   0.664   4.086  1.8547 -0.1089 -0.5571
 3497SOL     OW21949   3.799   0.017   6.556 -0.2819  0.0619  0.6206
 3497SOL    HW121950   3.748   0.010   6.475 -1.2987  1.1596  1.1654
 3497SOL    HW221951   3.726   0.016   6.618  0.1219 -1.8399  1.0585
 3498SOL     OW21952   3.578   1.248  17.403  0.5460  0.0849  0.3662
 3498SOL    HW121953   3.527   1.244  17.322  1.0147  1.0130  0.0254
 3498SOL    HW221954   3.570   1.162  17.444  0.1401 -0.4204 -0.7872
 3499SOL     OW21955   0.105   4.333   4.373 -0.6788 -0.2673  0.0004
 3499SOL    HW121956   0.066   4.417   4.350 -0.5477  0.1037  1.1757
 3499SOL    HW221957   0.036   4.270   4.349  0.5892 -2.6490  2.5698
 3500SOL     OW21958   3.931   2.813   3.753  0.2385 -0.1261 -0.3412
 3500SOL    HW121959   3.911   2.878   3.820 -1.8761 -0.3900 -0.7213
 3500SOL    HW221960   3.845   2.772   3.746 -0.1270  0.4808  0.5592
 3501SOL     OW21961   4.691   1.225   4.026 -0.4350  0.3388 -0.4054
 3501SOL    HW121962   0.028   1.295   4.031  1.0699 -1.0964  0.6262
 3501SOL    HW221963   0.022   1.151   4.008 -0.5274 -0.2460  1.6979
 3502SOL     OW21964   1.045   2.986   8.292 -0.0013 -0.1873  0.0149
 3502SOL    HW121965   1.118   2.951   8.342  0.9787  2.8495  0.7211
 3502SOL    HW221966   0.984   2.974   8.365 -0.4870 -0.4703 -0.4359
 3503SOL     OW21967   4.670   1.122  16.837 -0.1702 -0.1152  1.0970
 3503SOL    HW121968   4.623   1.126  16.920 -0.8096 -0.5053  0.7564
 3503SOL    HW221969   0.016   1.184  16.841 -1.7817  1.8630 -0.0401
 3504SOL     OW21970   0.636   2.464   2.229  0.5315  0.4492  0.4758
 3504SOL    HW121971   0.588   2.446   2.310  1.8455 -1.7731  0.7719
 3504SOL    HW221972   0.627   2.376   2.191 -1.1305  1.6774 -1.9852
 3505SOL     OW21973   3.634   0.160   2.533  0.0809 -0.2558 -0.2391
 3505SOL    HW121974   3.726   0.185   2.526 -0.2221  0.9695  0.1295
 3505SOL    HW221975   3.634   0.065   2.519  0.3901 -0.4527  1.0300
 3506SOL     OW21976   3.844   3.627  13.066  0.0268  0.2427 -0.4817
 3506SOL    HW121977   3.829   3.721  13.071  1.6487  0.3999  1.6264
 3506SOL    HW221978   3.758   3.592  13.091  0.3534 -0.2427 -0.0378
 3507SOL     OW21979   4.603   3.684   6.005 -0.4511 -0.0148  0.7881
 3507SOL    HW121980   4.521   3.681   5.957 -0.5047 -2.9715  1.0251
 3507SOL    HW221981   4.594   3.610   6.066  0.3613  1.8520  3.1677
 3508SOL     OW21982   1.337   2.442   8.378 -0.0358  0.2110 -0.5496
 3508SOL    HW121983   1.295   2.492   8.308 -1.1067 -0.1356 -0.1576
 3508SOL    HW221984   1.401   2.507   8.407  0.0774 -0.9950  1.8539
 3509SOL     OW21985   4.112   0.005   8.154 -0.3462  0.4020  0.5984
 3509SOL    HW121986   4.166   0.065   8.206  0.5734 -0.3840  0.5469
 3509SOL    HW221987   4.147   4.645   8.175  2.5161  0.7982 -2.4470
 3510SOL     OW21988   1.563   4.355  15.942  0.4869 -0.1991  0.1428
 3510SOL    HW121989   1.494   4.296  15.913 -0.5842  0.1771  1.9471
 3510SOL    HW221990   1.598   4.298  16.010 -3.4928 -0.8748  1.6408
 3511SOL     OW21991   0.303   4.551  11.128 -0.4129  0.8256 -0.1071
 3511SOL    HW121992   0.285   4.473  11.077 -0.0699  1.0158 -0.5208
 3511SOL    HW221993   0.222   4.569  11.176 -1.6793 -2.0456 -1.1693
 3512SOL     OW21994   0.253   2.258   6.212  0.1541  0.3897 -0.3383
 3512SOL    HW121995   0.213   2.336   6.174 -1.5106  0.0488  0.7212
 3512SOL    HW221996   0.206   2.188   6.167 -0.9337  0.0570  1.3260
 3513SOL     OW21997   0.934   2.480   6.954 -0.6111 -0.0960 -0.4007
 3513SOL    HW121998   1.025   2.458   6.934 -0.5830 -1.6148  1.3741
 3513SOL    HW221999   0.906   2.396   6.990 -1.7445  0.0543 -0.9521
 3514SOL     OW22000   4.485   3.555   8.101  0.3541  0.0930 -0.0973
 3514SOL    HW122001   4.390   3.551   8.085  0.2718  1.5975  0.0230
 3514SOL    HW222002   4.480   3.636   8.152  0.7676  0.7491 -1.1041
 3515SOL     OW22003   2.838   0.596  15.107  0.3323  0.3889  0.6243
 3515SOL    HW122004   2.919   0.578  15.059 -1.1425 -1.1994 -1.2467
 3515SOL    HW222005   2.782   0.551  15.045  1.9577 -2.4995  1.2094
 3516SOL     OW22006   2.383   2.208   3.501  0.3834  0.2156 -0.0927
 3516SOL    HW122007   2.381   2.126   3.551 -0.1519  0.3114  0.0383
 3516SOL    HW222008   2.346   2.264   3.568 -0.8295 -1.7446  0.8734
 3517SOL     OW22009   1.300   0.697   6.019 -0.3284  0.6463 -0.7175
 3517SOL    HW122010   1.274   0.699   5.927  2.1890  0.2913 -1.4400
 3517SOL    HW222011   1.285   0.790   6.038  0.4949  0.6847 -0.2780
 3518SOL     OW22012   3.554   0.466  15.805  0.4874  0.1631  0.3200
 3518SOL    HW122013   3.573   0.559  15.788 -0.7643  0.2137 -0.8054
 3518SOL    HW222014   3.567   0.474  15.900 -0.4560 -0.3262  0.4850
 3519SOL     OW22015   0.911   2.171   8.069  0.5057  0.9487  0.1499
 3519SOL    HW122016   0.874   2.182   8.157  1.9102 -3.0267  1.2291
 3519SOL    HW222017   0.963   2.091   8.076 -0.3570  0.4564  0.9812
 3520SOL     OW22018   3.608   3.216  12.267  0.0258  0.0248 -0.3580
 3520SOL    HW122019   3.584   3.126  12.248  1.3584  0.0470 -2.0820
 3520SOL    HW222020   3.569   3.219  12.355 -1.0372  0.1884 -0.8330
 3521SOL     OW22021   2.415   3.433  16.041 -0.7427  0.1469  0.2550
 3521SOL    HW122022   2.395   3.521  16.011 -0.8352  0.2463  0.6111
 3521SOL    HW222023   2.340   3.380  16.012 -0.5146 -0.1884  0.2690
 3522SOL     OW22024   4.063   2.529   7.588 -0.0044  0.2241 -0.3914
 3522SOL    HW122025   3.988   2.575   7.624  0.4075 -0.0080  0.7741
 3522SOL    HW222026   4.017   2.445   7.582  2.0971 -0.9130 -0.6767
 3523SOL     OW22027   3.738   1.419   5.293  0.0623 -0.3756  0.0833
 3523SOL    HW122028   3.644   1.414   5.280  0.1631  0.6823 -1.0386
 3523SOL    HW222029   3.745   1.499   5.241  1.0552 -0.1789  0.5210
 3524SOL     OW22030   3.338   3.262   5.843  0.0052 -0.6264  0.0601
 3524SOL    HW122031   3.344   3.194   5.776 -1.5267 -1.7918  1.1050
 3524SOL    HW222032   3.417   3.245   5.896 -0.1764 -0.3580  0.4166
 3525SOL     OW22033   3.639   1.864   8.959  0.2400  0.4617  0.1671
 3525SOL    HW122034   3.664   1.824   9.042  0.2752 -0.7516 -0.4300
 3525SOL    HW222035   3.645   1.959   8.971  0.7802  0.4126  0.3204
 3526SOL     OW22036   3.054   0.438   2.495 -0.0432  0.6920 -0.1364
 3526SOL    HW122037   3.128   0.399   2.449 -1.5692 -1.3645 -0.8044
 3526SOL    HW222038   2.982   0.380   2.472  0.0141  1.2677 -1.7329
 3527SOL     OW22039   2.713   2.812   0.917  0.3668  0.9147 -0.1777
 3527SOL    HW122040   2.800   2.851   0.910  0.9032  0.0072  1.4988
 3527SOL    HW222041   2.659   2.891   0.920 -0.7123  0.0496  2.4929
 3528SOL     OW22042   1.356   4.096   2.964  0.2621  0.4074 -0.3786
 3528SOL    HW122043   1.367   4.002   2.956 -0.2508  0.2952  0.2382
 3528SOL    HW222044   1.261   4.101   2.953  0.3701  1.7074 -0.7914
 3529SOL     OW22045   4.699   4.072   4.316  0.2402  0.0250 -0.2719
 3529SOL    HW122046   4.617   4.027   4.298  1.5462 -2.3678 -0.3496
 3529SOL    HW222047   0.023   4.006   4.364  1.0502 -0.0833 -1.2455
 3530SOL     OW22048   0.604   0.064   5.485 -0.1530 -0.0329  0.1434
 3530SOL    HW122049   0.557   4.710   5.465  1.4505 -1.0621  0.5572
 3530SOL    HW222050   0.679   0.025   5.530 -1.7769 -1.2250  1.8356
 3531SOL     OW22051   2.140   3.256   4.097  0.9023  0.3727 -0.1218
 3531SOL    HW122052   2.152   3.271   4.191  0.8565  0.2101 -0.0908
 3531SOL    HW222053   2.166   3.347   4.082  1.0979 -0.0107 -2.0604
 3532SOL     OW22054   0.917   3.305   1.521  0.0713  0.1219 -0.0245
 3532SOL    HW122055   0.823   3.320   1.520  0.0492 -0.0944 -1.0427
 3532SOL    HW222056   0.922   3.215   1.489  1.3355  0.2380 -0.1595
 3533SOL     OW22057   4.445   0.106   2.929  0.5661 -0.4131 -0.4554
 3533SOL    HW122058   4.459   0.031   2.871  2.2588 -0.7371  0.3816
 3533SOL    HW222059   4.460   0.063   3.013  0.4225 -0.8934 -0.6747
 3534SOL     OW22060   2.203   2.940  16.808  0.0330 -0.0662 -0.4716
 3534SOL    HW122061   2.221   2.951  16.901  2.4094 -1.3028 -0.7928
 3534SOL    HW222062   2.268   2.870  16.801 -2.0960 -2.2635  1.7973
 3535SOL     OW22063   0.469   1.917   8.122  0.5561 -0.1033  0.0287
 3535SOL    HW122064   0.473   1.987   8.057  0.4729  0.8612  1.0778
 3535SOL    HW222065   0.519   1.965   8.187  0.1979 -1.6730  1.4521
 3536SOL     OW22066   0.445   4.573  12.765 -0.0840 -0.0096 -0.3047
 3536SOL    HW122067   0.435   4.478  12.758 -0.5639  0.1023 -1.0443
 3536SOL    HW222068   0.519   4.595  12.708 -0.2403 -1.8045 -1.2055
 3537SOL     OW22069   0.384   2.565  13.489  0.1924  0.2777  0.4193
 3537SOL    HW122070   0.384   2.659  13.505  0.8705  0.2753  0.4297
 3537SOL    HW222071   0.469   2.557  13.445 -0.5524  0.9300 -1.1316
 3538SOL     OW22072   3.519   0.526  13.268  0.2457 -0.3429  0.2437
 3538SOL    HW122073   3.534   0.432  13.279  0.7990 -0.2784  0.0669
 3538SOL    HW222074   3.611   0.554  13.269  0.3006 -0.5960  2.5756
 3539SOL     OW22075   3.546   1.513  10.115  0.2648 -0.5431 -0.0609
 3539SOL    HW122076   3.621   1.560  10.152 -1.4526  1.8438  0.3743
 3539SOL    HW222077   3.558   1.425  10.150  1.3351  0.0149  0.9432
 3540SOL     OW22078   2.391   4.205   2.181  0.3418 -0.1577 -0.1037
 3540SOL    HW122079   2.441   4.263   2.239 -0.7521 -0.1711  0.8509
 3540SOL    HW222080   2.374   4.261   2.105 -0.2170 -0.8068 -0.4553
 3541SOL     OW22081   3.423   0.963   9.118 -0.4233  1.0146 -0.0319
 3541SOL    HW122082   3.466   0.879   9.129  1.0736  2.2228  3.2536
 3541SOL    HW222083   3.452   0.979   9.028  1.3573 -0.8674  0.2093
 3542SOL     OW22084   1.296   1.394   2.141  0.5395 -0.8675  0.3102
 3542SOL    HW122085   1.312   1.323   2.078  1.6359  0.1746 -0.5785
 3542SOL    HW222086   1.381   1.387   2.184  0.0702  2.9098  1.8505
 3543SOL     OW22087   3.634   3.896   8.080 -0.2640 -0.2800  0.0747
 3543SOL    HW122088   3.709   3.873   8.025 -0.6054  1.2357 -1.0058
 3543SOL    HW222089   3.569   3.841   8.038  0.2372 -0.6258 -0.2467
 3544SOL     OW22090   2.708   3.149  13.120 -0.2637 -0.2209  0.2731
 3544SOL    HW122091   2.722   3.112  13.207 -0.1207 -0.7264  0.0337
 3544SOL    HW222092   2.788   3.202  13.114 -0.0471 -0.4269  1.3331
 3545SOL     OW22093   2.051   4.115   2.204 -0.2761  0.3920 -0.2986
 3545SOL    HW122094   2.102   4.053   2.152 -0.3940  1.0266 -1.1634
 3545SOL    HW222095   1.975   4.119   2.145 -0.9940  0.3823  0.6262
 3546SOL     OW22096   1.530   1.998  17.083 -0.3729 -0.2820  0.7734
 3546SOL    HW122097   1.598   1.931  17.085  0.8511  0.9496  0.9026
 3546SOL    HW222098   1.588   2.074  17.084 -0.0017 -0.5920  2.3416
 3547SOL     OW22099   1.331   2.802   4.719  0.5005  0.9083 -0.1642
 3547SOL    HW122100   1.259   2.763   4.769 -0.1265  1.6981 -0.4336
 3547SOL    HW222101   1.302   2.789   4.629 -1.4107 -0.5957  0.6499
 3548SOL     OW22102   2.621   3.598  11.733  0.0932  0.0353 -0.2511
 3548SOL    HW122103   2.581   3.543  11.800 -0.8934  1.8374  0.6458
 3548SOL    HW222104   2.706   3.555  11.728 -0.0444 -0.3109  0.3587
 3549SOL     OW22105   3.524   0.315   4.079 -0.4856  0.1316 -0.0542
 3549SOL    HW122106   3.443   0.366   4.081  1.0873  2.6387 -1.0303
 3549SOL    HW222107   3.501   0.263   4.002 -0.0789  1.0765 -0.8049
 3550SOL     OW22108   2.680   4.199  11.227 -0.1206  0.2030  0.6784
 3550SOL    HW122109   2.714   4.284  11.198  0.3470 -0.3418 -0.3531
 3550SOL    HW222110   2.725   4.192  11.311 -0.2169 -0.8850  0.6371
 3551SOL     OW22111   0.813   3.779  11.970 -0.1183 -0.0495 -0.0571
 3551SOL    HW122112   0.855   3.694  11.960  1.0966  0.6191 -0.6413
 3551SOL    HW222113   0.806   3.795  11.876  1.7570  1.1463 -0.0036
 3552SOL     OW22114   0.911   2.291   9.964 -0.2630  0.6717  0.1318
 3552SOL    HW122115   0.912   2.202  10.000 -2.4482  1.4480  2.1565
 3552SOL    HW222116   0.819   2.317   9.960 -0.1127  1.0838 -0.6142
 3553SOL     OW22117   4.352   0.279   2.075 -0.3129 -0.4050  0.3776
 3553SOL    HW122118   4.417   0.235   2.131 -0.6910  0.6894  1.6493
 3553SOL    HW222119   4.351   0.210   2.008 -0.0217 -0.6882  0.6648
 3554SOL     OW22120   1.862   3.300   3.185  0.3823  0.6844 -0.1695
 3554SOL    HW122121   1.853   3.206   3.201 -2.1247  0.8832 -0.4196
 3554SOL    HW222122   1.769   3.322   3.180  0.2610  0.0038 -0.9358
 3555SOL     OW22123   1.213   1.425  16.460 -0.0370  0.3732 -0.4584
 3555SOL    HW122124   1.149   1.493  16.437 -0.2449  0.1791 -0.4468
 3555SOL    HW222125   1.249   1.402  16.374 -0.5490  2.6361 -1.2784
 3556SOL     OW22126   2.639   3.113   5.973 -0.4101 -0.4613 -0.1638
 3556SOL    HW122127   2.722   3.135   6.014 -1.7432 -1.0045  2.8217
 3556SOL    HW222128   2.593   3.083   6.051  0.3317 -3.4565 -0.8850
 3557SOL     OW22129   2.357   4.003   2.408  0.4576  0.1187 -0.2500
 3557SOL    HW122130   2.408   4.057   2.468 -1.3017 -0.6896  1.9492
 3557SOL    HW222131   2.350   4.066   2.337  1.4102  0.4798 -0.0235
 3558SOL     OW22132   4.183   2.966  16.378  0.1412  0.4045  0.3920
 3558SOL    HW122133   4.122   3.030  16.341  0.6330  1.8034  1.9755
 3558SOL    HW222134   4.156   2.972  16.470 -1.6666 -1.1207 -0.0214
 3559SOL     OW22135   0.907   2.672  17.646 -0.1071 -0.0717  0.2774
 3559SOL    HW122136   0.821   2.654  17.610 -0.7413  0.1792  1.6513
 3559SOL    HW222137   0.965   2.602  17.616  3.2890  2.6943  0.3536
 3560SOL     OW22138   2.002   0.235   8.198  0.2453 -0.0008  0.0202
 3560SOL    HW122139   1.911   0.262   8.183  0.3694  0.8710  0.8464
 3560SOL    HW222140   1.984   0.142   8.186  0.0007 -0.1180  1.2586
 3561SOL     OW22141   3.046   3.161  17.079 -0.1210 -0.2500 -0.3141
 3561SOL    HW122142   3.094   3.132  17.156 -2.5445 -0.3837  1.1392
 3561SOL    HW222143   3.118   3.175  17.017 -1.0678 -0.0900 -1.3863
 3562SOL     OW22144   4.200   3.006   7.118  0.3020  0.0202 -0.5943
 3562SOL    HW122145   4.268   3.070   7.139 -1.6230  2.5530 -2.0731
 3562SOL    HW222146   4.121   3.057   7.099  0.0757 -0.3422 -0.6166
 3563SOL     OW22147   1.458   3.623   9.880 -0.4735  0.1570  0.0729
 3563SOL    HW122148   1.543   3.616   9.837  1.0424  2.0314  2.7544
 3563SOL    HW222149   1.414   3.686   9.824  0.7999  0.7468 -0.2659
 3564SOL     OW22150   2.739   3.296   4.005  0.3348  0.0009  0.7755
 3564SOL    HW122151   2.756   3.307   3.912  0.4475  0.0724  0.8038
 3564SOL    HW222152   2.662   3.241   3.997 -1.3206  2.4488  0.0137
 3565SOL     OW22153   2.739   1.522   6.006  0.2268 -0.2078 -0.0767
 3565SOL    HW122154   2.688   1.443   5.987 -0.7820  0.5356 -0.4971
 3565SOL    HW222155   2.674   1.578   6.047  0.1917 -0.1579 -0.1986
 3566SOL     OW22156   4.260   3.646   6.519 -1.0022  0.4440  0.2118
 3566SOL    HW122157   4.207   3.596   6.457 -0.6254 -1.5881  1.5254
 3566SOL    HW222158   4.349   3.615   6.499 -0.3101  0.3818  3.3915
 3567SOL     OW22159   0.886   1.204   0.431  0.1761 -0.0482  0.6336
 3567SOL    HW122160   0.931   1.204   0.515  0.9171  0.1566  0.2323
 3567SOL    HW222161   0.958   1.193   0.369  0.7827 -0.0591  1.3422
 3568SOL     OW22162   1.545   0.830   2.825  0.2418 -0.0270 -0.0849
 3568SOL    HW122163   1.625   0.785   2.851 -0.3947 -0.1849  1.5818
 3568SOL    HW222164   1.534   0.786   2.741 -0.1694  0.3138 -0.2105
 3569SOL     OW22165   1.465   0.024   7.865  0.4656  0.4651  0.3477
 3569SOL    HW122166   1.506   4.716   7.786 -1.3000 -0.4848 -0.1587
 3569SOL    HW222167   1.508   0.110   7.870  0.5660  0.4095  0.4370
 3570SOL     OW22168   0.441   1.710   1.928  0.4384 -0.0249  0.0618
 3570SOL    HW122169   0.498   1.667   1.865  0.3537 -1.1012  0.7148
 3570SOL    HW222170   0.502   1.716   2.002  0.4492 -1.7765  0.1971
 3571SOL     OW22171   1.246   2.163   7.962  0.0475  0.1754  0.3627
 3571SOL    HW122172   1.280   2.124   8.042 -0.4168  1.2842  1.0959
 3571SOL    HW222173   1.162   2.119   7.961  0.1777 -0.0760  0.4177
 3572SOL     OW22174   0.352   3.113   3.204  0.5379 -0.0030 -0.1743
 3572SOL    HW122175   0.404   3.066   3.269 -2.5297 -2.2476  0.6909
 3572SOL    HW222176   0.380   3.081   3.118  0.4812  2.0711 -0.9786
 3573SOL     OW22177   0.523   2.574   3.314 -0.6106 -0.1928 -0.0523
 3573SOL    HW122178   0.608   2.545   3.283 -0.2285  1.2850 -0.3770
 3573SOL    HW222179   0.478   2.579   3.230  3.0960  0.7129 -1.9554
 3574SOL     OW22180   2.229   3.553   3.038 -0.5989  0.1149 -0.1673
 3574SOL    HW122181   2.138   3.545   3.008  0.5630 -0.7604 -3.3792
 3574SOL    HW222182   2.258   3.593   2.956  0.5540  0.5900  0.4812
 3575SOL     OW22183   3.313   2.947   7.697  0.0725  0.0474  0.1220
 3575SOL    HW122184   3.387   2.891   7.721 -0.7609 -1.5765 -1.0864
 3575SOL    HW222185   3.246   2.914   7.757  1.9100 -2.5009  0.7661
 3576SOL     OW22186   3.717   2.162   6.730 -0.4387 -0.3632 -0.0049
 3576SOL    HW122187   3.764   2.084   6.701  0.7174  0.2054  0.3000
 3576SOL    HW222188   3.786   2.229   6.726  0.3580 -1.1390  0.8466
 3577SOL     OW22189   2.585   2.611   0.791 -0.3514 -0.1073  0.5360
 3577SOL    HW122190   2.618   2.685   0.842  1.4007 -0.8255  0.4469
 3577SOL    HW222191   2.497   2.612   0.828 -0.6765  1.3500 -0.3038
 3578SOL     OW22192   1.682   3.385   6.538 -0.6739 -0.0470  0.1068
 3578SOL    HW122193   1.678   3.340   6.622 -1.8652 -0.1173  0.0158
 3578SOL    HW222194   1.732   3.463   6.561  1.2374 -0.9180 -1.1042
 3579SOL     OW22195   0.594   3.100   1.719  0.2236 -0.2916 -0.4012
 3579SOL    HW122196   0.586   3.014   1.761  1.3958 -0.0515  0.3306
 3579SOL    HW222197   0.668   3.141   1.766 -1.2579  0.7998  0.9882
 3580SOL     OW22198   4.455   2.389   0.218 -0.0142 -0.2054 -0.0189
 3580SOL    HW122199   4.474   2.297   0.198  1.0740  0.3805 -1.6622
 3580SOL    HW222200   4.363   2.373   0.238 -0.0986  0.0026 -0.2432
 3581SOL     OW22201   0.094   2.098   1.086  0.5929  0.2436 -0.2359
 3581SOL    HW122202   0.161   2.084   1.154 -1.2195  3.0783  2.1669
 3581SOL    HW222203   0.025   2.146   1.131 -1.6042 -1.1939 -2.1034
 3582SOL     OW22204   0.922   3.754  12.475 -0.5145  0.4300  0.1676
 3582SOL    HW122205   0.979   3.707  12.536  1.3195  1.8695 -0.3986
 3582SOL    HW222206   0.951   3.729  12.387 -1.9674  1.8697 -0.7275
 3583SOL     OW22207   2.912   3.625   3.160  0.1093 -0.3335  0.5433
 3583SOL    HW122208   2.826   3.596   3.191  0.4928 -0.1413  1.7932
 3583SOL    HW222209   2.902   3.649   3.068 -0.0227 -1.9825  0.1367
 3584SOL     OW22210   1.910   0.485   3.531 -0.0325 -0.2374 -0.2454
 3584SOL    HW122211   1.935   0.567   3.489  0.3790 -0.1205  0.2218
 3584SOL    HW222212   1.893   0.514   3.621 -1.2074 -2.6963  0.3051
 3585SOL     OW22213   1.326   0.602   7.916  0.3097  0.8237  0.6361
 3585SOL    HW122214   1.419   0.596   7.893  0.3224 -0.8970  1.1258
 3585SOL    HW222215   1.294   0.690   7.896 -0.2245  0.2641 -0.9574
 3586SOL     OW22216   1.936   4.338   9.079 -0.1534  0.6531 -0.5628
 3586SOL    HW122217   1.881   4.348   9.002 -1.2293  2.5601  0.4645
 3586SOL    HW222218   2.016   4.334   9.027  1.0418 -0.1672  1.3401
 3587SOL     OW22219   1.297   1.945   2.539  0.3494 -0.1080 -0.8845
 3587SOL    HW122220   1.226   1.940   2.475 -1.1035  0.5177  0.6831
 3587SOL    HW222221   1.324   2.037   2.540 -1.2853  0.3503  0.1794
 3588SOL     OW22222   0.246   2.128  16.802 -0.3451 -0.7731 -0.5514
 3588SOL    HW122223   0.175   2.079  16.761 -1.2475 -0.3488  0.4856
 3588SOL    HW222224   0.310   2.148  16.734  0.1825  0.0980  0.2002
 3589SOL     OW22225   4.485   0.807   5.969 -0.3493  0.6399 -0.0960
 3589SOL    HW122226   4.514   0.814   6.060 -0.4516  1.1352 -0.0997
 3589SOL    HW222227   4.570   0.788   5.930 -0.9610 -2.4361  0.1104
 3590SOL     OW22228   4.440   2.836  16.076 -0.0335  0.0885  0.0230
 3590SOL    HW122229   4.444   2.811  15.983 -1.4934 -1.4825  0.3979
 3590SOL    HW222230   4.531   2.836  16.105 -0.5704  0.8108  1.7074
 3591SOL     OW22231   4.615   0.446   7.570 -0.5586  0.2296  0.3158
 3591SOL    HW122232   4.653   0.510   7.630  0.3259  0.8153 -0.8644
 3591SOL    HW222233   4.592   0.490   7.488 -2.1661  0.8432  1.0852
 3592SOL     OW22234   0.567   1.296   1.606 -0.4436  0.1142  0.4963
 3592SOL    HW122235   0.478   1.264   1.620 -0.1420 -1.6783 -1.6973
 3592SOL    HW222236   0.624   1.235   1.652  0.1819  0.5311  0.2680
 3593SOL     OW22237   0.661   1.083   3.757  0.1746 -0.5250 -0.2943
 3593SOL    HW122238   0.730   1.027   3.723 -0.7616 -1.0369 -1.3481
 3593SOL    HW222239   0.699   1.169   3.772  0.0389 -0.3905 -0.7420
 3594SOL     OW22240   0.858   3.468   7.098 -0.1840 -0.1470  0.3989
 3594SOL    HW122241   0.792   3.399   7.100 -0.4627  0.1421  1.1781
 3594SOL    HW222242   0.827   3.519   7.173  0.8928 -0.9110  1.3618
 3595SOL     OW22243   2.867   3.109   4.931  0.4088  0.5395 -0.6279
 3595SOL    HW122244   2.882   3.118   4.837 -2.4338 -0.5044 -1.1932
 3595SOL    HW222245   2.871   3.198   4.967 -0.7123  0.2576  0.2212
 3596SOL     OW22246   3.844   2.791   5.750  0.0031  0.7813  0.0746
 3596SOL    HW122247   3.912   2.857   5.759  0.9296 -0.7194  4.2262
 3596SOL    HW222248   3.871   2.717   5.804  0.6800 -0.1792 -1.5871
 3597SOL     OW22249   0.224   3.689   6.046  0.4056 -0.5264  0.0578
 3597SOL    HW122250   0.129   3.682   6.043  0.3938 -0.5740  0.6977
 3597SOL    HW222251   0.241   3.684   6.140  1.3152 -1.5780 -0.1636
 3598SOL     OW22252   0.296   3.362   7.067  0.6922 -0.2151  0.3206
 3598SOL    HW122253   0.322   3.272   7.084 -2.8068 -0.9630  1.8793
 3598SOL    HW222254   0.206   3.350   7.035 -0.6955  1.6032  3.4033
 3599SOL     OW22255   4.463   3.176  15.833  0.2001  0.1867  0.6953
 3599SOL    HW122256   4.498   3.155  15.746  0.1247  2.3004  0.1442
 3599SOL    HW222257   4.430   3.092  15.864  1.2940 -0.2185  0.7666
 3600SOL     OW22258   2.145   1.502   4.593 -0.4421  0.2496 -0.5479
 3600SOL    HW122259   2.082   1.519   4.523 -3.7656  1.5796  2.7908
 3600SOL    HW222260   2.156   1.585   4.639 -1.2735 -0.1011  0.2852
 3601SOL     OW22261   3.519   1.564   0.730 -0.0045 -0.2302  0.1294
 3601SOL    HW122262   3.501   1.578   0.823  2.6771 -1.8162  0.8563
 3601SOL    HW222263   3.473   1.644   0.700  1.3532  0.4132 -0.2287
 3602SOL     OW22264   4.659   3.162   3.841  0.3581 -0.2714 -0.9414
 3602SOL    HW122265   4.609   3.096   3.792  0.7947 -0.8289 -0.6431
 3602SOL    HW222266   4.601   3.237   3.828  0.6852  0.0841 -0.3193
 3603SOL     OW22267   3.422   0.464   4.816 -0.1859  0.3406  0.2432
 3603SOL    HW122268   3.337   0.446   4.857  1.2048  1.8156  3.7473
 3603SOL    HW222269   3.446   0.549   4.854 -0.3793  0.5655 -0.1409
 3604SOL     OW22270   3.858   0.648   4.468  0.3743 -0.6574 -0.2991
 3604SOL    HW122271   3.899   0.681   4.548 -3.2697  1.2830  0.7887
 3604SOL    HW222272   3.932   0.595   4.440 -0.5763 -2.6745  0.9990
 3605SOL     OW22273   0.636   1.132  17.126  0.1021  0.0765 -0.5048
 3605SOL    HW122274   0.689   1.212  17.136 -2.2123  1.8764 -2.5577
 3605SOL    HW222275   0.547   1.163  17.108  0.2445  1.1962  0.6621
 3606SOL     OW22276   1.027   1.390   9.321 -0.0824  0.2303  0.2685
 3606SOL    HW122277   0.972   1.435   9.258 -2.2392 -1.1861  1.1185
 3606SOL    HW222278   1.012   1.301   9.289 -0.7164  0.6599 -0.5825
 3607SOL     OW22279   4.708   0.576  17.020 -0.5467  0.5689 -0.2071
 3607SOL    HW122280   0.018   0.571  17.108 -1.4094  1.1281  0.1843
 3607SOL    HW222281   4.667   0.491  17.004  0.5678  0.0643 -0.3912
 3608SOL     OW22282   3.505   2.840   3.459  1.0429 -1.0126 -0.2342
 3608SOL    HW122283   3.476   2.757   3.421 -0.4294 -1.2263  1.3532
 3608SOL    HW222284   3.477   2.904   3.394  1.1251  0.1224  0.8283
 3609SOL     OW22285   2.677   0.661   2.829  0.3661 -0.3717 -0.3354
 3609SOL    HW122286   2.766   0.639   2.858 -0.5141 -2.2832  0.9673
 3609SOL    HW222287   2.640   0.573   2.821 -0.3125 -0.3278  2.1653
 3610SOL     OW22288   1.840   2.956   4.749 -0.0238  0.0749  0.0259
 3610SOL    HW122289   1.848   2.925   4.659 -3.6303  0.1337 -0.3232
 3610SOL    HW222290   1.759   2.907   4.768 -1.7090  3.3848  1.3151
 3611SOL     OW22291   0.360   2.459  14.378  0.8272  0.3843  0.5985
 3611SOL    HW122292   0.421   2.388  14.360 -0.9822 -1.3972  1.5010
 3611SOL    HW222293   0.362   2.499  14.291 -1.5881  1.1648  0.8894
 3612SOL     OW22294   3.583   4.463   6.884  0.5319 -0.3663  0.0911
 3612SOL    HW122295   3.494   4.430   6.893 -0.1359  2.3057  3.1874
 3612SOL    HW222296   3.615   4.450   6.974  0.2053  0.9213  0.3981
 3613SOL     OW22297   4.683   0.828  15.017  0.4146  0.0562 -0.4014
 3613SOL    HW122298   4.707   0.919  15.034  0.0478  0.0849 -0.0479
 3613SOL    HW222299   4.702   0.786  15.101 -0.4312  0.4415 -0.0179
 3614SOL     OW22300   4.274   0.525   4.704  0.4813  0.6664  0.7793
 3614SOL    HW122301   4.363   0.515   4.738 -0.4067  0.5135  3.0894
 3614SOL    HW222302   4.289   0.532   4.610 -2.3335 -0.5705  0.2585
 3615SOL     OW22303   2.786   2.118   0.824  0.1763 -0.3542 -0.0896
 3615SOL    HW122304   2.762   2.162   0.906  1.7852 -0.4234  0.4245
 3615SOL    HW222305   2.847   2.050   0.853 -2.0941 -1.9971  0.9123
 3616SOL     OW22306   1.551   4.309   5.610  0.8306 -0.8843 -0.8801
 3616SOL    HW122307   1.530   4.343   5.523  0.6246 -0.8346 -0.8111
 3616SOL    HW222308   1.543   4.392   5.656 -0.3292 -0.9745 -0.9159
 3617SOL     OW22309   2.884   2.184   4.658  0.0118 -0.1301  0.6429
 3617SOL    HW122310   2.890   2.243   4.733 -1.3604 -0.0413  0.6828
 3617SOL    HW222311   2.973   2.192   4.623  0.1893 -1.0890  0.8786
 3618SOL     OW22312   1.221   1.031  10.233 -0.0240 -0.1473  0.3108
 3618SOL    HW122313   1.195   1.037  10.325  0.3854  1.0926  0.3552
 3618SOL    HW222314   1.143   0.995  10.191 -1.2014  3.2526 -0.4487
 3619SOL     OW22315   2.670   1.795   2.163 -0.3030  0.5643 -0.4015
 3619SOL    HW122316   2.663   1.706   2.195  0.7853  0.5996 -0.0613
 3619SOL    HW222317   2.760   1.810   2.193  0.7267  1.2628 -3.8269
 3620SOL     OW22318   3.917   1.713  11.077  0.3759 -0.1616  0.1375
 3620SOL    HW122319   3.944   1.640  11.021 -0.1490  1.0813 -1.7040
 3620SOL    HW222320   3.906   1.680  11.166  2.7362 -1.3553 -0.0091
 3621SOL     OW22321   4.642   2.656   0.076 -0.1197 -0.4728 -0.3321
 3621SOL    HW122322   4.667   2.570   0.042 -1.7399 -2.0497  2.4490
 3621SOL    HW222323   4.685   2.657   0.162 -1.3214 -1.3465  0.2738
 3622SOL     OW22324   1.723   0.706   4.436 -0.3816  0.3719  0.3809
 3622SOL    HW122325   1.788   0.636   4.430  0.2383  0.8015  2.0175
 3622SOL    HW222326   1.731   0.747   4.350 -0.0276  0.2616  0.3629
 3623SOL     OW22327   0.899   0.834   6.646 -0.5455 -0.5345  0.9612
 3623SOL    HW122328   0.886   0.739   6.645  1.2625 -0.7853  0.8121
 3623SOL    HW222329   0.812   0.864   6.619 -1.6072 -2.9157  1.7131
 3624SOL     OW22330   1.946   0.964   7.317 -0.5716  0.2695  0.0532
 3624SOL    HW122331   1.947   0.879   7.273 -1.2502  0.4417 -0.2873
 3624SOL    HW222332   1.988   0.937   7.399 -1.4179  0.7684  0.6526
 3625SOL     OW22333   0.789   2.557   8.528 -0.2496 -0.3944  0.1131
 3625SOL    HW122334   0.809   2.479   8.581  1.8277 -0.1428 -0.3114
 3625SOL    HW222335   0.713   2.596   8.572 -0.8985 -0.8617 -0.5825
 3626SOL     OW22336   3.245   2.221   3.860 -0.4503  0.3451  0.2187
 3626SOL    HW122337   3.221   2.269   3.781  0.6797  2.1048  0.9399
 3626SOL    HW222338   3.266   2.134   3.827  1.8244  0.9332  0.1151
 3627SOL     OW22339   3.265   3.101  12.325  0.0997  0.3490  0.1281
 3627SOL    HW122340   3.190   3.106  12.265 -0.8383 -1.6020  1.1573
 3627SOL    HW222341   3.326   3.049  12.273 -0.9349 -1.3248  0.6044
 3628SOL     OW22342   4.423   4.434   4.327 -0.2818 -0.3861  0.3917
 3628SOL    HW122343   4.451   4.518   4.364 -1.0769 -0.0171  0.1609
 3628SOL    HW222344   4.328   4.435   4.337 -0.2849  0.8950  0.3392
 3629SOL     OW22345   1.108   1.970   9.138 -0.4310 -0.6541  0.2401
 3629SOL    HW122346   1.089   1.996   9.048  1.2086  0.0402  0.0971
 3629SOL    HW222347   1.162   2.046   9.158  0.4266 -1.8030  2.3433
 3630SOL     OW22348   4.463   1.084   7.884 -0.2417  0.0315  0.3889
 3630SOL    HW122349   4.543   1.136   7.885  0.4082 -0.9569 -0.9595
 3630SOL    HW222350   4.428   1.120   7.803 -0.8374 -1.9388 -0.2209
 3631SOL     OW22351   4.128   4.573  15.410 -0.3777  0.5835  0.3081
 3631SOL    HW122352   4.123   4.488  15.453  1.5694  0.2946 -0.0395
 3631SOL    HW222353   4.208   4.565  15.358 -0.4810 -4.6373  0.9974
 3632SOL     OW22354   1.638   1.558   3.497 -0.4669  0.4372  0.1559
 3632SOL    HW122355   1.571   1.590   3.436  0.0161  1.9655  0.4140
 3632SOL    HW222356   1.719   1.597   3.463 -1.1438  1.4402 -0.2910
 3633SOL     OW22357   0.347   4.624  12.173  0.4594 -0.3336 -0.2663
 3633SOL    HW122358   0.357   4.532  12.148  1.0705 -0.6346  1.0848
 3633SOL    HW222359   0.429   4.659  12.139  2.2760 -1.7120  2.5900
 3634SOL     OW22360   3.918   0.027   9.402 -0.4053  0.3636  0.0590
 3634SOL    HW122361   3.979   0.091   9.365 -0.8325  0.6715 -0.1190
 3634SOL    HW222362   3.894   4.710   9.320  0.1509 -0.0969  0.1446
 3635SOL     OW22363   3.955   1.415  13.417 -0.7162 -0.1440  0.1093
 3635SOL    HW122364   4.045   1.417  13.383 -1.1102  1.5236 -0.8317
 3635SOL    HW222365   3.961   1.336  13.471  0.7919 -0.0341  0.1175
 3636SOL     OW22366   3.064   0.538  13.999 -0.8105 -0.6140  0.2700
 3636SOL    HW122367   3.136   0.526  13.937 -0.6396  1.2754  0.1218
 3636SOL    HW222368   3.118   0.589  14.058  0.1652  0.7919 -1.8548
 3637SOL     OW22369   2.636   0.331   4.576  0.1560  0.1543  0.5095
 3637SOL    HW122370   2.582   0.302   4.502  2.7554 -0.1139 -1.3016
 3637SOL    HW222371   2.613   0.424   4.581 -0.2543  0.0262  1.0389
 3638SOL     OW22372   0.655   2.382   9.805  0.3927 -0.2654  0.2889
 3638SOL    HW122373   0.576   2.432   9.780 -0.5522 -2.5136 -1.2295
 3638SOL    HW222374   0.625   2.346   9.888 -1.3155  0.9183  0.2027
 3639SOL     OW22375   0.744   0.484   5.310 -0.1556 -0.0307 -0.3638
 3639SOL    HW122376   0.743   0.499   5.404 -2.2056 -1.0691 -0.2321
 3639SOL    HW222377   0.762   0.392   5.295 -0.5981 -0.2337  0.4099
 3640SOL     OW22378   2.081   0.433  16.926  0.2600 -0.1147 -0.7843
 3640SOL    HW122379   2.005   0.392  16.885  0.3585 -0.7041 -0.3642
 3640SOL    HW222380   2.136   0.356  16.914 -0.5243 -0.7501 -0.2851
 3641SOL     OW22381   0.134   3.530  11.938 -0.0946  0.2082 -0.0874
 3641SOL    HW122382   0.109   3.480  11.860 -2.4096  4.3359 -1.9967
 3641SOL    HW222383   0.099   3.476  12.009  2.8317 -0.3489  0.9476
 3642SOL     OW22384   3.180   0.913   5.880  0.2185  0.5324 -0.4119
 3642SOL    HW122385   3.271   0.934   5.862  0.7906 -0.2796  1.5181
 3642SOL    HW222386   3.180   0.880   5.970 -0.8594  1.4155 -0.0798
 3643SOL     OW22387   0.438   3.996   5.864  0.2170 -0.0147  0.0222
 3643SOL    HW122388   0.425   3.901   5.864 -2.6703  0.3721  0.7408
 3643SOL    HW222389   0.423   4.015   5.957 -1.1656  0.4676 -0.3034
 3644SOL     OW22390   0.766   4.615   2.339 -0.6485  0.3119 -0.3905
 3644SOL    HW122391   0.780   4.690   2.397 -1.5562 -1.1525  1.7200
 3644SOL    HW222392   0.752   4.665   2.258 -1.9118  0.7824  0.1216
 3645SOL     OW22393   3.414   0.947   3.479  0.1882  0.4405 -0.2206
 3645SOL    HW122394   3.426   0.974   3.388  1.0802  0.0646 -0.2218
 3645SOL    HW222395   3.443   1.031   3.514  0.6017  0.0756  0.3227
 3646SOL     OW22396   1.462   1.024   5.182  0.4235  0.6254 -0.0358
 3646SOL    HW122397   1.496   0.968   5.252  3.0307  1.2602 -0.7862
 3646SOL    HW222398   1.537   1.014   5.123  1.8947  1.1997  1.7362
 3647SOL     OW22399   1.065   3.185   3.574  0.0553  0.3868 -0.3668
 3647SOL    HW122400   1.150   3.202   3.615 -0.7781  0.1440  1.4948
 3647SOL    HW222401   1.071   3.089   3.572  1.3925  0.5794 -4.2292
 3648SOL     OW22402   1.366   2.947   5.376  0.5800 -0.3549 -0.2005
 3648SOL    HW122403   1.424   3.020   5.354  1.1000 -0.8552 -0.5153
 3648SOL    HW222404   1.421   2.877   5.339  1.6025  0.5315 -0.3511
 3649SOL     OW22405   3.194   2.873  14.470  0.3980 -0.3547  0.3106
 3649SOL    HW122406   3.222   2.789  14.434 -3.8578 -0.5417 -2.5587
 3649SOL    HW222407   3.250   2.925  14.414  2.5301 -2.9152  0.0376
 3650SOL     OW22408   3.513   3.644   5.959 -0.1053  0.7692  0.2160
 3650SOL    HW122409   3.541   3.640   5.868 -2.4047 -0.0229 -0.4532
 3650SOL    HW222410   3.433   3.593   5.953  0.3719 -0.0752  0.9098
 3651SOL     OW22411   3.470   2.386   5.926  0.5316  0.2293  0.4476
 3651SOL    HW122412   3.394   2.399   5.869 -0.2698 -0.9213  1.2481
 3651SOL    HW222413   3.443   2.455   5.987  1.0884 -0.7105  1.7479
 3652SOL     OW22414   2.692   3.953  13.014  0.3560 -0.6248 -0.2780
 3652SOL    HW122415   2.717   3.888  12.948 -3.0466  0.0776 -2.2880
 3652SOL    HW222416   2.778   3.963  13.055 -0.3977 -2.3925  1.7355
 3653SOL     OW22417   0.892   2.897   3.370  0.2754 -0.6391 -0.3770
 3653SOL    HW122418   0.924   2.807   3.366  0.9803 -0.4295  0.5204
 3653SOL    HW222419   0.835   2.905   3.294 -1.5818 -1.4314  0.9334
 3654SOL     OW22420   3.491   4.361   2.964 -0.1510  0.1635  0.0426
 3654SOL    HW122421   3.476   4.332   2.874  0.5807  1.9923 -0.6617
 3654SOL    HW222422   3.502   4.456   2.956 -1.3266  0.2551 -0.5249
 3655SOL     OW22423   4.123   1.318   5.278 -0.2619 -0.0976  0.3131
 3655SOL    HW122424   4.041   1.272   5.289 -0.5225 -0.0023 -1.2448
 3655SOL    HW222425   4.183   1.244   5.266  1.6574  1.3152  1.1567
 3656SOL     OW22426   4.345   2.315  15.699  0.3376  0.3843  0.1487
 3656SOL    HW122427   4.431   2.276  15.715 -0.6306 -1.2473  1.4315
 3656SOL    HW222428   4.298   2.239  15.665 -1.4026  2.3598 -1.8906
 3657SOL     OW22429   3.445   0.693   5.026  0.6616  0.6149  0.2569
 3657SOL    HW122430   3.363   0.646   5.040  1.0227 -0.4299 -1.0147
 3657SOL    HW222431   3.432   0.770   5.081 -1.7449 -0.6073  1.3826
 3658SOL     OW22432   3.793   2.212   5.353 -0.4898  0.4636 -0.2604
 3658SOL    HW122433   3.735   2.282   5.382  0.1921  0.8464  0.1712
 3658SOL    HW222434   3.763   2.178   5.269 -0.5119  0.8661 -0.4150
 3659SOL     OW22435   2.195   2.090   8.156  0.4320 -0.1341  0.0170
 3659SOL    HW122436   2.147   2.027   8.101  1.2317  0.7053 -1.6580
 3659SOL    HW222437   2.137   2.166   8.153 -0.4050 -0.8137 -1.0556
 3660SOL     OW22438   1.299   4.057  14.486 -0.0880 -0.0417 -0.0585
 3660SOL    HW122439   1.368   3.991  14.477  0.3635  0.3760  0.4005
 3660SOL    HW222440   1.324   4.127  14.426  0.3947  0.4024  0.6779
 3661SOL     OW22441   0.637   3.246   2.594  0.8103  0.4879  0.1335
 3661SOL    HW122442   0.568   3.179   2.593  0.4994  0.8539 -1.9556
 3661SOL    HW222443   0.602   3.322   2.548 -0.4024 -1.4669 -2.1862
 3662SOL     OW22444   0.486   2.745   5.181 -0.3397  0.3521 -0.8155
 3662SOL    HW122445   0.415   2.685   5.204  1.3758 -1.4266 -0.0980
 3662SOL    HW222446   0.560   2.693   5.213 -0.2851  0.7561 -0.2896
 3663SOL     OW22447   3.985   0.063  12.950  0.1335 -0.1131 -0.2048
 3663SOL    HW122448   4.044   0.133  12.924  0.8236 -0.7773 -0.4293
 3663SOL    HW222449   3.964   0.018  12.868 -1.0363  0.2450 -0.1017
 3664SOL     OW22450   3.402   2.184   2.780  0.7162  0.0886 -0.6058
 3664SOL    HW122451   3.350   2.189   2.861  0.2186 -2.2420 -0.7800
 3664SOL    HW222452   3.424   2.091   2.780  2.0188  0.4091 -2.3864
 3665SOL     OW22453   3.125   1.692  11.870  0.6486  0.2983  0.0145
 3665SOL    HW122454   3.031   1.691  11.889  0.6953 -1.4923  0.1433
 3665SOL    HW222455   3.144   1.781  11.900 -0.2364  1.1563 -1.9776
 3666SOL     OW22456   2.773   1.751   7.416 -0.7999  0.2397  0.0759
 3666SOL    HW122457   2.778   1.823   7.479  0.5997  1.0377 -0.9545
 3666SOL    HW222458   2.713   1.690   7.459  0.2813 -1.5522 -0.9551
 3667SOL     OW22459   2.488   4.313   3.579  0.2480  0.5584 -0.3481
 3667SOL    HW122460   2.445   4.325   3.664 -3.7401  1.1414 -2.4545
 3667SOL    HW222461   2.448   4.235   3.540 -1.6674  1.4453 -0.1862
 3668SOL     OW22462   0.171   1.323   8.975 -0.1313 -0.3257  0.4089
 3668SOL    HW122463   0.150   1.375   9.053 -0.6307  3.3757 -2.1823
 3668SOL    HW222464   0.195   1.392   8.913 -1.2652 -1.1590 -0.9499
 3669SOL     OW22465   3.710   3.100   4.625 -0.8003  0.1551  0.5942
 3669SOL    HW122466   3.800   3.083   4.652 -0.8047  1.9424  1.8264
 3669SOL    HW222467   3.697   3.192   4.649  1.2044  0.0359  2.1884
 3670SOL     OW22468   0.581   3.890   2.959  0.1703  0.1258 -0.2094
 3670SOL    HW122469   0.614   3.972   2.924  3.0370 -2.0697 -2.7198
 3670SOL    HW222470   0.545   3.853   2.878 -0.6457  1.1394 -0.2980
 3671SOL     OW22471   0.390   3.041   3.596  0.0098 -0.3144  0.4604
 3671SOL    HW122472   0.307   3.011   3.632  0.0223 -1.6925 -0.6773
 3671SOL    HW222473   0.394   3.131   3.630  0.3257 -0.0205 -0.3511
 3672SOL     OW22474   0.464   2.131   7.936  0.2093 -0.2869  0.2618
 3672SOL    HW122475   0.502   2.153   7.850  2.1087 -4.1619  0.0809
 3672SOL    HW222476   0.421   2.213   7.958  0.1256 -0.0791 -0.6892
 3673SOL     OW22477   0.358   3.657   6.562 -0.0023 -0.2579 -0.6899
 3673SOL    HW122478   0.305   3.679   6.639 -0.0885 -1.7707 -0.3355
 3673SOL    HW222479   0.408   3.590   6.607  1.3174 -0.3726 -2.3071
 3674SOL     OW22480   1.313   2.059   1.353  0.1825  0.2285  0.3738
 3674SOL    HW122481   1.223   2.091   1.351  0.6120  1.2081 -2.6595
 3674SOL    HW222482   1.343   2.132   1.300 -1.6539  0.9808  0.3579
 3675SOL     OW22483   1.878   2.527  15.314  0.3877  0.1896  0.5037
 3675SOL    HW122484   1.886   2.616  15.282  0.5300 -0.3126 -0.8541
 3675SOL    HW222485   1.872   2.473  15.235 -0.5067  0.0628  0.6629
 3676SOL     OW22486   1.959   2.735   7.080  0.1349 -0.0724  0.1636
 3676SOL    HW122487   1.885   2.733   7.139  1.2270 -2.6534  1.4496
 3676SOL    HW222488   2.020   2.671   7.117 -0.6139  0.1015  1.6767
 3677SOL     OW22489   2.236   3.018  15.753 -0.3451  0.0875  0.2566
 3677SOL    HW122490   2.288   3.098  15.759 -0.7964  0.4512 -0.5442
 3677SOL    HW222491   2.151   3.044  15.789 -0.4254 -2.3571  1.8436
 3678SOL     OW22492   2.795   1.565   6.304  0.4360  0.0677 -0.4254
 3678SOL    HW122493   2.802   1.561   6.208  0.0759 -0.4841 -0.4261
 3678SOL    HW222494   2.820   1.655   6.324 -1.7655  0.1712  1.7989
 3679SOL     OW22495   4.193   1.007   9.263 -0.4159 -1.0650  0.0131
 3679SOL    HW122496   4.127   1.055   9.313 -0.1899  1.1784 -1.8699
 3679SOL    HW222497   4.144   0.924   9.262 -3.1178  0.5307 -0.6628
 3680SOL     OW22498   0.496   1.209  15.141 -0.1947 -0.3898  0.1078
 3680SOL    HW122499   0.555   1.260  15.196 -3.0922  2.3034  0.7152
 3680SOL    HW222500   0.525   1.120  15.163  0.6245 -0.1933 -0.1746
 3681SOL     OW22501   2.064   1.158  16.542 -0.3647  0.0321  0.5754
 3681SOL    HW122502   2.157   1.142  16.558 -0.2331 -1.3462 -1.5099
 3681SOL    HW222503   2.019   1.118  16.617 -0.0867  0.4488  0.9632
 3682SOL     OW22504   0.533   2.807   3.608  0.1165  0.9117 -0.2180
 3682SOL    HW122505   0.542   2.878   3.671  2.1556 -0.3373  0.8710
 3682SOL    HW222506   0.478   2.849   3.542 -1.1376  2.1167  1.5926
 3683SOL     OW22507   0.541   1.757  12.219 -0.0773  1.2174  0.1772
 3683SOL    HW122508   0.619   1.810  12.202  1.9380 -0.8249  2.9921
 3683SOL    HW222509   0.583   1.678  12.255  0.5060  0.2293 -2.6723
 3684SOL     OW22510   2.031   1.431  10.265  1.2555  0.0727  0.1722
 3684SOL    HW122511   2.004   1.510  10.218  0.7261 -1.2285 -1.7584
 3684SOL    HW222512   2.096   1.393  10.205  0.2677 -0.1301 -0.7717
 3685SOL     OW22513   0.805   2.633   9.796 -0.8917  0.0096  0.1028
 3685SOL    HW122514   0.786   2.543   9.769  0.0573 -0.3942  0.8185
 3685SOL    HW222515   0.719   2.673   9.781 -1.8501 -2.3877 -0.9158
 3686SOL     OW22516   3.410   2.587   6.145  0.0050 -0.0058  0.0387
 3686SOL    HW122517   3.317   2.586   6.168 -0.1553 -0.1304 -0.6134
 3686SOL    HW222518   3.417   2.679   6.120 -0.4273 -0.3485 -1.3231
 3687SOL     OW22519   0.273   1.416   6.359 -0.0515  0.0210 -0.2068
 3687SOL    HW122520   0.255   1.493   6.413  1.8874  0.3775 -0.0937
 3687SOL    HW222521   0.198   1.359   6.380 -0.6241  0.7013 -0.4051
 3688SOL     OW22522   3.869   1.192   5.709  0.5733  0.2519 -0.2642
 3688SOL    HW122523   3.861   1.237   5.792  0.9373 -1.0176  0.4646
 3688SOL    HW222524   3.890   1.257   5.642 -0.4020  1.1954  0.3662
 3689SOL     OW22525   2.585   3.984   7.285  0.1596  0.8344 -0.2759
 3689SOL    HW122526   2.674   4.014   7.267 -0.1675  2.0669  0.2022
 3689SOL    HW222527   2.607   3.931   7.362  2.2607 -0.4192 -1.7397
 3690SOL     OW22528   4.154   4.028   0.487  0.5955 -0.1329  0.0368
 3690SOL    HW122529   4.243   4.028   0.523 -0.2183  1.7017  2.0938
 3690SOL    HW222530   4.155   4.107   0.433 -1.2170  0.4195  0.8036
 3691SOL     OW22531   3.644   0.509   2.234 -0.3957 -1.0363  0.1109
 3691SOL    HW122532   3.611   0.469   2.314 -0.5779  1.4230  1.2667
 3691SOL    HW222533   3.655   0.434   2.177 -2.5252 -1.1249 -0.1786
 3692SOL     OW22534   4.083   2.585   8.440 -0.1077 -0.1644  0.0486
 3692SOL    HW122535   4.103   2.678   8.443  1.1349 -0.4154 -0.6378
 3692SOL    HW222536   3.987   2.581   8.433 -0.0103 -1.6041 -0.4873
 3693SOL     OW22537   0.397   2.086   4.398  0.2283 -0.6086 -0.1351
 3693SOL    HW122538   0.356   2.021   4.455 -1.6838  0.2024 -0.5851
 3693SOL    HW222539   0.445   2.133   4.467  1.3290 -1.7498 -0.1140
 3694SOL     OW22540   2.653   2.491   3.731  0.7711 -0.7125  0.3368
 3694SOL    HW122541   2.640   2.440   3.811 -2.8443  3.2297  2.3106
 3694SOL    HW222542   2.748   2.493   3.727  0.8080  0.4063  1.8963
 3695SOL     OW22543   0.483   2.226   4.867 -0.0485 -0.5074  0.0543
 3695SOL    HW122544   0.523   2.143   4.840 -1.0318 -0.5056 -1.3475
 3695SOL    HW222545   0.505   2.217   4.960 -0.1372 -2.1144 -0.0846
 3696SOL     OW22546   2.670   2.330  15.553  0.0151  0.0531  0.2058
 3696SOL    HW122547   2.670   2.318  15.458  0.3890  2.3888 -0.0802
 3696SOL    HW222548   2.584   2.370  15.557 -0.3746 -0.8354  0.5770
 3697SOL     OW22549   3.496   3.068  10.186 -0.2341 -0.1605  0.5250
 3697SOL    HW122550   3.443   3.092  10.110  2.6968  3.5078 -0.3542
 3697SOL    HW222551   3.581   3.056  10.145 -1.1907 -2.5680 -0.7441
 3698SOL     OW22552   2.711   1.125  12.887  0.2687 -0.0300  0.2251
 3698SOL    HW122553   2.641   1.191  12.882  1.1944  1.0289  1.3766
 3698SOL    HW222554   2.782   1.174  12.847  1.2923 -1.8695 -0.1934
 3699SOL     OW22555   3.141   4.423   5.473  0.6801 -0.0291 -0.1355
 3699SOL    HW122556   3.130   4.342   5.424  0.5955  0.1432 -0.4048
 3699SOL    HW222557   3.220   4.402   5.523  1.5252  0.0434 -1.4203
 3700SOL     OW22558   2.772   2.842   5.554 -0.6651  0.0221  0.0420
 3700SOL    HW122559   2.775   2.885   5.640 -2.0508 -0.7518  0.4562
 3700SOL    HW222560   2.762   2.918   5.496  0.8796  1.1795  1.2763
 3701SOL     OW22561   2.943   3.386   3.491 -0.4323  0.2509  0.3043
 3701SOL    HW122562   2.953   3.322   3.420  0.6651 -1.5128  2.0312
 3701SOL    HW222563   2.982   3.457   3.441 -0.6486  0.3482  0.2732
 3702SOL     OW22564   1.446   2.351   5.186 -0.2207  0.4721  0.2698
 3702SOL    HW122565   1.389   2.403   5.130 -0.5521  0.9465  1.0375
 3702SOL    HW222566   1.433   2.258   5.166  2.0111  0.0067  0.9942
 3703SOL     OW22567   0.322   0.984  14.336 -0.2647  0.0955 -0.4862
 3703SOL    HW122568   0.302   1.001  14.428 -0.3861 -0.6643 -0.3720
 3703SOL    HW222569   0.299   0.891  14.326  2.3865 -0.7480  1.2174
 3704SOL     OW22570   0.791   2.419   6.359 -0.6545 -0.0233 -0.1543
 3704SOL    HW122571   0.704   2.383   6.374 -1.4290  2.0787  0.4606
 3704SOL    HW222572   0.824   2.355   6.296 -0.7557 -2.1066  1.9378
 3705SOL     OW22573   1.635   1.571   6.090  0.6047 -0.0290 -0.2149
 3705SOL    HW122574   1.635   1.491   6.036 -1.6982 -0.1192 -0.0468
 3705SOL    HW222575   1.702   1.626   6.049 -0.8804  1.4505 -0.6168
 3706SOL     OW22576   1.913   4.553   4.110  0.0004  0.2514  0.2573
 3706SOL    HW122577   1.836   4.609   4.098 -0.1949  0.1883  1.1819
 3706SOL    HW222578   1.898   4.486   4.043  1.9087 -1.0677  1.1193
 3707SOL     OW22579   4.668   4.113   5.057  0.0416  0.3473 -0.4389
 3707SOL    HW122580   4.667   4.034   5.002 -2.5626 -0.3632  0.6515
 3707SOL    HW222581   4.688   4.071   5.141  2.1803 -0.5048 -1.3536
 3708SOL     OW22582   2.100   3.751   4.354  0.3848  0.4454  0.6211
 3708SOL    HW122583   2.148   3.831   4.376  2.0123 -0.6910  1.2945
 3708SOL    HW222584   2.013   3.767   4.391  0.0335  2.6979 -1.1866
 3709SOL     OW22585   1.448   0.299   5.983  0.2815  0.3071 -0.2514
 3709SOL    HW122586   1.417   0.293   5.893  0.3735 -0.0141 -0.2639
 3709SOL    HW222587   1.519   0.234   5.980 -0.6885 -0.8514  1.3484
 3710SOL     OW22588   3.533   1.368   6.424 -0.2007 -0.1068  0.1968
 3710SOL    HW122589   3.579   1.366   6.508  0.1016  0.3255  0.0449
 3710SOL    HW222590   3.602   1.413   6.375 -0.3410  2.3215  2.2083
 3711SOL     OW22591   3.051   3.068  16.213 -0.2534  0.3854  0.1871
 3711SOL    HW122592   2.966   3.056  16.257  0.9207 -0.7074  2.1445
 3711SOL    HW222593   3.026   3.080  16.121  2.4640 -1.0288 -0.7372
 3712SOL     OW22594   0.992   1.951   1.585 -0.2278 -0.4718  0.1930
 3712SOL    HW122595   1.047   1.887   1.631 -2.4416 -1.6541  1.1912
 3712SOL    HW222596   1.060   1.985   1.528 -0.0992  3.5245  2.7313
 3713SOL     OW22597   0.040   0.704   8.549 -0.0757  0.8193  0.5619
 3713SOL    HW122598   0.024   0.617   8.511  1.7111  2.3826 -3.7162
 3713SOL    HW222599   0.091   0.672   8.623 -0.3701 -0.2150  0.3191
 3714SOL     OW22600   2.716   4.080   5.380  0.6174 -0.5913 -0.7074
 3714SOL    HW122601   2.748   4.005   5.430  1.7659  0.5854  0.2991
 3714SOL    HW222602   2.726   4.041   5.293  1.5235 -1.9964  0.0188
 3715SOL     OW22603   4.206   4.411   3.203 -0.3622  0.3465 -0.5080
 3715SOL    HW122604   4.130   4.361   3.234  0.1521 -0.5331 -0.6758
 3715SOL    HW222605   4.213   4.410   3.108  0.1268 -3.3140 -0.4327
 3716SOL     OW22606   3.414   2.774   1.641 -0.3886  0.2869  0.4303
 3716SOL    HW122607   3.495   2.747   1.598  0.4805  3.7571 -0.1001
 3716SOL    HW222608   3.436   2.860   1.677  0.2956 -0.4209  1.7098
 3717SOL     OW22609   1.271   1.319   2.884 -0.1882  0.3367 -0.2311
 3717SOL    HW122610   1.290   1.225   2.891 -1.6196  0.2342  2.4039
 3717SOL    HW222611   1.226   1.337   2.967  2.2529 -1.9674  1.5751
 3718SOL     OW22612   4.351   0.221  15.595  0.6444  0.9629 -0.3278
 3718SOL    HW122613   4.347   0.126  15.588  0.9061  0.9457 -0.2685
 3718SOL    HW222614   4.264   0.243  15.564 -1.0054 -1.6927  2.4338
 3719SOL     OW22615   4.172   1.745   3.267 -0.5027  0.2392 -0.3862
 3719SOL    HW122616   4.078   1.728   3.279 -0.0084  0.0778  3.0611
 3719SOL    HW222617   4.183   1.774   3.357  0.3365 -0.3653 -0.2989
 3720SOL     OW22618   4.191   0.784  10.434 -0.8177  0.0164 -0.2319
 3720SOL    HW122619   4.225   0.831  10.358  0.6228 -0.1732  0.3018
 3720SOL    HW222620   4.259   0.726  10.468  0.8404  1.0809 -1.7409
 3721SOL     OW22621   1.942   1.022   8.644 -0.2006 -0.2709 -0.8631
 3721SOL    HW122622   1.993   1.101   8.628  0.0903 -0.5865 -1.5373
 3721SOL    HW222623   1.940   1.020   8.739  0.8609 -0.6121 -0.8496
 3722SOL     OW22624   4.453   1.206   5.909  0.6831  0.1333 -0.2665
 3722SOL    HW122625   4.404   1.129   5.938  1.7078 -0.6463 -0.5982
 3722SOL    HW222626   4.538   1.168   5.887  0.7619  0.5502 -0.6816
 3723SOL     OW22627   4.063   0.714   1.638 -0.6167 -0.2099  0.0796
 3723SOL    HW122628   4.058   0.622   1.611  1.5439 -0.1965 -0.3911
 3723SOL    HW222629   3.969   0.730   1.647 -0.2634  1.8682  0.0152
 3724SOL     OW22630   3.871   4.677   9.127 -0.2030  0.6039  0.1694
 3724SOL    HW122631   3.796   4.692   9.070 -1.6047  2.4436  2.4932
 3724SOL    HW222632   3.852   4.586   9.149 -0.7728  0.5954 -0.3602
 3725SOL     OW22633   4.359   4.399   5.692  0.4623  0.7407 -0.5046
 3725SOL    HW122634   4.386   4.395   5.600 -0.2796  0.3880 -0.7072
 3725SOL    HW222635   4.267   4.422   5.677  0.8687  1.1460 -2.4126
 3726SOL     OW22636   1.360   4.698   5.946  0.0032 -0.4782  0.0936
 3726SOL    HW122637   1.448   4.727   5.924 -0.1770 -1.0653 -1.4390
 3726SOL    HW222638   1.347   0.001   6.036 -0.5261 -1.2691  0.2839
 3727SOL     OW22639   3.356   2.568  13.598  0.4513  0.9437  0.3684
 3727SOL    HW122640   3.344   2.551  13.691 -1.5902 -0.5310 -0.1651
 3727SOL    HW222641   3.279   2.536  13.550  1.1094 -2.1928  1.4102
 3728SOL     OW22642   4.726   2.548  15.518  0.0451  0.0284 -0.0052
 3728SOL    HW122643   4.714   2.518  15.428 -1.5520 -1.0564  0.5764
 3728SOL    HW222644   0.052   2.627  15.502  1.6002 -1.4570 -2.2259
 3729SOL     OW22645   0.996   3.877   0.534  0.2149 -0.2219 -0.3432
 3729SOL    HW122646   1.002   3.937   0.460  0.7186  1.6316  1.2018
 3729SOL    HW222647   1.041   3.925   0.603  1.5271 -3.7870  1.2785
 3730SOL     OW22648   0.225   1.710  15.993  0.0871  0.0034 -0.1745
 3730SOL    HW122649   0.220   1.752  16.079  1.1123  3.2310 -1.6696
 3730SOL    HW222650   0.243   1.791  15.945  0.2664  0.1964  0.2222
 3731SOL     OW22651   1.791   2.145   7.812 -0.1735  0.0849  0.5745
 3731SOL    HW122652   1.746   2.222   7.846  2.2321  0.7253  2.2078
 3731SOL    HW222653   1.845   2.187   7.745 -0.6622 -2.0000 -1.1587
 3732SOL     OW22654   0.258   0.376   8.249 -0.0674 -0.4028 -0.0545
 3732SOL    HW122655   0.280   0.286   8.271 -0.6285 -0.5089  0.0765
 3732SOL    HW222656   0.319   0.392   8.177  1.9974 -0.1408  1.7696
 3733SOL     OW22657   2.713   3.892   5.574  0.4159  0.0717 -0.3170
 3733SOL    HW122658   2.622   3.864   5.575  0.3875  0.2397  2.0672
 3733SOL    HW222659   2.727   3.868   5.666  0.4081  0.5400 -0.1942
 3734SOL     OW22660   3.260   1.731   2.502  0.2204  0.0558 -0.4553
 3734SOL    HW122661   3.206   1.736   2.581 -1.4937  0.5438 -1.6663
 3734SOL    HW222662   3.325   1.665   2.527  0.6523  0.2116 -1.1703
 3735SOL     OW22663   4.218   2.112  15.606  0.6565 -0.0742  0.2185
 3735SOL    HW122664   4.182   2.154  15.528  0.9009  1.0738  0.7284
 3735SOL    HW222665   4.212   2.017  15.593  0.5078 -0.1961  1.1905
 3736SOL     OW22666   4.430   1.132   9.204 -0.4427  0.1099  0.4771
 3736SOL    HW122667   4.425   1.207   9.264  0.8216 -0.9007  1.8473
 3736SOL    HW222668   4.342   1.095   9.210 -0.2333 -0.3764  0.5209
 3737SOL     OW22669   1.979   2.006   9.647  0.6254  0.0734  0.4043
 3737SOL    HW122670   2.052   2.069   9.646  0.7314 -0.0819 -1.7387
 3737SOL    HW222671   1.932   2.030   9.567  2.8854 -1.8427 -1.5021
 3738SOL     OW22672   0.693   3.886  12.179  0.0043  0.2419 -0.3526
 3738SOL    HW122673   0.751   3.851  12.112 -1.8916 -1.4080 -1.1349
 3738SOL    HW222674   0.624   3.820  12.187 -0.0171  0.1423 -1.3486
 3739SOL     OW22675   2.038   0.117   7.322  0.4767 -0.1580  0.0724
 3739SOL    HW122676   2.065   0.177   7.391 -3.5641 -0.7467  2.1811
 3739SOL    HW222677   2.047   0.029   7.360 -0.3144  0.4145  1.5993
 3740SOL     OW22678   2.072   4.174   3.872  0.0275 -0.7443  0.1012
 3740SOL    HW122679   2.158   4.146   3.902  0.3280 -0.5259 -0.5430
 3740SOL    HW222680   2.036   4.216   3.950 -2.9141 -0.5596 -1.3487
 3741SOL     OW22681   1.370   4.641  13.713  0.4330 -0.3606  0.1810
 3741SOL    HW122682   1.327   4.557  13.728  0.9694 -0.8400 -0.9580
 3741SOL    HW222683   1.308   4.696  13.760 -1.2061 -0.4680 -1.8423
 3742SOL     OW22684   4.127   2.495  15.424 -0.0951 -0.2420  0.0728
 3742SOL    HW122685   4.117   2.399  15.420  3.0054 -0.5596 -0.0178
 3742SOL    HW222686   4.040   2.520  15.454  1.1309  3.1829  0.7603
 3743SOL     OW22687   2.001   2.741  15.143  0.4226  0.6465  0.0000
 3743SOL    HW122688   1.961   2.742  15.056 -0.5396 -2.9993  0.3892
 3743SOL    HW222689   2.046   2.825  15.138  0.6240  0.5550  0.2875
 3744SOL     OW22690   2.229   1.735   4.110  0.0251  0.0652 -0.5027
 3744SOL    HW122691   2.317   1.709   4.139 -0.1736  0.0555  0.0939
 3744SOL    HW222692   2.223   1.691   4.026 -1.2713  0.2263 -0.4873
 3745SOL     OW22693   2.529   4.390   5.175 -0.0467  0.1507  0.2471
 3745SOL    HW122694   2.461   4.380   5.241 -0.9286 -1.3435 -0.8868
 3745SOL    HW222695   2.609   4.406   5.225 -0.7037  1.4794  0.8739
 3746SOL     OW22696   2.135   4.395  15.702  0.1350 -0.1055 -0.9261
 3746SOL    HW122697   2.205   4.352  15.654  0.0772 -0.5784 -0.5801
 3746SOL    HW222698   2.184   4.403  15.784  2.6720  0.0239 -2.4375
 3747SOL     OW22699   1.708   4.625  17.546 -0.2900 -0.1425  0.2302
 3747SOL    HW122700   1.678   4.570  17.619 -0.4706 -0.2768  0.0585
 3747SOL    HW222701   1.749   4.554  17.496 -0.7364  0.7905 -1.4581
 3748SOL     OW22702   2.978   3.796   6.213 -0.0255  0.7072 -0.0670
 3748SOL    HW122703   2.916   3.738   6.258 -0.8182  2.9054  1.6423
 3748SOL    HW222704   3.050   3.736   6.191 -0.2590  0.6068 -0.5545
 3749SOL     OW22705   1.926   0.805   2.532  1.1468  0.2760  0.8213
 3749SOL    HW122706   1.862   0.772   2.469  3.4838  0.6953 -1.7622
 3749SOL    HW222707   2.010   0.802   2.485  0.8607 -1.0928  0.3942
 3750SOL     OW22708   3.255   2.248   2.400 -0.0084  0.0808  0.4333
 3750SOL    HW122709   3.327   2.186   2.388 -1.5843 -1.2986 -1.8893
 3750SOL    HW222710   3.197   2.235   2.326  0.3502 -0.2012  0.2019
 3751SOL     OW22711   4.644   3.352  11.237  0.8361  0.3145  0.5124
 3751SOL    HW122712   4.657   3.258  11.225 -0.3170  0.2225  0.0045
 3751SOL    HW222713   4.700   3.383  11.166  0.6852  0.5559  0.5003
 3752SOL     OW22714   0.534   3.496   3.892  0.1696  0.0471  0.0483
 3752SOL    HW122715   0.625   3.467   3.894 -0.1591 -0.9424  0.7886
 3752SOL    HW222716   0.510   3.503   3.800 -0.1073 -1.5356 -0.0057
 3753SOL     OW22717   2.368   2.184   7.364 -0.6712 -0.3434 -0.1917
 3753SOL    HW122718   2.364   2.238   7.284 -1.5156  1.1493  0.8478
 3753SOL    HW222719   2.286   2.136   7.348 -1.4693  0.7544  0.6061
 3754SOL     OW22720   1.930   1.376  11.183  0.3634  0.2138 -0.3325
 3754SOL    HW122721   1.988   1.368  11.259 -0.3329  2.6662  0.4623
 3754SOL    HW222722   1.990   1.394  11.111 -0.7549  2.3148 -0.7495
 3755SOL     OW22723   2.267   1.193   3.049  0.3594  0.4068 -0.3922
 3755SOL    HW122724   2.184   1.241   3.059  0.3792  0.4125 -0.2503
 3755SOL    HW222725   2.314   1.229   2.974  0.2103 -0.4867 -0.9152
 3756SOL     OW22726   3.411   1.080   4.998  0.0044  0.5228  0.1301
 3756SOL    HW122727   3.426   0.991   5.029 -2.6896 -0.3711 -1.0644
 3756SOL    HW222728   3.421   1.061   4.904  1.5742 -0.9052  0.5852
 3757SOL     OW22729   2.572   2.048  11.395 -0.0567  0.1020  0.6550
 3757SOL    HW122730   2.492   2.059  11.447  0.7994  1.9640  1.5691
 3757SOL    HW222731   2.636   2.045  11.466  0.0779 -0.2296  0.5181
 3758SOL     OW22732   2.658   2.329  13.150 -0.4424 -0.1084  0.0440
 3758SOL    HW122733   2.606   2.249  13.145  0.5085 -0.7317  0.1525
 3758SOL    HW222734   2.594   2.396  13.175  1.7874  1.5851  1.1890
 3759SOL     OW22735   1.973   1.755   4.988 -0.3162  0.0887 -0.0496
 3759SOL    HW122736   1.993   1.662   4.976  2.8056  0.7594  0.0952
 3759SOL    HW222737   1.900   1.754   4.926  1.0727  1.0056 -1.6831
 3760SOL     OW22738   1.231   1.432   3.714 -0.3803  0.3020  0.4948
 3760SOL    HW122739   1.199   1.342   3.702  3.0224 -0.6694 -1.0495
 3760SOL    HW222740   1.306   1.428   3.773  1.1707  0.3755 -1.5036
 3761SOL     OW22741   1.481   0.854  14.672 -0.0391 -0.2160 -0.1261
 3761SOL    HW122742   1.452   0.900  14.751  0.4035 -2.7122  1.4885
 3761SOL    HW222743   1.576   0.851  14.681 -0.3720 -0.5388  3.2814
 3762SOL     OW22744   1.000   4.308   7.631 -0.5182  0.8194 -0.1742
 3762SOL    HW122745   1.036   4.345   7.712 -1.6504 -0.5642  0.9720
 3762SOL    HW222746   1.031   4.369   7.565  1.0295 -0.4161 -0.5874
 3763SOL     OW22747   1.717   3.856   8.593  0.0346 -0.1818 -0.1460
 3763SOL    HW122748   1.793   3.906   8.564 -0.1103 -0.6677 -1.3594
 3763SOL    HW222749   1.750   3.773   8.557  2.0473  0.2833  0.6259
 3764SOL     OW22750   0.272   4.044   2.939  0.5140  0.7176  0.3822
 3764SOL    HW122751   0.268   4.002   2.853  0.6619  0.1930  0.6310
 3764SOL    HW222752   0.265   4.138   2.921 -0.6611  0.6455  0.4590
 3765SOL     OW22753   3.479   0.974  14.895 -1.0227  0.3061 -0.0455
 3765SOL    HW122754   3.531   0.996  14.973 -2.0483  0.8049  0.4908
 3765SOL    HW222755   3.412   0.920  14.936 -0.8363 -0.3737 -0.6395
 3766SOL     OW22756   4.678   2.360  14.885 -0.5520 -0.1637  0.2985
 3766SOL    HW122757   0.030   2.360  14.832 -0.2423 -1.1659  0.7634
 3766SOL    HW222758   4.620   2.400  14.820  0.7667 -0.9137 -1.3285
 3767SOL     OW22759   0.075   0.001  10.121  0.0352  0.0275  0.0186
 3767SOL    HW122760   0.162   4.690  10.132  0.9281  2.1108  0.2427
 3767SOL    HW222761   0.035   4.707  10.205 -0.6984  0.3595 -0.2451
 3768SOL     OW22762   2.247   0.665   9.183 -0.3548 -0.0147 -0.4635
 3768SOL    HW122763   2.209   0.592   9.135  1.0541 -1.1860  0.2092
 3768SOL    HW222764   2.199   0.733   9.136  1.7491  0.2184 -2.2924
 3769SOL     OW22765   2.868   2.390   7.777  0.0509  0.1889 -0.2032
 3769SOL    HW122766   2.816   2.470   7.780  0.4224  0.4982 -1.8269
 3769SOL    HW222767   2.821   2.330   7.718 -0.3931  0.9925 -0.6608
 3770SOL     OW22768   2.215   1.914  10.869 -0.2285 -0.4883  0.1358
 3770SOL    HW122769   2.257   1.861  10.802  2.6314 -0.3114  1.7951
 3770SOL    HW222770   2.282   1.982  10.872 -0.7962  0.1314 -1.2451
 3771SOL     OW22771   4.457   0.333   6.077  0.1112  0.0554  0.1196
 3771SOL    HW122772   4.412   0.415   6.099 -0.1211  0.4853 -1.9357
 3771SOL    HW222773   4.505   0.326   6.159  0.1566 -1.1607 -0.0053
 3772SOL     OW22774   0.713   4.361  12.075  0.4219 -0.1364 -0.0221
 3772SOL    HW122775   0.801   4.325  12.066  0.2864 -0.2142 -1.0420
 3772SOL    HW222776   0.655   4.302  12.028  0.3247 -0.4402  0.4745
 3773SOL     OW22777   4.247   2.952   8.228  0.1431  0.2842 -0.4672
 3773SOL    HW122778   4.253   2.882   8.163 -0.6709  0.4772 -0.7569
 3773SOL    HW222779   4.318   3.007   8.195 -0.2368  0.0473 -1.6762
 3774SOL     OW22780   1.152   4.716  10.480 -0.0483  0.2868 -0.1551
 3774SOL    HW122781   1.114   4.707  10.393  1.0249  0.8000 -0.6873
 3774SOL    HW222782   1.080   0.025  10.531  0.4638  0.3199  0.5546
 3775SOL     OW22783   0.676   2.136  17.317  0.3483 -0.6661 -0.6648
 3775SOL    HW122784   0.592   2.119  17.274 -0.1876  0.5426 -0.1226
 3775SOL    HW222785   0.645   2.173  17.400  0.7736  1.9178 -1.6294
 3776SOL     OW22786   4.127   3.823   4.695  0.3972  0.1768  0.4933
 3776SOL    HW122787   4.222   3.828   4.681  0.2585  0.8896 -0.1841
 3776SOL    HW222788   4.104   3.916   4.693 -0.5547 -0.0637  0.3264
 3777SOL     OW22789   4.387   4.673  15.615 -0.0216  0.0280 -0.0148
 3777SOL    HW122790   4.297   4.649  15.634  0.3839 -0.3506  1.4187
 3777SOL    HW222791   4.422   4.593  15.575 -1.3029  0.4577 -1.9602
 3778SOL     OW22792   3.605   2.388   1.921  0.9410  0.5216  0.4028
 3778SOL    HW122793   3.588   2.377   1.828  0.0397  1.1800  0.4899
 3778SOL    HW222794   3.666   2.463   1.925  2.8959 -0.9274 -2.2099
 3779SOL     OW22795   2.896   3.696   2.286 -0.4339  0.1953 -0.1636
 3779SOL    HW122796   2.940   3.680   2.203  1.2506 -1.4875  1.0404
 3779SOL    HW222797   2.883   3.790   2.273  0.0893  0.3823  0.6143
 3780SOL     OW22798   3.392   0.514  14.920 -0.0094 -0.5637 -0.0855
 3780SOL    HW122799   3.315   0.457  14.927 -1.0801  0.9975  0.6913
 3780SOL    HW222800   3.456   0.468  14.865 -1.1644 -0.8245 -1.2179
 3781SOL     OW22801   4.664   4.560  13.253  0.2116  0.5307  0.2658
 3781SOL    HW122802   0.005   4.611  13.298  0.3999  0.3587  0.1793
 3781SOL    HW222803   4.589   4.619  13.248 -0.3833 -0.1415  1.3642
 3782SOL     OW22804   2.923   3.857   9.269 -0.9051  0.0150  0.1210
 3782SOL    HW122805   2.889   3.929   9.216 -1.2566  0.7145  1.2895
 3782SOL    HW222806   2.962   3.803   9.200 -2.0941  0.3851 -0.8451
 3783SOL     OW22807   1.544   1.834   2.892  0.3134  0.1637  0.1777
 3783SOL    HW122808   1.480   1.876   2.949  0.8742  2.9498 -1.2879
 3783SOL    HW222809   1.538   1.743   2.923 -0.1704  0.0483 -0.2704
 3784SOL     OW22810   4.039   1.076   0.392 -0.2134 -0.2174  0.3998
 3784SOL    HW122811   4.020   1.000   0.338  1.1245 -0.6083  0.5042
 3784SOL    HW222812   3.965   1.089   0.452 -0.6483  0.6629 -0.3229
 3785SOL     OW22813   3.235   1.679   3.240  0.0832 -0.0252 -0.3466
 3785SOL    HW122814   3.312   1.712   3.286  1.5492 -0.8249 -2.2446
 3785SOL    HW222815   3.276   1.620   3.177 -0.1912  0.2884 -0.8199
 3786SOL     OW22816   1.895   1.295   7.693  0.5188  0.1532  0.4625
 3786SOL    HW122817   1.911   1.310   7.600  1.6025  0.6500  0.7195
 3786SOL    HW222818   1.946   1.366   7.732 -0.6866 -0.5064  3.2424
 3787SOL     OW22819   3.309   0.882   3.727  0.0303 -0.4129  0.0516
 3787SOL    HW122820   3.364   0.856   3.801  1.6491  1.8969 -0.3453
 3787SOL    HW222821   3.370   0.883   3.653  0.8112 -2.1980  0.6787
 3788SOL     OW22822   3.704   3.540   5.437 -0.3461 -0.2257 -0.4981
 3788SOL    HW122823   3.643   3.505   5.371  0.5000 -0.0060 -1.3964
 3788SOL    HW222824   3.788   3.502   5.411 -0.1988  0.2321 -0.6890
 3789SOL     OW22825   2.743   0.176   3.616  0.1472 -0.3723  0.4626
 3789SOL    HW122826   2.685   0.103   3.594  0.3157 -1.2472  2.9438
 3789SOL    HW222827   2.773   0.139   3.698  0.5864 -1.4175 -0.1780
 3790SOL     OW22828   1.102   2.158   1.023  0.0415  0.2881  0.4354
 3790SOL    HW122829   1.192   2.126   1.031 -0.1538 -0.2495  0.4804
 3790SOL    HW222830   1.112   2.196   0.936  0.3353  0.5065  0.5655
 3791SOL     OW22831   2.042   1.409  12.137 -0.2738  0.0796  0.1513
 3791SOL    HW122832   2.118   1.432  12.190  1.0028  0.5178 -1.8551
 3791SOL    HW222833   2.030   1.316  12.155 -0.0064  0.3893  1.9585
 3792SOL     OW22834   3.445   1.023   3.207 -0.1635  0.3431 -0.1317
 3792SOL    HW122835   3.537   1.020   3.179 -0.9007 -1.9928 -2.3838
 3792SOL    HW222836   3.441   1.117   3.221 -1.2185  0.3093 -0.2025
 3793SOL     OW22837   1.993   0.614   5.857  0.1527 -0.1523 -0.5441
 3793SOL    HW122838   2.037   0.545   5.907  2.0935  2.2481  1.0402
 3793SOL    HW222839   2.066   0.663   5.819 -0.4432  0.8775 -0.3473
 3794SOL     OW22840   3.049   0.013   4.353 -0.2457  0.1372 -0.0876
 3794SOL    HW122841   2.963   0.020   4.310  1.3950 -1.5971 -3.6491
 3794SOL    HW222842   3.111   4.716   4.284 -0.6377  0.6356 -0.6153
 3795SOL     OW22843   4.449   1.882   4.711  0.1453  0.0624  0.0226
 3795SOL    HW122844   4.508   1.813   4.678 -0.2637 -0.2151 -0.1259
 3795SOL    HW222845   4.363   1.848   4.687 -0.1132 -1.6444  3.3030
 3796SOL     OW22846   1.921   0.780  14.204 -0.3871  0.2636 -0.0297
 3796SOL    HW122847   2.000   0.728  14.217 -0.3090  0.5432  0.6038
 3796SOL    HW222848   1.898   0.757  14.114  0.9334  0.9286 -0.5268
 3797SOL     OW22849   1.874   0.084   5.138  0.6679 -0.0940 -0.1850
 3797SOL    HW122850   1.888   0.137   5.060 -2.3282  0.9022 -0.0610
 3797SOL    HW222851   1.942   0.017   5.141 -1.3119 -2.0639  0.8489
 3798SOL     OW22852   3.433   4.676   4.547  0.0294 -0.7260 -0.4135
 3798SOL    HW122853   3.523   4.706   4.540 -0.8608  2.3257  0.9746
 3798SOL    HW222854   3.390   0.017   4.496 -0.5667 -1.6822 -1.1729
 3799SOL     OW22855   3.221   0.186  14.198  0.4345 -0.9163 -0.3694
 3799SOL    HW122856   3.257   0.274  14.204  1.6969 -1.2988 -2.4488
 3799SOL    HW222857   3.143   0.191  14.143 -0.9248 -0.2761  1.6167
 3800SOL     OW22858   4.059   0.477   6.197  0.2169 -0.3689 -0.2136
 3800SOL    HW122859   4.004   0.399   6.202  1.8014 -1.5475 -1.0986
 3800SOL    HW222860   4.064   0.516   6.284  1.1050 -0.4599 -0.2250
 3801SOL     OW22861   4.570   2.587   2.751  0.0341  0.4426 -0.2066
 3801SOL    HW122862   4.605   2.604   2.838  2.0161 -1.3415 -0.6803
 3801SOL    HW222863   4.502   2.654   2.748  0.7833  1.2804  1.6575
 3802SOL     OW22864   0.051   4.193   6.515  0.5075 -0.4731  0.8121
 3802SOL    HW122865   0.124   4.170   6.457  0.6365  1.1810  0.3288
 3802SOL    HW222866   0.055   4.119   6.576  1.1053 -2.0371 -1.1268
 3803SOL     OW22867   2.581   4.364  14.121  0.0120 -0.5953 -0.0573
 3803SOL    HW122868   2.657   4.395  14.072 -1.2245 -0.5369 -1.9227
 3803SOL    HW222869   2.531   4.327  14.048  2.5745  0.5104 -2.3390
 3804SOL     OW22870   3.508   1.801   3.636 -0.0326  0.4749  0.4459
 3804SOL    HW122871   3.567   1.766   3.704 -0.8827 -0.8392  0.5019
 3804SOL    HW222872   3.558   1.880   3.616 -2.3910  1.1708 -2.6335
 3805SOL     OW22873   3.320   2.771  10.722  0.3726 -0.4436 -0.0808
 3805SOL    HW122874   3.252   2.751  10.787 -1.7308  2.7088 -1.3397
 3805SOL    HW222875   3.376   2.693  10.725  0.0164 -0.6421  1.6965
 3806SOL     OW22876   2.669   4.177   4.020  0.1070 -0.3335 -0.2086
 3806SOL    HW122877   2.593   4.235   4.016 -0.3033 -0.9237 -0.9149
 3806SOL    HW222878   2.683   4.168   3.926 -0.2346 -1.1045 -0.1884
 3807SOL     OW22879   3.378   0.900   5.242  0.0809 -0.1323 -0.1978
 3807SOL    HW122880   3.312   0.835   5.267  0.9270 -0.3666  1.4485
 3807SOL    HW222881   3.428   0.902   5.324  1.0634  0.1597 -0.8156
 3808SOL     OW22882   4.336   3.334   3.580  0.2634 -0.1064  0.0140
 3808SOL    HW122883   4.297   3.257   3.538 -3.8763  1.7083  0.5210
 3808SOL    HW222884   4.410   3.346   3.521  0.9273 -0.5874  0.7572
 3809SOL     OW22885   1.301   3.353   0.469 -0.0427 -0.3684 -0.2559
 3809SOL    HW122886   1.316   3.448   0.473 -1.7968 -0.0171 -1.6401
 3809SOL    HW222887   1.386   3.328   0.433  1.0607  1.0116  1.3767
 3810SOL     OW22888   3.737   1.654   6.658 -0.0821  0.2475  0.3910
 3810SOL    HW122889   3.801   1.663   6.587 -0.4919 -1.4492 -0.1957
 3810SOL    HW222890   3.786   1.620   6.732  3.4713  0.2828 -1.9181
 3811SOL     OW22891   4.395   0.917  16.903  0.1871  0.6871  0.2480
 3811SOL    HW122892   4.432   0.835  16.936  0.8228  0.4415 -1.0716
 3811SOL    HW222893   4.345   0.944  16.980 -0.6082  1.3446 -0.5040
 3812SOL     OW22894   4.460   1.136   5.051  0.3806 -0.0519  0.6250
 3812SOL    HW122895   4.527   1.191   5.010  1.3489 -0.6776  1.3680
 3812SOL    HW222896   4.490   1.046   5.035  2.3667  0.3298  2.2288
 3813SOL     OW22897   0.939   2.318  13.728 -0.0355 -0.3370  0.2364
 3813SOL    HW122898   0.871   2.334  13.662 -0.6091 -0.4871  0.7956
 3813SOL    HW222899   0.910   2.246  13.783  0.5351  0.0295  1.0126
 3814SOL     OW22900   1.226   1.915   2.162  0.4146 -0.2282 -0.5991
 3814SOL    HW122901   1.253   1.985   2.101 -2.6584  0.6223 -0.9968
 3814SOL    HW222902   1.293   1.925   2.230 -1.5392 -1.4968  1.5036
 3815SOL     OW22903   2.390   3.945   4.992 -0.5017 -0.3805 -0.4848
 3815SOL    HW122904   2.424   3.891   4.921  0.1442 -2.4368  1.3720
 3815SOL    HW222905   2.300   3.963   4.965 -0.5134  1.7472  0.9526
 3816SOL     OW22906   4.301   1.479   0.450 -0.2092  0.0875 -0.4595
 3816SOL    HW122907   4.359   1.486   0.526 -0.8896 -1.0293  0.1656
 3816SOL    HW222908   4.218   1.463   0.495  0.3389 -1.9397 -0.1248
 3817SOL     OW22909   3.963   0.814   3.062  0.4378 -0.2031 -0.2267
 3817SOL    HW122910   3.914   0.886   3.022  0.4605 -0.3342 -0.4895
 3817SOL    HW222911   4.030   0.797   2.996 -0.5999  0.6314 -1.5025
 3818SOL     OW22912   2.811   0.179   0.712  0.2264  0.0394  0.2534
 3818SOL    HW122913   2.817   0.193   0.806 -0.2240  1.5795  0.0470
 3818SOL    HW222914   2.905   0.175   0.696  0.5217  0.8762  1.7560
 3819SOL     OW22915   0.723   0.702  13.712  0.4644  0.2833  0.3676
 3819SOL    HW122916   0.703   0.611  13.691 -1.5361  1.7856 -4.1263
 3819SOL    HW222917   0.650   0.724  13.770  1.6986  0.7027  1.7614
 3820SOL     OW22918   1.257   2.666   1.447  0.1622  0.6224  0.3895
 3820SOL    HW122919   1.215   2.633   1.367  3.1976 -1.3702 -0.3524
 3820SOL    HW222920   1.179   2.651   1.501 -1.0046  2.1311 -0.8778
 3821SOL     OW22921   0.659   0.295  11.757  0.0492 -0.1826 -1.0303
 3821SOL    HW122922   0.665   0.260  11.668  3.0588  0.1063 -0.9182
 3821SOL    HW222923   0.748   0.328  11.751 -0.1719  0.6239  0.1376
 3822SOL     OW22924   4.493   0.696  15.278 -0.5682 -0.3333  0.4809
 3822SOL    HW122925   4.542   0.772  15.309 -0.2543 -1.1548  2.0195
 3822SOL    HW222926   4.441   0.682  15.357 -0.6198  1.3785  0.7530
 3823SOL     OW22927   0.921   0.521  13.124  0.0465  0.3669  0.4148
 3823SOL    HW122928   0.905   0.525  13.030  2.8788  2.6109 -0.0056
 3823SOL    HW222929   0.954   0.431  13.129 -0.7695  0.0290 -0.4690
 3824SOL     OW22930   2.823   0.648   0.856 -0.0351  0.6698 -0.0499
 3824SOL    HW122931   2.762   0.668   0.926  0.9657  2.4601  0.3138
 3824SOL    HW222932   2.874   0.729   0.850  0.7419  0.4938  3.7851
 3825SOL     OW22933   0.377   1.582   6.145 -0.5861  0.0770  0.3547
 3825SOL    HW122934   0.384   1.646   6.216  2.8996  0.2768 -0.1943
 3825SOL    HW222935   0.316   1.530   6.197 -1.7008  0.9325 -0.0969
 3826SOL     OW22936   0.548   2.725   9.754 -0.1672  0.2652 -0.2830
 3826SOL    HW122937   0.523   2.779   9.829 -1.4606 -0.5318 -0.1290
 3826SOL    HW222938   0.477   2.661   9.741 -0.2992  0.7527 -1.9811
 3827SOL     OW22939   2.521   1.650   7.801 -0.2955  0.1512  0.0268
 3827SOL    HW122940   2.484   1.563   7.791  0.3924 -0.4255  2.3265
 3827SOL    HW222941   2.571   1.652   7.883 -4.0550 -0.3985  2.3194
 3828SOL     OW22942   4.319   1.093   1.657 -0.2258  0.0574 -0.4077
 3828SOL    HW122943   4.355   1.176   1.688  0.3322 -0.4274  0.2459
 3828SOL    HW222944   4.399   1.045   1.638  0.1734  0.6371 -0.1736
 3829SOL     OW22945   2.187   4.073  11.902  0.0858  0.0158  0.5170
 3829SOL    HW122946   2.199   4.023  11.821 -1.7718 -0.0430  0.2907
 3829SOL    HW222947   2.174   3.998  11.960  2.0558  1.1641  2.4510
 3830SOL     OW22948   4.555   3.509   4.279 -0.3114 -0.7356  0.1121
 3830SOL    HW122949   4.506   3.583   4.316 -1.1139 -1.8823  1.3688
 3830SOL    HW222950   4.488   3.442   4.268 -1.4364  0.5357 -0.8132
 3831SOL     OW22951   2.986   1.565   7.816  0.2011  0.2272 -0.4972
 3831SOL    HW122952   2.910   1.613   7.782 -0.5991  0.7252  1.9605
 3831SOL    HW222953   3.053   1.634   7.816 -0.8089  1.1900  2.4287
 3832SOL     OW22954   0.537   1.600   7.432  0.1523 -0.1701  0.1928
 3832SOL    HW122955   0.529   1.628   7.523 -0.1896  2.0849 -0.5206
 3832SOL    HW222956   0.534   1.685   7.388  0.8473 -0.6399 -0.7827
 3833SOL     OW22957   2.056   1.473   9.530  0.0576  0.7007 -0.2390
 3833SOL    HW122958   1.974   1.478   9.580 -1.0587 -2.5633 -1.7106
 3833SOL    HW222959   2.088   1.561   9.551  1.8592 -0.0244  0.0100
 3834SOL     OW22960   2.597   0.244   9.122 -0.2341 -0.7265 -0.1120
 3834SOL    HW122961   2.613   0.150   9.132 -2.6535 -1.0043  0.9692
 3834SOL    HW222962   2.654   0.286   9.187 -2.1560  3.6771 -1.2430
 3835SOL     OW22963   3.209   4.374  10.361  0.1745 -0.1531  0.6188
 3835SOL    HW122964   3.145   4.364  10.291  0.5733  0.2477  0.1953
 3835SOL    HW222965   3.163   4.424  10.428  2.2146  1.5548  0.7546
 3836SOL     OW22966   1.935   2.214  15.372  0.2055  0.6567  0.1100
 3836SOL    HW122967   1.991   2.264  15.312 -2.3386  1.5602 -1.5203
 3836SOL    HW222968   1.861   2.182  15.321  1.3085 -0.6222 -0.6856
 3837SOL     OW22969   4.568   1.468  11.700 -0.2053  0.4656  0.3938
 3837SOL    HW122970   4.537   1.382  11.730 -0.2455  0.2513 -0.2648
 3837SOL    HW222971   4.652   1.443  11.662  0.9034  0.2233  3.0201
 3838SOL     OW22972   0.585   3.032  10.126  0.2628  0.1077  0.4849
 3838SOL    HW122973   0.639   3.047  10.204 -2.7524  0.5518  2.4896
 3838SOL    HW222974   0.563   3.123  10.104 -0.2744 -0.1196  0.0920
 3839SOL     OW22975   2.662   0.732   1.916 -0.2076  0.2397 -0.9839
 3839SOL    HW122976   2.570   0.746   1.896 -0.6547 -1.2436  0.0631
 3839SOL    HW222977   2.677   0.653   1.863  0.3807 -0.9772  1.0031
 3840SOL     OW22978   1.246   0.862   8.400 -0.4284  0.7321 -0.1662
 3840SOL    HW122979   1.179   0.907   8.349 -0.6020  1.1277  0.4128
 3840SOL    HW222980   1.288   0.935   8.444  1.8983 -0.3472 -0.6318
 3841SOL     OW22981   0.966   0.955  10.178 -0.3304  0.5606  0.0554
 3841SOL    HW122982   0.910   0.974  10.102 -1.8055 -1.9413  0.5166
 3841SOL    HW222983   0.917   0.997  10.248  2.2834  2.7839  0.5445
 3842SOL     OW22984   2.596   1.745   6.078  0.4143 -0.6763 -0.5859
 3842SOL    HW122985   2.501   1.734   6.076  0.1132  1.9365  0.0109
 3842SOL    HW222986   2.617   1.834   6.103 -2.6393  0.0646 -0.6882
 3843SOL     OW22987   3.227   3.224   7.125  0.0145 -0.2017 -0.0306
 3843SOL    HW122988   3.262   3.179   7.202 -0.2804 -0.2878  0.0512
 3843SOL    HW222989   3.135   3.201   7.118 -0.2849  1.4319 -1.4420
 3844SOL     OW22990   4.484   4.264  16.824  0.2223  0.9542  0.1018
 3844SOL    HW122991   4.564   4.303  16.788  0.2697  0.9007  0.1495
 3844SOL    HW222992   4.414   4.291  16.765 -1.6298  1.0853  2.3706
 3845SOL     OW22993   2.012   1.945   6.673 -1.0719 -0.6864  0.7113
 3845SOL    HW122994   2.076   1.886   6.635 -0.4362  0.8368 -0.5921
 3845SOL    HW222995   2.009   2.012   6.605  0.9397  1.6473  2.9355
 3846SOL     OW22996   4.281   2.202   3.397  0.2780 -0.0814 -0.0815
 3846SOL    HW122997   4.267   2.292   3.426 -0.9629 -0.5123  0.6807
 3846SOL    HW222998   4.369   2.207   3.359  0.5949  1.9732  0.9444
 3847SOL     OW22999   0.126   0.636   8.036 -0.3170 -0.0092 -0.1805
 3847SOL    HW123000   0.051   0.593   8.077  0.0981  0.1490  0.7505
 3847SOL    HW223001   0.172   0.673   8.112  0.4546  0.2692 -0.7870
 3848SOL     OW23002   2.345   1.329   3.903  0.0921  0.0511 -0.3017
 3848SOL    HW123003   2.277   1.374   3.854  0.5858  1.2416  0.1117
 3848SOL    HW223004   2.290   1.306   3.978  2.3372 -0.9550  1.0366
 3849SOL     OW23005   0.945   3.616  15.721 -0.2809  0.2531  0.8138
 3849SOL    HW123006   0.913   3.695  15.763 -1.3627 -0.1744  0.7976
 3849SOL    HW223007   0.917   3.632  15.631  0.5309  0.6402  0.6314
 3850SOL     OW23008   2.233   3.286  11.221 -0.2132 -0.1095  0.1567
 3850SOL    HW123009   2.157   3.285  11.163  0.4553  1.0717 -0.7245
 3850SOL    HW223010   2.251   3.192  11.215  1.3486  0.3424 -2.0540
 3851SOL     OW23011   3.616   3.148  12.599 -0.3770 -0.1594  0.2533
 3851SOL    HW123012   3.528   3.111  12.600 -1.1649  1.7293  0.1857
 3851SOL    HW223013   3.613   3.206  12.676 -2.9498  2.0394 -1.5220
 3852SOL     OW23014   3.714   0.200  11.350 -0.1680  0.2386 -0.4656
 3852SOL    HW123015   3.635   0.249  11.328 -0.0773  0.5948  0.0000
 3852SOL    HW223016   3.702   0.198  11.445 -1.9648 -1.7119 -0.7266
 3853SOL     OW23017   1.514   2.655   3.625 -0.1303  0.1737  0.3506
 3853SOL    HW123018   1.422   2.662   3.647  0.1085  0.3378  1.3011
 3853SOL    HW223019   1.517   2.603   3.545 -0.5808  0.0715  0.4013
 3854SOL     OW23020   2.094   3.787  17.664  0.3465  0.5104 -0.5641
 3854SOL    HW123021   2.071   3.854  17.600  2.1338 -1.6396 -3.4608
 3854SOL    HW223022   2.187   3.796  17.680  0.2870 -1.4596  1.0186
 3855SOL     OW23023   4.090   0.729   0.465 -0.2279  0.0788  0.2516
 3855SOL    HW123024   4.029   0.668   0.507  0.5488 -0.8100  0.1186
 3855SOL    HW223025   4.114   0.777   0.544 -1.9993 -0.6273  1.2373
 3856SOL     OW23026   4.444   0.903   8.790  0.4470 -0.0732 -0.4301
 3856SOL    HW123027   4.362   0.912   8.838 -1.3236  0.6674 -3.5651
 3856SOL    HW223028   4.445   0.971   8.722  2.0741 -1.6864 -2.0059
 3857SOL     OW23029   4.129   3.076   7.614  0.3705  0.0430 -0.2622
 3857SOL    HW123030   4.201   3.065   7.676 -0.0101  1.4615  0.4510
 3857SOL    HW223031   4.102   2.990   7.583 -3.8178  0.6088  1.7724
 3858SOL     OW23032   1.988   3.374   4.667 -0.2107 -0.2370  0.7096
 3858SOL    HW123033   1.963   3.304   4.607 -2.3545  0.9333  0.2309
 3858SOL    HW223034   2.065   3.331   4.704 -1.0579 -0.7428  1.8892
 3859SOL     OW23035   2.019   3.558   3.851  0.4084 -0.1406 -0.1252
 3859SOL    HW123036   2.097   3.518   3.891  0.7014  2.4346  1.8254
 3859SOL    HW223037   1.988   3.485   3.798 -1.1638  0.3469  0.1378
 3860SOL     OW23038   2.637   0.831   0.498 -0.2463 -0.0869  0.1042
 3860SOL    HW123039   2.586   0.753   0.522  1.1488 -0.6384  1.2382
 3860SOL    HW223040   2.568   0.898   0.499 -1.3602 -1.2134 -0.7855
 3861SOL     OW23041   3.628   0.249   4.846  0.4537 -0.1689  0.0422
 3861SOL    HW123042   3.556   0.308   4.823 -0.2303 -0.7221  0.7551
 3861SOL    HW223043   3.687   0.275   4.776 -1.3499  2.5778 -0.4740
 3862SOL     OW23044   1.193   2.087  14.953  0.3376  0.1308  0.3205
 3862SOL    HW123045   1.165   2.124  15.037 -1.0797 -0.8983  0.3099
 3862SOL    HW223046   1.208   1.996  14.978  3.8427  0.6624  0.1638
 3863SOL     OW23047   3.157   4.573   8.302 -0.3238  0.2170 -0.2153
 3863SOL    HW123048   3.213   4.570   8.379  3.3340  2.9071 -2.7968
 3863SOL    HW223049   3.126   4.655   8.339  0.1936  0.0759  0.5109
 3864SOL     OW23050   2.650   2.488   9.741 -0.0322 -0.4915 -0.5038
 3864SOL    HW123051   2.706   2.417   9.773  0.4191  0.2713  0.3539
 3864SOL    HW223052   2.607   2.524   9.818 -0.5655 -0.6890 -0.7098
 3865SOL     OW23053   1.652   2.407   1.541 -0.0013 -0.0023 -0.2640
 3865SOL    HW123054   1.703   2.371   1.614 -0.1396  0.5625  0.1062
 3865SOL    HW223055   1.673   2.350   1.467 -1.2810 -0.7710 -0.0444
 3866SOL     OW23056   3.988   4.267  15.134 -0.2078 -0.2815 -0.1858
 3866SOL    HW123057   3.942   4.345  15.166  0.1780 -0.5109  0.9145
 3866SOL    HW223058   4.072   4.285  15.175  0.6647 -2.3555 -1.0685
 3867SOL     OW23059   3.076   2.564   4.875 -0.4736 -0.0015 -0.1105
 3867SOL    HW123060   3.071   2.621   4.951  1.1066 -1.7007  1.2622
 3867SOL    HW223061   3.099   2.622   4.802  1.6003  1.3410  1.6073
 3868SOL     OW23062   1.921   3.458   8.362  0.3058  0.0935 -0.0961
 3868SOL    HW123063   1.868   3.517   8.416  2.2191  0.4770  1.3888
 3868SOL    HW223064   1.963   3.403   8.429 -0.4271  1.3177  1.3786
 3869SOL     OW23065   4.483   1.841   8.668  0.3520 -0.1253 -0.3709
 3869SOL    HW123066   4.479   1.921   8.615 -1.2998 -0.4130 -0.6663
 3869SOL    HW223067   4.440   1.870   8.748  0.0719  0.6951 -0.8200
 3870SOL     OW23068   0.411   0.264  13.924  0.2807  0.1350 -0.6128
 3870SOL    HW123069   0.368   0.348  13.942  1.8467  0.6097  1.0117
 3870SOL    HW223070   0.465   0.258  14.003 -1.7661  0.1718  0.7980
 3871SOL     OW23071   3.595   3.805   8.592 -0.4703  0.0918 -0.0472
 3871SOL    HW123072   3.515   3.796   8.643 -0.9304  0.5818 -0.6827
 3871SOL    HW223073   3.632   3.888   8.623 -0.2685  0.1495 -0.4418
 3872SOL     OW23074   2.147   4.532   8.142 -0.2825  0.2743 -0.3357
 3872SOL    HW123075   2.172   4.469   8.074 -2.0276 -0.3410 -0.3964
 3872SOL    HW223076   2.179   4.496   8.225 -0.4997 -0.0290 -0.3855
 3873SOL     OW23077   2.645   0.877   4.785  0.4701  0.0619 -0.2144
 3873SOL    HW123078   2.644   0.928   4.866 -0.2426 -1.3708  0.6855
 3873SOL    HW223079   2.596   0.801   4.817 -0.0412  0.7257  0.5996
 3874SOL     OW23080   1.080   1.952   8.062 -0.3698  0.7482 -0.3756
 3874SOL    HW123081   1.157   1.898   8.043  0.1467  0.3067  2.9536
 3874SOL    HW223082   1.037   1.904   8.133  2.0528  0.3763  0.8321
 3875SOL     OW23083   4.003   4.068   7.391  0.0744  0.1332  0.0051
 3875SOL    HW123084   4.062   4.133   7.353  1.0809 -0.4276  0.6064
 3875SOL    HW223085   3.978   4.103   7.477  1.4658 -0.6087  0.7098
 3876SOL     OW23086   0.604   1.168  13.637 -0.7298 -0.1293  0.1789
 3876SOL    HW123087   0.542   1.141  13.571 -1.2476 -0.3347  0.7491
 3876SOL    HW223088   0.544   1.214  13.696 -1.2214 -1.0286  0.3626
 3877SOL     OW23089   1.016   0.913   2.681  0.0553  0.0549 -0.1258
 3877SOL    HW123090   1.101   0.937   2.720 -0.2758 -1.1766  1.3903
 3877SOL    HW223091   1.037   0.824   2.651  1.0724  0.8556 -1.7652
 3878SOL     OW23092   0.995   0.430  16.962 -0.5110  0.0862 -0.1163
 3878SOL    HW123093   0.924   0.491  16.942 -0.3122  0.4205  0.2207
 3878SOL    HW223094   1.059   0.455  16.896 -1.0826  1.8541 -0.0119
 3879SOL     OW23095   0.615   4.621  13.913 -0.0218  0.0988  0.0362
 3879SOL    HW123096   0.590   4.562  13.841  0.8658 -0.5564  0.2602
 3879SOL    HW223097   0.588   4.708  13.885  0.8759  0.7576  1.2055
 3880SOL     OW23098   3.021   1.893  14.307  0.0425 -0.1680 -0.2602
 3880SOL    HW123099   3.037   1.981  14.341 -1.6675  0.6102 -1.4778
 3880SOL    HW223100   3.060   1.830  14.368  0.6930  0.6643  0.1833
 3881SOL     OW23101   2.642   0.164  12.979  0.4217 -0.6525 -0.1500
 3881SOL    HW123102   2.575   0.136  12.916  1.0950 -0.0459 -1.1400
 3881SOL    HW223103   2.608   0.252  12.999  0.7084 -0.6840  0.4679
 3882SOL     OW23104   1.500   3.221  15.826 -0.4571 -0.3525  0.1362
 3882SOL    HW123105   1.560   3.156  15.864  1.1561  1.9672  1.6009
 3882SOL    HW223106   1.473   3.187  15.741  0.9393 -1.6739  0.2248
 3883SOL     OW23107   3.421   0.702   4.570  0.0521  0.2078 -0.3435
 3883SOL    HW123108   3.363   0.725   4.497  0.9722 -1.0710 -1.4608
 3883SOL    HW223109   3.369   0.709   4.651  1.6669  0.9055  0.6270
 3884SOL     OW23110   0.165   0.559   2.716  0.4619 -0.1138 -0.6685
 3884SOL    HW123111   0.133   0.644   2.687  0.6302  0.7130  1.5872
 3884SOL    HW223112   0.185   0.589   2.804 -2.8374 -2.0189  0.7062
 3885SOL     OW23113   1.053   2.579   6.160  0.0699 -0.4456 -0.2344
 3885SOL    HW123114   1.106   2.504   6.137 -1.7914 -1.9213  0.3086
 3885SOL    HW223115   1.072   2.574   6.254  1.8700 -1.4112 -0.6606
 3886SOL     OW23116   0.377   3.039   5.998  0.0834 -0.6277 -0.0543
 3886SOL    HW123117   0.367   2.957   6.044 -0.5039 -0.2297  0.5236
 3886SOL    HW223118   0.469   3.064   5.995 -1.2393  4.1374 -2.4145
 3887SOL     OW23119   0.738   0.533   7.670  0.4825 -0.3026  0.1619
 3887SOL    HW123120   0.826   0.497   7.666  0.9062  0.9871 -2.0771
 3887SOL    HW223121   0.710   0.508   7.582 -0.7173 -2.0003  1.0331
 3888SOL     OW23122   0.377   3.498  13.443 -0.2236 -0.0127 -0.8282
 3888SOL    HW123123   0.311   3.480  13.376 -0.8374 -1.3374  0.1272
 3888SOL    HW223124   0.345   3.578  13.484  1.5763 -0.3673  1.2403
 3889SOL     OW23125   3.602   0.450   0.626  0.1241  0.2648  0.1658
 3889SOL    HW123126   3.571   0.488   0.544  0.8199  4.2753  1.7686
 3889SOL    HW223127   3.579   0.358   0.611 -1.2708  0.5070  0.8480
 3890SOL     OW23128   3.751   3.655   6.648  0.1525  0.4028  0.0975
 3890SOL    HW123129   3.708   3.584   6.696 -0.6179  0.6298 -0.2680
 3890SOL    HW223130   3.709   3.726   6.695  3.1455  1.0398  1.8332
 3891SOL     OW23131   3.974   4.110   7.989 -0.3530 -0.2156  0.5356
 3891SOL    HW123132   3.987   4.064   7.906  1.1234 -0.8324  1.1047
 3891SOL    HW223133   3.903   4.064   8.034 -0.4353  1.5939  2.2212
 3892SOL     OW23134   4.338   3.070   0.045 -0.6340 -0.5281 -0.0781
 3892SOL    HW123135   4.406   3.004   0.028 -1.0252 -0.5080 -1.7372
 3892SOL    HW223136   4.338   3.113  17.668 -0.5602  4.1740  2.2816
 3893SOL     OW23137   2.559   1.283   7.970  1.2235 -0.6932 -0.4772
 3893SOL    HW123138   2.600   1.318   8.049 -0.5070  3.1389 -1.2824
 3893SOL    HW223139   2.489   1.344   7.946  0.2651 -1.1952  1.0911
 3894SOL     OW23140   2.928   3.090  15.974  0.3946 -0.1591 -0.3122
 3894SOL    HW123141   2.870   3.158  15.940  0.1559  0.5487  1.5129
 3894SOL    HW223142   2.910   3.022  15.909 -1.9263  0.4646 -0.3030
 3895SOL     OW23143   1.250   3.710   4.267 -0.1483 -0.1298 -0.6291
 3895SOL    HW123144   1.242   3.639   4.203 -1.7118  1.1134 -1.8091
 3895SOL    HW223145   1.269   3.789   4.216  2.6630 -1.2183 -1.2746
 3896SOL     OW23146   0.359   3.066   0.848 -0.1878  0.1588 -0.3407
 3896SOL    HW123147   0.387   3.036   0.934  1.7224  0.4845 -0.8643
 3896SOL    HW223148   0.284   3.120   0.873  0.4579  1.2773 -0.8311
 3897SOL     OW23149   3.380   0.776   9.419 -0.3101 -0.4742  0.1429
 3897SOL    HW123150   3.333   0.849   9.379  0.3764  0.5608  1.2544
 3897SOL    HW223151   3.448   0.754   9.354 -0.1340 -0.1348  0.2106
 3898SOL     OW23152   0.868   2.099   3.149  0.5914 -0.3452  0.3140
 3898SOL    HW123153   0.957   2.066   3.165  0.4237 -0.4942  0.9359
 3898SOL    HW223154   0.822   2.021   3.120 -1.5656  1.0830 -0.0630
 3899SOL     OW23155   1.163   0.449   5.754  0.3736  0.7011  0.3847
 3899SOL    HW123156   1.197   0.538   5.762  1.7521  0.0072  2.2614
 3899SOL    HW223157   1.129   0.432   5.843 -0.3009 -3.6682 -0.6945
 3900SOL     OW23158   3.442   3.819   4.452  0.3179  0.1133  0.4186
 3900SOL    HW123159   3.353   3.794   4.478  1.0473 -2.1846  0.7097
 3900SOL    HW223160   3.437   3.790   4.361  0.3760  0.7480  0.2093
 3901SOL     OW23161   4.418   4.604   7.995  0.3769  0.5926 -0.1163
 3901SOL    HW123162   4.495   4.573   7.948  0.3513  1.2790 -0.6116
 3901SOL    HW223163   4.443   4.690   8.030 -0.4619  0.1224  1.5997
 3902SOL     OW23164   2.317   0.472   2.397  0.4096  0.2829 -0.0384
 3902SOL    HW123165   2.308   0.431   2.312  2.4214 -1.6692  0.6712
 3902SOL    HW223166   2.304   0.398   2.457  1.2146 -0.3201 -0.6017
 3903SOL     OW23167   1.823   3.538   3.409 -0.4507  0.1040  0.1589
 3903SOL    HW123168   1.795   3.626   3.433  1.1623  0.8420 -0.7163
 3903SOL    HW223169   1.862   3.545   3.322  2.5876  0.2734  1.5153
 3904SOL     OW23170   4.073   3.419   7.214  0.1774  0.4949 -0.4968
 3904SOL    HW123171   4.083   3.514   7.213 -0.8109  0.6019  0.0317
 3904SOL    HW223172   4.129   3.396   7.288  1.4746  1.4204 -1.1874
 3905SOL     OW23173   1.931   1.031  11.492  0.4020 -0.0983  0.0528
 3905SOL    HW123174   2.015   1.076  11.502 -0.1821  1.0750 -0.3553
 3905SOL    HW223175   1.889   1.034  11.578  2.6998  0.8386  1.1336
 3906SOL     OW23176   3.806   3.497  13.902 -0.0830 -0.0574 -0.1543
 3906SOL    HW123177   3.829   3.504  13.810 -0.5178  0.8620 -0.1889
 3906SOL    HW223178   3.885   3.456  13.938 -0.0752 -1.0197 -1.2864
 3907SOL     OW23179   0.346   0.414   9.441 -0.0284 -0.2686  0.4904
 3907SOL    HW123180   0.361   0.321   9.457  4.0841  0.0979 -1.3408
 3907SOL    HW223181   0.418   0.441   9.384  0.2501  0.7397  1.3073
 3908SOL     OW23182   1.395   1.471   6.232  0.4802 -0.1967  0.7599
 3908SOL    HW123183   1.400   1.393   6.288 -0.6914 -0.6418  0.2259
 3908SOL    HW223184   1.488   1.489   6.216  0.2689 -0.7571 -1.0506
 3909SOL     OW23185   2.917   4.265  16.789 -0.7925  0.4293 -0.0474
 3909SOL    HW123186   2.964   4.339  16.752  0.6799 -1.3099 -1.6205
 3909SOL    HW223187   2.825   4.277  16.764 -0.8504 -3.3698 -1.5245
 3910SOL     OW23188   4.040   3.321   6.837  0.0238  0.2383  0.1121
 3910SOL    HW123189   3.946   3.324   6.822  0.3018  0.7720 -1.5624
 3910SOL    HW223190   4.060   3.266   6.761 -0.3047 -1.5845  1.3551
 3911SOL     OW23191   2.157   2.012  14.130  0.4179 -0.1722  0.0905
 3911SOL    HW123192   2.143   2.107  14.133 -0.5735 -0.3027 -0.2780
 3911SOL    HW223193   2.080   1.982  14.178 -0.1672 -1.5623 -1.6906
 3912SOL     OW23194   3.009   1.863   3.664  0.4524 -0.4579  0.2784
 3912SOL    HW123195   2.958   1.795   3.619  0.4377 -0.4744  0.3193
 3912SOL    HW223196   3.096   1.825   3.661 -0.2082 -1.9258 -0.5521
 3913SOL     OW23197   4.284   0.022  12.740 -0.2556 -0.3879  0.1303
 3913SOL    HW123198   4.326   4.664  12.755  0.6360  0.0933  0.3873
 3913SOL    HW223199   4.355   0.084  12.724 -1.4706  0.9300 -0.1512
 3914SOL     OW23200   2.666   4.546   0.170  0.4791  0.4247 -0.1238
 3914SOL    HW123201   2.578   4.547   0.209  0.4692 -0.1000 -0.1374
 3914SOL    HW223202   2.706   4.461   0.188 -1.3727 -0.6289 -0.9094
 3915SOL     OW23203   2.495   3.226   2.004  0.4808  0.6030  0.4032
 3915SOL    HW123204   2.561   3.267   2.060 -0.1897  0.6391  1.1643
 3915SOL    HW223205   2.422   3.219   2.067 -2.0787 -0.5222 -2.6851
 3916SOL     OW23206   2.653   3.893   6.675 -0.3512  0.0420 -0.0633
 3916SOL    HW123207   2.693   3.838   6.742 -0.8580 -0.5507 -0.2496
 3916SOL    HW223208   2.655   3.976   6.723  1.1715  0.0445 -0.1402
 3917SOL     OW23209   4.281   2.535   4.574  0.3701 -0.4044  0.4703
 3917SOL    HW123210   4.285   2.516   4.480 -1.6740 -0.4689  0.4049
 3917SOL    HW223211   4.277   2.631   4.571  0.2431 -0.4085  0.4901
 3918SOL     OW23212   4.521   1.346   3.838  0.3965 -0.3403 -0.2752
 3918SOL    HW123213   4.448   1.289   3.864 -0.8749  1.8253  0.9031
 3918SOL    HW223214   4.560   1.353   3.925  0.4517 -0.1009 -0.3185
 3919SOL     OW23215   3.129   0.025   9.395 -0.8808  0.3318  0.3810
 3919SOL    HW123216   3.060   0.059   9.338 -1.8945 -0.0297  1.4010
 3919SOL    HW223217   3.164   0.107   9.431 -3.6486  1.0616  1.4248
 3920SOL     OW23218   0.606   3.439  13.597 -0.1234  0.2075  0.6176
 3920SOL    HW123219   0.523   3.456  13.553 -0.0727 -2.7393 -0.6419
 3920SOL    HW223220   0.585   3.489  13.676  0.3882  1.2370  0.0953
 3921SOL     OW23221   1.951   0.989   2.732 -0.3483 -0.0021 -0.1982
 3921SOL    HW123222   1.932   0.944   2.814  0.8065 -0.7257 -0.3275
 3921SOL    HW223223   1.945   0.919   2.668 -0.9662  0.7674 -0.9756
 3922SOL     OW23224   1.551   2.483   0.935  0.9717  0.2592  0.3493
 3922SOL    HW123225   1.510   2.419   0.876  1.0086 -0.0310  0.6433
 3922SOL    HW223226   1.482   2.550   0.926 -0.0044 -0.2431  4.3468
 3923SOL     OW23227   1.727   3.009  17.664 -0.2952 -0.3005 -0.1457
 3923SOL    HW123228   1.755   2.962   0.034 -0.7226  2.7735  1.8760
 3923SOL    HW223229   1.688   2.933  17.622 -1.5827  0.6928 -0.7452
 3924SOL     OW23230   1.661   2.793   8.225  0.2364  0.0642  0.3662
 3924SOL    HW123231   1.605   2.750   8.160 -1.0030 -0.1720  1.6015
 3924SOL    HW223232   1.607   2.867   8.253  0.5000  0.1544  0.6411
 3925SOL     OW23233   4.041   3.250  12.123  0.1876 -0.3458 -0.2457
 3925SOL    HW123234   4.097   3.315  12.165  0.1259 -0.4852  0.0573
 3925SOL    HW223235   3.955   3.264  12.163 -0.6111 -1.0998 -1.7308
 3926SOL     OW23236   1.673   2.890   3.961 -0.8002 -0.0049  0.2518
 3926SOL    HW123237   1.674   2.886   3.865  2.7579  0.6422  0.2549
 3926SOL    HW223238   1.760   2.858   3.986 -0.4730  0.0708 -0.7662
 3927SOL     OW23239   3.845   2.794   6.044  0.0611  0.3312  0.2027
 3927SOL    HW123240   3.888   2.865   5.997  1.6882 -0.9505 -0.2721
 3927SOL    HW223241   3.918   2.733   6.026  0.0388  1.1034 -2.4582
 3928SOL     OW23242   3.400   3.394   8.366  0.5790  0.2373  0.0356
 3928SOL    HW123243   3.327   3.391   8.304  0.6253 -1.5512  0.0800
 3928SOL    HW223244   3.423   3.487   8.364 -0.1363  0.4075 -0.1600
 3929SOL     OW23245   4.220   2.811   4.663  0.7131 -0.1666 -0.0696
 3929SOL    HW123246   4.238   2.742   4.727  0.6576 -0.1893 -0.0788
 3929SOL    HW223247   4.136   2.781   4.629 -0.0875 -0.4613  2.2071
 3930SOL     OW23248   4.400   3.833  10.609  0.3739 -0.5657  0.0499
 3930SOL    HW123249   4.438   3.881  10.683  2.1193  0.8315 -1.7541
 3930SOL    HW223250   4.394   3.750  10.656  0.2361 -2.0200 -2.5477
 3931SOL     OW23251   3.346   3.333   5.366  0.3186  0.3625 -0.0744
 3931SOL    HW123252   3.265   3.342   5.316  0.7818  2.8069 -0.3615
 3931SOL    HW223253   3.353   3.415   5.415  1.4131  0.2338 -0.0108
 3932SOL     OW23254   2.840   0.155   4.591  0.0527  0.2469  0.5376
 3932SOL    HW123255   2.764   0.206   4.619  2.0960  2.9945  0.9706
 3932SOL    HW223256   2.902   0.216   4.551  0.0889  1.4799  2.4774
 3933SOL     OW23257   4.309   0.324   4.356 -0.6774  0.3489 -0.4137
 3933SOL    HW123258   4.347   0.403   4.393 -2.4575  1.1467 -0.2876
 3933SOL    HW223259   4.355   0.302   4.275 -0.1487  2.8304 -0.7829
 3934SOL     OW23260   0.054   0.826  10.677 -0.4443  0.7175  0.3277
 3934SOL    HW123261   4.713   0.813  10.743  0.0899 -0.9039  0.5442
 3934SOL    HW223262   0.042   0.749  10.622  1.4446 -0.0923  1.0456
 3935SOL     OW23263   3.132   3.653   4.835  0.1399 -0.1547  0.2766
 3935SOL    HW123264   3.206   3.596   4.854 -0.9337 -0.9811  2.0110
 3935SOL    HW223265   3.149   3.735   4.881  0.3413  0.4813 -0.9460
 3936SOL     OW23266   4.193   3.837   4.286  0.4321  0.1614 -0.2303
 3936SOL    HW123267   4.188   3.910   4.224  1.3738  0.4657  0.0548
 3936SOL    HW223268   4.117   3.788   4.256  0.2633  0.6608 -0.6186
 3937SOL     OW23269   3.689   0.496  11.394  0.2192  0.0490 -0.1350
 3937SOL    HW123270   3.695   0.490  11.489 -0.8356  3.1549  0.1181
 3937SOL    HW223271   3.610   0.450  11.362  0.6234 -1.8534  1.5884
 3938SOL     OW23272   2.734   0.361   9.354  0.3110  0.2460  0.3901
 3938SOL    HW123273   2.682   0.301   9.408  0.2161 -0.4064 -0.4162
 3938SOL    HW223274   2.698   0.442   9.388 -0.6430  0.8009 -1.9675
 3939SOL     OW23275   0.420   4.378   8.955  0.0771  0.0730 -0.0993
 3939SOL    HW123276   0.399   4.306   9.014 -0.8560 -1.1346 -1.9261
 3939SOL    HW223277   0.334   4.399   8.920  0.0595 -0.5312 -0.4165
 3940SOL     OW23278   3.521   3.986  12.157  0.5857  0.9589 -0.6032
 3940SOL    HW123279   3.488   3.975  12.247  0.7951  0.1493 -0.6179
 3940SOL    HW223280   3.509   3.899  12.119  0.1793  0.3511  0.9013
 3941SOL     OW23281   3.957   0.704  13.881 -0.1599  0.1895  0.0611
 3941SOL    HW123282   3.896   0.636  13.853 -0.6963  0.4337  0.6434
 3941SOL    HW223283   4.040   0.691  13.836  0.9404  1.1608  1.7881
 3942SOL     OW23284   1.273   3.362   7.994  0.1146 -0.3917  0.2630
 3942SOL    HW123285   1.225   3.353   7.911  0.2537 -0.1338  0.1542
 3942SOL    HW223286   1.216   3.424   8.040  1.0388 -0.3739  1.3607
 3943SOL     OW23287   0.146   0.937   3.766  0.0118 -0.1572  0.3185
 3943SOL    HW123288   0.141   0.860   3.710 -3.1514  0.0779  0.2800
 3943SOL    HW223289   0.233   0.974   3.748 -0.0545 -0.4379 -0.5404
 3944SOL     OW23290   1.518   1.863  17.550  0.2564 -0.5067 -0.4825
 3944SOL    HW123291   1.587   1.836  17.611  0.5154  4.0965  1.3272
 3944SOL    HW223292   1.566   1.927  17.496  0.8635  0.7395  1.5221
 3945SOL     OW23293   0.009   4.335   0.937  0.0649  0.7624  0.2176
 3945SOL    HW123294   4.705   4.409   0.989 -0.0442  0.3475  0.7434
 3945SOL    HW223295   0.028   4.374   0.852  0.7289  1.2304  0.5742
 3946SOL     OW23296   3.452   4.526   6.637 -0.2949 -0.0696 -0.2360
 3946SOL    HW123297   3.507   4.514   6.714 -1.2650 -0.2963  0.4223
 3946SOL    HW223298   3.378   4.469   6.655  0.7448 -1.5495 -0.6623
 3947SOL     OW23299   0.060   0.733   9.070  0.6640  0.4351 -0.4055
 3947SOL    HW123300   0.038   0.688   9.152 -0.8026 -0.2720 -1.1814
 3947SOL    HW223301   0.016   0.817   9.081 -2.7391 -1.6367  1.8572
 3948SOL     OW23302   2.872   1.308  13.396  0.3398 -0.3018  0.0225
 3948SOL    HW123303   2.800   1.356  13.356  0.5713 -0.6996 -0.8810
 3948SOL    HW223304   2.817   1.253  13.451 -0.0649 -2.2638 -2.3507
 3949SOL     OW23305   2.371   4.394   9.170  0.0377  0.6277  0.0854
 3949SOL    HW123306   2.309   4.449   9.219 -0.7788  0.7145 -1.0327
 3949SOL    HW223307   2.438   4.388   9.238 -1.2230  2.6747  1.5388
 3950SOL     OW23308   3.625   1.960   5.556 -0.0591 -0.8857  0.1201
 3950SOL    HW123309   3.709   1.949   5.599  0.0837 -1.9663 -0.4395
 3950SOL    HW223310   3.620   1.884   5.498 -0.4813  0.3728 -1.4762
 3951SOL     OW23311   2.202   2.588   3.534 -0.1556  0.0716 -0.2417
 3951SOL    HW123312   2.120   2.620   3.573  0.1038  1.0860 -0.5453
 3951SOL    HW223313   2.237   2.672   3.507 -1.1459  1.3139  2.3442
 3952SOL     OW23314   4.607   2.990   7.264 -0.1406 -0.2843 -0.4229
 3952SOL    HW123315   4.540   2.999   7.197  0.7089 -1.8544 -1.4814
 3952SOL    HW223316   4.656   3.072   7.262 -0.0494 -0.3517 -1.0643
 3953SOL     OW23317   0.038   1.821  11.067  0.1624  0.2038  0.0966
 3953SOL    HW123318   0.096   1.897  11.069 -1.9867  1.7117  3.7129
 3953SOL    HW223319   0.068   1.775  11.145 -0.4935  0.7487  0.6680
 3954SOL     OW23320   2.023   1.248  16.276  0.0698  0.5693 -0.3887
 3954SOL    HW123321   2.023   1.201  16.359  1.9989  2.6327  0.7592
 3954SOL    HW223322   2.057   1.172  16.229 -1.1415 -0.2745  0.0924
 3955SOL     OW23323   4.188   4.668   7.457  0.2804  0.1752 -0.2080
 3955SOL    HW123324   4.248   4.595   7.465  0.4801  0.4678  0.9247
 3955SOL    HW223325   4.196   4.681   7.363 -0.9420  0.1133 -0.3259
 3956SOL     OW23326   2.769   2.681  11.307  0.0564 -0.0105 -0.4191
 3956SOL    HW123327   2.775   2.743  11.380  1.2722  0.0015 -0.5226
 3956SOL    HW223328   2.738   2.739  11.238  2.1119  1.3710 -0.1891
 3957SOL     OW23329   3.927   3.465  12.859 -0.0765 -0.4749  0.3836
 3957SOL    HW123330   3.900   3.404  12.928  2.3307 -0.0102  1.7191
 3957SOL    HW223331   3.886   3.537  12.906  1.9130  0.1463  1.1349
 3958SOL     OW23332   1.945   4.058   3.371  0.4108  0.1900 -0.0553
 3958SOL    HW123333   1.965   4.131   3.313  2.8400 -1.1389 -0.9051
 3958SOL    HW223334   2.013   4.058   3.438  0.8668 -2.1653 -0.4970
 3959SOL     OW23335   3.864   1.603   9.427 -0.1531  0.0183 -0.1292
 3959SOL    HW123336   3.956   1.582   9.441 -0.0181  0.7047  0.0357
 3959SOL    HW223337   3.828   1.514   9.426  1.7070 -0.7401  1.0324
 3960SOL     OW23338   2.774   2.549  15.722 -0.3604 -0.1105  0.6455
 3960SOL    HW123339   2.868   2.546  15.738 -0.5863 -2.7780  1.4517
 3960SOL    HW223340   2.744   2.460  15.705  2.7295 -1.1555  0.6115
 3961SOL     OW23341   4.221   2.445   6.953  1.1792 -0.1055 -0.4229
 3961SOL    HW123342   4.264   2.483   7.029 -1.9562 -1.8081  2.1755
 3961SOL    HW223343   4.275   2.368   6.932  0.3611 -0.8437  0.2015
 3962SOL     OW23344   2.423   1.893   2.320  0.3668  0.4150  0.2799
 3962SOL    HW123345   2.383   1.807   2.310 -0.3958  0.9877 -1.5414
 3962SOL    HW223346   2.510   1.888   2.280  0.4254  1.1195  0.3224
 3963SOL     OW23347   1.365   1.323   8.253 -0.2898 -0.4345 -0.4404
 3963SOL    HW123348   1.369   1.243   8.199 -0.8580  0.3287 -1.6134
 3963SOL    HW223349   1.368   1.280   8.338 -1.0819  0.0918 -0.1560
 3964SOL     OW23350   3.265   4.646   0.249 -0.1325  0.4326 -0.8408
 3964SOL    HW123351   3.180   4.602   0.239  0.6010 -0.6226 -2.4668
 3964SOL    HW223352   3.260   4.725   0.196  1.2979 -0.5719 -2.4989
 3965SOL     OW23353   0.159   1.792  14.468 -0.3647  0.2225  0.4968
 3965SOL    HW123354   0.193   1.778  14.380 -0.7184  0.6176  0.2960
 3965SOL    HW223355   0.188   1.707  14.501 -0.0001  0.9130  1.9461
 3966SOL     OW23356   2.920   4.682   7.839 -0.1035  0.7588 -0.1244
 3966SOL    HW123357   2.973   4.649   7.911 -1.6152  0.1642  0.7139
 3966SOL    HW223358   2.865   0.018   7.887 -0.8188 -1.3654  1.8509
 3967SOL     OW23359   4.487   2.260  12.255  0.0909  0.0117  0.4246
 3967SOL    HW123360   4.402   2.305  12.252  1.1451  1.8125 -2.5702
 3967SOL    HW223361   4.472   2.201  12.181  2.9331  1.4107 -1.2946
 3968SOL     OW23362   3.526   3.460   8.669 -0.2781 -0.4221  0.2226
 3968SOL    HW123363   3.588   3.390   8.650  1.5604  1.4163 -0.6372
 3968SOL    HW223364   3.568   3.534   8.625  0.1469 -0.7135  0.1339
 3969SOL     OW23365   2.080   2.050   3.966 -0.1616  0.7793  0.3342
 3969SOL    HW123366   2.095   1.961   3.999  0.4474  0.9052  0.3917
 3969SOL    HW223367   2.164   2.089   3.944 -0.3494 -0.4593 -2.5899
 3970SOL     OW23368   2.618   1.311   4.059  0.4238  0.1371 -0.5173
 3970SOL    HW123369   2.545   1.287   4.003  1.3700  1.7243 -2.4554
 3970SOL    HW223370   2.619   1.406   4.048 -1.5721  0.3189  1.0011
 3971SOL     OW23371   0.587   1.635   2.141 -0.4174  0.1452 -0.2327
 3971SOL    HW123372   0.654   1.577   2.105 -0.9901  0.0351 -1.1088
 3971SOL    HW223373   0.644   1.684   2.201  0.5290  0.4479 -1.3826
 3972SOL     OW23374   4.430   1.496   6.748 -0.4395 -0.2649 -0.2060
 3972SOL    HW123375   4.408   1.444   6.825 -2.0672 -0.5895 -0.9009
 3972SOL    HW223376   4.487   1.563   6.784 -0.3382 -0.7984  0.6210
 3973SOL     OW23377   4.509   0.659   8.890 -0.2578  0.4661  0.2873
 3973SOL    HW123378   4.450   0.731   8.869 -2.0364 -1.3461 -0.9601
 3973SOL    HW223379   4.595   0.678   8.853  0.2460  0.8929  1.6448
 3974SOL     OW23380   3.988   2.503   3.892 -0.0337  0.2425  0.3590
 3974SOL    HW123381   3.998   2.534   3.802  0.8873 -2.8679 -0.5951
 3974SOL    HW223382   3.977   2.412   3.866 -1.3474  0.2147  0.9899
 3975SOL     OW23383   1.086   2.453   3.542 -0.0324  0.5183  0.4504
 3975SOL    HW123384   1.041   2.422   3.463 -1.6289 -0.9045  1.9119
 3975SOL    HW223385   1.012   2.440   3.602 -0.6761  1.6339 -0.1123
 3976SOL     OW23386   1.666   3.509   2.180  0.4289 -0.2585  0.1737
 3976SOL    HW123387   1.752   3.518   2.223  0.6913 -0.0049 -0.4073
 3976SOL    HW223388   1.638   3.601   2.182  0.6631 -0.1937  0.5164
 3977SOL     OW23389   2.225   0.608   3.145 -0.5190  0.0197  0.2417
 3977SOL    HW123390   2.243   0.660   3.067 -0.8684  2.2249  1.6409
 3977SOL    HW223391   2.314   0.617   3.179 -0.2852  1.7641 -0.8433
 3978SOL     OW23392   2.685   1.989   8.253  0.1981 -0.2197  0.1257
 3978SOL    HW123393   2.755   2.047   8.225  0.2478 -0.6644 -0.6733
 3978SOL    HW223394   2.603   2.036   8.234  1.6527  2.1529 -0.2502
 3979SOL     OW23395   4.341   3.792   5.424  0.6810 -0.4503  0.4341
 3979SOL    HW123396   4.407   3.833   5.478 -0.2474  2.6086 -0.7741
 3979SOL    HW223397   4.394   3.763   5.349 -0.6647 -1.3433 -0.1794
 3980SOL     OW23398   1.413   3.032   8.689  0.2858 -0.2337 -0.4270
 3980SOL    HW123399   1.486   3.084   8.656  0.4199  0.4275  0.9260
 3980SOL    HW223400   1.466   2.977   8.747  0.5166 -0.2939 -0.6934
 3981SOL     OW23401   1.250   2.150   2.879 -0.5609  0.3338 -0.3658
 3981SOL    HW123402   1.312   2.121   2.947  1.8630  0.8115 -2.3625
 3981SOL    HW223403   1.236   2.068   2.832  0.1671  1.0059 -1.7493
 3982SOL     OW23404   1.937   0.596  10.829  0.6339  0.8840 -0.1094
 3982SOL    HW123405   1.914   0.518  10.879  0.9831  1.0444  0.3088
 3982SOL    HW223406   1.995   0.643  10.890  0.1855 -0.2570  1.2058
 3983SOL     OW23407   4.528   2.264   9.867  0.0077 -0.4132 -0.3726
 3983SOL    HW123408   4.463   2.332   9.853  0.5546  0.3091  0.5847
 3983SOL    HW223409   4.532   2.238   9.775 -0.9214  1.0076 -0.8174
 3984SOL     OW23410   3.084   3.398   5.174 -0.2082  0.2763  0.0265
 3984SOL    HW123411   3.152   3.465   5.170  0.5399 -0.7213 -3.5472
 3984SOL    HW223412   3.068   3.415   5.267 -1.8265 -0.5166 -0.1172
 3985SOL     OW23413   3.791   1.657  10.138 -0.4242 -0.2290  0.5740
 3985SOL    HW123414   3.780   1.737  10.191  2.7150 -1.5775  3.2875
 3985SOL    HW223415   3.885   1.662  10.117 -0.6207 -0.4380 -0.3215
 3986SOL     OW23416   4.297   4.196   8.123 -0.3052 -0.2970 -0.0948
 3986SOL    HW123417   4.304   4.278   8.172 -1.3630  0.4964 -1.2599
 3986SOL    HW223418   4.213   4.197   8.077  0.1532 -0.3171 -0.9236
 3987SOL     OW23419   0.489   2.394   2.447  0.0845 -0.0320 -0.9414
 3987SOL    HW123420   0.409   2.443   2.463  0.1305 -0.6324  1.1044
 3987SOL    HW223421   0.458   2.309   2.417  2.3968 -0.7250 -1.4040
 3988SOL     OW23422   1.977   1.503   3.640  0.0086 -0.1010 -0.2609
 3988SOL    HW123423   1.964   1.555   3.560 -0.9676  0.4156  0.2263
 3988SOL    HW223424   2.048   1.444   3.614  0.1845 -0.4060  0.9430
 3989SOL     OW23425   3.706   3.150   4.104  0.2761  0.1271 -0.0597
 3989SOL    HW123426   3.665   3.200   4.175 -0.5576  1.7516 -1.6799
 3989SOL    HW223427   3.656   3.069   4.105 -0.3944  0.5002 -2.6338
 3990SOL     OW23428   0.188   4.628   9.659 -0.0189  0.1056  0.1430
 3990SOL    HW123429   0.114   4.670   9.703 -1.0699 -3.1175  1.4557
 3990SOL    HW223430   0.261   4.684   9.686 -1.1530  1.2916  0.7543
 3991SOL     OW23431   4.271   1.254   3.163  0.2535  0.1884 -0.8536
 3991SOL    HW123432   4.270   1.159   3.158 -1.1186  0.1939 -0.7220
 3991SOL    HW223433   4.347   1.275   3.218  0.1105 -0.2489 -0.4834
 3992SOL     OW23434   4.181   1.095   6.977  0.0368 -0.5323 -0.4542
 3992SOL    HW123435   4.141   1.060   7.057 -1.8974  2.3325 -0.1741
 3992SOL    HW223436   4.272   1.066   6.984 -0.1107 -1.3568 -2.0811
 3993SOL     OW23437   4.210   1.455  13.275  0.2036 -0.2104  0.4975
 3993SOL    HW123438   4.252   1.526  13.226  0.9096 -1.1376 -0.2348
 3993SOL    HW223439   4.290   1.405  13.289  0.1333 -0.2119  0.8898
 3994SOL     OW23440   0.912   1.589   2.355 -0.2975  0.0284  0.2775
 3994SOL    HW123441   0.980   1.526   2.383  0.5903  0.0482 -1.8753
 3994SOL    HW223442   0.829   1.556   2.390 -0.4103 -0.8530 -0.8220
 3995SOL     OW23443   0.405   2.302  10.619 -0.2644 -0.0225  0.5052
 3995SOL    HW123444   0.474   2.357  10.656  0.1316 -1.0079  1.2028
 3995SOL    HW223445   0.374   2.345  10.538  1.3959  0.4115  0.1002
 3996SOL     OW23446   0.044   2.137   0.817  0.0682 -0.4683 -0.2796
 3996SOL    HW123447   0.053   2.135   0.912 -0.2190  0.8082 -0.2209
 3996SOL    HW223448   0.046   2.233   0.807 -0.1375 -0.4678 -0.3217
 3997SOL     OW23449   1.130   1.311   6.623  0.1258 -0.1733 -0.5886
 3997SOL    HW123450   1.058   1.321   6.685  0.4386  1.7520 -0.5406
 3997SOL    HW223451   1.111   1.221   6.597  0.1823 -0.0430 -1.0763
 3998SOL     OW23452   1.301   1.709   6.724 -0.2514 -0.1134 -0.2636
 3998SOL    HW123453   1.247   1.785   6.747  0.2591  1.2936 -3.7777
 3998SOL    HW223454   1.288   1.707   6.630  0.9869  1.2917 -0.4653
 3999SOL     OW23455   3.461   1.560  15.212 -0.1890 -0.6783  0.5662
 3999SOL    HW123456   3.384   1.563  15.155  1.2531  2.7407 -1.1693
 3999SOL    HW223457   3.527   1.528  15.150  1.5478  0.7468  1.7099
 4000SOL     OW23458   0.539   0.479   4.983  0.2635 -0.6738  0.2812
 4000SOL    HW123459   0.595   0.407   5.012  2.1185  0.9236  0.6570
 4000SOL    HW223460   0.613   0.539   4.973  0.8980 -1.5331 -0.1507
 4001SOL     OW23461   1.377   1.902  11.458 -0.3423 -0.4878  0.3008
 4001SOL    HW123462   1.325   1.821  11.459 -0.9211 -0.1159  0.6543
 4001SOL    HW223463   1.331   1.951  11.389  0.2086 -0.4825 -0.0609
 4002SOL     OW23464   3.205   3.535  12.721  0.3417 -0.2164  0.1537
 4002SOL    HW123465   3.291   3.578  12.714  0.1657 -0.2453 -2.3045
 4002SOL    HW223466   3.158   3.587  12.786 -0.0290 -0.0926 -0.2087
 4003SOL     OW23467   2.142   1.367   0.392 -0.2409 -0.1308  1.0453
 4003SOL    HW123468   2.103   1.319   0.319 -1.2268  2.5727 -0.2036
 4003SOL    HW223469   2.234   1.340   0.391  0.0025  0.7805 -1.6077
 4004SOL     OW23470   4.509   2.102  10.731  0.0395  0.1572 -0.0548
 4004SOL    HW123471   4.476   2.013  10.747 -2.3856  1.3330  1.4639
 4004SOL    HW223472   4.469   2.145  10.806  1.4728  2.5306 -0.6579
 4005SOL     OW23473   2.348   2.900   5.272 -0.2499 -0.4885  0.5584
 4005SOL    HW123474   2.334   2.823   5.329  1.2457 -2.9558 -2.4275
 4005SOL    HW223475   2.310   2.968   5.327  1.7039 -0.0386  1.3612
 4006SOL     OW23476   4.695   3.332  12.088 -0.2407 -0.0380 -0.7103
 4006SOL    HW123477   4.605   3.299  12.080 -0.4227  0.1314  0.6425
 4006SOL    HW223478   4.713   3.326  12.182  0.0982  1.0664 -0.6963
 4007SOL     OW23479   0.108   3.095   2.394 -0.0370 -0.1578 -0.3797
 4007SOL    HW123480   0.168   3.101   2.468  1.3148  1.6235 -1.6186
 4007SOL    HW223481   0.044   3.158   2.428  0.1993 -0.7311  1.1248
 4008SOL     OW23482   4.684   4.590   1.663 -0.6893 -0.0535  0.4277
 4008SOL    HW123483   4.685   4.649   1.739 -2.3279  0.6392 -0.0847
 4008SOL    HW223484   0.027   4.637   1.617 -1.7909  1.1577 -0.0182
 4009SOL     OW23485   3.189   0.532   9.873  0.0712 -0.0541 -0.1999
 4009SOL    HW123486   3.232   0.596   9.930  1.0357 -2.3437  1.6172
 4009SOL    HW223487   3.194   0.592   9.798 -0.2061  0.4091  0.1552
 4010SOL     OW23488   1.317   3.564   2.771  0.3030 -0.1731 -0.7337
 4010SOL    HW123489   1.340   3.478   2.806 -0.9317  0.5524  1.9120
 4010SOL    HW223490   1.255   3.555   2.700 -1.1508 -1.3127  0.6848
 4011SOL     OW23491   3.121   4.078   3.779  0.0896 -0.3798 -0.0593
 4011SOL    HW123492   3.076   4.055   3.861 -1.3231 -2.0503 -1.3133
 4011SOL    HW223493   3.207   4.105   3.813  0.2417  0.1166 -0.8454
 4012SOL     OW23494   4.207   4.518  17.047 -0.2801 -0.3174 -0.4864
 4012SOL    HW123495   4.149   4.570  16.991 -0.9089  1.0064  1.4275
 4012SOL    HW223496   4.156   4.495  17.124 -1.4800 -0.7130 -1.4005
 4013SOL     OW23497   4.445   3.132  14.123 -0.3103 -0.4936  1.4756
 4013SOL    HW123498   4.364   3.143  14.173 -1.1368 -1.6790  0.4052
 4013SOL    HW223499   4.434   3.047  14.080  1.1297  0.2577 -0.3928
 4014SOL     OW23500   2.121   1.015  14.512 -0.3398 -0.5410 -0.1681
 4014SOL    HW123501   2.133   0.944  14.575  1.5680  0.6236  0.7866
 4014SOL    HW223502   2.057   0.988  14.447  0.8126  1.6091 -2.1840
 4015SOL     OW23503   4.235   3.209   1.150 -0.1050  0.1548 -0.2625
 4015SOL    HW123504   4.195   3.287   1.187  0.1742  0.0054  0.3527
 4015SOL    HW223505   4.314   3.207   1.204  0.5681  1.7038 -1.1884
 4016SOL     OW23506   2.604   4.086   7.929 -0.2429 -0.4108 -0.1496
 4016SOL    HW123507   2.677   4.119   7.982 -0.4443 -0.9917  0.4871
 4016SOL    HW223508   2.632   3.994   7.935  0.1942 -0.1873  1.2198
 4017SOL     OW23509   0.319   3.757  12.731 -0.0664 -0.2060 -0.1324
 4017SOL    HW123510   0.307   3.682  12.672  1.3139 -0.2119 -0.4099
 4017SOL    HW223511   0.273   3.727  12.809 -1.7122 -0.3584 -1.1562
 4018SOL     OW23512   2.666   4.621   7.284 -0.0096 -0.0724 -0.1549
 4018SOL    HW123513   2.620   4.699   7.316 -0.1203 -0.6893  1.2112
 4018SOL    HW223514   2.596   4.568   7.246 -0.9778  0.9128  0.2430
 4019SOL     OW23515   4.713   0.228   0.537  0.2801 -0.8182  0.8062
 4019SOL    HW123516   4.726   0.196   0.448  0.5060 -0.9389  0.8819
 4019SOL    HW223517   4.617   0.228   0.543  0.1277 -0.5834 -1.8205
 4020SOL     OW23518   2.672   2.832   4.489 -0.3236 -0.3240 -0.1156
 4020SOL    HW123519   2.649   2.922   4.465  1.3323 -0.0087 -0.5184
 4020SOL    HW223520   2.584   2.800   4.473 -0.6838 -0.2240  1.7489
 4021SOL     OW23521   2.952   1.132  17.552  0.0959 -0.8429 -0.1233
 4021SOL    HW123522   3.042   1.149  17.525 -0.1730  0.9055  0.0743
 4021SOL    HW223523   2.939   1.216  17.596  4.2690  0.5945 -1.7195
 4022SOL     OW23524   2.694   4.423   3.368  0.2042  0.5402 -0.6434
 4022SOL    HW123525   2.656   4.382   3.446  1.2211 -1.1246 -1.0240
 4022SOL    HW223526   2.629   4.403   3.300  0.8633 -0.4457 -0.9822
 4023SOL     OW23527   0.208   0.329   6.334 -0.1506 -0.5184  0.1983
 4023SOL    HW123528   0.145   0.258   6.328  0.0511 -0.5843 -1.0327
 4023SOL    HW223529   0.264   0.318   6.257  0.3830 -1.8645  0.7795
 4024SOL     OW23530   3.582   0.095  17.205  0.1331 -0.4850  0.6409
 4024SOL    HW123531   3.554   0.009  17.174  1.7796 -0.8149  0.0534
 4024SOL    HW223532   3.677   0.097  17.192  0.6007 -1.3562  3.9877
 4025SOL     OW23533   1.317   1.074   2.441  0.1843  0.1859 -0.9149
 4025SOL    HW123534   1.307   1.074   2.346  1.8269  0.8519 -1.0951
 4025SOL    HW223535   1.237   1.111   2.479  0.2245 -1.9402  1.1651
 4026SOL     OW23536   1.513   3.159  12.544 -0.7669 -0.3905  0.2758
 4026SOL    HW123537   1.455   3.113  12.483  1.2268  2.2694 -3.6160
 4026SOL    HW223538   1.554   3.085  12.590 -1.7361 -1.0685  0.0697
 4027SOL     OW23539   0.293   1.301   6.859 -0.1607  0.2385 -0.3726
 4027SOL    HW123540   0.232   1.231   6.835 -1.2850  1.2762 -0.5098
 4027SOL    HW223541   0.254   1.339   6.938  1.7299 -1.3920  1.3445
 4028SOL     OW23542   4.196   4.483   1.936  0.5653 -0.0677 -0.1491
 4028SOL    HW123543   4.122   4.447   1.888  0.8702 -1.3984  0.3879
 4028SOL    HW223544   4.268   4.432   1.900 -0.8639 -0.3468 -2.5858
 4029SOL     OW23545   4.228   4.343  15.294  0.3632 -0.1642  0.0620
 4029SOL    HW123546   4.308   4.291  15.299  0.8569  0.3857 -2.1802
 4029SOL    HW223547   4.195   4.317  15.380 -0.1965  0.9796  0.1898
 4030SOL     OW23548   1.236   3.351   0.184  0.0315 -0.1728  0.3334
 4030SOL    HW123549   1.330   3.360   0.198  0.4583 -1.6585 -1.5095
 4030SOL    HW223550   1.221   3.441   0.157 -0.5159 -0.1219  0.8072
 4031SOL     OW23551   0.493   3.726  12.244  0.2248  0.3847 -0.2730
 4031SOL    HW123552   0.429   3.695  12.180  2.0975  1.4117 -2.6674
 4031SOL    HW223553   0.532   3.647  12.280  0.6625  0.3620 -0.8057
 4032SOL     OW23554   4.550   0.676   8.254 -0.6299  0.5449  0.1853
 4032SOL    HW123555   4.550   0.593   8.206  1.3692  1.7806 -1.9370
 4032SOL    HW223556   4.593   0.649   8.335 -1.8641  0.6456  0.8813
 4033SOL     OW23557   0.249   2.636  14.882  0.0350  0.5861 -0.1778
 4033SOL    HW123558   0.267   2.585  14.961  1.8495 -1.0292 -1.6306
 4033SOL    HW223559   0.309   2.597  14.819  0.0438 -1.3192  0.9955
 4034SOL     OW23560   4.589   4.230   1.433  0.3931  0.7137  0.2310
 4034SOL    HW123561   4.659   4.258   1.492  0.7776 -0.2810  0.2445
 4034SOL    HW223562   4.634   4.162   1.383 -0.8719  0.2441 -0.2800
 4035SOL     OW23563   1.438   2.333  11.328  0.1899  0.8696  0.6336
 4035SOL    HW123564   1.407   2.350  11.417 -0.0561 -2.1498  1.1501
 4035SOL    HW223565   1.447   2.238  11.332 -1.3887  0.7717  2.1893
 4036SOL     OW23566   4.144   3.514   3.639 -0.3201  0.5124  0.2959
 4036SOL    HW123567   4.211   3.474   3.584  1.0395  1.3736  1.3150
 4036SOL    HW223568   4.155   3.452   3.711 -2.3486 -0.6508 -0.4209
 4037SOL     OW23569   1.615   4.044  10.722 -0.4083  0.3509 -0.0378
 4037SOL    HW123570   1.654   4.130  10.710  1.3469 -0.3597  0.4948
 4037SOL    HW223571   1.690   3.986  10.737 -1.6251 -1.2837 -0.2317
 4038SOL     OW23572   3.286   4.706   0.526  0.2853  0.3582  0.0813
 4038SOL    HW123573   3.273   4.681   0.435 -0.9935  2.4000 -0.2968
 4038SOL    HW223574   3.319   4.623   0.561 -2.2390 -0.5431  0.2718
 4039SOL     OW23575   0.767   1.874   5.663 -0.3190  0.2287 -0.5832
 4039SOL    HW123576   0.694   1.846   5.607 -0.2038  1.7624 -1.5203
 4039SOL    HW223577   0.803   1.792   5.694 -1.2586 -0.3674 -1.0620
 4040SOL     OW23578   3.289   3.585   5.586  0.1405 -0.2801 -0.2850
 4040SOL    HW123579   3.253   3.667   5.617 -1.1168 -0.7737 -0.4603
 4040SOL    HW223580   3.380   3.613   5.598  0.4005 -1.8665  1.4825
 4041SOL     OW23581   1.396   3.077   8.069 -0.0129 -0.0578 -0.2243
 4041SOL    HW123582   1.365   3.157   8.027 -1.1884 -0.1213  0.5363
 4041SOL    HW223583   1.461   3.045   8.006 -0.0724  0.3951 -0.5180
 4042SOL     OW23584   1.644   0.630   5.089  0.0232  0.4966 -0.0448
 4042SOL    HW123585   1.661   0.536   5.082  0.3199  0.6544 -1.5798
 4042SOL    HW223586   1.607   0.653   5.004  0.1564 -1.9194 -0.7507
 4043SOL     OW23587   1.818   0.646  16.970 -0.6305 -0.5203  0.0489
 4043SOL    HW123588   1.785   0.564  16.935 -3.3772  0.9605 -0.8271
 4043SOL    HW223589   1.779   0.712  16.913  2.3681  1.1481 -0.1223
 4044SOL     OW23590   0.287   0.784   6.623  0.7199  0.3015 -0.0737
 4044SOL    HW123591   0.262   0.691   6.620 -1.3086  0.8147  1.2882
 4044SOL    HW223592   0.202   0.823   6.603  0.3149  1.2424  3.4028
 4045SOL     OW23593   4.295   3.354   6.973 -0.0764  0.7909  0.5924
 4045SOL    HW123594   4.204   3.370   6.951 -0.2308 -2.3352 -0.9899
 4045SOL    HW223595   4.339   3.368   6.889 -1.6623  0.9044 -0.2008
 4046SOL     OW23596   1.684   4.721  13.840  0.6944 -0.4444 -0.5949
 4046SOL    HW123597   1.764   4.694  13.886  1.1461 -0.6777 -1.5067
 4046SOL    HW223598   1.670   4.651  13.776 -0.0906 -0.0978 -0.8002
 4047SOL     OW23599   2.960   0.909   8.181 -0.1050  0.0848 -0.1690
 4047SOL    HW123600   2.952   0.833   8.124  0.2050  0.4820 -0.7371
 4047SOL    HW223601   2.964   0.980   8.117  0.6195  0.9783  0.8671
 4048SOL     OW23602   3.014   3.913  16.220  0.4114  0.5471  0.5496
 4048SOL    HW123603   3.031   3.993  16.171 -1.5963  0.7609  0.2105
 4048SOL    HW223604   2.940   3.941  16.274 -0.5387 -1.2036  0.1310
 4049SOL     OW23605   0.089   1.106   9.492  0.0729 -0.2003 -0.0025
 4049SOL    HW123606   0.041   1.128   9.412 -1.2719  1.7869  1.3676
 4049SOL    HW223607   0.169   1.157   9.479  0.1249 -0.1309  0.6061
 4050SOL     OW23608   0.773   0.822   8.417 -0.1174 -0.4061 -0.1230
 4050SOL    HW123609   0.841   0.784   8.472 -0.9646 -2.3667 -0.4145
 4050SOL    HW223610   0.738   0.747   8.368 -2.0891  0.4904 -0.0921
 4051SOL     OW23611   4.116   1.615   7.576  0.2020 -0.7228  0.5073
 4051SOL    HW123612   4.174   1.573   7.639  2.8252 -1.9346 -2.6981
 4051SOL    HW223613   4.030   1.596   7.612 -0.1889  0.2429  0.0953
 4052SOL     OW23614   1.923   0.583   6.835  0.2679 -0.2081  0.1935
 4052SOL    HW123615   1.876   0.506   6.868 -0.1307 -0.3182 -0.6373
 4052SOL    HW223616   1.859   0.648   6.866 -0.7146 -2.0577  2.0254
 4053SOL     OW23617   3.970   4.316   8.584  0.2692  0.7217  0.1619
 4053SOL    HW123618   3.877   4.311   8.559  0.8632  1.7269 -2.2394
 4053SOL    HW223619   4.016   4.333   8.502 -0.4222 -2.1281 -0.8187
 4054SOL     OW23620   3.501   0.465  16.922 -0.6896  0.3517  0.5977
 4054SOL    HW123621   3.573   0.487  16.981 -1.7100  0.9831  1.6132
 4054SOL    HW223622   3.469   0.390  16.973  0.6801 -1.4813 -1.2519
 4055SOL     OW23623   1.423   2.776   0.440 -0.3384  0.1537 -0.1436
 4055SOL    HW123624   1.400   2.861   0.404 -0.3472  0.0868 -0.2994
 4055SOL    HW223625   1.488   2.798   0.506 -0.0663 -0.0206 -0.3565
 4056SOL     OW23626   0.798   4.505   7.877 -0.0353  0.8656  0.0217
 4056SOL    HW123627   0.751   4.456   7.809  1.2787 -0.4814  0.0965
 4056SOL    HW223628   0.885   4.475   7.849 -0.7436  0.7958 -2.1476
 4057SOL     OW23629   0.066   0.758   4.756 -0.4962 -0.5058 -0.2829
 4057SOL    HW123630   0.083   0.850   4.772  2.4404 -0.7790 -1.8612
 4057SOL    HW223631   0.113   0.710   4.825  1.6766  0.9030 -0.8060
 4058SOL     OW23632   1.890   2.531   7.910  0.1665 -0.8031  0.0177
 4058SOL    HW123633   1.804   2.543   7.870 -0.4304 -2.1914  0.8520
 4058SOL    HW223634   1.862   2.478   7.985  0.8864 -2.2579 -0.7337
 4059SOL     OW23635   1.618   1.001   3.355 -0.8835  0.1102  0.2672
 4059SOL    HW123636   1.667   1.049   3.422  1.1172 -0.6786 -0.6286
 4059SOL    HW223637   1.625   1.070   3.289 -1.3426  1.4674  1.6247
 4060SOL     OW23638   2.187   4.497   4.856 -0.4899 -0.3337 -0.0277
 4060SOL    HW123639   2.277   4.469   4.870 -0.4604  0.4899  1.4528
 4060SOL    HW223640   2.136   4.429   4.900 -0.2478  0.5058  1.5707
 4061SOL     OW23641   0.603   1.895   7.690  0.2549  0.0210  0.3983
 4061SOL    HW123642   0.508   1.893   7.703  0.0072  2.0025 -1.0997
 4061SOL    HW223643   0.630   1.889   7.782 -0.3372  1.2962  0.6612
 4062SOL     OW23644   2.150   2.174   1.929 -0.5346 -0.3402  0.4013
 4062SOL    HW123645   2.065   2.183   1.971 -1.0232 -3.7308  0.1166
 4062SOL    HW223646   2.127   2.131   1.846  3.9513  2.0835 -2.1057
 4063SOL     OW23647   2.818   2.451   5.970  0.1900 -0.3907  0.1052
 4063SOL    HW123648   2.803   2.418   6.059 -0.3718  1.1987  0.6024
 4063SOL    HW223649   2.873   2.381   5.934  0.0244 -0.3800 -0.1734
 4064SOL     OW23650   1.207   0.702   2.038  0.9498 -0.1911  0.4187
 4064SOL    HW123651   1.187   0.722   2.129 -1.7060  3.8983 -1.0546
 4064SOL    HW223652   1.302   0.708   2.045  0.7929  0.6993  1.7289
 4065SOL     OW23653   1.816   1.354   6.367 -0.2688  0.0274  0.0121
 4065SOL    HW123654   1.756   1.317   6.303 -0.7697 -1.3202  1.2622
 4065SOL    HW223655   1.803   1.449   6.367  0.7147  0.1646  2.0162
 4066SOL     OW23656   4.334   0.433   5.099 -0.3478  0.4378  0.1389
 4066SOL    HW123657   4.297   0.515   5.131 -2.8369 -1.4603  2.0941
 4066SOL    HW223658   4.270   0.367   5.126  1.9525 -0.9577  2.2747
 4067SOL     OW23659   2.444   4.471  14.605 -0.0631  0.2578  0.1863
 4067SOL    HW123660   2.513   4.407  14.622 -1.7819 -1.9726 -1.3646
 4067SOL    HW223661   2.375   4.411  14.578  0.5795 -0.9520  1.2385
 4068SOL     OW23662   4.175   1.387   1.744 -0.8466 -0.0189  0.9890
 4068SOL    HW123663   4.211   1.469   1.778 -0.7979 -0.0880  1.1043
 4068SOL    HW223664   4.186   1.330   1.820 -0.3742 -0.3414  0.6865
 4069SOL     OW23665   2.616   0.754   7.597  0.3154 -0.8207 -0.0101
 4069SOL    HW123666   2.601   0.832   7.543 -0.9469 -2.7261 -2.4009
 4069SOL    HW223667   2.711   0.767   7.606 -0.2348  1.6761  2.2102
 4070SOL     OW23668   0.005   1.051   5.800  0.2544 -0.0486 -0.0690
 4070SOL    HW123669   0.021   1.040   5.894 -0.0452  4.0358  0.4773
 4070SOL    HW223670   0.056   0.977   5.766 -0.7505 -0.3363 -0.9383
 4071SOL     OW23671   2.809   0.495   7.308 -0.4613 -0.8898 -0.4201
 4071SOL    HW123672   2.824   0.484   7.214  0.0500  0.8061 -0.5297
 4071SOL    HW223673   2.894   0.535   7.325 -0.2029 -0.8674 -1.7182
 4072SOL     OW23674   4.332   0.383   2.338 -0.0608  0.4400 -0.0530
 4072SOL    HW123675   4.269   0.321   2.374  0.5164  0.5724  1.1658
 4072SOL    HW223676   4.416   0.341   2.322  0.9622  2.4943 -0.0268
 4073SOL     OW23677   0.743   3.356   6.627  0.5509  0.4584  0.2828
 4073SOL    HW123678   0.726   3.262   6.617  0.3705  0.6401 -1.1851
 4073SOL    HW223679   0.799   3.354   6.704 -1.9492 -1.6853  2.0294
 4074SOL     OW23680   0.290   1.280   3.233  0.7802 -0.5301  0.1048
 4074SOL    HW123681   0.217   1.341   3.240  0.8498 -0.5540  0.9686
 4074SOL    HW223682   0.306   1.291   3.139 -0.6459  2.0887  0.1747
 4075SOL     OW23683   3.177   3.555   4.595  0.2072 -0.3513 -1.2093
 4075SOL    HW123684   3.189   3.602   4.677 -0.1453  0.7016 -1.7628
 4075SOL    HW223685   3.182   3.462   4.617  0.3650  0.6564  2.8799
 4076SOL     OW23686   2.354   1.066   4.786 -0.2825 -0.5738 -0.2640
 4076SOL    HW123687   2.351   1.150   4.740  1.1450  0.3240  1.2233
 4076SOL    HW223688   2.354   1.106   4.873  0.3732 -0.2752 -0.3984
 4077SOL     OW23689   0.842   3.845   9.128  0.0513 -0.5281  0.1243
 4077SOL    HW123690   0.867   3.929   9.089  0.0620 -1.4858 -1.9680
 4077SOL    HW223691   0.845   3.792   9.048 -0.6950  0.1549 -0.3589
 4078SOL     OW23692   4.580   2.260   9.604  0.4036  0.2108  0.6706
 4078SOL    HW123693   4.619   2.333   9.556  2.1021  0.0010  1.7457
 4078SOL    HW223694   4.488   2.274   9.581  1.2686  1.4848 -2.0409
 4079SOL     OW23695   1.806   0.567   7.861 -0.1635  0.0394  0.2739
 4079SOL    HW123696   1.733   0.627   7.878 -0.1697  0.1800 -0.2585
 4079SOL    HW223697   1.765   0.521   7.788 -0.5232  0.2156  0.3618
 4080SOL     OW23698   2.621   3.309  14.005  0.3182  0.1108 -0.3695
 4080SOL    HW123699   2.554   3.373  14.029 -2.3923 -1.8298 -2.6817
 4080SOL    HW223700   2.644   3.275  14.091  2.1056  0.7221 -0.6138
 4081SOL     OW23701   0.004   4.331  13.377 -0.4577 -0.1699 -0.2146
 4081SOL    HW123702   4.648   4.282  13.386 -0.8649  0.1170 -2.3759
 4081SOL    HW223703   4.698   4.412  13.340 -1.0970 -0.1241  0.4451
 4082SOL     OW23704   0.543   0.780   9.584 -0.0307  0.1523 -0.1842
 4082SOL    HW123705   0.558   0.784   9.679 -1.4067 -0.6489  0.0623
 4082SOL    HW223706   0.451   0.756   9.574  0.0118  0.2113 -0.6825
 4083SOL     OW23707   4.145   0.262  12.793 -0.1609  0.2554  0.7142
 4083SOL    HW123708   4.193   0.191  12.750 -1.3786 -0.0398 -0.1533
 4083SOL    HW223709   4.095   0.286  12.715 -0.0128 -0.9111  0.2461
 4084SOL     OW23710   4.303   1.476   3.376  0.1380  0.2763 -0.5039
 4084SOL    HW123711   4.271   1.536   3.309 -0.6030  0.5883  0.1226
 4084SOL    HW223712   4.304   1.534   3.452  0.5839  0.5163 -0.6943
 4085SOL     OW23713   0.919   0.422   3.527 -0.0803  0.1334  0.2327
 4085SOL    HW123714   0.955   0.432   3.439  0.2116 -0.8854  0.2458
 4085SOL    HW223715   0.829   0.453   3.517 -0.4874 -0.9722  0.4905
 4086SOL     OW23716   1.003   2.493   9.495  0.4584 -0.1458 -0.6107
 4086SOL    HW123717   0.950   2.425   9.537  1.7009  0.5508  2.0511
 4086SOL    HW223718   1.090   2.476   9.530  0.7804 -0.3096 -1.4908
 4087SOL     OW23719   2.890   0.671   8.023 -0.5092 -0.1672  0.5598
 4087SOL    HW123720   2.808   0.678   7.975 -0.9879  1.7470  1.6357
 4087SOL    HW223721   2.908   0.577   8.023  1.3184  0.2066 -3.5083
 4088SOL     OW23722   3.859   0.332   3.191  0.2764 -0.3158 -0.4107
 4088SOL    HW123723   3.936   0.281   3.165  0.7672  0.2324 -0.0234
 4088SOL    HW223724   3.812   0.261   3.235 -0.7461  1.0510  0.6773
 4089SOL     OW23725   3.471   3.135  15.069  0.4610 -0.1282  0.5468
 4089SOL    HW123726   3.520   3.079  15.008 -1.7489  1.1960 -2.4230
 4089SOL    HW223727   3.437   3.059  15.116 -1.9363  1.6561  1.6366
 4090SOL     OW23728   4.468   1.260  13.739 -0.5413 -0.7852  0.4249
 4090SOL    HW123729   4.431   1.347  13.752 -0.7262 -0.3576 -3.0991
 4090SOL    HW223730   4.562   1.277  13.751 -0.4823 -1.5618  1.0616
 4091SOL     OW23731   1.478   1.001   0.365 -0.1661  0.0696 -0.2352
 4091SOL    HW123732   1.469   1.055   0.444 -0.6245 -0.5200  0.1203
 4091SOL    HW223733   1.544   0.938   0.395 -2.4251 -1.4217  1.7233
 4092SOL     OW23734   1.953   1.715   4.206 -0.0849  0.3350 -0.0587
 4092SOL    HW123735   2.047   1.710   4.187 -0.0533  0.1852  0.1288
 4092SOL    HW223736   1.952   1.787   4.270  0.3352  1.2669 -1.1042
 4093SOL     OW23737   1.768   2.113   8.598  0.2226  0.5730  0.0878
 4093SOL    HW123738   1.783   2.020   8.613  1.9602  1.3163  2.9471
 4093SOL    HW223739   1.799   2.146   8.682 -0.5472 -1.5152  1.1881
 4094SOL     OW23740   3.641   4.376  13.726 -0.0719  0.0000  0.0928
 4094SOL    HW123741   3.639   4.335  13.813  1.0106  0.7048  0.4469
 4094SOL    HW223742   3.614   4.301  13.673 -2.0386 -0.8842  2.3151
 4095SOL     OW23743   2.253   3.207   5.922  0.1580  0.1064 -0.0154
 4095SOL    HW123744   2.197   3.131   5.935  0.8363 -0.4496 -0.3592
 4095SOL    HW223745   2.271   3.222   6.015 -1.0967  2.2511 -0.1105
 4096SOL     OW23746   3.426   3.922  17.141  0.4034  0.1209  0.0117
 4096SOL    HW123747   3.449   3.906  17.232 -1.6796 -0.4831  0.4387
 4096SOL    HW223748   3.432   3.832  17.108  0.4150  0.1709 -0.1259
 4097SOL     OW23749   3.456   1.746   9.766  1.0152 -0.3239 -0.0011
 4097SOL    HW123750   3.408   1.721   9.845  1.7206  0.5679  0.7058
 4097SOL    HW223751   3.540   1.706   9.789  1.5471  0.5111 -0.5018
 4098SOL     OW23752   1.426   2.117   3.064  0.0950 -0.6103 -0.4442
 4098SOL    HW123753   1.474   2.197   3.084 -1.7819  0.0843  1.2742
 4098SOL    HW223754   1.429   2.056   3.138 -0.2666 -1.0097 -0.7561
 4099SOL     OW23755   3.075   3.709  10.809 -0.4697 -0.1799 -0.3246
 4099SOL    HW123756   3.014   3.694  10.881  0.0771  2.4756  0.6935
 4099SOL    HW223757   3.017   3.759  10.752  0.2964  0.8574 -0.1862
 4100SOL     OW23758   3.896   4.138   2.557 -0.0395 -0.2756 -1.0223
 4100SOL    HW123759   3.813   4.095   2.538 -1.1226  1.8387 -1.1559
 4100SOL    HW223760   3.948   4.129   2.477 -0.3009  0.4132 -1.2719
 4101SOL     OW23761   2.238   0.564   7.919 -0.3071  0.1498 -0.4544
 4101SOL    HW123762   2.313   0.525   7.965 -0.1623 -0.5555 -1.2988
 4101SOL    HW223763   2.252   0.537   7.828  1.8587  1.7380 -0.5914
 4102SOL     OW23764   2.269   4.431   5.682  0.7819 -0.2057 -0.1530
 4102SOL    HW123765   2.174   4.423   5.670  0.2471  1.3528  3.1697
 4102SOL    HW223766   2.294   4.361   5.743  2.3049 -0.2011 -0.7736
 4103SOL     OW23767   3.769   4.651   4.219  0.4814  0.9510 -0.5396
 4103SOL    HW123768   3.688   4.679   4.178  0.5094  2.0463  0.1485
 4103SOL    HW223769   3.827   4.636   4.144 -1.3640  0.3621 -1.8417
 4104SOL     OW23770   2.294   4.249   4.470  0.2470  0.1269  0.0731
 4104SOL    HW123771   2.222   4.205   4.516 -0.5720  0.9032 -0.4767
 4104SOL    HW223772   2.249   4.324   4.431 -1.0432 -0.6958 -0.0155
 4105SOL     OW23773   0.888   3.619   1.731 -0.0782  0.3442 -0.7222
 4105SOL    HW123774   0.949   3.692   1.744  0.4228 -0.2345  0.1693
 4105SOL    HW223775   0.848   3.642   1.647  0.6213  1.0507 -0.8669
 4106SOL     OW23776   1.655   0.508   1.670 -0.3841 -0.4322 -0.1706
 4106SOL    HW123777   1.741   0.531   1.633  0.2429 -0.3888  1.3369
 4106SOL    HW223778   1.610   0.589   1.646 -0.0629 -0.0014  0.7024
 4107SOL     OW23779   2.156   0.936   1.451 -0.3831  0.5677 -0.1757
 4107SOL    HW123780   2.115   0.959   1.368 -0.4631  0.4603 -0.1653
 4107SOL    HW223781   2.244   0.915   1.421 -0.2144  0.6724  0.2373
 4108SOL     OW23782   2.445   3.658   5.775  0.4930  0.0277 -0.0193
 4108SOL    HW123783   2.450   3.703   5.691  0.4490 -0.1413 -0.1120
 4108SOL    HW223784   2.353   3.630   5.781  0.4120  0.4247  0.5812
 4109SOL     OW23785   0.918   2.044  14.681 -0.0850 -0.4861  0.2479
 4109SOL    HW123786   0.955   1.963  14.644 -0.6133 -0.2361 -0.8037
 4109SOL    HW223787   0.994   2.074  14.732  0.2947 -0.2726 -0.4459
 4110SOL     OW23788   0.600   2.264  17.601 -0.4040  0.2671 -0.4459
 4110SOL    HW123789   0.631   2.345  17.562 -0.3174  0.4432 -0.0137
 4110SOL    HW223790   0.684   2.221  17.621 -0.7339 -0.8454 -1.4155
 4111SOL     OW23791   4.023   2.970   2.562  0.2484  0.0833  0.7600
 4111SOL    HW123792   4.011   2.954   2.656 -0.8120 -1.7066  0.3187
 4111SOL    HW223793   3.968   2.903   2.521  0.9069 -2.0887  3.3868
 4112SOL     OW23794   2.192   4.679   3.926  0.5206 -0.2788 -0.1188
 4112SOL    HW123795   2.116   4.632   3.891  0.7999 -1.7396  1.2485
 4112SOL    HW223796   2.265   4.661   3.867  1.1549  0.8437  0.3165
 4113SOL     OW23797   1.555   3.072   9.343  0.0573  0.1742  0.2235
 4113SOL    HW123798   1.474   3.024   9.328  0.2692 -0.0440 -0.2161
 4113SOL    HW223799   1.544   3.113   9.429  0.2043  0.8013 -0.0597
 4114SOL     OW23800   1.510   4.725   4.556 -0.5942 -0.0350 -0.2929
 4114SOL    HW123801   1.415   0.008   4.563 -0.6778  0.2913 -1.9500
 4114SOL    HW223802   1.545   0.044   4.632  1.4571 -0.2601 -1.0950
 4115SOL     OW23803   2.402   4.394   7.258 -0.3172 -0.1671 -0.1744
 4115SOL    HW123804   2.426   4.434   7.342 -1.9589  0.3038  0.0674
 4115SOL    HW223805   2.321   4.441   7.239  0.7423  0.8809 -2.0459
 4116SOL     OW23806   4.660   2.499   4.945  0.0092  0.4642  0.2762
 4116SOL    HW123807   4.622   2.417   4.913 -0.9861  0.6903  0.8494
 4116SOL    HW223808   4.606   2.551   4.884 -1.6616 -1.2987  0.2571
 4117SOL     OW23809   4.102   3.979   7.007 -0.2680 -0.2274 -0.3886
 4117SOL    HW123810   4.008   3.976   7.029 -0.1146 -1.0161  0.1759
 4117SOL    HW223811   4.128   4.070   7.019  1.2903 -0.1538 -4.2162
 4118SOL     OW23812   0.773   4.108   5.492  0.1756 -0.0314 -0.1135
 4118SOL    HW123813   0.719   4.182   5.463 -1.0831 -0.5197  1.0207
 4118SOL    HW223814   0.766   4.041   5.424 -3.2828  0.7709 -0.5230
 4119SOL     OW23815   1.488   1.539   7.946  0.0755  0.2950 -0.1779
 4119SOL    HW123816   1.531   1.454   7.955 -1.0857 -0.4211 -1.4263
 4119SOL    HW223817   1.560   1.600   7.932 -0.3219  1.7827  4.3785
 4120SOL     OW23818   2.375   3.313   0.020  0.4057  0.1579 -0.3962
 4120SOL    HW123819   2.381   3.391  17.674 -1.6065  0.6203  0.0512
 4120SOL    HW223820   2.342   3.348   0.103 -2.4322 -0.4187 -1.2513
 4121SOL     OW23821   4.481   3.423   8.517  0.0984  0.1347  0.0719
 4121SOL    HW123822   4.505   3.504   8.560  1.2325 -0.6331  0.8703
 4121SOL    HW223823   4.556   3.366   8.534  0.6651  1.8894  3.4108
 4122SOL     OW23824   1.572   1.997   0.893 -0.0996  0.1991  0.5859
 4122SOL    HW123825   1.644   1.964   0.946 -0.5932  0.9156  1.7168
 4122SOL    HW223826   1.613   1.969   0.812 -0.1744 -0.6251  0.8385
 4123SOL     OW23827   4.678   2.153   3.979 -0.2944 -0.0693  0.4576
 4123SOL    HW123828   4.649   2.158   3.888 -3.0049  0.0930  1.3272
 4123SOL    HW223829   4.599   2.126   4.026  0.2007  0.7573  1.7725
 4124SOL     OW23830   4.722   0.386   4.561  0.0009 -0.5156  0.0915
 4124SOL    HW123831   0.016   0.316   4.623  1.0778 -0.6087 -0.3632
 4124SOL    HW223832   0.057   0.365   4.490 -0.3807 -0.0185 -0.3936
 4125SOL     OW23833   0.938   3.499   9.063 -0.0028  0.0857  0.2077
 4125SOL    HW123834   0.895   3.578   9.094  0.6413  0.1253  1.0185
 4125SOL    HW223835   0.921   3.497   8.969  0.0917  0.5345  0.1812
 4126SOL     OW23836   0.375   0.474   7.260 -0.1999  0.1110 -0.3994
 4126SOL    HW123837   0.389   0.392   7.306  0.5537  1.2322  1.3853
 4126SOL    HW223838   0.391   0.441   7.171 -0.4806  0.4175 -0.5637
 4127SOL     OW23839   4.348   1.251  13.500  0.1291 -0.4169  0.2991
 4127SOL    HW123840   4.359   1.259  13.594  2.1734  2.3922 -0.1667
 4127SOL    HW223841   4.260   1.213  13.499 -0.6668  1.3957  0.7864
 4128SOL     OW23842   4.037   3.857  14.534  0.0735 -0.1567  0.2146
 4128SOL    HW123843   3.958   3.889  14.490  0.4466  0.0214 -0.3117
 4128SOL    HW223844   4.101   3.880  14.467  1.9357 -1.7233  1.4404
 4129SOL     OW23845   4.602   1.680   4.583 -0.3949 -0.5080  0.7867
 4129SOL    HW123846   4.549   1.601   4.573 -0.3391 -0.0374 -2.9108
 4129SOL    HW223847   4.614   1.703   4.491 -1.0771 -0.5523  0.6812
 4130SOL     OW23848   2.056   1.785  16.715 -0.2088  0.0490 -0.2754
 4130SOL    HW123849   2.018   1.757  16.632 -2.0795  0.1279  0.5547
 4130SOL    HW223850   1.980   1.818  16.762 -0.5405  0.4042 -1.0587
 4131SOL     OW23851   3.717   3.382   4.270  0.1489  0.5143 -0.9439
 4131SOL    HW123852   3.653   3.374   4.199 -0.4165  1.3271 -0.5290
 4131SOL    HW223853   3.710   3.477   4.276 -0.0387  0.5685 -1.9850
 4132SOL     OW23854   4.289   2.398   3.987 -0.7715  0.0216  0.3062
 4132SOL    HW123855   4.196   2.410   4.009 -1.0865  1.0436 -1.5111
 4132SOL    HW223856   4.332   2.438   4.062  0.0512  0.8714 -0.6129
 4133SOL     OW23857   2.642   1.601   8.072 -0.2415  0.3916  0.5793
 4133SOL    HW123858   2.578   1.665   8.105 -0.9457  0.2046 -0.4203
 4133SOL    HW223859   2.637   1.522   8.126  2.6798 -0.3605 -0.2851
 4134SOL     OW23860   3.167   3.794   4.465 -0.3454  0.7590 -0.1124
 4134SOL    HW123861   3.115   3.840   4.531 -0.0837 -0.0334  0.6590
 4134SOL    HW223862   3.160   3.715   4.520 -2.3067  1.4737  0.6943
 4135SOL     OW23863   3.930   4.249   4.755 -0.0518 -0.0382  0.7043
 4135SOL    HW123864   4.013   4.266   4.800  0.0426 -0.8714  0.8439
 4135SOL    HW223865   3.865   4.306   4.796 -0.7847  0.1385 -0.7023
 4136SOL     OW23866   3.111   4.192   4.378  0.4878  0.3589 -0.4682
 4136SOL    HW123867   3.046   4.128   4.406  0.0337 -0.0376 -2.4406
 4136SOL    HW223868   3.100   4.258   4.447  2.4431  0.8015 -0.5665
 4137SOL     OW23869   0.858   4.386   7.017  0.5133  0.2161 -0.1716
 4137SOL    HW123870   0.910   4.354   6.943 -0.7878  0.5232 -1.2123
 4137SOL    HW223871   0.846   4.302   7.060  0.1543  0.0076 -0.6964
 4138SOL     OW23872   0.353   0.046   3.582  0.3295  0.2311 -0.6168
 4138SOL    HW123873   0.402   0.085   3.510 -1.0291  3.1587  0.0374
 4138SOL    HW223874   0.404   4.695   3.605 -0.8112 -0.3936 -0.2009
 4139SOL     OW23875   2.533   0.327  17.501 -0.0666 -0.0346  0.5648
 4139SOL    HW123876   2.451   0.363  17.465  0.3180  1.5332  1.2464
 4139SOL    HW223877   2.564   0.266  17.435 -0.7133 -3.0333  3.0668
 4140SOL     OW23878   0.603   2.977   3.822  0.1238  0.0726 -0.2438
 4140SOL    HW123879   0.568   3.038   3.888  0.7069  0.7528 -0.5585
 4140SOL    HW223880   0.594   2.898   3.875 -2.6116  1.5492  1.4984
 4141SOL     OW23881   0.424   2.412   8.087 -0.0708  0.7011 -0.7447
 4141SOL    HW123882   0.351   2.378   8.138  0.3062  1.5832  0.3701
 4141SOL    HW223883   0.493   2.386   8.147 -0.3814 -0.4344 -0.8955
 4142SOL     OW23884   1.332   1.148  17.097 -0.3316  0.8419  0.8178
 4142SOL    HW123885   1.279   1.218  17.060  1.3253 -0.4207 -3.9369
 4142SOL    HW223886   1.387   1.195  17.160  1.3151 -2.1658  1.6494
 4143SOL     OW23887   3.784   0.592   0.980 -0.1540  0.2988  0.0184
 4143SOL    HW123888   3.831   0.518   0.941 -1.5406  0.2575 -1.5706
 4143SOL    HW223889   3.701   0.581   0.934  0.2512  0.8033 -0.8441
 4144SOL     OW23890   3.718   3.319   6.494  0.1723  0.0554  0.0558
 4144SOL    HW123891   3.628   3.320   6.526  0.0604  1.2707 -0.3260
 4144SOL    HW223892   3.733   3.226   6.474 -2.3032  0.0673 -1.8158
 4145SOL     OW23893   0.016   4.309   4.884 -0.6844  0.5007  0.8227
 4145SOL    HW123894   0.012   4.237   4.946 -0.3359 -0.8280 -0.6979
 4145SOL    HW223895   0.037   4.386   4.937 -0.9724  0.2376  1.3098
 4146SOL     OW23896   1.882   2.611  14.849  0.4987 -0.1169 -0.1068
 4146SOL    HW123897   1.899   2.670  14.775 -0.2678  1.1038  0.6769
 4146SOL    HW223898   1.787   2.619  14.844  0.5465 -0.0597 -0.9365
 4147SOL     OW23899   1.166   1.929   6.677  0.2363  0.7776 -0.0078
 4147SOL    HW123900   1.215   1.994   6.727 -0.2454  2.1866 -1.3614
 4147SOL    HW223901   1.160   1.971   6.591 -1.6827 -0.2141 -0.3526
 4148SOL     OW23902   0.840   4.644  17.559 -0.1520  0.3203 -0.1043
 4148SOL    HW123903   0.810   4.554  17.547  1.4996 -0.1541 -0.6145
 4148SOL    HW223904   0.823   4.677  17.471  2.9374  0.0834 -0.7870
 4149SOL     OW23905   1.268   4.592   4.819  0.3080  0.4181  0.1923
 4149SOL    HW123906   1.229   4.622   4.736 -0.3209 -0.3049  0.2329
 4149SOL    HW223907   1.199   4.527   4.824 -0.7493  1.4919 -0.5406
 4150SOL     OW23908   2.592   1.003   7.923  0.5507  0.0189  0.1616
 4150SOL    HW123909   2.687   1.002   7.916  0.7650 -1.3156  3.3535
 4150SOL    HW223910   2.585   1.096   7.944  0.0855 -0.2093  1.0234
 4151SOL     OW23911   4.335   0.880  13.651  0.2003 -0.1234  0.2347
 4151SOL    HW123912   4.277   0.805  13.661 -0.8878  1.1508  3.2304
 4151SOL    HW223913   4.280   0.955  13.668 -0.3462 -0.2367 -1.0019
 4152SOL     OW23914   3.562   0.980  17.484  0.5543  0.0632  0.0656
 4152SOL    HW123915   3.620   0.946  17.416 -2.1550 -3.9353 -0.2222
 4152SOL    HW223916   3.557   0.902  17.539 -1.5438  1.4090  1.7742
 4153SOL     OW23917   3.085   2.796   5.056 -0.6313 -0.2243 -0.2172
 4153SOL    HW123918   3.033   2.876   5.064  0.5042  0.6827 -1.8630
 4153SOL    HW223919   3.165   2.827   5.012 -0.6023  1.7920  1.2177
 4154SOL     OW23920   0.872   3.326   0.080 -0.6703 -0.2732 -0.3606
 4154SOL    HW123921   0.849   3.235   0.099 -0.7927 -0.7596 -2.7977
 4154SOL    HW223922   0.922   3.333   0.161 -1.3946 -0.5867  0.1106
 4155SOL     OW23923   3.002   4.585   3.995  0.5007  0.1457 -0.2458
 4155SOL    HW123924   3.021   4.497   4.028 -4.1204 -0.1861  1.5489
 4155SOL    HW223925   3.064   4.624   4.056 -0.0258  0.8009 -0.1311
 4156SOL     OW23926   4.703   4.369  16.667 -0.3577  0.0930  0.3196
 4156SOL    HW123927   4.688   4.411  16.583 -1.5427 -0.8157  0.0836
 4156SOL    HW223928   0.068   4.343  16.660 -0.1230  0.7128  1.0872
 4157SOL     OW23929   3.333   1.273   4.500  0.4098 -0.3782  0.1470
 4157SOL    HW123930   3.240   1.256   4.487  1.0468 -2.3727 -1.7764
 4157SOL    HW223931   3.325   1.360   4.540  1.6267 -1.1681  2.1469
 4158SOL     OW23932   1.572   3.285   5.155 -0.5265 -0.0108 -0.0752
 4158SOL    HW123933   1.572   3.308   5.062  0.0009 -0.5011 -0.1956
 4158SOL    HW223934   1.512   3.211   5.148 -2.0371  1.2554 -0.2941
 4159SOL     OW23935   3.261   4.240   1.678 -0.0459 -0.0424  0.2854
 4159SOL    HW123936   3.336   4.240   1.737 -0.5149  0.2807  0.8729
 4159SOL    HW223937   3.287   4.311   1.619 -1.1301 -2.1959 -2.8130
 4160SOL     OW23938   4.323   0.810   5.735  0.7008 -0.0928 -0.4713
 4160SOL    HW123939   4.246   0.785   5.787  0.4213 -1.1383 -1.3944
 4160SOL    HW223940   4.390   0.801   5.803  1.4183 -1.2935 -1.3286
 4161SOL     OW23941   3.655   0.162   6.009 -0.2409  0.1753  0.0946
 4161SOL    HW123942   3.681   0.163   5.917 -0.5185  1.0900  0.0218
 4161SOL    HW223943   3.698   0.242   6.040  1.6651  0.1419 -2.4748
 4162SOL     OW23944   4.646   2.206  12.690  0.0047 -0.3773 -0.2953
 4162SOL    HW123945   4.617   2.148  12.620 -0.4856  0.0537 -0.4487
 4162SOL    HW223946   4.649   2.289  12.643 -0.6798  0.0501  0.4280
 4163SOL     OW23947   0.844   3.451   4.490  0.2527 -0.0070 -0.0962
 4163SOL    HW123948   0.827   3.504   4.412  1.6025  1.7296  0.7925
 4163SOL    HW223949   0.757   3.427   4.520  1.0246 -0.5034  1.6970
 4164SOL     OW23950   1.228   1.039   5.574 -0.1779 -0.1659  0.3653
 4164SOL    HW123951   1.239   1.084   5.658 -1.3454  1.0050 -0.1125
 4164SOL    HW223952   1.312   1.056   5.531 -1.5971  3.8002 -0.8654
 4165SOL     OW23953   4.177   2.568  13.321  0.1436  0.5705  0.2681
 4165SOL    HW123954   4.145   2.507  13.387  0.4387 -0.1701 -0.2715
 4165SOL    HW223955   4.180   2.510  13.244  0.0100 -0.5769  1.1321
 4166SOL     OW23956   2.939   0.521  11.125 -0.0702  0.0241  0.1305
 4166SOL    HW123957   2.861   0.474  11.098  0.3917  1.0980 -3.0262
 4166SOL    HW223958   2.900   0.559  11.204 -0.2926  0.4557 -0.1885
 4167SOL     OW23959   3.360   1.611   5.086  0.1824  0.5185 -0.1006
 4167SOL    HW123960   3.448   1.643   5.064  0.3009  0.7646  0.7319
 4167SOL    HW223961   3.352   1.539   5.023  0.0934  0.4966 -0.0628
 4168SOL     OW23962   1.270   0.345  13.028  0.4196 -0.1165  0.0121
 4168SOL    HW123963   1.229   0.371  12.946 -0.5037  0.2665  0.5989
 4168SOL    HW223964   1.191   0.329  13.079  1.5812 -2.7578  1.0370
 4169SOL     OW23965   1.101   3.519   7.169 -0.2000  0.1260  0.3778
 4169SOL    HW123966   1.098   3.460   7.245  1.1207 -2.1169 -1.2936
 4169SOL    HW223967   1.016   3.499   7.131 -0.1351  0.6228 -0.0208
 4170SOL     OW23968   0.278   2.911   2.949  0.2025  0.4202  0.5687
 4170SOL    HW123969   0.187   2.926   2.976  1.0367  4.1394  1.2873
 4170SOL    HW223970   0.264   2.883   2.859 -3.4201 -3.3932  2.3121
 4171SOL     OW23971   1.296   4.674   6.216  0.0903 -0.9222 -0.5605
 4171SOL    HW123972   1.305   4.580   6.199 -0.8264 -1.2066  0.5098
 4171SOL    HW223973   1.329   4.681   6.306  2.1957 -0.3231 -1.3828
 4172SOL     OW23974   0.700   4.685   7.014  0.2608  0.8075 -0.6421
 4172SOL    HW123975   0.685   4.614   6.952  0.3404 -0.9304  1.3376
 4172SOL    HW223976   0.794   4.669   7.006  0.7075  1.6601  2.9091
 4173SOL     OW23977   0.257   0.965   5.302 -0.1768 -0.2535  0.3083
 4173SOL    HW123978   0.236   1.053   5.332 -0.3043  0.0657 -0.7448
 4173SOL    HW223979   0.217   0.905   5.366  0.2650 -1.3169 -0.4161
 4174SOL     OW23980   2.055   3.856   7.908 -0.2685  0.0984  0.4214
 4174SOL    HW123981   1.961   3.845   7.921 -0.4380  1.9703  0.6946
 4174SOL    HW223982   2.078   3.892   7.994  3.4412  0.6427 -0.7816
 4175SOL     OW23983   2.161   3.545   4.540 -0.4424  0.2716  0.1223
 4175SOL    HW123984   2.084   3.514   4.588 -1.1048  3.1096  0.9517
 4175SOL    HW223985   2.131   3.626   4.497  0.7228  0.0978 -1.0201
 4176SOL     OW23986   4.711   2.551   6.456  0.1124  0.5083 -1.1140
 4176SOL    HW123987   0.026   2.598   6.384  1.4248  0.5568 -0.3108
 4176SOL    HW223988   4.620   2.572   6.435 -0.3566 -0.2963  0.1409
 4177SOL     OW23989   1.559   3.146   9.617 -0.4870  0.1494 -0.4813
 4177SOL    HW123990   1.555   3.242   9.622  1.2300  0.1577  0.8031
 4177SOL    HW223991   1.541   3.130   9.710  2.1799 -2.4109 -0.4214
 4178SOL     OW23992   4.262   3.614   8.820  0.1840 -0.1251 -0.1691
 4178SOL    HW123993   4.241   3.535   8.770  0.9284 -0.1740 -0.4098
 4178SOL    HW223994   4.351   3.638   8.794  0.2704  0.6615  0.8354
 4179SOL     OW23995   3.662   2.587  15.276 -0.4533  0.0226 -0.6352
 4179SOL    HW123996   3.699   2.567  15.190  0.0692  0.8103 -0.5910
 4179SOL    HW223997   3.598   2.654  15.256  0.7862  1.6229  0.7049
 4180SOL     OW23998   0.172   4.138   7.096 -0.8606  0.0880 -0.3650
 4180SOL    HW123999   0.193   4.127   7.189 -2.1511  0.7325  0.0057
 4180SOL    HW224000   0.252   4.099   7.060 -1.3235  0.1997 -1.5090
 4181SOL     OW24001   1.469   0.568   1.966 -0.1867  0.3214  0.5851
 4181SOL    HW124002   1.417   0.490   1.948  0.5375  0.3252 -1.4959
 4181SOL    HW224003   1.554   0.524   1.972 -0.9882 -1.2321  0.5949
 4182SOL     OW24004   3.416   1.041   0.455  0.4093 -0.5820 -0.0063
 4182SOL    HW124005   3.500   1.075   0.426  0.5306 -1.3653 -0.5675
 4182SOL    HW224006   3.365   1.119   0.476 -2.8775 -1.9022 -2.9961
 4183SOL     OW24007   0.235   1.910   3.438  0.6853 -0.2421 -0.1479
 4183SOL    HW124008   0.269   1.863   3.514 -0.9210 -1.2504 -0.0352
 4183SOL    HW224009   0.272   1.998   3.444 -0.9734  0.4679 -0.1268
 4184SOL     OW24010   0.782   2.747  15.977  0.4903 -0.0143  0.3654
 4184SOL    HW124011   0.826   2.662  15.975 -2.2728 -1.4145 -0.3705
 4184SOL    HW224012   0.702   2.721  15.931  0.6261 -1.0914  0.7441
 4185SOL     OW24013   1.364   1.307  13.011 -0.6936 -0.3770 -0.3111
 4185SOL    HW124014   1.371   1.366  13.086  1.2815 -1.7435  0.5782
 4185SOL    HW224015   1.288   1.346  12.967 -0.9232 -1.0544 -0.5228
 4186SOL     OW24016   4.454   1.595   1.645 -1.0393 -0.0849 -0.0553
 4186SOL    HW124017   4.419   1.590   1.734 -2.0422 -1.4274 -0.5209
 4186SOL    HW224018   4.548   1.586   1.663 -1.8082 -1.8631  3.0377
 4187SOL     OW24019   1.955   3.695   5.581  0.1607 -0.1735  0.0749
 4187SOL    HW124020   1.915   3.611   5.562 -0.1218 -0.1311  0.4633
 4187SOL    HW224021   1.883   3.733   5.633  1.7097  1.0764  1.2974
 4188SOL     OW24022   1.461   2.508   4.650  0.1071 -0.0150  0.0146
 4188SOL    HW124023   1.437   2.475   4.736  0.6482 -0.6696 -0.0922
 4188SOL    HW224024   1.382   2.489   4.600 -0.3607 -0.8701  1.0895
 4189SOL     OW24025   1.608   2.240   6.835  0.2120 -0.0271  0.6691
 4189SOL    HW124026   1.682   2.246   6.775  0.0260 -1.7017  0.2735
 4189SOL    HW224027   1.603   2.146   6.850 -1.5652  0.1894  1.4831
 4190SOL     OW24028   4.128   1.000   4.730 -0.1598  0.0082  0.4707
 4190SOL    HW124029   4.083   1.073   4.688 -0.8944 -0.6872  0.0513
 4190SOL    HW224030   4.190   1.038   4.792  0.2883  0.7362 -0.4176
 4191SOL     OW24031   2.794   2.638   4.061  0.7147  0.1602 -0.2088
 4191SOL    HW124032   2.851   2.562   4.052  1.5894  0.6509  1.1557
 4191SOL    HW224033   2.843   2.706   4.014 -0.2333  1.3618  0.5082
 4192SOL     OW24034   3.282   1.725   6.585  0.0501 -0.3030 -0.3601
 4192SOL    HW124035   3.207   1.705   6.528 -1.9332  2.7971  1.1846
 4192SOL    HW224036   3.353   1.724   6.520  1.5450  0.9188  1.2510
 4193SOL     OW24037   0.593   0.362  10.011  0.2501 -0.0353  0.1177
 4193SOL    HW124038   0.543   0.408   9.944 -0.2800 -0.9375 -0.1041
 4193SOL    HW224039   0.573   0.421  10.084  0.3526 -1.9285  1.6881
 4194SOL     OW24040   2.058   2.132   4.466  0.6294  0.3242 -0.1493
 4194SOL    HW124041   2.050   2.067   4.536 -0.9928  0.6822 -0.0165
 4194SOL    HW224042   2.058   2.204   4.529 -1.7732  0.9532 -0.9034
 4195SOL     OW24043   3.064   1.321   1.044 -0.8282  0.0286 -0.2404
 4195SOL    HW124044   2.975   1.355   1.050 -0.2644  1.4120  0.3744
 4195SOL    HW224045   3.039   1.252   0.982 -0.9853  1.0851 -1.3658
 4196SOL     OW24046   4.199   3.043   5.144 -0.6469 -0.3260  0.2845
 4196SOL    HW124047   4.112   3.066   5.113 -1.5776 -0.7718  2.5968
 4196SOL    HW224048   4.252   3.114   5.108 -0.1753 -0.6350  0.3671
 4197SOL     OW24049   3.867   3.720   6.966  0.4073  1.0041  0.4490
 4197SOL    HW124050   3.874   3.799   7.020  0.9749  1.3632 -0.1431
 4197SOL    HW224051   3.811   3.659   7.013 -1.8592  1.8205 -1.1962
 4198SOL     OW24052   3.160   0.879   9.196  0.0820  0.5960 -0.1892
 4198SOL    HW124053   3.236   0.934   9.179  0.2358  0.5686  0.3852
 4198SOL    HW224054   3.152   0.893   9.291 -1.5294  0.8184 -0.3703
 4199SOL     OW24055   3.568   4.710   1.238  0.1099 -0.0938 -0.3702
 4199SOL    HW124056   3.610   0.038   1.172 -1.5412  0.8379 -0.6558
 4199SOL    HW224057   3.634   4.647   1.268  2.6553  3.2603  1.0774
 4200SOL     OW24058   0.998   2.389  15.584 -0.6841  0.2567 -0.4733
 4200SOL    HW124059   1.094   2.394  15.585 -0.6221 -1.4341  0.7559
 4200SOL    HW224060   0.972   2.477  15.556 -0.8154 -0.3271 -2.1610
 4201SOL     OW24061   3.283   1.026   4.731  0.3634  0.0954 -0.6756
 4201SOL    HW124062   3.194   1.057   4.716  1.3240  2.5401 -1.3756
 4201SOL    HW224063   3.290   0.941   4.687 -1.5377  0.1065 -0.9804
 4202SOL     OW24064   3.004   1.412   0.193 -0.0033  0.1724 -0.4336
 4202SOL    HW124065   3.013   1.402   0.098  3.0538  1.2806 -0.2478
 4202SOL    HW224066   3.017   1.506   0.201 -0.1193  0.0483  1.1584
 4203SOL     OW24067   3.019   2.357  13.197  0.3897 -0.2583 -0.4325
 4203SOL    HW124068   3.089   2.294  13.213  1.0149  1.1677  2.4067
 4203SOL    HW224069   3.053   2.413  13.128  1.3127  1.0454  1.0688
 4204SOL     OW24070   1.884   1.655   0.769  0.1887  0.2207  0.5258
 4204SOL    HW124071   1.836   1.617   0.696 -1.9793 -0.2161  2.1457
 4204SOL    HW224072   1.819   1.649   0.840  0.1271 -2.0067  0.2716
 4205SOL     OW24073   1.455   2.274   0.732 -0.0552 -0.8152  0.0089
 4205SOL    HW124074   1.520   2.213   0.766  0.9215 -0.9578 -2.1288
 4205SOL    HW224075   1.381   2.214   0.720 -1.4765  1.2153 -1.4677
 4206SOL     OW24076   2.774   3.039   0.707  0.1944 -0.3553  0.4904
 4206SOL    HW124077   2.716   3.115   0.717 -1.4374 -1.6618  0.9392
 4206SOL    HW224078   2.813   3.053   0.793  0.1515  0.2145  0.4184
 4207SOL     OW24079   2.608   0.487   7.512 -0.0787 -0.3143 -0.4499
 4207SOL    HW124080   2.583   0.578   7.528 -0.0598 -0.1245 -1.4920
 4207SOL    HW224081   2.689   0.501   7.461 -0.7864  3.1858 -0.6313
 4208SOL     OW24082   4.202   3.654   3.939  0.2155  0.3566 -0.0698
 4208SOL    HW124083   4.199   3.581   3.877 -0.5135 -0.7787  1.2806
 4208SOL    HW224084   4.292   3.680   3.958  1.5795 -2.9345 -1.9602
 4209SOL     OW24085   2.381   3.571  11.014 -0.3373  0.1679 -0.4323
 4209SOL    HW124086   2.336   3.572  10.930 -0.5036 -1.2138 -0.3600
 4209SOL    HW224087   2.421   3.484  11.020 -0.4659  0.1659  0.4286
 4210SOL     OW24088   2.547   2.919   3.302  0.4063  0.3026 -0.5001
 4210SOL    HW124089   2.498   2.856   3.355  0.3826  0.5241 -0.2619
 4210SOL    HW224090   2.510   2.994   3.348 -0.6027 -0.0766 -0.7093
 4211SOL     OW24091   3.705   2.071   6.316 -0.0528  0.1973 -0.2034
 4211SOL    HW124092   3.618   2.041   6.343 -0.2908  0.9938 -0.0810
 4211SOL    HW224093   3.672   2.156   6.287 -0.9357 -0.6488 -1.6933
 4212SOL     OW24094   3.418   4.158   8.632 -0.1040 -0.2097  0.2722
 4212SOL    HW124095   3.415   4.088   8.698 -3.1500 -0.0644  0.2718
 4212SOL    HW224096   3.326   4.171   8.611  0.1643 -0.0483 -0.8057
 4213SOL     OW24097   2.564   1.074   8.230  0.4775 -0.5318  0.6316
 4213SOL    HW124098   2.600   1.161   8.218  3.7598 -1.5991  2.6945
 4213SOL    HW224099   2.470   1.083   8.216  0.4644  1.9771  2.4122
 4214SOL     OW24100   3.964   1.104   9.002 -0.5603 -0.7967 -0.2318
 4214SOL    HW124101   3.899   1.156   9.050 -0.5760  0.7071 -1.8864
 4214SOL    HW224102   3.966   1.021   9.049 -1.3151 -0.6097  0.1404
 4215SOL     OW24103   1.016   1.894   0.750 -0.5576  0.2625 -0.5324
 4215SOL    HW124104   0.959   1.820   0.733 -0.2150 -0.3298  0.8952
 4215SOL    HW224105   0.995   1.900   0.843 -2.6687  0.5945 -1.0167
 4216SOL     OW24106   1.687   4.217   2.508  0.1995 -0.5418 -0.3221
 4216SOL    HW124107   1.769   4.184   2.544  0.8915  1.6129  0.0618
 4216SOL    HW224108   1.720   4.244   2.422  0.0410 -2.6880 -1.0582
 4217SOL     OW24109   3.453   0.335   3.520 -0.0930 -0.2366 -0.1318
 4217SOL    HW124110   3.430   0.414   3.570  2.6032  1.6000 -1.8182
 4217SOL    HW224111   3.534   0.311   3.565 -0.6933 -0.9065  0.6084
 4218SOL     OW24112   4.589   1.276   4.291 -0.0608 -0.3154 -0.3395
 4218SOL    HW124113   4.507   1.277   4.339  0.3416  1.1087  0.3031
 4218SOL    HW224114   4.602   1.183   4.272  1.2946 -0.2032  0.0055
 4219SOL     OW24115   2.443   3.161   3.440  0.2084 -0.4058 -0.0119
 4219SOL    HW124116   2.434   3.129   3.529 -0.6257 -0.5831 -0.1564
 4219SOL    HW224117   2.351   3.188   3.429  0.8733  1.4963 -0.9461
 4220SOL     OW24118   1.170   4.510  10.894  0.5885  0.0192 -0.3956
 4220SOL    HW124119   1.090   4.545  10.935  1.0509  0.6606 -0.0489
 4220SOL    HW224120   1.221   4.473  10.966  1.2741  1.0644 -0.3509
 4221SOL     OW24121   1.293   2.367   4.316  0.0429 -0.0811  0.4352
 4221SOL    HW124122   1.227   2.359   4.247  1.3960  1.2184 -1.0232
 4221SOL    HW224123   1.243   2.365   4.398 -1.2687  0.2499 -0.3441
 4222SOL     OW24124   2.844   1.469   5.704  0.1396  0.1131  0.2316
 4222SOL    HW124125   2.758   1.509   5.721  0.8099  0.7279  2.1385
 4222SOL    HW224126   2.834   1.385   5.748  0.2066  1.5178  2.9597
 4223SOL     OW24127   2.028   4.344   8.441  0.0366 -0.8280 -0.3053
 4223SOL    HW124128   1.961   4.411   8.458  1.5617  1.0838 -1.9274
 4223SOL    HW224129   2.103   4.394   8.412 -0.5373  0.2571  0.0625
 4224SOL     OW24130   3.798   1.721   2.105 -0.4283 -0.0476  0.2098
 4224SOL    HW124131   3.866   1.781   2.136  2.7348 -2.1450 -2.7848
 4224SOL    HW224132   3.797   1.656   2.175 -0.3216  0.1016  0.3505
 4225SOL     OW24133   0.727   1.720   1.626 -0.3740 -0.3378  0.8324
 4225SOL    HW124134   0.692   1.645   1.674 -1.7715  0.7021  1.4647
 4225SOL    HW224135   0.724   1.785   1.696  0.6396 -1.5147  1.9559
 4226SOL     OW24136   3.799   1.115   3.648 -0.0540 -0.3512  0.2965
 4226SOL    HW124137   3.765   1.202   3.629  0.1008  0.1159  2.1241
 4226SOL    HW224138   3.745   1.081   3.719 -0.6597  1.1087  0.5280
 4227SOL     OW24139   0.236   0.328   3.432  0.0682 -0.5999 -0.0010
 4227SOL    HW124140   0.305   0.268   3.461 -0.9899 -1.6619  0.3005
 4227SOL    HW224141   0.175   0.275   3.381  0.2070  0.5920 -1.4016
 4228SOL     OW24142   2.003   3.995   1.781  0.0723  0.2838  0.2803
 4228SOL    HW124143   1.975   4.016   1.870  1.1869  1.5861  0.3347
 4228SOL    HW224144   1.918   3.989   1.738 -0.6985  1.2772  1.6990
 4229SOL     OW24145   3.588   0.311   7.287  0.2009  0.0482  0.3324
 4229SOL    HW124146   3.658   0.347   7.341  1.0577 -2.4791  0.9232
 4229SOL    HW224147   3.621   0.351   7.207  1.7977  2.5959  2.2890
 4230SOL     OW24148   0.251   2.544   2.406  0.5993  1.0391 -0.2846
 4230SOL    HW124149   0.210   2.502   2.331 -1.1960  2.5091 -0.1140
 4230SOL    HW224150   0.179   2.545   2.470  0.8557  1.4513  0.0009
 4231SOL     OW24151   2.512   1.696  15.182  0.2663 -0.3035  0.2833
 4231SOL    HW124152   2.538   1.608  15.154 -1.2331 -0.9203  0.8432
 4231SOL    HW224153   2.428   1.710  15.139  1.9148 -0.8778 -3.1753
 4232SOL     OW24154   1.164   1.106  13.181 -0.0749 -0.1019 -0.2305
 4232SOL    HW124155   1.124   1.191  13.199 -3.2638 -1.7399  0.6175
 4232SOL    HW224156   1.246   1.132  13.140  0.2771 -1.7749 -0.5831
 4233SOL     OW24157   2.616   2.884  15.417 -0.5948 -0.1084 -0.5199
 4233SOL    HW124158   2.525   2.858  15.399 -0.0534 -1.9932 -0.5814
 4233SOL    HW224159   2.597   2.955  15.478  1.0868  0.0132 -0.1367
 4234SOL     OW24160   2.919   2.325   2.841  0.3863  0.1598  0.3812
 4234SOL    HW124161   2.972   2.259   2.796  2.4499  0.8887  1.7542
 4234SOL    HW224162   2.977   2.350   2.913  0.7049 -0.9243  0.5085
 4235SOL     OW24163   2.428   4.706   5.470 -0.6683  0.4846 -0.2665
 4235SOL    HW124164   2.375   4.665   5.537  0.3823 -0.4080  0.0097
 4235SOL    HW224165   2.508   4.656   5.488  0.3482  2.7268  1.4094
 4236SOL     OW24166   4.487   2.632   4.766 -0.1595  0.3049 -0.6326
 4236SOL    HW124167   4.402   2.590   4.753  0.2193 -0.9286  0.9977
 4236SOL    HW224168   4.507   2.637   4.672  0.5551  1.9236 -0.4022
 4237SOL     OW24169   2.273   1.165   5.612  0.9444 -0.0058  0.0932
 4237SOL    HW124170   2.259   1.169   5.707  1.8336 -1.2592  0.2746
 4237SOL    HW224171   2.195   1.213   5.583  0.6686  0.0366  0.8760
 4238SOL     OW24172   0.956   1.140   6.329  0.5524  0.3864 -0.1211
 4238SOL    HW124173   0.981   1.078   6.261  0.2756  3.4058 -2.9296
 4238SOL    HW224174   0.984   1.099   6.411  1.3445  1.3842  0.1103
 4239SOL     OW24175   0.760   3.588  14.254 -0.5301 -0.6916  0.1636
 4239SOL    HW124176   0.757   3.598  14.158  0.0675 -0.8822  0.1259
 4239SOL    HW224177   0.666   3.597  14.267 -0.7021 -2.1893 -0.0705
 4240SOL     OW24178   2.663   1.956   2.902 -0.1159 -0.3833  0.0125
 4240SOL    HW124179   2.632   2.042   2.872  2.5846  0.1152 -1.3813
 4240SOL    HW224180   2.582   1.905   2.908 -0.9491  0.7951 -1.1648
 4241SOL     OW24181   4.663   3.164  13.896  0.6757 -0.2941  0.3228
 4241SOL    HW124182   4.607   3.236  13.926  0.3300 -1.2610  2.0223
 4241SOL    HW224183   4.602   3.092  13.913  0.6916 -0.1500  1.0257
 4242SOL     OW24184   0.839   4.344  14.667 -0.0264 -0.2802 -0.0288
 4242SOL    HW124185   0.873   4.266  14.711  1.3790 -0.9437 -2.2760
 4242SOL    HW224186   0.912   4.406  14.670 -1.8141  1.7577  1.6164
 4243SOL     OW24187   4.250   2.469  15.894  0.0291  0.2118  0.1964
 4243SOL    HW124188   4.335   2.469  15.937 -0.2402  3.2704  0.7015
 4243SOL    HW224189   4.274   2.413  15.820  1.2917 -0.5101  1.1556
 4244SOL     OW24190   3.698   4.154   7.337  0.3541  0.0557 -0.0784
 4244SOL    HW124191   3.657   4.189   7.416 -2.4242 -0.1643 -1.4191
 4244SOL    HW224192   3.741   4.073   7.362  1.8033  0.2282 -1.9806
 4245SOL     OW24193   4.699   4.646   2.501  0.1727 -0.0417 -0.0672
 4245SOL    HW124194   0.060   4.621   2.528 -0.2758 -0.3053  1.1239
 4245SOL    HW224195   4.707   4.658   2.406  3.4883 -2.4018 -0.1228
 4246SOL     OW24196   1.176   4.695   5.746  0.3498 -0.2452  0.0757
 4246SOL    HW124197   1.239   4.706   5.818  1.6229 -1.5119 -0.8524
 4246SOL    HW224198   1.153   4.602   5.751 -0.5822 -0.0225 -0.1215
 4247SOL     OW24199   4.108   2.743   0.150 -0.5357 -0.4726  0.4036
 4247SOL    HW124200   4.190   2.713   0.191 -0.8071 -1.3561  0.2960
 4247SOL    HW224201   4.052   2.733   0.226  0.4843 -0.1501  1.2059
 4248SOL     OW24202   3.299   0.218   3.918  0.3702  0.1243  0.3320
 4248SOL    HW124203   3.255   0.203   4.002  4.3182 -1.8990  1.9973
 4248SOL    HW224204   3.219   0.230   3.866  1.3462  1.0320 -0.9551
 4249SOL     OW24205   3.419   3.053   5.031 -0.4584 -0.4822 -0.5108
 4249SOL    HW124206   3.478   3.083   4.962 -0.4069 -0.5878 -0.5133
 4249SOL    HW224207   3.417   2.963   4.999 -0.4864 -1.1547  1.3742
 4250SOL     OW24208   0.961   0.616   1.147  0.5557 -0.1913  0.1921
 4250SOL    HW124209   0.901   0.641   1.217 -0.0508 -0.4353 -0.2355
 4250SOL    HW224210   0.973   0.699   1.101  1.1560  0.5916  1.7436
 4251SOL     OW24211   4.601   1.081   1.912 -0.4724 -0.4978 -0.3626
 4251SOL    HW124212   4.594   1.058   1.819 -1.7682  1.3024 -0.7104
 4251SOL    HW224213   4.678   1.137   1.911  0.7878 -2.2531 -1.1297
 4252SOL     OW24214   4.478   3.635   4.849 -0.4747  0.3420  0.0714
 4252SOL    HW124215   4.466   3.579   4.772 -0.2309  1.1057 -0.5214
 4252SOL    HW224216   4.573   3.627   4.852 -0.7616 -2.3026  2.8379
 4253SOL     OW24217   4.004   2.369   5.418  0.1619  0.3453  0.0152
 4253SOL    HW124218   3.934   2.312   5.385  0.1320  0.2468  0.2486
 4253SOL    HW224219   3.963   2.449   5.386  0.4468 -0.2825 -1.8934
 4254SOL     OW24220   3.996   1.676   6.589 -0.0728  0.0067 -0.2521
 4254SOL    HW124221   4.017   1.656   6.680 -2.3373  0.4958  0.3711
 4254SOL    HW224222   4.089   1.692   6.574 -0.4987  1.5003 -1.3746
 4255SOL     OW24223   3.265   2.985   8.156 -0.8553 -0.9296 -0.4566
 4255SOL    HW124224   3.314   2.914   8.114 -1.5057 -2.0967  0.7662
 4255SOL    HW224225   3.225   3.028   8.080  2.7478  2.1221 -0.6068
 4256SOL     OW24226   3.821   0.812   6.528 -0.4130 -0.1924  0.6943
 4256SOL    HW124227   3.783   0.777   6.609 -0.7269 -1.9207 -0.1870
 4256SOL    HW224228   3.774   0.895   6.532  0.6439  0.4487 -0.0831
 4257SOL     OW24229   4.682   1.746  10.289 -0.1445  0.0589  0.2380
 4257SOL    HW124230   4.666   1.681  10.220 -0.3537 -1.0070  1.2858
 4257SOL    HW224231   4.646   1.705  10.368  1.9504 -0.2416  1.0317
 4258SOL     OW24232   2.412   0.761   2.944 -0.1724 -0.2968  0.2372
 4258SOL    HW124233   2.340   0.823   2.954  1.1380  1.4703 -1.2585
 4258SOL    HW224234   2.417   0.758   2.848 -1.1228  0.1096  0.1840
 4259SOL     OW24235   3.492   3.628   8.996 -0.0550  0.0850 -0.3147
 4259SOL    HW124236   3.507   3.665   9.083  3.5664 -3.2246  0.4412
 4259SOL    HW224237   3.523   3.539   9.011  1.5892  0.7714  0.3241
 4260SOL     OW24238   3.981   3.851   2.510  0.1320  0.1718 -0.7240
 4260SOL    HW124239   4.016   3.788   2.447  0.6168 -1.4698  1.1922
 4260SOL    HW224240   3.924   3.897   2.449 -1.6157 -1.3544 -0.2607
 4261SOL     OW24241   3.263   0.290   7.761  0.6139 -0.3728  0.0359
 4261SOL    HW124242   3.240   0.260   7.673 -0.2267  2.0250 -0.5539
 4261SOL    HW224243   3.341   0.344   7.748 -0.4204  0.9258 -0.7377
 4262SOL     OW24244   1.113   2.601   8.912 -0.5442 -0.6432 -0.4594
 4262SOL    HW124245   1.196   2.592   8.866 -0.9342 -0.2799 -1.2343
 4262SOL    HW224246   1.128   2.555   8.994 -1.9809 -0.2721  0.0018
 4263SOL     OW24247   2.867   3.558   4.829  0.2221 -0.5351  0.5196
 4263SOL    HW124248   2.957   3.591   4.829 -0.8662  2.4089  1.3751
 4263SOL    HW224249   2.869   3.512   4.913 -1.0600  1.1438  1.4693
 4264SOL     OW24250   1.546   4.708  12.100  0.2620  0.1483  0.1026
 4264SOL    HW124251   1.551   4.692  12.194  0.4900  0.8024  0.1992
 4264SOL    HW224252   1.526   4.621  12.065  2.0806 -0.4133  0.4162
 4265SOL     OW24253   1.533   4.539  13.262  0.3390  0.1986  0.0905
 4265SOL    HW124254   1.570   4.583  13.339 -0.1063  0.7273  0.0113
 4265SOL    HW224255   1.610   4.530  13.207  2.0347  2.4860  2.0958
 4266SOL     OW24256   2.020   1.553   2.743  0.2146 -0.5544 -0.6810
 4266SOL    HW124257   2.106   1.530   2.709 -0.3052 -2.0012 -1.0223
 4266SOL    HW224258   1.978   1.468   2.753 -0.8528  0.0383 -0.0400
 4267SOL     OW24259   4.560   1.204   3.470  0.6190 -0.3264  0.7781
 4267SOL    HW124260   4.489   1.267   3.481  2.9997  2.3204  0.8983
 4267SOL    HW224261   4.611   1.212   3.550 -0.4307 -3.5581  1.7672
 4268SOL     OW24262   2.831   0.802   3.561  0.2295 -0.1852  0.1373
 4268SOL    HW124263   2.906   0.785   3.619 -0.3393  2.0747  1.5313
 4268SOL    HW224264   2.852   0.891   3.533  2.3935 -0.8181 -0.2500
 4269SOL     OW24265   3.067   2.714  16.209 -0.4708 -0.2225 -0.6403
 4269SOL    HW124266   2.990   2.732  16.263 -0.0912  0.0043 -0.1811
 4269SOL    HW224267   3.138   2.708  16.273 -2.8994  0.6069  2.1300
 4270SOL     OW24268   1.277   2.535   5.054  0.2963  0.3143  0.4737
 4270SOL    HW124269   1.238   2.600   4.995 -0.8884 -0.5883  0.2518
 4270SOL    HW224270   1.242   2.563   5.138 -0.5501  0.6657  0.0097
 4271SOL     OW24271   2.962   1.341  10.992 -0.1070 -0.5486  0.6964
 4271SOL    HW124272   2.947   1.360  11.085 -4.1996  1.6486 -0.4249
 4271SOL    HW224273   2.876   1.318  10.957  1.2250 -2.1046 -1.5395
 4272SOL     OW24274   2.421   2.442  15.565 -0.1963 -0.3279  0.5203
 4272SOL    HW124275   2.374   2.366  15.532  1.9617 -0.7537 -1.5800
 4272SOL    HW224276   2.424   2.497  15.486  1.3738  1.8840  2.1428
 4273SOL     OW24277   4.682   1.041  14.754 -0.0089 -0.7361  0.4686
 4273SOL    HW124278   4.623   1.116  14.742 -0.5301 -1.0537  1.0476
 4273SOL    HW224279   4.686   1.041  14.850 -2.3213 -1.7872  0.5617
 4274SOL     OW24280   3.051   2.309   4.241  0.7642  0.0054 -0.0483
 4274SOL    HW124281   2.958   2.330   4.227  0.3319 -0.6085  1.9475
 4274SOL    HW224282   3.050   2.223   4.283  1.7217  1.0277  2.0747
 4275SOL     OW24283   0.353   3.370  12.396 -0.3310 -0.0912 -0.3102
 4275SOL    HW124284   0.389   3.307  12.458  0.0664 -1.1897 -1.6703
 4275SOL    HW224285   0.433   3.418  12.373 -0.1582 -0.0666  0.3582
 4276SOL     OW24286   3.733   2.826  12.087 -0.5756  0.6958 -0.1496
 4276SOL    HW124287   3.766   2.852  12.001 -0.8208 -1.4945 -0.9264
 4276SOL    HW224288   3.805   2.786  12.135 -0.3926 -0.3116 -1.2293
 4277SOL     OW24289   3.777   0.873   7.926  0.5324 -0.2937  0.0569
 4277SOL    HW124290   3.724   0.934   7.875  1.1694 -1.2632 -1.7837
 4277SOL    HW224291   3.854   0.858   7.871  0.2150  2.5586 -1.1673
 4278SOL     OW24292   0.164   0.851   5.736 -0.1728 -0.0715 -0.6402
 4278SOL    HW124293   0.200   0.834   5.649  2.4934 -1.7699  0.8072
 4278SOL    HW224294   0.141   0.761   5.759 -0.2625 -0.3058 -1.6592
 4279SOL     OW24295   4.531   0.643  10.478  0.2080 -0.5619 -0.6010
 4279SOL    HW124296   4.616   0.645  10.435  0.1874 -0.4944 -0.6378
 4279SOL    HW224297   4.496   0.562  10.441 -1.5325 -0.3540  0.5585
 4280SOL     OW24298   0.517   1.424   1.291  0.2234 -0.3713  0.0640
 4280SOL    HW124299   0.498   1.384   1.207 -0.4701 -1.5177  0.7733
 4280SOL    HW224300   0.432   1.430   1.334 -0.5508 -1.4450 -1.3346
 4281SOL     OW24301   3.998   0.455   3.795  0.0953  0.1090  0.4960
 4281SOL    HW124302   3.992   0.477   3.888 -0.0188  0.2859  0.4465
 4281SOL    HW224303   4.094   0.453   3.793  0.0268 -0.6864 -1.6472
 4282SOL     OW24304   3.438   3.673   3.290  0.0190  0.2740 -0.1864
 4282SOL    HW124305   3.533   3.675   3.277  0.2821  0.5055  1.7391
 4282SOL    HW224306   3.408   3.710   3.208 -2.6228 -0.8204  0.2897
 4283SOL     OW24307   3.439   0.457   2.899 -0.0785 -0.2449 -0.1916
 4283SOL    HW124308   3.349   0.491   2.903  0.0180 -0.0240  0.1103
 4283SOL    HW224309   3.431   0.401   2.977 -0.5575  1.0385  0.6810
 4284SOL     OW24310   4.249   3.940   8.693  0.4208  0.1885 -0.0219
 4284SOL    HW124311   4.249   3.894   8.777 -1.0824 -1.6684 -1.0281
 4284SOL    HW224312   4.221   4.028   8.715 -2.1446 -0.3499 -1.1090
 4285SOL     OW24313   2.400   2.373   5.365  0.1132  0.3283 -0.3377
 4285SOL    HW124314   2.351   2.335   5.439 -0.1898 -0.3574 -0.8958
 4285SOL    HW224315   2.478   2.318   5.372 -0.5591 -0.7222 -1.0764
 4286SOL     OW24316   4.003   2.304  16.354 -0.0707 -0.7583 -0.6267
 4286SOL    HW124317   3.942   2.378  16.361  0.8688 -0.0660  0.2489
 4286SOL    HW224318   4.053   2.326  16.276 -1.2998  1.2624 -0.8570
 4287SOL     OW24319   0.563   1.245   4.262  0.4153  0.2885  0.0222
 4287SOL    HW124320   0.544   1.178   4.327 -1.5216  0.8184  0.0155
 4287SOL    HW224321   0.572   1.188   4.186 -1.3789 -1.5572  1.1916
 4288SOL     OW24322   0.396   0.583   2.205 -0.7274 -0.7523  0.4291
 4288SOL    HW124323   0.458   0.533   2.152 -0.8812  2.0958 -2.4245
 4288SOL    HW224324   0.432   0.592   2.293 -1.7098  0.3054  0.7130
 4289SOL     OW24325   0.927   0.465  10.120 -0.2391  0.1205 -0.4783
 4289SOL    HW124326   0.887   0.390  10.076  1.4638 -0.5493 -0.8968
 4289SOL    HW224327   0.851   0.522  10.116 -0.8574 -0.7719 -1.3601
 4290SOL     OW24328   2.472   1.684   4.243  0.5596  0.0722 -0.1632
 4290SOL    HW124329   2.430   1.610   4.288  1.5988 -0.1124  0.5064
 4290SOL    HW224330   2.460   1.755   4.306  1.5800 -0.3882  0.5669
 4291SOL     OW24331   0.308   0.050   6.948 -0.2610  0.8528  0.6231
 4291SOL    HW124332   0.347   0.062   6.861 -1.1630  0.9609  0.2428
 4291SOL    HW224333   0.384   0.045   7.006 -0.9493  1.4822  1.5811
 4292SOL     OW24334   4.633   4.047   5.320 -0.0635 -0.4198 -0.3176
 4292SOL    HW124335   4.603   4.035   5.410  0.0169 -0.8361 -0.3474
 4292SOL    HW224336   4.702   3.981   5.315  0.2030  0.0132 -2.3778
 4293SOL     OW24337   1.745   3.867   7.931  0.4421 -0.2670 -0.2507
 4293SOL    HW124338   1.681   3.810   7.887 -0.0460  1.8884 -2.3223
 4293SOL    HW224339   1.741   3.827   8.018 -0.2729  1.3748  0.4881
 4294SOL     OW24340   2.759   0.323   3.387  0.1864 -0.0703 -0.4557
 4294SOL    HW124341   2.773   0.269   3.464  2.5059 -0.7011 -1.3056
 4294SOL    HW224342   2.821   0.389   3.419 -1.5521  1.0544  0.5967
 4295SOL     OW24343   0.680   1.758   3.704  0.0292  0.0191  0.4758
 4295SOL    HW124344   0.660   1.843   3.664 -0.8615 -0.8492 -0.9149
 4295SOL    HW224345   0.673   1.779   3.797 -1.5013  2.8034 -0.2809
 4296SOL     OW24346   3.436   1.297   7.535 -0.3733 -0.1140 -0.4720
 4296SOL    HW124347   3.431   1.269   7.626  0.3349  1.5263  0.0596
 4296SOL    HW224348   3.374   1.368   7.521 -0.6742 -0.5425 -1.3189
 4297SOL     OW24349   1.614   4.524   2.181 -0.0488  0.5083  0.1002
 4297SOL    HW124350   1.529   4.540   2.139 -1.0319 -0.3529  1.7203
 4297SOL    HW224351   1.596   4.561   2.268 -0.1162  1.9514 -0.5367
 4298SOL     OW24352   2.217   4.682   7.782 -0.3258 -0.2452  0.0066
 4298SOL    HW124353   2.209   4.589   7.805 -0.3866 -0.3668 -0.5047
 4298SOL    HW224354   2.201   4.726   7.865  0.7044  0.0292  0.0521
 4299SOL     OW24355   4.360   2.419   9.530  0.6977  0.0406  0.1101
 4299SOL    HW124356   4.292   2.459   9.476  0.2567 -1.3539 -0.3652
 4299SOL    HW224357   4.408   2.499   9.552 -0.5716  0.6301  0.7284
 4300SOL     OW24358   3.396   0.049   4.844 -0.1760 -0.1883  0.3313
 4300SOL    HW124359   3.408   0.015   4.755  1.6571 -0.6056  0.7473
 4300SOL    HW224360   3.485   0.067   4.873  0.6472 -1.0294 -1.6258
 4301SOL     OW24361   0.436   2.856   2.243  0.6784 -0.0504 -0.5426
 4301SOL    HW124362   0.521   2.894   2.219  0.9032 -0.2676 -0.0913
 4301SOL    HW224363   0.371   2.909   2.197 -1.7410 -0.7441  2.1355
 4302SOL     OW24364   4.147   2.793  16.120 -0.2873 -0.4744 -0.0560
 4302SOL    HW124365   4.239   2.791  16.093 -0.6959 -2.3674 -1.3158
 4302SOL    HW224366   4.160   2.849  16.196 -0.0451 -1.7942  0.8924
 4303SOL     OW24367   4.294   0.562   6.095 -0.1895  0.0535 -0.1914
 4303SOL    HW124368   4.205   0.529   6.112 -0.4128  0.3254 -0.8314
 4303SOL    HW224369   4.276   0.655   6.083  0.3629  0.2391  0.4237
 4304SOL     OW24370   1.592   4.406   7.407 -0.0129  0.3397 -0.0220
 4304SOL    HW124371   1.668   4.455   7.440 -1.4032  2.6289 -0.2294
 4304SOL    HW224372   1.581   4.350   7.485  2.1785 -0.2906 -0.1669
 4305SOL     OW24373   1.644   0.972   7.916 -0.0046  0.4246  0.3893
 4305SOL    HW124374   1.697   0.986   7.994 -0.8866 -1.2994  1.2814
 4305SOL    HW224375   1.702   1.003   7.846  0.6673 -1.4011  0.1421
 4306SOL     OW24376   4.548   3.479   7.532 -0.2266  0.7888  0.0837
 4306SOL    HW124377   4.559   3.413   7.601 -0.2349  1.2813  0.5569
 4306SOL    HW224378   4.462   3.453   7.498  0.0296 -0.9976  0.7880
 4307SOL     OW24379   4.197   3.617  10.975 -0.0604  0.4246 -0.2748
 4307SOL    HW124380   4.222   3.616  11.068  1.0425  1.5648 -0.5632
 4307SOL    HW224381   4.102   3.604  10.983 -0.0295  0.1194 -0.4316
 4308SOL     OW24382   4.450   1.555   0.125  0.3542 -0.0276 -0.5985
 4308SOL    HW124383   4.532   1.551   0.077  0.8308  2.4383  0.0025
 4308SOL    HW224384   4.445   1.650   0.136 -1.5921 -0.1515 -0.4111
 4309SOL     OW24385   4.436   2.750   6.560  0.4831  0.0450 -0.5950
 4309SOL    HW124386   4.404   2.683   6.500  0.1591  0.4370 -0.8622
 4309SOL    HW224387   4.401   2.725   6.645  1.6001  0.5560  0.0129
 4310SOL     OW24388   2.626   2.712  17.262  0.2002 -0.2251 -0.5389
 4310SOL    HW124389   2.670   2.794  17.285 -1.2733  0.4697 -0.2316
 4310SOL    HW224390   2.579   2.703  17.344  0.2735  0.9815 -0.3598
 4311SOL     OW24391   0.577   2.233   6.828 -0.2692 -0.3316 -0.0933
 4311SOL    HW124392   0.559   2.199   6.916 -1.7591  1.9877  0.4757
 4311SOL    HW224393   0.584   2.327   6.844 -2.7744 -0.6694  3.0426
 4312SOL     OW24394   2.923   3.550   8.156 -0.4972 -0.7794 -0.0059
 4312SOL    HW124395   2.842   3.501   8.166  0.9803 -2.7469  2.3109
 4312SOL    HW224396   2.986   3.482   8.134  0.9164  0.5805 -0.1803
 4313SOL     OW24397   1.049   0.931   5.934 -0.1736  1.1277  0.3856
 4313SOL    HW124398   1.004   1.016   5.932  1.1398  1.8604  2.8495
 4313SOL    HW224399   1.123   0.968   5.981  0.1852 -1.0638  1.5072
 4314SOL     OW24400   1.134   4.466  13.202  0.1322  0.1766  0.4097
 4314SOL    HW124401   1.107   4.396  13.144  0.1088  2.4787 -2.3707
 4314SOL    HW224402   1.122   4.545  13.150 -1.0665 -1.1323 -1.2557
 4315SOL     OW24403   1.605   3.678   6.190  0.2424  0.3072  0.6556
 4315SOL    HW124404   1.590   3.586   6.166 -0.7859  0.0621  2.2549
 4315SOL    HW224405   1.516   3.699   6.217  0.8866  2.1440  1.3095
 4316SOL     OW24406   1.597   2.894   3.202 -0.2505  0.2187 -0.9131
 4316SOL    HW124407   1.654   2.899   3.125 -1.1735 -0.5830 -1.6525
 4316SOL    HW224408   1.629   2.814   3.245  1.7940  1.3199 -0.3666
 4317SOL     OW24409   3.175   1.661   1.298 -0.2082  0.0514 -0.8110
 4317SOL    HW124410   3.095   1.611   1.317 -1.4248  2.7492  1.2363
 4317SOL    HW224411   3.158   1.738   1.353  0.4931 -0.5256  0.2059
 4318SOL     OW24412   1.764   2.142  17.127 -0.3754  0.1394 -0.7888
 4318SOL    HW124413   1.727   2.216  17.079  1.1023  0.2154 -1.8049
 4318SOL    HW224414   1.830   2.183  17.182 -1.3995  0.6252  0.0758
 4319SOL     OW24415   0.289   2.663   4.295 -0.2088  0.2138 -0.3442
 4319SOL    HW124416   0.205   2.684   4.253 -0.2356  0.4626 -0.1663
 4319SOL    HW224417   0.253   2.610   4.366 -2.5677 -0.2827 -1.9296
 4320SOL     OW24418   2.521   1.955  10.620  0.3940  0.0995 -1.0011
 4320SOL    HW124419   2.516   2.031  10.562  0.2115 -0.7238 -2.0688
 4320SOL    HW224420   2.616   1.942  10.616  0.4744  0.5788 -0.6453
 4321SOL     OW24421   1.897   3.880   7.135 -0.0304 -0.1262 -0.1365
 4321SOL    HW124422   1.988   3.888   7.164 -0.6059  0.1722  1.5393
 4321SOL    HW224423   1.849   3.862   7.215  0.7184  0.7061  0.4926
 4322SOL     OW24424   0.335   3.689  12.006  0.2387  0.1133 -0.0689
 4322SOL    HW124425   0.379   3.710  11.924  1.7059 -2.9061 -0.0484
 4322SOL    HW224426   0.259   3.636  11.979  0.4071 -0.3461  0.3622
 4323SOL     OW24427   3.511   1.702  11.888 -0.0716 -0.2472  0.3847
 4323SOL    HW124428   3.532   1.686  11.980 -1.2356  1.2353  0.9158
 4323SOL    HW224429   3.509   1.617  11.844  1.8174 -1.5745  2.8843
 4324SOL     OW24430   1.698   0.271   8.419  0.1479 -0.4738 -0.2581
 4324SOL    HW124431   1.624   0.330   8.405 -1.2770 -1.4416  3.3049
 4324SOL    HW224432   1.660   0.206   8.477  1.0643  0.6192  1.5613
 4325SOL     OW24433   2.309   1.967  17.398 -0.2853 -0.2182 -0.6436
 4325SOL    HW124434   2.354   1.886  17.421  0.0453  0.9135  2.6927
 4325SOL    HW224435   2.270   1.989  17.482 -1.2804  2.5043 -1.7986
 4326SOL     OW24436   2.856   2.128   8.036  0.6830  0.4731 -0.8105
 4326SOL    HW124437   2.780   2.186   8.032  0.0628 -0.2802  0.0963
 4326SOL    HW224438   2.929   2.188   8.047  1.6882 -0.7829 -0.6496
 4327SOL     OW24439   2.926   2.603   7.440  0.6370 -1.1802 -0.1343
 4327SOL    HW124440   2.970   2.686   7.423  1.5965 -1.9050 -1.1740
 4327SOL    HW224441   2.944   2.593   7.534 -1.8076 -1.1203  0.3281
 4328SOL     OW24442   4.681   3.947   2.619 -0.0041  0.0692  0.0871
 4328SOL    HW124443   4.616   4.017   2.618 -0.1968 -0.0973  0.9532
 4328SOL    HW224444   0.034   3.990   2.651 -1.7181  2.4350  1.1042
 4329SOL     OW24445   3.779   4.356  15.878 -0.0019  0.4539 -0.5386
 4329SOL    HW124446   3.728   4.312  15.947 -1.2621  1.2544 -0.9613
 4329SOL    HW224447   3.861   4.374  15.925 -0.4409  1.0515 -0.0089
 4330SOL     OW24448   0.171   0.449   2.446  0.4692  0.4307  0.7599
 4330SOL    HW124449   0.194   0.471   2.536  2.8332  1.0989  0.0002
 4330SOL    HW224450   0.190   0.526   2.393  1.3820 -0.3335 -0.0215
 4331SOL     OW24451   4.155   0.293   8.903  0.2535  0.5144  0.1598
 4331SOL    HW124452   4.244   0.309   8.871  0.1925  1.0138  0.2347
 4331SOL    HW224453   4.161   0.210   8.949  0.5520 -0.2050 -1.1671
 4332SOL     OW24454   0.670   3.819   4.422  0.0874  0.2570 -0.0606
 4332SOL    HW124455   0.673   3.907   4.385 -0.0903 -0.4526 -1.7797
 4332SOL    HW224456   0.575   3.805   4.430  0.1638 -0.4347 -0.3554
 4333SOL     OW24457   3.737   3.607  16.510 -0.0616 -0.2898  0.4315
 4333SOL    HW124458   3.786   3.558  16.576  0.9815 -2.8026 -2.1902
 4333SOL    HW224459   3.646   3.600  16.541 -0.8817  1.9039 -1.5060
 4334SOL     OW24460   4.404   0.826   7.672 -0.0590 -0.1086  0.0343
 4334SOL    HW124461   4.418   0.761   7.742 -0.9172  0.5904  0.8559
 4334SOL    HW224462   4.481   0.878   7.691  0.2147 -0.2395 -0.7101
 4335SOL     OW24463   4.119   2.468   6.546 -0.2635 -0.3481  0.1683
 4335SOL    HW124464   4.177   2.396   6.520 -1.2727 -1.2350  0.3451
 4335SOL    HW224465   4.186   2.518   6.593 -1.1354 -0.5445  1.6464
 4336SOL     OW24466   0.939   3.480   5.620  0.1281 -0.7511 -0.0770
 4336SOL    HW124467   0.945   3.571   5.591  1.8295 -1.0257 -0.5882
 4336SOL    HW224468   0.843   3.472   5.620  0.1313 -0.7964  0.1343
 4337SOL     OW24469   3.714   3.474   3.449 -0.1255  0.1876 -0.5674
 4337SOL    HW124470   3.644   3.528   3.487 -0.7111  1.0931 -2.9658
 4337SOL    HW224471   3.726   3.402   3.511  1.8895 -0.3517 -1.5831
 4338SOL     OW24472   0.348   1.028   5.867 -0.0158  0.3582  0.0428
 4338SOL    HW124473   0.284   0.967   5.830  1.2823 -0.9993  0.0347
 4338SOL    HW224474   0.326   1.028   5.960 -1.0146 -0.3953 -0.1953
 4339SOL     OW24475   0.179   2.557   3.152  0.1603  0.0732  0.3169
 4339SOL    HW124476   0.136   2.549   3.067 -0.9949  0.4166  0.8795
 4339SOL    HW224477   0.264   2.595   3.128  0.6587 -0.0990  1.8571
 4340SOL     OW24478   0.532   2.143   5.123 -0.3471 -0.4685 -0.0483
 4340SOL    HW124479   0.458   2.138   5.184 -0.2393 -0.8969  0.0458
 4340SOL    HW224480   0.545   2.052   5.096 -1.5677 -0.9002  0.8292
 4341SOL     OW24481   4.255   3.980   1.413  0.0189 -0.4200 -0.2249
 4341SOL    HW124482   4.296   3.894   1.409  0.2229 -0.3307 -0.0354
 4341SOL    HW224483   4.165   3.957   1.389  0.2758 -1.2905 -0.3531
 4342SOL     OW24484   2.508   2.625   5.854 -0.4520 -0.4457  0.6717
 4342SOL    HW124485   2.575   2.638   5.921  0.0357 -2.2997  0.5487
 4342SOL    HW224486   2.479   2.716   5.849 -1.2307 -0.8159 -1.4509
 4343SOL     OW24487   4.557   1.307   0.336 -0.0180  0.0822 -0.0889
 4343SOL    HW124488   4.609   1.349   0.405  4.0261  0.2922 -3.2693
 4343SOL    HW224489   4.551   1.220   0.375  1.3079  0.0698  0.0896
 4344SOL     OW24490   2.076   4.126   4.623  0.6253 -0.0031 -0.0330
 4344SOL    HW124491   2.023   4.197   4.660  1.1683  1.0527 -1.2689
 4344SOL    HW224492   2.104   4.071   4.696 -0.3608 -0.6674 -0.1479
 4345SOL     OW24493   1.238   2.625   6.914 -1.1255 -0.2539 -0.4036
 4345SOL    HW124494   1.210   2.535   6.935 -0.1428 -0.3936  0.3212
 4345SOL    HW224495   1.318   2.637   6.966 -0.9837 -1.6266 -0.3079
 4346SOL     OW24496   2.725   0.424   7.743 -0.1951 -0.1613 -0.1686
 4346SOL    HW124497   2.659   0.409   7.675  0.9576 -0.8197 -1.1372
 4346SOL    HW224498   2.694   0.496   7.798 -2.3021 -1.9165  0.9533
 4347SOL     OW24499   2.819   0.385   6.704 -0.1196  0.0693  0.0169
 4347SOL    HW124500   2.766   0.450   6.657  0.8127  2.2367  2.0060
 4347SOL    HW224501   2.783   0.388   6.792 -1.6839  1.7107 -0.6736
 4348SOL     OW24502   1.634   1.807   7.564  0.1299  0.6467 -0.1533
 4348SOL    HW124503   1.711   1.751   7.575 -1.9108 -2.0332  0.5473
 4348SOL    HW224504   1.567   1.739   7.555  0.0594  0.8337 -1.0285
 4349SOL     OW24505   1.227   0.408   3.950  0.6616 -0.4852  0.7580
 4349SOL    HW124506   1.298   0.345   3.960 -0.7760 -2.1251  0.5391
 4349SOL    HW224507   1.176   0.385   3.873  1.3205  0.4257  0.0487
 4350SOL     OW24508   1.974   1.657   1.560 -0.5262  0.4085 -0.2397
 4350SOL    HW124509   1.947   1.570   1.588 -0.2924  0.3103 -0.3158
 4350SOL    HW224510   2.036   1.630   1.492  0.6987  3.3005 -0.2866
 4351SOL     OW24511   3.869   2.105   5.924 -0.0995 -0.1356  0.1369
 4351SOL    HW124512   3.786   2.066   5.897  0.7106 -1.6641 -0.1432
 4351SOL    HW224513   3.858   2.103   6.019  0.7480  0.6300  0.2532
 4352SOL     OW24514   3.378   0.144   7.139  0.3667  0.0893  0.1539
 4352SOL    HW124515   3.453   0.187   7.099  0.7238 -0.9212 -0.2749
 4352SOL    HW224516   3.407   0.054   7.122  1.7483  0.9086 -1.8206
 4353SOL     OW24517   2.373   1.138   9.674 -0.0392 -0.0628 -0.4733
 4353SOL    HW124518   2.395   1.047   9.695 -0.2095  0.1335  0.5384
 4353SOL    HW224519   2.355   1.138   9.580  0.0527  0.4043 -0.4921
 4354SOL     OW24520   1.121   3.786   7.191 -0.4015 -0.2800  0.6394
 4354SOL    HW124521   1.100   3.694   7.204  0.8599 -0.9357 -1.8918
 4354SOL    HW224522   1.193   3.779   7.128 -1.1090 -3.0743  0.1387
 4355SOL     OW24523   4.639   1.704  11.414 -0.3572  0.3994 -0.5021
 4355SOL    HW124524   4.553   1.672  11.386  0.2043 -1.8389  0.3712
 4355SOL    HW224525   4.614   1.731  11.503  0.3016 -2.0583  0.4113
 4356SOL     OW24526   1.198   2.029   5.714  0.5414  0.0187  0.1108
 4356SOL    HW124527   1.183   1.939   5.743 -2.2981  0.4423 -0.1058
 4356SOL    HW224528   1.232   2.069   5.794  1.6786 -2.0108  0.6405
 4357SOL     OW24529   1.398   3.478  12.194  0.1787 -0.6521 -0.0213
 4357SOL    HW124530   1.387   3.389  12.160 -1.2589 -0.3359 -0.3648
 4357SOL    HW224531   1.360   3.528  12.122  1.7865  1.2547  0.4637
 4358SOL     OW24532   0.613   4.466   5.591 -0.2135 -0.1275 -0.6378
 4358SOL    HW124533   0.694   4.517   5.593 -1.2349  1.4878 -0.3284
 4358SOL    HW224534   0.631   4.418   5.511 -1.6587  0.3507 -1.2403
 4359SOL     OW24535   3.038   0.041   3.619 -0.7750 -0.2859 -0.2566
 4359SOL    HW124536   3.022   4.718   3.539  1.4171  2.0126 -2.1464
 4359SOL    HW224537   3.001   4.710   3.686  0.6451 -0.3214  0.4891
 4360SOL     OW24538   4.368   2.229   7.442 -0.0379  0.2526  0.3403
 4360SOL    HW124539   4.292   2.182   7.476 -0.2343 -1.3201 -2.2474
 4360SOL    HW224540   4.394   2.288   7.512 -0.1596  0.1293  0.4899
 4361SOL     OW24541   4.319   4.418   0.535 -0.1404 -0.8502  0.0542
 4361SOL    HW124542   4.321   4.351   0.466  0.0653  0.3223 -1.0918
 4361SOL    HW224543   4.400   4.389   0.576  1.4025  0.5322 -2.0087
 4362SOL     OW24544   3.941   2.392  14.353  0.4202  0.4969  0.3140
 4362SOL    HW124545   4.011   2.332  14.328  0.4140  1.0178 -0.9565
 4362SOL    HW224546   3.996   2.459  14.395  0.7260 -0.1670  0.9728
 4363SOL     OW24547   4.058   4.695  14.115  0.1697  0.3201 -0.6044
 4363SOL    HW124548   4.118   0.043  14.117 -0.6406  0.9545 -0.5366
 4363SOL    HW224549   4.119   4.629  14.079 -2.2997 -2.2354 -0.1046
 4364SOL     OW24550   0.541   2.886  10.950 -0.7745  0.2114 -0.3229
 4364SOL    HW124551   0.539   2.803  10.904 -3.6908 -0.3721  0.8886
 4364SOL    HW224552   0.491   2.873  11.031  0.6273 -1.3161  0.3057
 4365SOL     OW24553   2.489   0.324   4.339 -0.2361 -0.6362 -0.3709
 4365SOL    HW124554   2.427   0.343   4.268  0.4109 -0.3205 -0.8566
 4365SOL    HW224555   2.514   0.235   4.317  0.4718 -0.2842 -1.0059
 4366SOL     OW24556   4.524   3.999   8.464 -0.1642 -0.1246  0.6984
 4366SOL    HW124557   4.458   4.066   8.483 -0.6600 -0.8370  1.4587
 4366SOL    HW224558   4.575   4.012   8.544  0.6647  0.6755  0.0542
 4367SOL     OW24559   2.346   3.519   6.641  0.2884 -0.2796  0.3875
 4367SOL    HW124560   2.264   3.567   6.627 -1.0849 -2.1295  2.0161
 4367SOL    HW224561   2.387   3.530   6.555 -0.6502 -0.1133 -0.0459
 4368SOL     OW24562   1.568   3.524  16.316 -0.4116  0.3753 -0.0608
 4368SOL    HW124563   1.656   3.535  16.353  0.4360  0.2762 -2.0429
 4368SOL    HW224564   1.567   3.429  16.302  0.0078  0.4163 -0.3802
 4369SOL     OW24565   2.382   0.859   6.251  0.0204 -0.1440  0.4075
 4369SOL    HW124566   2.356   0.907   6.330 -0.1487 -1.0288  0.8877
 4369SOL    HW224567   2.464   0.821   6.282 -1.0975 -1.5988  1.5248
 4370SOL     OW24568   2.557   2.769  15.970  0.1195  0.5735  1.1086
 4370SOL    HW124569   2.570   2.857  16.004  0.2548 -0.0482  2.6326
 4370SOL    HW224570   2.462   2.769  15.969  0.1486 -0.0466 -1.7683
 4371SOL     OW24571   0.678   1.178  15.947  0.0126  0.0243 -0.5511
 4371SOL    HW124572   0.629   1.221  16.017  0.3254 -1.2023  0.4282
 4371SOL    HW224573   0.684   1.090  15.983  2.6172  0.2938 -0.3316
 4372SOL     OW24574   1.459   2.676   7.311  0.1322 -0.6031  0.3698
 4372SOL    HW124575   1.463   2.714   7.398 -0.1523 -2.6965  1.2977
 4372SOL    HW224576   1.513   2.600   7.331  0.9696 -0.3468 -0.9355
 4373SOL     OW24577   0.171   1.211   8.591 -0.5607 -0.3804  0.3555
 4373SOL    HW124578   0.160   1.227   8.498  2.0988  2.1092  0.4928
 4373SOL    HW224579   0.138   1.292   8.629 -0.4458  0.8611 -2.2365
 4374SOL     OW24580   1.640   1.328  11.189  0.5118  0.2069 -0.2739
 4374SOL    HW124581   1.699   1.255  11.210 -0.0451 -0.3876 -0.7512
 4374SOL    HW224582   1.567   1.286  11.145 -0.7419  1.4604  0.6397
 4375SOL     OW24583   0.352   3.696  15.695  0.3406  0.1708 -0.2832
 4375SOL    HW124584   0.420   3.655  15.641  0.6727 -0.0458  0.2959
 4375SOL    HW224585   0.290   3.738  15.635 -0.2028  1.1987  1.0064
 4376SOL     OW24586   2.876   0.812  17.542  0.3768 -0.0180 -0.3811
 4376SOL    HW124587   2.951   0.791  17.597  1.2212  1.8346 -0.8380
 4376SOL    HW224588   2.844   0.728  17.508 -1.0843  0.4620 -0.1902
 4377SOL     OW24589   2.709   3.270   6.305  0.2856 -0.2920 -0.2243
 4377SOL    HW124590   2.775   3.338   6.291 -1.1543  1.1284 -0.0984
 4377SOL    HW224591   2.748   3.196   6.258  1.8473 -0.4073  1.2386
 4378SOL     OW24592   4.511   4.330  17.213  0.4280  0.6956 -0.0569
 4378SOL    HW124593   4.480   4.420  17.223  2.8207  1.8830 -3.1218
 4378SOL    HW224594   4.553   4.305  17.295 -1.7068 -0.3132  0.7171
 4379SOL     OW24595   4.217   2.815   6.914  0.0913  0.2404 -0.4795
 4379SOL    HW124596   4.130   2.782   6.891 -0.7690  1.5822  0.8715
 4379SOL    HW224597   4.199   2.883   6.979  0.3494  0.4733 -0.6527
 4380SOL     OW24598   1.556   2.016   4.481  0.0181 -0.3912  0.4425
 4380SOL    HW124599   1.559   2.079   4.409  0.8493 -0.3511  0.5085
 4380SOL    HW224600   1.504   1.953   4.433 -0.3269  1.0420 -1.0771
 4381SOL     OW24601   0.398   3.768   0.491  0.1197  0.6084 -0.5327
 4381SOL    HW124602   0.411   3.788   0.584  1.5305  0.0995 -0.6244
 4381SOL    HW224603   0.309   3.731   0.494  0.8813 -1.1733  0.5680
 4382SOL     OW24604   2.713   2.262   5.429 -0.1444  0.0680  0.1754
 4382SOL    HW124605   2.697   2.336   5.488 -0.3306  0.8295 -0.8168
 4382SOL    HW224606   2.805   2.278   5.411  0.0486 -0.8849  0.3754
 4383SOL     OW24607   0.821   4.620   5.621  0.0578  0.7035  0.2997
 4383SOL    HW124608   0.896   4.576   5.580  0.6417  0.5126  1.5581
 4383SOL    HW224609   0.857   4.666   5.697  0.4377  0.2795  0.3776
 4384SOL     OW24610   1.011   1.644   4.091 -0.2590 -0.2077 -0.3967
 4384SOL    HW124611   0.990   1.649   3.998 -0.1358  1.4954 -0.3323
 4384SOL    HW224612   0.961   1.569   4.123  2.2700 -0.9366  1.8207
 4385SOL     OW24613   2.218   3.714  12.256  0.4609 -0.2369  0.2462
 4385SOL    HW124614   2.200   3.803  12.287  2.7630 -0.2547  1.6505
 4385SOL    HW224615   2.157   3.659  12.305  1.5594 -2.2754 -0.6540
 4386SOL     OW24616   4.320   0.966   1.979 -0.2075  0.2487  0.4499
 4386SOL    HW124617   4.361   0.948   1.895 -2.0038 -1.8055  0.0099
 4386SOL    HW224618   4.367   1.045   2.004  0.3761  0.3861 -1.1012
 4387SOL     OW24619   3.852   3.742   7.920  0.4591  0.0710 -0.6131
 4387SOL    HW124620   3.860   3.667   7.861 -0.2361  0.5374 -1.3008
 4387SOL    HW224621   3.820   3.809   7.860 -0.3766  0.1938 -0.0370
 4388SOL     OW24622   0.942   1.263   9.822  0.2837  0.0981  0.8203
 4388SOL    HW124623   1.034   1.288   9.811  0.6769 -1.3162  0.9035
 4388SOL    HW224624   0.912   1.341   9.868  0.6833 -0.6802  2.4200
 4389SOL     OW24625   4.593   4.148   5.972  0.1292  0.5067  0.4794
 4389SOL    HW124626   4.527   4.148   5.903  0.2544  0.9752  0.3554
 4389SOL    HW224627   4.535   4.189   6.037  0.8149  0.3421  1.1977
 4390SOL     OW24628   4.426   3.300  13.867 -0.2417 -0.3377  0.2832
 4390SOL    HW124629   4.371   3.355  13.812  0.6655 -0.6508 -0.9316
 4390SOL    HW224630   4.402   3.340  13.951 -0.2358 -0.3408  0.2865
 4391SOL     OW24631   1.648   3.650   0.059 -0.1078 -0.0576  0.0673
 4391SOL    HW124632   1.694   3.679  17.689  1.8313 -1.3753  0.7341
 4391SOL    HW224633   1.596   3.729   0.071 -2.1829 -1.4761  0.4145
 4392SOL     OW24634   1.086   0.496   3.300  0.3505 -0.6046 -0.0951
 4392SOL    HW124635   1.147   0.437   3.256 -1.0641 -1.1494 -1.3260
 4392SOL    HW224636   1.150   0.511   3.369 -1.7739 -1.3119  2.0389
 4393SOL     OW24637   1.088   3.949   8.816  0.2467  0.2002  0.2898
 4393SOL    HW124638   1.150   3.881   8.842  1.6786  0.8778 -1.3533
 4393SOL    HW224639   1.068   3.940   8.723  1.3039  0.9771 -0.0147
 4394SOL     OW24640   3.992   0.199  15.724  0.0185  0.2421 -0.3213
 4394SOL    HW124641   3.981   0.136  15.653  0.0856  0.4420 -0.5045
 4394SOL    HW224642   3.900   0.219  15.744 -0.0147 -0.1290 -0.1005
 4395SOL     OW24643   2.220   0.611  10.747  0.2035  0.0878 -0.5610
 4395SOL    HW124644   2.204   0.606  10.842 -1.0329  1.1336 -0.7179
 4395SOL    HW224645   2.128   0.613  10.720  0.2479  0.8528 -0.6460
 4396SOL     OW24646   0.659   2.490   6.876  0.3462 -0.1203  0.1870
 4396SOL    HW124647   0.623   2.571   6.912 -1.2036 -0.3189 -0.9416
 4396SOL    HW224648   0.754   2.495   6.890  0.2986  1.2227 -0.0013
 4397SOL     OW24649   3.037   4.589   5.295 -0.6340 -0.3856  0.1007
 4397SOL    HW124650   3.088   4.534   5.355 -1.9451  0.9820  2.4395
 4397SOL    HW224651   3.016   4.529   5.223 -1.5050  0.2246 -0.1460
 4398SOL     OW24652   1.333   2.854   0.181 -0.6168  0.1485  0.3162
 4398SOL    HW124653   1.409   2.802   0.206 -0.0402  0.2488 -1.2619
 4398SOL    HW224654   1.259   2.796   0.199  0.6681 -1.2831  0.9057
 4399SOL     OW24655   2.375   3.725  10.642 -0.1427 -0.0814 -0.3058
 4399SOL    HW124656   2.309   3.666  10.677 -1.6005  0.4988 -2.0667
 4399SOL    HW224657   2.319   3.791  10.600  0.7993  1.5476  0.9770
 4400SOL     OW24658   4.107   4.328   7.388  0.0282  0.5679  0.3233
 4400SOL    HW124659   4.202   4.330   7.400  0.0913  2.6928 -0.5674
 4400SOL    HW224660   4.087   4.366   7.474 -1.4275  1.1551 -0.2694
 4401SOL     OW24661   3.836   2.751   7.291 -0.4462  0.5424  0.0554
 4401SOL    HW124662   3.889   2.825   7.320  0.6940 -0.9171  1.7667
 4401SOL    HW224663   3.849   2.758   7.196 -1.2975  0.1485 -0.0895
 4402SOL     OW24664   1.660   0.315   3.181 -0.2925 -0.4591 -0.5307
 4402SOL    HW124665   1.741   0.264   3.176  0.6402  0.7211  2.4792
 4402SOL    HW224666   1.607   0.258   3.125  0.5129 -3.0768  1.3352
 4403SOL     OW24667   2.523   3.299   0.369  0.6336 -0.1113  0.0576
 4403SOL    HW124668   2.607   3.309   0.414  0.7568  3.3175 -0.9235
 4403SOL    HW224669   2.487   3.387   0.379 -1.3921 -0.8207 -0.9746
 4404SOL     OW24670   3.982   4.512  13.261  0.7778 -0.1186 -0.3418
 4404SOL    HW124671   4.041   4.456  13.311  2.0826  1.3271 -0.2632
 4404SOL    HW224672   3.926   4.455  13.207  0.9075 -0.4866 -0.0851
 4405SOL     OW24673   2.562   3.498   3.514 -1.0638  0.3545  0.3302
 4405SOL    HW124674   2.624   3.431   3.484 -0.5755  1.3755 -0.9320
 4405SOL    HW224675   2.622   3.572   3.519  0.7396 -1.2176  1.9228
 4406SOL     OW24676   2.652   1.312  10.921 -0.4453  0.0019  0.2992
 4406SOL    HW124677   2.650   1.269  11.007 -1.9569  1.7856  1.1630
 4406SOL    HW224678   2.596   1.247  10.878 -2.0250  0.1093  2.1932
 4407SOL     OW24679   1.178   2.241   9.121 -0.0087  0.2420  0.1732
 4407SOL    HW124680   1.264   2.266   9.085  0.4080  1.1922  1.8376
 4407SOL    HW224681   1.197   2.245   9.215 -3.3457 -0.9038  0.8909
 4408SOL     OW24682   1.668   3.419   9.689  0.4613 -0.0633 -0.3463
 4408SOL    HW124683   1.679   3.510   9.717 -1.8078 -0.2029  0.9834
 4408SOL    HW224684   1.620   3.435   9.609 -1.6765 -0.2570  0.8970
 4409SOL     OW24685   0.629   3.071   0.777  0.8911 -0.4330  0.4484
 4409SOL    HW124686   0.623   3.036   0.688  2.6250 -0.4352  0.3269
 4409SOL    HW224687   0.534   3.073   0.793  0.7455  1.4518 -0.6527
 4410SOL     OW24688   3.710   0.872   1.083  0.0864 -0.1279  0.6729
 4410SOL    HW124689   3.615   0.866   1.072 -0.0524  1.2501  1.0917
 4410SOL    HW224690   3.734   0.783   1.107 -1.3415 -0.2294  1.7088
 4411SOL     OW24691   0.659   0.295   4.312 -0.2040  0.1551 -0.2946
 4411SOL    HW124692   0.594   0.240   4.355 -1.0363 -0.0842 -1.8795
 4411SOL    HW224693   0.733   0.268   4.367 -0.2235  0.9136  0.0978
 4412SOL     OW24694   2.921   0.382  16.490 -0.2529 -0.3643 -0.1441
 4412SOL    HW124695   2.963   0.406  16.573  2.2771  1.8379 -2.0746
 4412SOL    HW224696   2.833   0.420  16.493 -0.7848 -1.5141 -1.4111
 4413SOL     OW24697   2.872   1.677   1.656  0.5018 -0.2725  0.3044
 4413SOL    HW124698   2.819   1.635   1.587 -0.0856  0.4822  0.2986
 4413SOL    HW224699   2.941   1.612   1.666  1.1098  0.2770 -0.3335
 4414SOL     OW24700   1.932   1.895   2.341 -0.4656  0.6385  0.0058
 4414SOL    HW124701   1.867   1.887   2.271  1.7704 -1.2364 -1.8269
 4414SOL    HW224702   2.010   1.903   2.287  0.1442  1.7015  1.0377
 4415SOL     OW24703   3.065   1.240   4.514  0.1451 -0.2663 -0.3596
 4415SOL    HW124704   2.976   1.215   4.490  0.1579 -0.5673 -0.0914
 4415SOL    HW224705   3.048   1.271   4.602  0.8240  0.1019 -0.3543
 4416SOL     OW24706   2.004   1.234  11.758 -0.4177  0.8618 -0.2866
 4416SOL    HW124707   2.019   1.230  11.664 -0.7956 -0.8446 -0.2733
 4416SOL    HW224708   1.926   1.290  11.754 -3.6050 -3.5454  0.3076
 4417SOL     OW24709   2.077   1.606   6.319  0.2417 -0.3797  0.1427
 4417SOL    HW124710   2.074   1.666   6.245  1.1786  0.9870  1.2042
 4417SOL    HW224711   1.984   1.611   6.342  0.1830 -0.1047 -0.1661
 4418SOL     OW24712   4.565   2.667  16.276  0.0693 -0.2761  0.1780
 4418SOL    HW124713   4.485   2.704  16.314  0.5372  1.7755 -0.8144
 4418SOL    HW224714   4.627   2.738  16.259  0.9460 -1.3026 -0.9169
 4419SOL     OW24715   3.611   4.406   0.526 -0.1352 -0.2337  0.1105
 4419SOL    HW124716   3.673   4.351   0.478  0.8318  1.2369 -0.3671
 4419SOL    HW224717   3.643   4.493   0.499 -0.4784  0.3431  1.5565
 4420SOL     OW24718   3.794   1.756   8.521  0.1961  0.2245 -0.8592
 4420SOL    HW124719   3.798   1.762   8.616  1.8943 -3.3477 -0.7358
 4420SOL    HW224720   3.850   1.826   8.485 -2.3156  1.0798 -3.1200
 4421SOL     OW24721   3.246   1.183   5.258  0.2399 -0.3250 -0.2657
 4421SOL    HW124722   3.254   1.087   5.253  2.1353 -0.2614  1.4371
 4421SOL    HW224723   3.251   1.202   5.352  2.2800 -2.9343  0.1730
 4422SOL     OW24724   0.727   0.142  15.391  0.2776 -0.8484 -0.0625
 4422SOL    HW124725   0.717   0.047  15.387 -0.1593 -0.7537 -1.1745
 4422SOL    HW224726   0.766   0.158  15.477 -0.6368  1.2504 -0.0479
 4423SOL     OW24727   1.352   3.703   1.273  0.0159 -0.1941 -0.4184
 4423SOL    HW124728   1.327   3.767   1.206 -3.9560  0.0058  1.2755
 4423SOL    HW224729   1.296   3.722   1.349 -2.1544 -1.9298 -1.5991
 4424SOL     OW24730   1.855   1.618   7.568  0.5591 -0.2967  0.2791
 4424SOL    HW124731   1.899   1.633   7.484  1.0972  1.7042  0.9136
 4424SOL    HW224732   1.905   1.677   7.623  1.9175 -1.4751  0.3000
 4425SOL     OW24733   2.363   2.037  11.584 -0.2988  0.1606 -0.1372
 4425SOL    HW124734   2.296   2.006  11.645  0.2442  0.2953  0.5247
 4425SOL    HW224735   2.334   2.127  11.570 -2.5430 -0.6874 -0.9408
 4426SOL     OW24736   2.585   2.746   3.622  0.2959 -0.9736  0.2769
 4426SOL    HW124737   2.597   2.795   3.704 -2.0368  0.1416 -0.0445
 4426SOL    HW224738   2.600   2.661   3.662 -1.0783 -0.5305  1.7488
 4427SOL     OW24739   2.364   0.395   7.349 -0.1333  0.0794 -0.2522
 4427SOL    HW124740   2.393   0.306   7.371 -0.6286 -0.8177 -3.1335
 4427SOL    HW224741   2.418   0.450   7.405 -0.4912 -0.4597  0.6153
 4428SOL     OW24742   3.165   3.088   5.473  0.2535 -0.1259 -0.0582
 4428SOL    HW124743   3.260   3.101   5.476  0.3178 -0.7182  0.3483
 4428SOL    HW224744   3.171   3.000   5.436 -0.6745 -1.1465  2.2774
 4429SOL     OW24745   4.358   2.319   6.481  0.4570  0.0623 -0.2715
 4429SOL    HW124746   4.397   2.366   6.407 -1.1315  1.4879 -0.2082
 4429SOL    HW224747   4.415   2.357   6.548  0.6858 -1.0329  0.1553
 4430SOL     OW24748   0.151   3.713  12.293 -0.1535  0.1791  0.2717
 4430SOL    HW124749   0.075   3.692  12.239 -1.4737  0.7178  1.9108
 4430SOL    HW224750   0.192   3.783  12.243  1.9280 -1.4330 -0.2686
 4431SOL     OW24751   3.750   4.670   2.119 -0.6816 -0.2999 -0.0502
 4431SOL    HW124752   3.794   4.609   2.059  2.2026  0.9949  0.7623
 4431SOL    HW224753   3.661   4.656   2.086 -0.2911 -1.1564 -0.7416
 4432SOL     OW24754   3.235   1.460   5.638 -0.2344  0.3114 -0.0033
 4432SOL    HW124755   3.214   1.483   5.547 -1.1539  1.1780  0.4192
 4432SOL    HW224756   3.304   1.523   5.659 -0.5553  0.2198  1.3092
 4433SOL     OW24757   1.276   0.290   7.386  0.5809 -0.1816  0.8059
 4433SOL    HW124758   1.279   0.335   7.471  0.3375 -0.4811  0.9716
 4433SOL    HW224759   1.188   0.254   7.374  1.3480 -1.8138  0.1748
 4434SOL     OW24760   4.060   1.190   9.424 -0.1303 -0.5479 -0.2402
 4434SOL    HW124761   4.095   1.230   9.503 -0.1769 -1.3216  0.1711
 4434SOL    HW224762   3.966   1.191   9.444  0.3201 -0.2218  1.8639
 4435SOL     OW24763   2.872   1.498  11.741  0.1567 -0.3194 -0.1944
 4435SOL    HW124764   2.856   1.569  11.803 -1.7785 -1.2799  0.4027
 4435SOL    HW224765   2.925   1.436  11.792  0.0182  0.3442  0.7542
 4436SOL     OW24766   4.203   4.149  17.268 -0.6525  0.9022  0.2991
 4436SOL    HW124767   4.269   4.143  17.198  0.5077 -1.6027  1.6239
 4436SOL    HW224768   4.215   4.068  17.316  2.3606  1.4802  0.5012
 4437SOL     OW24769   0.124   3.801  13.582 -0.4051 -0.1664  0.2116
 4437SOL    HW124770   0.139   3.731  13.519 -0.0170 -0.6889  0.8847
 4437SOL    HW224771   0.214   3.807  13.613 -0.2765  0.8172 -0.3821
 4438SOL     OW24772   2.320   1.451   8.143  0.3675  0.0247  0.2675
 4438SOL    HW124773   2.362   1.530   8.107 -0.0702 -0.5860 -1.5919
 4438SOL    HW224774   2.373   1.438   8.221  0.6734  1.0826  0.2369
 4439SOL     OW24775   4.336   0.503   8.692  0.3069 -0.5543 -0.1841
 4439SOL    HW124776   4.245   0.533   8.685  1.2593  2.7072  1.3192
 4439SOL    HW224777   4.375   0.576   8.741  1.0659 -1.0947  0.0125
 4440SOL     OW24778   2.007   2.777   7.931  0.4234 -0.2432 -0.3886
 4440SOL    HW124779   1.964   2.692   7.939 -0.9744  0.1661 -3.6687
 4440SOL    HW224780   2.093   2.745   7.903  0.4490  0.4304 -1.0627
 4441SOL     OW24781   2.704   3.491   7.456  0.1119  0.2115 -0.2748
 4441SOL    HW124782   2.733   3.401   7.443  0.7193  0.2488  0.8267
 4441SOL    HW224783   2.782   3.543   7.437 -1.0863  2.3715  0.6872
 4442SOL     OW24784   4.244   2.631   4.893 -0.6180 -0.2708 -0.0706
 4442SOL    HW124785   4.289   2.686   4.958  1.7561 -0.7585 -1.3111
 4442SOL    HW224786   4.199   2.564   4.945  0.5096  1.6067  3.3410
 4443SOL     OW24787   2.858   3.293  17.206  0.3918 -0.1483  0.4626
 4443SOL    HW124788   2.918   3.265  17.137 -0.8319  0.1539 -0.7163
 4443SOL    HW224789   2.874   3.385  17.183  1.4198 -0.0009  1.7515
 4444SOL     OW24790   3.768   1.173   3.060 -0.1100  0.1510 -0.0861
 4444SOL    HW124791   3.764   1.097   3.119  0.0105  0.0194 -0.2452
 4444SOL    HW224792   3.821   1.135   2.990  0.4000  1.0178 -0.1654
 4445SOL     OW24793   2.062   0.341   5.668  0.6717 -0.1106  0.3047
 4445SOL    HW124794   2.157   0.350   5.674  0.7224  0.4373 -1.3966
 4445SOL    HW224795   2.040   0.430   5.640 -0.9279 -0.9072 -0.9768
 4446SOL     OW24796   2.792   1.906  10.514  0.3539 -0.3253 -0.5006
 4446SOL    HW124797   2.781   1.815  10.543 -1.1491 -0.5418 -1.7808
 4446SOL    HW224798   2.882   1.919  10.544 -0.2600  0.8534  0.8253
 4447SOL     OW24799   3.827   4.584   5.813  0.3979 -0.0137  0.0391
 4447SOL    HW124800   3.901   4.608   5.758 -1.0813  2.7625 -0.7411
 4447SOL    HW224801   3.763   4.578   5.743 -1.8429 -0.1997  2.1040
 4448SOL     OW24802   3.469   3.249   3.857 -0.5780 -0.0098  0.0771
 4448SOL    HW124803   3.545   3.232   3.912 -1.4070  0.3282  1.3338
 4448SOL    HW224804   3.484   3.194   3.781 -1.8183 -0.6684  0.3009
 4449SOL     OW24805   0.270   3.922   8.397 -0.0947 -0.4372 -0.0092
 4449SOL    HW124806   0.198   3.914   8.334 -0.6064  2.7639  0.1582
 4449SOL    HW224807   0.240   4.001   8.442  2.5388  0.9173 -0.5691
 4450SOL     OW24808   2.562   3.328   7.229  0.0913  0.6426 -0.6299
 4450SOL    HW124809   2.467   3.325   7.221  0.3552 -3.2987 -2.1012
 4450SOL    HW224810   2.553   3.356   7.320 -2.4797 -2.2246  0.0003
 4451SOL     OW24811   1.989   1.184   0.193 -0.1075  0.1765 -0.5592
 4451SOL    HW124812   2.025   1.104   0.232 -1.7669 -1.0215 -1.4806
 4451SOL    HW224813   1.900   1.185   0.226 -0.4749  1.8701 -1.5845
 4452SOL     OW24814   2.666   2.808   7.076  0.0629  0.2505 -0.4359
 4452SOL    HW124815   2.646   2.841   6.988  0.5428 -1.5824 -1.2437
 4452SOL    HW224816   2.656   2.892   7.119  0.4904  1.1542 -2.1047
 4453SOL     OW24817   0.352   2.004   0.095  0.0652 -0.2470 -0.2249
 4453SOL    HW124818   0.399   1.956   0.027 -0.3822  0.7976 -1.2721
 4453SOL    HW224819   0.357   2.092   0.059 -0.3086  0.7757  2.2137
 4454SOL     OW24820   1.964   2.919   5.143  0.2282  0.5729 -0.8834
 4454SOL    HW124821   1.965   2.981   5.216  1.7672  0.4928 -0.8279
 4454SOL    HW224822   2.046   2.870   5.141 -1.0549 -1.5258 -1.9716
 4455SOL     OW24823   0.692   2.188  14.728 -0.4131  0.3454 -0.7868
 4455SOL    HW124824   0.758   2.131  14.689 -0.7740 -1.4104  1.1655
 4455SOL    HW224825   0.738   2.211  14.809  0.6491  0.2142 -1.3645
 4456SOL     OW24826   4.097   1.129   2.559  0.1168  0.2264 -0.4449
 4456SOL    HW124827   4.124   1.058   2.502  0.7293  1.0819 -1.2208
 4456SOL    HW224828   4.006   1.105   2.576  0.2190  0.8173  0.9429
 4457SOL     OW24829   1.332   4.538   0.020 -0.0103 -0.1450  0.1344
 4457SOL    HW124830   1.389   4.615   0.023 -0.3250  0.1291 -0.8421
 4457SOL    HW224831   1.255   4.585   0.054  1.1560  1.4849  0.5277
 4458SOL     OW24832   3.649   4.453  13.320  0.2175 -0.8255  0.4581
 4458SOL    HW124833   3.559   4.424  13.338 -0.5356  1.6056  0.6285
 4458SOL    HW224834   3.639   4.501  13.238 -1.5449 -0.7624  0.6977
 4459SOL     OW24835   4.650   2.995  14.722  0.0185 -0.2873 -0.1700
 4459SOL    HW124836   4.593   2.957  14.655  1.5850 -1.4468 -0.8304
 4459SOL    HW224837   4.696   2.919  14.757 -0.5926 -1.7858 -2.5947
 4460SOL     OW24838   4.589   1.704  13.407 -0.2795 -0.2772  0.6159
 4460SOL    HW124839   4.529   1.667  13.473 -0.8651 -0.6227 -0.1070
 4460SOL    HW224840   4.550   1.645  13.342 -1.3642  1.3765 -0.2430
 4461SOL     OW24841   3.138   2.161   5.209  0.4636 -0.1809 -0.0451
 4461SOL    HW124842   3.135   2.240   5.155 -0.2456 -0.0979  0.1136
 4461SOL    HW224843   3.233   2.154   5.218  0.4252 -0.6192  0.0080
 4462SOL     OW24844   0.262   4.325   8.443 -0.7582 -0.6630 -0.3780
 4462SOL    HW124845   0.176   4.322   8.401 -0.0674  1.5352 -1.9476
 4462SOL    HW224846   0.309   4.397   8.400 -0.7825 -0.2871  0.2244
 4463SOL     OW24847   2.616   4.015  14.613 -0.2618 -0.3209 -0.3057
 4463SOL    HW124848   2.613   4.002  14.519 -0.6622  0.7524 -0.4446
 4463SOL    HW224849   2.554   3.946  14.638  0.6712 -0.8631  0.5296
 4464SOL     OW24850   1.866   1.399   1.618 -0.3327  0.4517  0.4602
 4464SOL    HW124851   1.906   1.323   1.575 -1.9468 -0.1233 -0.0034
 4464SOL    HW224852   1.882   1.371   1.708  0.7994 -0.5763 -0.0651
 4465SOL     OW24853   2.257   2.543  14.972 -0.2054 -0.3610  0.1124
 4465SOL    HW124854   2.266   2.575  14.882  3.0325  0.7396  0.8124
 4465SOL    HW224855   2.315   2.603  15.019 -0.6837  0.0174  0.2238
 4466SOL     OW24856   4.064   0.621   2.722  0.0478  0.2943 -0.1656
 4466SOL    HW124857   4.139   0.652   2.773 -1.0949  0.2326  1.5130
 4466SOL    HW224858   4.112   0.607   2.640 -1.1007 -0.6026 -0.6841
 4467SOL     OW24859   3.003   1.410  17.627  0.6604  0.3327  0.5509
 4467SOL    HW124860   2.934   1.465  17.591 -0.9277 -1.2108  1.2661
 4467SOL    HW224861   3.077   1.463  17.598  0.7031  0.8511  1.6016
 4468SOL     OW24862   3.655   4.564   5.612  0.3343  0.8030  0.0533
 4468SOL    HW124863   3.678   4.483   5.566 -1.3436  1.0575 -1.2371
 4468SOL    HW224864   3.560   4.568   5.608  0.3757  0.9938 -0.9443
 4469SOL     OW24865   3.842   1.885   9.432 -0.1096  0.7469 -0.0991
 4469SOL    HW124866   3.928   1.919   9.407 -0.0610 -1.8322 -3.4441
 4469SOL    HW224867   3.855   1.791   9.433  2.1572  1.0838  1.4484
 4470SOL     OW24868   0.196   2.851   0.278 -0.1983  0.3687  0.0294
 4470SOL    HW124869   0.176   2.916   0.211 -0.4016  0.1229 -0.1488
 4470SOL    HW224870   0.158   2.775   0.233 -0.8533  0.4179  0.5000
 4471SOL     OW24871   4.530   3.082   8.146  0.3282 -0.4951  0.0491
 4471SOL    HW124872   4.519   3.171   8.178  0.4734 -0.3065 -0.4175
 4471SOL    HW224873   4.548   3.037   8.228 -2.1961 -0.6656  0.5300
 4472SOL     OW24874   4.442   2.141   2.363  0.3065 -0.2179 -0.6155
 4472SOL    HW124875   4.379   2.075   2.393 -1.0157  1.4865  0.3709
 4472SOL    HW224876   4.456   2.116   2.272  1.4814 -0.5064 -0.3596
 4473SOL     OW24877   3.516   4.443   6.379 -0.9658  0.7552  0.3669
 4473SOL    HW124878   3.425   4.450   6.349 -1.8396  0.0466  2.8765
 4473SOL    HW224879   3.514   4.492   6.461  3.1630 -0.1529  1.0284
 4474SOL     OW24880   3.810   2.591   8.434 -0.0883  0.3658  0.0838
 4474SOL    HW124881   3.763   2.674   8.439 -0.9225 -0.1103  0.1007
 4474SOL    HW224882   3.770   2.542   8.362  1.1839 -0.7699  0.1538
 4475SOL     OW24883   2.185   1.559   6.918  0.2342 -0.1043  0.4646
 4475SOL    HW124884   2.126   1.578   6.845  0.9115 -0.5835 -0.1989
 4475SOL    HW224885   2.218   1.474   6.889  0.0293  0.8380 -2.5348
 4476SOL     OW24886   4.571   0.544   4.724 -0.4397  0.5401 -0.0133
 4476SOL    HW124887   4.652   0.594   4.739 -2.2679  2.5480  3.1181
 4476SOL    HW224888   4.616   0.482   4.667  2.6657  2.3159  0.4998
 4477SOL     OW24889   1.756   2.242   6.248  0.0413  0.1177  0.0362
 4477SOL    HW124890   1.719   2.170   6.197 -0.4013 -0.5323  1.2888
 4477SOL    HW224891   1.687   2.272   6.307  1.9810  1.1211  1.8039
 4478SOL     OW24892   1.134   2.723  10.587 -1.3510  0.0769 -0.5339
 4478SOL    HW124893   1.093   2.641  10.614  0.0242  0.0201  1.3619
 4478SOL    HW224894   1.219   2.710  10.628 -1.8862 -2.0999 -0.1356
 4479SOL     OW24895   0.916   1.272  15.859 -0.2880 -0.0260 -0.6268
 4479SOL    HW124896   0.831   1.247  15.894 -0.1522  0.5991  0.1581
 4479SOL    HW224897   0.969   1.243  15.933 -2.0615 -0.2667  0.5446
 4480SOL     OW24898   1.268   0.050   8.475 -0.0543  0.4386 -0.0503
 4480SOL    HW124899   1.218   0.043   8.557 -0.1319 -0.3591 -0.1672
 4480SOL    HW224900   1.223   0.118   8.425  3.7323  1.4072 -2.1634
 4481SOL     OW24901   1.134   3.077   1.363  0.8732 -0.2878 -0.3045
 4481SOL    HW124902   1.042   3.073   1.388 -0.1598  0.3918 -4.0475
 4481SOL    HW224903   1.134   3.129   1.282  1.6213  1.2198  0.6531
 4482SOL     OW24904   0.427   0.474  15.184  0.5881  0.2451 -0.6085
 4482SOL    HW124905   0.432   0.384  15.218  0.0637 -0.8118 -3.2766
 4482SOL    HW224906   0.516   0.502  15.165  0.5174  0.4191 -0.6847
 4483SOL     OW24907   2.057   1.663  11.061  0.3349 -0.1062 -0.7455
 4483SOL    HW124908   2.137   1.643  11.110 -1.3670 -2.1153  1.2037
 4483SOL    HW224909   1.983   1.657  11.121  0.5919 -1.0783 -0.5369
 4484SOL     OW24910   4.297   0.227   6.558 -0.2354  0.3587  0.2258
 4484SOL    HW124911   4.206   0.219   6.586 -0.0751  0.5977  0.8000
 4484SOL    HW224912   4.302   0.196   6.467 -0.9173 -2.1975  1.0616
 4485SOL     OW24913   4.708   4.087  12.136  0.1609 -0.1730 -0.1981
 4485SOL    HW124914   4.725   4.127  12.050 -0.1136  1.9729  0.7548
 4485SOL    HW224915   0.031   4.143  12.195 -0.3974  0.2969 -0.1736
 4486SOL     OW24916   4.090   3.545   8.432 -0.6207 -0.5957  0.0532
 4486SOL    HW124917   4.053   3.485   8.367  1.3582 -1.2149 -0.5113
 4486SOL    HW224918   4.128   3.611   8.375 -1.7035  0.3029  0.3716
 4487SOL     OW24919   0.932   1.266   1.648 -0.1392 -0.0567  0.2249
 4487SOL    HW124920   0.901   1.254   1.558  0.6539  2.1858 -0.3422
 4487SOL    HW224921   0.853   1.240   1.696 -1.5382  1.1334 -1.4204
 4488SOL     OW24922   0.739   0.215   1.297 -0.0253  0.2333  0.6219
 4488SOL    HW124923   0.654   0.178   1.320  0.3218 -1.2246 -0.3906
 4488SOL    HW224924   0.791   0.135   1.285  0.7249  0.1788  4.0829
 4489SOL     OW24925   1.468   1.491   0.687  0.2768  0.2440  0.4625
 4489SOL    HW124926   1.549   1.476   0.639  0.2974  0.6292  0.3710
 4489SOL    HW224927   1.475   1.582   0.717 -1.5905 -0.1618  2.0741
 4490SOL     OW24928   0.972   4.339   8.270  0.1521  0.2511  0.2317
 4490SOL    HW124929   0.951   4.289   8.349  0.4262  0.1748  0.2550
 4490SOL    HW224930   0.886   4.356   8.230  0.7365 -1.4154 -1.7238
 4491SOL     OW24931   4.317   4.246   0.344 -0.2938  0.4039  0.2922
 4491SOL    HW124932   4.366   4.176   0.388  1.5066  0.9224 -0.8940
 4491SOL    HW224933   4.255   4.214   0.279  3.0877  1.1171 -3.2805
 4492SOL     OW24934   4.567   1.801   2.514 -0.1898 -0.8559  0.0440
 4492SOL    HW124935   4.480   1.817   2.477 -0.1473  0.9921  0.7289
 4492SOL    HW224936   4.568   1.864   2.586  2.3069  1.1649 -1.7550
 4493SOL     OW24937   3.953   0.212   6.112 -0.4389  0.4059  0.0761
 4493SOL    HW124938   3.958   0.182   6.022 -0.6460 -2.8034  1.1081
 4493SOL    HW224939   4.031   0.163   6.139 -0.4930 -0.2401 -0.9526
 4494SOL     OW24940   1.228   3.180   7.062  0.5251 -0.2322 -0.0673
 4494SOL    HW124941   1.180   3.214   7.138  1.5233 -0.8726  0.8633
 4494SOL    HW224942   1.239   3.089   7.090 -2.0463 -0.7613 -0.7527
 4495SOL     OW24943   2.736   3.395   5.289  0.3578  0.5130  0.3291
 4495SOL    HW124944   2.677   3.371   5.360  0.9794  0.0366  0.6905
 4495SOL    HW224945   2.771   3.476   5.325  2.4658  0.4831 -1.6838
 4496SOL     OW24946   4.040   1.296   7.273 -0.1412 -0.1635 -0.4597
 4496SOL    HW124947   4.077   1.216   7.235  2.0900  1.8994 -2.5742
 4496SOL    HW224948   4.024   1.269   7.364  1.1845 -1.0190 -0.4748
 4497SOL     OW24949   0.904   4.719   5.871 -0.4215 -0.5478  0.2318
 4497SOL    HW124950   0.996   0.009   5.850 -0.4143 -1.7113 -0.6467
 4497SOL    HW224951   0.907   4.642   5.927  2.2496  1.3300  2.7063
 4498SOL     OW24952   1.547   2.361   7.318  0.0629  0.1460  0.0989
 4498SOL    HW124953   1.574   2.269   7.317 -2.4416 -0.6139  0.7409
 4498SOL    HW224954   1.530   2.375   7.225  0.4211  0.1927  0.0425
 4499SOL     OW24955   3.293   3.046   7.361 -0.2653 -0.2050 -0.6572
 4499SOL    HW124956   3.381   3.084   7.359 -0.1213 -0.5726 -1.3601
 4499SOL    HW224957   3.319   2.954   7.356 -0.7828 -0.3189 -1.2749
 4500SOL     OW24958   4.322   2.572  15.601 -0.1763  0.1527 -0.4229
 4500SOL    HW124959   4.339   2.481  15.626 -2.5548 -0.3060 -0.5614
 4500SOL    HW224960   4.247   2.561  15.543 -1.0334 -1.4094  0.9998
 4501SOL     OW24961   2.469   2.017   5.935  0.1773 -0.1140  0.5896
 4501SOL    HW124962   2.486   2.103   5.895 -0.4122 -0.8697 -1.2659
 4501SOL    HW224963   2.529   2.020   6.010  0.7362 -2.6372  0.2429
 4502SOL     OW24964   3.948   0.398   8.303 -0.1468  0.1238  0.1816
 4502SOL    HW124965   3.941   0.409   8.398  2.2555  0.2112  0.3596
 4502SOL    HW224966   4.005   0.473   8.284 -0.0742  0.0935  0.2753
 4503SOL     OW24967   2.152   0.980   5.150 -0.2731 -0.1303 -0.3140
 4503SOL    HW124968   2.180   1.043   5.084 -0.2540  0.1869 -0.0038
 4503SOL    HW224969   2.162   1.035   5.228 -0.0489 -2.5163  1.3661
 4504SOL     OW24970   1.722   0.156   2.918  0.2164  0.1933 -0.1303
 4504SOL    HW124971   1.765   0.205   2.848 -1.5600 -0.0494 -1.3737
 4504SOL    HW224972   1.783   0.082   2.921 -0.3064 -0.1984  0.9719
 4505SOL     OW24973   0.769   2.106   6.009 -0.1517  0.5580 -0.6547
 4505SOL    HW124974   0.676   2.110   6.034  0.4782  1.5268  1.5197
 4505SOL    HW224975   0.767   2.103   5.914 -1.0428 -1.0686 -0.5976
 4506SOL     OW24976   0.245   2.017   4.169  0.3066 -0.1655 -0.8502
 4506SOL    HW124977   0.234   1.923   4.158 -1.0318 -0.3636  2.2583
 4506SOL    HW224978   0.296   2.024   4.250 -1.7945  0.8018  0.4079
 4507SOL     OW24979   0.732   3.792   8.384  0.0239 -0.5993 -0.4003
 4507SOL    HW124980   0.719   3.887   8.389  4.3400  0.0651 -1.3317
 4507SOL    HW224981   0.729   3.787   8.288 -1.1297 -2.6649 -0.2590
 4508SOL     OW24982   1.828   3.349   0.969 -0.0515 -0.2332  0.2788
 4508SOL    HW124983   1.769   3.424   0.977 -1.4481 -1.2167 -0.7758
 4508SOL    HW224984   1.857   3.347   1.060  0.1922 -1.8277  0.1702
 4509SOL     OW24985   1.999   2.183   0.208  0.8439 -0.1417 -0.1833
 4509SOL    HW124986   1.938   2.163   0.137 -0.0154  1.4189  0.1103
 4509SOL    HW224987   1.951   2.236   0.272  0.1322 -4.0593  2.4685
 4510SOL     OW24988   2.873   2.363   3.458  0.1679 -0.1520  0.3264
 4510SOL    HW124989   2.875   2.327   3.546 -2.1625  0.8167  0.7733
 4510SOL    HW224990   2.819   2.294   3.419 -0.7051  0.8368 -0.2136
 4511SOL     OW24991   2.285   3.683   8.108 -0.7887 -0.4934 -0.1453
 4511SOL    HW124992   2.232   3.737   8.165 -0.7278  0.6035 -1.1356
 4511SOL    HW224993   2.275   3.593   8.139 -0.1300 -1.3784 -2.4697
 4512SOL     OW24994   0.672   2.750  15.107 -1.5214 -0.0503  0.4220
 4512SOL    HW124995   0.655   2.719  15.018  1.8873 -0.2708 -0.1663
 4512SOL    HW224996   0.651   2.843  15.098  1.6339  0.4077 -2.5114
 4513SOL     OW24997   4.276   2.311   5.231  0.3161 -0.3148 -0.2187
 4513SOL    HW124998   4.243   2.388   5.276 -0.0145  0.0497 -1.0838
 4513SOL    HW224999   4.193   2.271   5.203  0.7743 -0.0606 -1.9643
 4514SOL     OW25000   2.214   2.865   6.954 -0.5519  0.0543  0.3149
 4514SOL    HW125001   2.261   2.784   6.936  4.3258  2.7268  1.0425
 4514SOL    HW225002   2.129   2.821   6.960 -0.7100  0.5515  1.5977
 4515SOL     OW25003   4.134   3.338   0.099  1.2474  0.1339 -0.5721
 4515SOL    HW125004   4.210   3.340   0.157  0.3441 -0.0911  0.6387
 4515SOL    HW225005   4.162   3.395   0.027  0.2989 -1.9250 -2.5384
 4516SOL     OW25006   0.658   4.319   9.954  0.3843  0.1317  0.0736
 4516SOL    HW125007   0.572   4.336   9.991 -0.0218 -0.2976 -0.6779
 4516SOL    HW225008   0.688   4.266  10.028  3.2615  0.5201 -0.8120
 4517SOL     OW25009   3.495   3.048   2.776 -0.6189 -0.0001  0.4940
 4517SOL    HW125010   3.428   3.075   2.839  0.0532  2.6258  0.0481
 4517SOL    HW225011   3.441   3.057   2.698  2.8732 -0.2464 -1.9543
 4518SOL     OW25012   2.236   2.028  17.657  0.1874  0.1423 -0.4175
 4518SOL    HW125013   2.283   2.023   0.032  0.7611 -0.1214 -0.7619
 4518SOL    HW225014   2.191   2.113  17.656 -0.0027  0.0686  1.6886
 4519SOL     OW25015   4.350   4.727   9.334  0.3597 -0.3694  0.3528
 4519SOL    HW125016   4.426   0.011   9.278  0.2028 -0.2824  0.1556
 4519SOL    HW225017   4.343   4.632   9.344 -1.2283 -0.3894 -1.0043
 4520SOL     OW25018   1.356   0.230   8.818  0.4453 -0.1070  0.1614
 4520SOL    HW125019   1.333   0.169   8.888 -1.1193 -1.6520 -1.6961
 4520SOL    HW225020   1.272   0.275   8.803  1.7751  1.6182 -2.1233
 4521SOL     OW25021   0.882   3.337   6.371  0.5657  0.3715 -0.5946
 4521SOL    HW125022   0.913   3.256   6.411 -1.7690 -0.3013 -0.1610
 4521SOL    HW225023   0.808   3.305   6.319  1.5372 -1.3687 -0.9061
 4522SOL     OW25024   2.129   3.419   7.703  0.4344  0.3315  0.6472
 4522SOL    HW125025   2.123   3.511   7.678  0.1372 -0.0307 -0.5857
 4522SOL    HW225026   2.199   3.385   7.647 -2.1992  0.0839 -2.4873
 4523SOL     OW25027   2.441   2.438  17.392  0.0866 -0.1707  0.1748
 4523SOL    HW125028   2.455   2.426  17.486 -0.0858  1.4871  0.4000
 4523SOL    HW225029   2.371   2.502  17.384 -0.4290 -0.5921  1.3795
 4524SOL     OW25030   4.294   0.399   7.663  0.2162  0.0831 -0.1465
 4524SOL    HW125031   4.379   0.358   7.680  1.1302  2.5040  1.2137
 4524SOL    HW225032   4.308   0.457   7.588  0.5121 -1.0458 -0.9603
 4525SOL     OW25033   0.928   1.531  15.986  0.0978 -0.1780  0.6238
 4525SOL    HW125034   0.865   1.503  15.919  0.8532  0.4399 -0.3408
 4525SOL    HW225035   0.935   1.626  15.972  2.0279 -0.5264 -0.6660
 4526SOL     OW25036   1.985   1.978   6.980 -0.1006  0.0495 -0.0703
 4526SOL    HW125037   1.984   1.960   6.886 -1.3536  0.5202 -0.1436
 4526SOL    HW225038   2.049   1.910   7.003  2.0140  2.2055  0.3545
 4527SOL     OW25039   1.261   1.098   8.781 -0.5690 -0.1792 -0.8727
 4527SOL    HW125040   1.310   1.016   8.793  1.2918  1.1349  0.5214
 4527SOL    HW225041   1.318   1.156   8.832  0.2484 -2.6784  1.0564
 4528SOL     OW25042   0.201   4.211  11.456  0.1644  0.0353 -0.3183
 4528SOL    HW125043   0.226   4.182  11.544  0.1287 -2.7284 -1.2051
 4528SOL    HW225044   0.109   4.235  11.468  0.1488  1.0369 -2.3372
 4529SOL     OW25045   3.310   4.527  13.145  0.2307 -0.4003 -0.3825
 4529SOL    HW125046   3.393   4.508  13.102  0.8080  2.2581 -0.4452
 4529SOL    HW225047   3.300   4.622  13.147 -0.0075 -0.4510  0.8924
 4530SOL     OW25048   0.815   2.695   8.263  0.3259  0.3819  0.5460
 4530SOL    HW125049   0.812   2.644   8.344  0.2775 -2.4927 -1.2869
 4530SOL    HW225050   0.842   2.781   8.295  0.3109  1.0477 -1.2701
 4531SOL     OW25051   0.709   0.786  12.705 -0.1573  0.2019 -0.9901
 4531SOL    HW125052   0.791   0.790  12.656  0.9174 -0.6609  0.7209
 4531SOL    HW225053   0.669   0.705  12.674 -0.7329  0.2295 -0.3242
 4532SOL     OW25054   0.648   3.252   4.292 -0.0820  0.2708  0.7998
 4532SOL    HW125055   0.724   3.301   4.323  1.2288 -0.3274 -1.4176
 4532SOL    HW225056   0.685   3.225   4.207 -1.4211  1.1802 -0.0755
 4533SOL     OW25057   2.234   1.137   9.431  0.1371 -0.0280 -0.4663
 4533SOL    HW125058   2.227   1.146   9.336  0.6489  0.3652 -0.4672
 4533SOL    HW225059   2.199   1.048   9.435  0.0413 -0.0189 -1.1756
 4534SOL     OW25060   2.973   3.134   7.112 -0.1754  0.0040  0.1730
 4534SOL    HW125061   2.940   3.217   7.146  2.7759  0.7434  1.2062
 4534SOL    HW225062   2.899   3.078   7.137  0.7766 -1.3588 -0.0699
 4535SOL     OW25063   2.595   2.825   3.886  0.1295 -0.0667  0.3252
 4535SOL    HW125064   2.500   2.827   3.900  0.1145 -0.9228  0.3785
 4535SOL    HW225065   2.634   2.821   3.974  1.0089  0.7590 -0.0258
 4536SOL     OW25066   1.529   1.526  15.603  0.1704  0.0902 -0.3308
 4536SOL    HW125067   1.531   1.574  15.686  1.8957  0.6191 -0.6830
 4536SOL    HW225068   1.472   1.450  15.616 -0.1897  0.3215 -0.5505
 4537SOL     OW25069   2.640   0.232  16.781  0.0879  0.0755  0.2933
 4537SOL    HW125070   2.601   0.145  16.776  1.1776 -0.3712 -0.5698
 4537SOL    HW225071   2.658   0.232  16.687  0.5178  0.2496  0.3750
 4538SOL     OW25072   4.469   0.530   5.366  0.1969  0.0210 -0.0639
 4538SOL    HW125073   4.416   0.608   5.383 -0.1595 -0.2017 -0.1481
 4538SOL    HW225074   4.468   0.490   5.453  0.3555 -3.3654 -1.6234
 4539SOL     OW25075   2.844   4.419  13.990  0.3040  0.1186  0.7734
 4539SOL    HW125076   2.885   4.339  14.023  0.1523  0.4908  1.8407
 4539SOL    HW225077   2.867   4.417  13.897  0.1691  0.6964  0.7283
 4540SOL     OW25078   1.175   4.514   8.220 -0.1957 -0.1216  0.0242
 4540SOL    HW125079   1.156   4.550   8.133 -0.8057  0.4677  0.4062
 4540SOL    HW225080   1.098   4.462   8.241 -0.2663  0.2093  0.5578
 4541SOL     OW25081   4.097   3.772   7.414 -0.1418 -0.2537 -0.1189
 4541SOL    HW125082   4.148   3.758   7.334  0.4751 -3.7428  0.9174
 4541SOL    HW225083   4.172   3.767   7.474  0.6968 -0.6378 -1.2003
 4542SOL     OW25084   3.351   0.491   2.136  0.1096 -0.0823 -0.2597
 4542SOL    HW125085   3.406   0.495   2.214 -2.1824 -1.1214  1.4113
 4542SOL    HW225086   3.379   0.403   2.113 -0.2353 -0.7233  1.7544
 4543SOL     OW25087   1.227   3.617  15.818 -0.5858 -0.8170  0.1611
 4543SOL    HW125088   1.266   3.555  15.755 -1.4264 -1.4316  0.2443
 4543SOL    HW225089   1.133   3.613  15.798 -0.6810  2.1139  0.0638
 4544SOL     OW25090   3.950   0.788   0.907 -0.6586 -0.6081 -0.2096
 4544SOL    HW125091   3.879   0.732   0.939 -0.7348 -0.3814  0.0198
 4544SOL    HW225092   4.014   0.727   0.871 -0.9240 -3.2367  3.7544
 4545SOL     OW25093   1.141   2.066  15.290 -0.0411  0.7301  0.0253
 4545SOL    HW125094   1.122   2.007  15.362 -0.3836  1.5246  0.5930
 4545SOL    HW225095   1.225   2.034  15.257 -1.2492 -1.6721 -0.6998
 4546SOL     OW25096   2.428   0.054   6.163 -0.1049 -0.3633  0.0740
 4546SOL    HW125097   2.475   0.128   6.201  0.9465 -0.5478 -0.8559
 4546SOL    HW225098   2.492   0.027   6.097  0.9999  0.0247  1.0011
 4547SOL     OW25099   1.590   4.543   8.677  0.2078  0.3010 -0.4744
 4547SOL    HW125100   1.566   4.601   8.604 -0.7227  0.5531  0.0225
 4547SOL    HW225101   1.510   4.492   8.688 -1.0212  1.9749 -1.5378
 4548SOL     OW25102   0.056   2.870  11.613 -0.1431 -0.1536 -0.1265
 4548SOL    HW125103   0.082   2.826  11.694  1.4750  1.1441  0.0312
 4548SOL    HW225104   4.693   2.899  11.631  0.2242  1.5249 -1.0928
 4549SOL     OW25105   0.270   3.292   2.960 -0.0822 -0.9291  0.0695
 4549SOL    HW125106   0.293   3.374   2.916  0.1348 -1.3586 -0.6099
 4549SOL    HW225107   0.179   3.272   2.940  0.7076 -1.1033 -3.4112
 4550SOL     OW25108   4.409   3.264   7.755 -0.3982  0.0438 -0.1077
 4550SOL    HW125109   4.420   3.181   7.708  1.9536  1.2927 -1.7319
 4550SOL    HW225110   4.469   3.247   7.827  0.3823  1.5384 -0.4114
 4551SOL     OW25111   4.350   1.791   4.971  0.0158  0.5557 -0.4331
 4551SOL    HW125112   4.409   1.812   4.899 -1.3743  0.3183 -1.6419
 4551SOL    HW225113   4.345   1.696   4.970 -1.0539  0.6091 -0.6007
 4552SOL     OW25114   4.052   0.837   2.374 -0.0237  0.1583  0.2500
 4552SOL    HW125115   3.962   0.853   2.345  0.4054 -0.5073 -1.4338
 4552SOL    HW225116   4.063   0.744   2.355  1.9754  0.1951  1.2228
 4553SOL     OW25117   4.492   4.642   2.238 -0.0652  0.9296  0.3811
 4553SOL    HW125118   4.499   0.009   2.257 -0.0007  1.0565 -0.2656
 4553SOL    HW225119   4.436   4.641   2.161  1.4232 -1.2304 -0.6752
 4554SOL     OW25120   2.727   3.068   5.379 -0.2937  0.3286  0.3102
 4554SOL    HW125121   2.771   3.153   5.378  0.9402 -0.2942  1.8069
 4554SOL    HW225122   2.702   3.056   5.287 -1.1121 -0.9356  0.7050
 4555SOL     OW25123   1.108   3.695   5.407  0.0168  0.4986 -0.5713
 4555SOL    HW125124   1.079   3.780   5.440 -1.0387  0.2153 -0.7627
 4555SOL    HW225125   1.201   3.687   5.427 -0.2503 -0.0121  0.4621
 4556SOL     OW25126   1.059   3.087   3.982  0.3075  0.9406 -0.0231
 4556SOL    HW125127   1.092   3.023   4.045  0.4450 -0.0666 -1.1171
 4556SOL    HW225128   1.026   3.026   3.916  0.4069  0.8345  0.0258
 4557SOL     OW25129   1.019   0.168   7.799 -0.1724  0.0990  0.2204
 4557SOL    HW125130   1.062   0.243   7.839  0.5076 -0.7096  0.9980
 4557SOL    HW225131   0.937   0.150   7.844  0.6746 -1.9250  0.9581
 4558SOL     OW25132   3.435   2.619   3.332  0.1218  0.8960 -0.6721
 4558SOL    HW125133   3.367   2.588   3.272  0.1417 -1.0521  0.3153
 4558SOL    HW225134   3.507   2.604   3.271  1.4444  2.2705  0.5418
 4559SOL     OW25135   2.714   2.463   6.554 -0.0969 -0.2867  0.1634
 4559SOL    HW125136   2.744   2.534   6.610  2.2459  0.0129 -1.4787
 4559SOL    HW225137   2.753   2.484   6.469 -0.2760 -3.1687 -0.6601
 4560SOL     OW25138   1.105   4.080   7.955 -0.1623  0.7810  0.2582
 4560SOL    HW125139   1.149   4.147   8.008 -0.1319 -0.2292  1.5041
 4560SOL    HW225140   1.159   4.068   7.877 -1.2192  3.0718 -0.8268
 4561SOL     OW25141   2.122   0.222   4.076 -0.1764 -0.0192 -0.5208
 4561SOL    HW125142   2.108   0.149   4.016 -1.5330 -1.7172  1.9073
 4561SOL    HW225143   2.046   0.212   4.134 -1.6226  1.4541 -2.1445
 4562SOL     OW25144   4.551   2.900   5.111  0.4770  0.3604  0.3884
 4562SOL    HW125145   4.475   2.842   5.107  0.9205 -0.2267  0.5878
 4562SOL    HW225146   4.620   2.840   5.140  0.5308 -0.0168 -0.5050
 4563SOL     OW25147   2.224   0.333   8.339 -0.1138  0.2210  0.3760
 4563SOL    HW125148   2.159   0.280   8.293  0.5472  0.6348 -1.0363
 4563SOL    HW225149   2.237   0.271   8.411 -3.7452  0.3549  1.1283
 4564SOL     OW25150   2.621   4.617   3.585  0.8565 -0.0048 -0.7877
 4564SOL    HW125151   2.597   4.614   3.493 -2.4785 -1.4000  0.1311
 4564SOL    HW225152   2.704   4.569   3.583  1.1744  0.4398  1.7120
 4565SOL     OW25153   3.954   2.641   0.359  0.7569 -0.6770 -0.1577
 4565SOL    HW125154   3.935   2.548   0.358  2.4864 -1.0143 -0.8989
 4565SOL    HW225155   3.890   2.681   0.418 -0.2130 -0.3742 -1.4000
 4566SOL     OW25156   4.373   4.557   3.378 -0.3657 -0.1382 -0.1203
 4566SOL    HW125157   4.321   4.493   3.328  0.4230 -2.6078  2.2187
 4566SOL    HW225158   4.454   4.509   3.396 -1.5679 -2.4590 -0.8386
 4567SOL     OW25159   3.391   1.856   9.338 -0.1255 -0.2905  0.4608
 4567SOL    HW125160   3.348   1.879   9.256 -2.4297  1.9929  2.3297
 4567SOL    HW225161   3.481   1.856   9.303 -1.6156 -0.2850 -3.4045
 4568SOL     OW25162   1.515   2.804   1.839  0.1579  0.7436 -0.2690
 4568SOL    HW125163   1.577   2.866   1.799 -0.8805  1.5017 -0.7009
 4568SOL    HW225164   1.474   2.766   1.762 -0.3859  2.2837 -0.7480
 4569SOL     OW25165   2.445   3.528   4.855  0.3716  0.1181  0.1173
 4569SOL    HW125166   2.515   3.464   4.841 -0.2215 -0.9028  1.9486
 4569SOL    HW225167   2.433   3.523   4.950 -2.1186 -0.7024 -0.2432
 4570SOL     OW25168   1.550   3.816   9.128 -0.2556 -0.1667  0.2488
 4570SOL    HW125169   1.634   3.833   9.170 -0.3510 -0.7485  0.6742
 4570SOL    HW225170   1.495   3.838   9.204  1.4749 -1.4837  1.8799
 4571SOL     OW25171   2.089   1.889   3.399 -0.0509 -0.2715  0.5494
 4571SOL    HW125172   2.154   1.820   3.413  0.7082  0.5071  0.8797
 4571SOL    HW225173   2.092   1.936   3.483 -0.2541 -2.6214  1.8679
 4572SOL     OW25174   4.701   0.879   3.331  0.4149  0.5187 -0.6672
 4572SOL    HW125175   4.721   0.971   3.348  0.4553  0.3242  0.3824
 4572SOL    HW225176   4.652   0.880   3.249 -0.2195  2.8230 -0.2565
 4573SOL     OW25177   1.707   3.448   4.401  0.3696 -0.0456  0.2283
 4573SOL    HW125178   1.747   3.364   4.380 -0.8565 -1.0757  2.0139
 4573SOL    HW225179   1.744   3.509   4.338 -1.2811  0.0643 -0.6264
 4574SOL     OW25180   1.832   1.753   9.815 -1.1197  0.1136 -0.4784
 4574SOL    HW125181   1.806   1.770   9.906 -0.3662 -0.7096 -0.1103
 4574SOL    HW225182   1.845   1.660   9.798 -2.1544  0.1525 -1.5260
 4575SOL     OW25183   0.550   4.685   5.983  0.2906 -0.5223  0.6873
 4575SOL    HW125184   0.477   0.005   5.943  0.8006 -0.9047 -0.6928
 4575SOL    HW225185   0.622   4.727   5.936 -0.8216  2.9499  2.0560
 4576SOL     OW25186   3.017   0.324  13.763 -0.6551  0.3360 -0.1576
 4576SOL    HW125187   3.025   0.253  13.825  0.7141  0.7216  0.1058
 4576SOL    HW225188   2.923   0.320  13.747 -1.0879 -0.2658  2.6815
 4577SOL     OW25189   2.341   4.491   2.891 -0.1388  0.2151 -0.3939
 4577SOL    HW125190   2.275   4.560   2.895  0.0117  0.3836 -0.8412
 4577SOL    HW225191   2.373   4.494   2.801 -1.5596 -0.1036 -0.9176
 4578SOL     OW25192   0.254   2.140   8.323 -0.3287 -0.1643  0.6690
 4578SOL    HW125193   0.296   2.079   8.383  1.4543 -0.7510 -1.1683
 4578SOL    HW225194   0.222   2.078   8.258 -0.5142  0.6801 -0.0481
 4579SOL     OW25195   2.317   2.844  11.544  0.3484  0.1403 -0.1920
 4579SOL    HW125196   2.377   2.784  11.498  1.7552  1.2280  0.2354
 4579SOL    HW225197   2.368   2.858  11.624  0.9899 -0.3789 -0.5109
 4580SOL     OW25198   3.682   1.527   9.148 -0.0071 -0.5223  0.2240
 4580SOL    HW125199   3.587   1.535   9.140 -0.1337  0.2139  2.4453
 4580SOL    HW225200   3.686   1.479   9.231  3.5305 -0.8127 -0.1128
 4581SOL     OW25201   1.751   0.374  14.375  0.0642 -0.2532 -0.1564
 4581SOL    HW125202   1.718   0.458  14.344  1.5832 -0.1471 -1.4819
 4581SOL    HW225203   1.752   0.331  14.289  0.8168 -0.8419  0.1476
 4582SOL     OW25204   1.472   4.582   4.975  0.2295  0.4861 -0.4627
 4582SOL    HW125205   1.538   4.572   4.906 -0.2929 -6.4730  0.0984
 4582SOL    HW225206   1.393   4.561   4.926  1.0444 -0.8799 -1.1907
 4583SOL     OW25207   1.746   4.669   1.564  0.4199 -0.2811  0.0427
 4583SOL    HW125208   1.786   4.597   1.612  0.3321  1.9749  3.5519
 4583SOL    HW225209   1.803   4.657   1.488  0.8299  0.8384  0.1637
 4584SOL     OW25210   2.659   0.702   1.055  0.7137 -0.0805 -0.0621
 4584SOL    HW125211   2.718   0.719   1.128 -1.6708 -3.1197  2.5944
 4584SOL    HW225212   2.619   0.619   1.083  0.8421  0.0428  0.4737
 4585SOL     OW25213   4.424   4.598  17.224 -0.6055  0.1494  0.4267
 4585SOL    HW125214   4.369   4.570  17.151  1.1657  1.4454 -1.4241
 4585SOL    HW225215   4.373   4.666  17.267 -0.7648 -2.2524  4.0228
 4586SOL     OW25216   4.559   2.852  15.516 -0.0446 -0.6366 -0.5586
 4586SOL    HW125217   4.480   2.805  15.490 -1.3787  0.7227  1.0123
 4586SOL    HW225218   4.618   2.840  15.441  0.2616  0.8206 -0.5527
 4587SOL     OW25219   3.182   3.099  17.302 -0.3785  0.3033  0.7655
 4587SOL    HW125220   3.168   3.176  17.358 -1.8622 -2.4679  4.1607
 4587SOL    HW225221   3.154   3.027  17.358  2.1676 -1.6312 -0.4378
 4588SOL     OW25222   2.296   4.547   6.312 -0.1393 -0.3012 -0.0368
 4588SOL    HW125223   2.262   4.612   6.374 -0.7169  0.5799 -1.2938
 4588SOL    HW225224   2.332   4.595   6.238  0.3070 -0.2127  0.2414
 4589SOL     OW25225   3.600   2.423   8.212  0.0192 -0.4787  0.2178
 4589SOL    HW125226   3.565   2.358   8.272 -0.3658 -0.0560  0.4497
 4589SOL    HW225227   3.527   2.484   8.200 -0.9617 -1.3105  2.0696
 4590SOL     OW25228   2.500   4.605   4.230 -0.3978 -0.7418  0.1040
 4590SOL    HW125229   2.543   4.653   4.301  1.1600 -0.8040 -0.7873
 4590SOL    HW225230   2.420   4.656   4.221 -0.2439 -0.5993 -0.4568
 4591SOL     OW25231   0.475   3.972  12.758  0.2951 -0.2618 -0.0472
 4591SOL    HW125232   0.481   3.975  12.853  1.5401  0.4961 -0.1434
 4591SOL    HW225233   0.410   3.902  12.753 -0.9348  0.7436  1.6813
 4592SOL     OW25234   3.238   1.650   9.443  0.1808  0.2604 -0.5272
 4592SOL    HW125235   3.168   1.610   9.392 -0.2040  0.1060  0.1090
 4592SOL    HW225236   3.270   1.727   9.397  1.1961 -0.2137 -0.6323
 4593SOL     OW25237   4.370   4.088   4.891 -0.0927 -0.3854  0.0944
 4593SOL    HW125238   4.400   4.178   4.905 -0.2021 -0.4295  0.6164
 4593SOL    HW225239   4.395   4.044   4.972 -0.8883  0.6152  0.8748
 4594SOL     OW25240   1.140   1.137   3.402 -0.3564 -0.1616 -0.3820
 4594SOL    HW125241   1.152   1.049   3.366  1.9314 -0.4184  1.0027
 4594SOL    HW225242   1.116   1.122   3.493  1.0448 -1.7995 -0.2839
 4595SOL     OW25243   1.577   2.643  11.047  0.5295  0.0395 -0.2886
 4595SOL    HW125244   1.484   2.655  11.032  0.3124 -2.3111 -0.7711
 4595SOL    HW225245   1.586   2.689  11.131  2.4613 -1.4883  0.3493
 4596SOL     OW25246   1.016   0.904   1.938 -0.0258  0.1737 -0.2684
 4596SOL    HW125247   1.092   0.847   1.949  0.0869  0.4059  0.1413
 4596SOL    HW225248   1.029   0.926   1.846  0.6087  1.7123  0.1979
 4597SOL     OW25249   0.247   0.896   7.121 -0.0736  0.3156  0.2110
 4597SOL    HW125250   0.308   0.884   7.049  0.4731  2.5300  0.3242
 4597SOL    HW225251   0.193   0.817   7.110 -2.0965  2.0061 -1.9730
 4598SOL     OW25252   1.645   4.668   1.868  0.1047 -0.5734 -0.4420
 4598SOL    HW125253   1.670   4.698   1.780 -0.5250 -0.1989 -0.4928
 4598SOL    HW225254   1.621   4.577   1.851  0.7502 -0.4662 -1.9753
 4599SOL     OW25255   3.738   2.340   3.200  0.4084  0.1394 -0.0690
 4599SOL    HW125256   3.725   2.299   3.115 -0.0498  0.4572 -0.1566
 4599SOL    HW225257   3.700   2.427   3.186 -1.4925 -0.6419  0.1646
 4600SOL     OW25258   3.904   0.832   0.284  0.5207 -0.0224  0.6895
 4600SOL    HW125259   3.850   0.836   0.363  0.3344  1.6044  0.4738
 4600SOL    HW225260   3.989   0.807   0.321  0.7165  0.9799  0.9045
 4601SOL     OW25261   4.191   0.763   0.742 -0.0738 -0.4130  0.1677
 4601SOL    HW125262   4.207   0.669   0.753 -0.1342 -0.1947  2.0809
 4601SOL    HW225263   4.271   0.796   0.784  2.4470 -1.7616 -3.5221
 4602SOL     OW25264   1.197   1.720   1.393  0.0993  0.2446 -0.1511
 4602SOL    HW125265   1.117   1.680   1.426 -0.3251  0.7544 -0.5815
 4602SOL    HW225266   1.208   1.679   1.307  1.7064 -0.3001  0.3015
 4603SOL     OW25267   1.284   4.375   8.658 -0.2183 -0.7579  0.2282
 4603SOL    HW125268   1.230   4.441   8.703  1.5426  2.4823 -2.3964
 4603SOL    HW225269   1.288   4.313   8.731 -1.2209 -0.9276  0.1376
 4604SOL     OW25270   4.504   4.530   9.644 -0.7289  0.1497  0.1973
 4604SOL    HW125271   4.569   4.462   9.630 -0.8459  0.3134 -1.1134
 4604SOL    HW225272   4.553   4.611   9.660  0.8977 -1.1603  1.7180
 4605SOL     OW25273   2.519   4.599   0.499  0.2236 -0.0254 -0.8015
 4605SOL    HW125274   2.507   4.597   0.404 -0.3263 -0.3338 -0.7236
 4605SOL    HW225275   2.462   4.524   0.515  0.2051  0.1997  0.1757
 4606SOL     OW25276   4.224   2.390   7.243  0.4443 -0.4272 -0.2422
 4606SOL    HW125277   4.153   2.332   7.214  0.7359 -1.9085  2.0919
 4606SOL    HW225278   4.265   2.335   7.310 -0.1537 -0.8660 -0.2351
 4607SOL     OW25279   1.808   1.813   0.304 -1.0341 -0.1706  0.4357
 4607SOL    HW125280   1.755   1.841   0.379 -2.1337 -0.1387 -0.3529
 4607SOL    HW225281   1.836   1.724   0.322  0.3943  0.7119  2.6205
 4608SOL     OW25282   3.677   0.177   5.745 -0.4997 -0.0186 -0.2700
 4608SOL    HW125283   3.700   0.157   5.654 -1.1264 -1.6451 -0.0646
 4608SOL    HW225284   3.592   0.134   5.744 -0.4996 -0.0659  1.3250
 4609SOL     OW25285   4.634   2.032   3.121  0.1389 -0.5949 -0.0371
 4609SOL    HW125286   4.539   2.037   3.104  0.3031 -0.2055 -0.8626
 4609SOL    HW225287   4.641   1.993   3.208  0.2734 -0.8819 -0.1781
 4610SOL     OW25288   0.818   4.640   6.309 -0.4102  0.0192 -0.4260
 4610SOL    HW125289   0.861   4.717   6.273  1.4373 -0.8916 -0.1387
 4610SOL    HW225290   0.858   4.581   6.246  0.7747 -0.2292  0.5647
 4611SOL     OW25291   2.168   3.147   4.573 -0.1725 -0.1342 -0.1695
 4611SOL    HW125292   2.171   3.062   4.529  2.8343 -0.6282  1.0023
 4611SOL    HW225293   2.146   3.120   4.662  1.7791  1.0211  0.6695
 4612SOL     OW25294   0.936   2.725   8.773 -0.4323 -0.0447 -0.0498
 4612SOL    HW125295   1.017   2.711   8.822 -0.9514 -1.2650  0.4515
 4612SOL    HW225296   0.906   2.637   8.753  0.5315  0.2740 -2.8790
 4613SOL     OW25297   4.645   0.996   4.388  0.0211 -0.2454  0.0304
 4613SOL    HW125298   4.610   1.004   4.477  2.3145 -0.1402  0.9322
 4613SOL    HW225299   4.595   0.926   4.346 -0.2518  1.9791 -3.2909
 4614SOL     OW25300   1.427   4.315   0.653 -0.5305  0.6257  0.5348
 4614SOL    HW125301   1.369   4.249   0.613 -0.7819  1.1079  0.0970
 4614SOL    HW225302   1.401   4.399   0.615 -0.0924  0.0581 -1.0237
 4615SOL     OW25303   1.727   2.140  14.495 -0.2387 -0.0329  0.0360
 4615SOL    HW125304   1.742   2.046  14.480 -1.1305 -0.3404  1.0750
 4615SOL    HW225305   1.645   2.158  14.449  2.2261 -0.4541 -4.5351
 4616SOL     OW25306   1.882   2.946   7.774 -0.0614 -0.3508  0.3204
 4616SOL    HW125307   1.920   2.871   7.821 -2.4758 -1.9999 -0.3469
 4616SOL    HW225308   1.959   2.986   7.734  0.6243 -1.9262  0.0404
 4617SOL     OW25309   0.183   2.428   8.250  0.2032 -0.2927  0.8460
 4617SOL    HW125310   0.101   2.460   8.286  1.1211  3.3913 -0.3652
 4617SOL    HW225311   0.181   2.341   8.290  0.3607 -1.4454 -1.7038
 4618SOL     OW25312   3.304   3.073  10.604 -0.4269 -0.3238 -0.1758
 4618SOL    HW125313   3.245   3.058  10.531 -1.1624  0.1662  0.3279
 4618SOL    HW225314   3.342   2.985  10.617 -2.4619 -1.2818 -0.8512
 4619SOL     OW25315   2.582   3.056   3.752 -0.6273 -0.5176  0.4038
 4619SOL    HW125316   2.528   3.120   3.799  1.3736  1.4028  0.0991
 4619SOL    HW225317   2.597   2.985   3.813  2.0189  2.0148  2.6922
 4620SOL     OW25318   2.049   4.074   5.284 -0.7454 -0.2233  0.1328
 4620SOL    HW125319   1.998   4.154   5.271  0.8390  0.9928  1.4380
 4620SOL    HW225320   2.001   4.016   5.224  0.5383  2.4833 -3.4296
 4621SOL     OW25321   2.265   3.068   1.453  0.6387 -0.3878 -0.4469
 4621SOL    HW125322   2.324   3.021   1.512 -1.6942  0.0532  2.2272
 4621SOL    HW225323   2.272   3.157   1.487  1.7369 -0.0723 -1.4944
 4622SOL     OW25324   3.490   0.416   6.155  0.1166  0.0893  0.3889
 4622SOL    HW125325   3.471   0.375   6.071 -0.0174 -0.1293  0.5247
 4622SOL    HW225326   3.518   0.341   6.207  0.9829 -0.0004 -0.2037
 4623SOL     OW25327   2.172   2.493  12.153  0.2088  0.4009  0.5855
 4623SOL    HW125328   2.116   2.449  12.089 -1.6340  3.4419  0.0905
 4623SOL    HW225329   2.132   2.579  12.138  2.2147  1.1171 -0.5848
 4624SOL     OW25330   3.447   0.286   6.771 -0.1660 -0.0376  0.0520
 4624SOL    HW125331   3.503   0.238   6.831 -2.7560 -2.1096  0.7788
 4624SOL    HW225332   3.437   0.225   6.698  0.5601  1.9583 -1.7161
 4625SOL     OW25333   3.169   3.327  15.136  0.1079 -0.4110  0.0002
 4625SOL    HW125334   3.141   3.253  15.191 -2.3968 -0.2267 -1.0269
 4625SOL    HW225335   3.135   3.394  15.195 -1.7271  0.2182 -1.7659
 4626SOL     OW25336   1.535   2.084  15.036  0.0201 -0.1115  0.5716
 4626SOL    HW125337   1.488   2.145  14.979  0.3549 -1.9495 -1.6535
 4626SOL    HW225338   1.511   2.129  15.117 -1.7133 -0.1629  0.0868
 4627SOL     OW25339   4.522   0.432   9.050 -0.3355  0.3774  0.4088
 4627SOL    HW125340   4.493   0.385   8.972  0.5090  0.4218  0.0663
 4627SOL    HW225341   4.502   0.518   9.011 -0.2985  1.2948  2.3989
 4628SOL     OW25342   2.451   0.055   2.912  0.5026  0.1121  0.1320
 4628SOL    HW125343   2.425   0.126   2.972 -0.1930 -0.9512  1.0834
 4628SOL    HW225344   2.397   4.710   2.946  1.8154 -0.9079  0.0373
 4629SOL     OW25345   1.017   0.753   8.554 -0.4510  0.4072  0.4887
 4629SOL    HW125346   1.106   0.774   8.526  1.2640 -2.3161  3.8397
 4629SOL    HW225347   1.029   0.696   8.630  0.0662  0.4727  0.4576
 4630SOL     OW25348   3.352   4.113  13.052  0.1964  0.3930  0.2645
 4630SOL    HW125349   3.403   4.121  13.133  0.2718  1.6613  0.1042
 4630SOL    HW225350   3.300   4.035  13.073  0.0782 -0.6587 -3.9345
 4631SOL     OW25351   2.720   2.470  15.279 -0.1442 -0.0674  0.3415
 4631SOL    HW125352   2.760   2.548  15.317  1.0014 -0.7428  0.5405
 4631SOL    HW225353   2.785   2.430  15.220 -1.6186 -2.3689  0.2621
 4632SOL     OW25354   1.135   2.025   9.673  0.2128 -0.0579  0.6724
 4632SOL    HW125355   1.215   2.069   9.702  1.1437 -0.9581 -0.4922
 4632SOL    HW225356   1.103   1.997   9.759 -0.5582  1.6105  0.9154
 4633SOL     OW25357   0.220   4.387   7.625  0.5086  0.1022 -0.2103
 4633SOL    HW125358   0.160   4.342   7.566 -0.2536 -0.8546  1.2803
 4633SOL    HW225359   0.210   4.349   7.713  1.2877  2.1801  0.7734
 4634SOL     OW25360   0.123   4.241  15.708  0.0887  0.2056 -0.0722
 4634SOL    HW125361   0.167   4.198  15.781 -0.4944  0.2962  0.3281
 4634SOL    HW225362   0.173   4.195  15.640 -1.2011 -0.5770 -0.4979
 4635SOL     OW25363   2.677   4.433   5.843  0.0519 -0.3206  0.2449
 4635SOL    HW125364   2.715   4.483   5.915  1.4793 -1.6315  0.4029
 4635SOL    HW225365   2.671   4.344   5.879 -2.2715  0.4375  1.7254
 4636SOL     OW25366   2.127   3.440   6.896  0.3526  0.1070 -0.1991
 4636SOL    HW125367   2.124   3.353   6.936 -0.9409 -0.3011 -1.1808
 4636SOL    HW225368   2.070   3.436   6.820  0.8575  3.0809 -0.7264
 4637SOL     OW25369   3.255   3.823  13.904 -0.0943 -0.2342  0.0370
 4637SOL    HW125370   3.206   3.785  13.977 -0.0055  0.3881  0.4220
 4637SOL    HW225371   3.270   3.911  13.939 -2.4165 -0.1287  0.7684
 4638SOL     OW25372   1.427   4.336   6.909  0.4283 -0.6128  0.0214
 4638SOL    HW125373   1.402   4.278   6.981 -0.0633 -1.9281 -1.2212
 4638SOL    HW225374   1.520   4.352   6.926  0.6140  0.5477 -2.1294
 4639SOL     OW25375   2.750   0.900   8.826  0.0038 -0.1952  0.4655
 4639SOL    HW125376   2.791   0.846   8.758 -1.5472 -2.0369  0.9957
 4639SOL    HW225377   2.811   0.909   8.900  0.4684  0.1762  0.0367
 4640SOL     OW25378   2.024   0.294   7.812  0.0663 -0.2198 -0.2509
 4640SOL    HW125379   2.069   0.217   7.846 -0.1833 -0.2159  0.0844
 4640SOL    HW225380   2.105   0.336   7.781 -0.5082  2.7637  2.3175
 4641SOL     OW25381   3.444   2.910   7.041 -0.2171  0.3950 -0.1297
 4641SOL    HW125382   3.539   2.913   7.026 -0.1790 -2.2269 -0.3281
 4641SOL    HW225383   3.415   2.986   6.991 -2.4993  0.1056  0.7416
 4642SOL     OW25384   3.955   4.292   3.240 -0.0729 -0.3740  0.3327
 4642SOL    HW125385   3.933   4.288   3.147 -0.7967  0.9105  0.4377
 4642SOL    HW225386   3.943   4.200   3.264 -3.1690  0.1497  0.8890
 4643SOL     OW25387   2.985   4.245   4.787 -0.3457  0.0502 -0.1611
 4643SOL    HW125388   3.014   4.255   4.878 -0.5186 -2.2657  0.1560
 4643SOL    HW225389   3.056   4.184   4.767 -0.9138 -0.9875  0.9502
 4644SOL     OW25390   0.597   2.890   5.751  0.2095  0.0257 -0.0810
 4644SOL    HW125391   0.561   2.882   5.662  0.2554  2.8277 -0.3443
 4644SOL    HW225392   0.535   2.846   5.810 -0.6697  1.0764 -0.2220
 4645SOL     OW25393   4.210   1.924   1.186 -0.1673  0.5581 -0.5921
 4645SOL    HW125394   4.231   1.843   1.138 -0.1753 -0.5056  1.2136
 4645SOL    HW225395   4.116   1.914   1.204  0.5307  0.2121  2.8785
 4646SOL     OW25396   1.513   0.130   4.963 -0.5134 -0.6015  0.4360
 4646SOL    HW125397   1.517   0.053   4.907  2.0427  0.4608 -0.8249
 4646SOL    HW225398   1.424   0.165   4.962 -0.6413 -1.0217 -1.5003
 4647SOL     OW25399   4.500   2.973  14.461  0.1442  0.1173 -0.4500
 4647SOL    HW125400   4.501   3.062  14.426  1.0898  0.3217  0.0895
 4647SOL    HW225401   4.405   2.966  14.462  0.0188  1.9897 -0.6611
 4648SOL     OW25402   2.781   0.125   8.559  0.1366  0.0656  0.2845
 4648SOL    HW125403   2.743   0.038   8.558 -1.2614  0.6670  1.6855
 4648SOL    HW225404   2.753   0.166   8.641  3.8997  4.0473 -0.3905
 4649SOL     OW25405   1.522   3.108   3.951 -0.5664  0.2448 -0.4496
 4649SOL    HW125406   1.466   3.089   3.876  0.6059 -0.2672 -1.1821
 4649SOL    HW225407   1.568   3.024   3.958  0.6798  1.0401  0.8349
 4650SOL     OW25408   4.582   3.440  11.492 -0.4619 -0.4881  0.5305
 4650SOL    HW125409   4.557   3.531  11.474 -0.0151 -0.5976 -0.6001
 4650SOL    HW225410   4.602   3.411  11.404 -1.1367  1.5082 -0.2786
 4651SOL     OW25411   1.781   0.706   2.324 -0.1245 -0.0927 -1.0842
 4651SOL    HW125412   1.780   0.611   2.333 -0.3671  0.1626  1.5064
 4651SOL    HW225413   1.775   0.725   2.230 -1.4839 -0.6497 -1.1085
 4652SOL     OW25414   2.859   0.241   2.351 -0.2647 -0.1869  0.5482
 4652SOL    HW125415   2.859   0.292   2.271 -2.9681  0.9811  1.3097
 4652SOL    HW225416   2.774   0.276   2.376 -0.4778 -0.3515  0.0450
 4653SOL     OW25417   2.901   3.197  13.955  0.3262 -0.3395  0.6054
 4653SOL    HW125418   2.879   3.285  13.925  0.2630  0.0113  1.6929
 4653SOL    HW225419   2.830   3.150  13.911 -0.5058  1.2093  0.3000
 4654SOL     OW25420   4.178   4.629   5.923 -0.0021 -0.2692  0.1541
 4654SOL    HW125421   4.271   4.649   5.917  0.0252 -0.0478  1.2560
 4654SOL    HW225422   4.155   4.662   5.836  0.6376 -2.0006 -0.6564
 4655SOL     OW25423   2.973   0.599   7.047 -0.2338 -0.0917  0.2564
 4655SOL    HW125424   3.041   0.597   6.981 -1.5120 -0.0285 -1.0627
 4655SOL    HW225425   3.029   0.618   7.123 -0.0305  2.4450 -0.5086
 4656SOL     OW25426   1.944   2.155   9.219  0.0954 -0.3276 -0.4536
 4656SOL    HW125427   1.996   2.230   9.189 -2.1515  1.5072  0.2629
 4656SOL    HW225428   2.009   2.089   9.196 -0.5074 -0.4418 -1.8479
 4657SOL     OW25429   3.408   3.111   1.037 -0.0998  0.0214  0.0277
 4657SOL    HW125430   3.429   3.110   1.131  0.2164  2.6038 -0.0140
 4657SOL    HW225431   3.417   3.202   1.011  3.4819 -0.0644  0.9785
 4658SOL     OW25432   0.023   1.541  10.838 -0.1014  0.2856  0.3130
 4658SOL    HW125433   4.707   1.526  10.754  1.0467 -1.0382 -0.0509
 4658SOL    HW225434   0.037   1.454  10.878 -3.1742 -0.6282 -0.6555
 4659SOL     OW25435   1.143   2.660   8.448 -0.2737  0.5345  0.1246
 4659SOL    HW125436   1.065   2.681   8.500 -1.5258  0.3343 -1.6746
 4659SOL    HW225437   1.198   2.635   8.522  1.6494  0.3316 -1.3887
 4660SOL     OW25438   0.813   0.787   2.062  0.9983  0.2005 -0.0350
 4660SOL    HW125439   0.886   0.826   2.014 -0.2361  2.6371  0.0519
 4660SOL    HW225440   0.745   0.848   2.035  0.4496 -1.1465 -1.6460
 4661SOL     OW25441   4.606   1.410   2.049 -0.0290  0.0118  0.0196
 4661SOL    HW125442   4.661   1.415   2.127 -1.7771  1.6174  1.1569
 4661SOL    HW225443   4.552   1.333   2.065  0.4479 -0.3379 -0.0796
 4662SOL     OW25444   1.257   4.246   8.125 -0.5884  0.1157 -0.1007
 4662SOL    HW125445   1.233   4.192   8.199  0.7915 -0.4362 -0.0432
 4662SOL    HW225446   1.271   4.327   8.174  0.6148 -0.5187  0.6152
 4663SOL     OW25447   1.200   4.716  11.392 -0.3619 -0.0557  0.1040
 4663SOL    HW125448   1.182   4.624  11.375  0.9561  0.0117 -1.6765
 4663SOL    HW225449   1.273   4.725  11.330  0.6876  0.8386  1.4532
 4664SOL     OW25450   4.231   2.028   4.915 -0.0919  0.0050 -0.6176
 4664SOL    HW125451   4.244   1.940   4.949  0.2690 -0.4284 -1.9163
 4664SOL    HW225452   4.319   2.044   4.879  0.0845 -0.6309 -0.4599
 4665SOL     OW25453   0.706   3.385  16.490 -0.0963 -0.2859 -0.3685
 4665SOL    HW125454   0.724   3.302  16.445 -0.5459 -0.3705 -0.3945
 4665SOL    HW225455   0.620   3.352  16.516 -1.1716  2.2956 -0.7024
 4666SOL     OW25456   0.816   2.310  15.330  0.1275 -0.2918  0.1481
 4666SOL    HW125457   0.777   2.397  15.327 -0.1559 -0.5308 -2.5523
 4666SOL    HW225458   0.883   2.317  15.398 -0.6612 -1.2561  1.0401
 4667SOL     OW25459   1.490   1.913   7.936 -0.1745 -0.0971 -0.0932
 4667SOL    HW125460   1.505   1.932   7.843 -0.4950 -2.3682 -0.6085
 4667SOL    HW225461   1.543   1.980   7.979 -1.9127  0.6866  0.8069
 4668SOL     OW25462   1.014   3.482   2.875  0.2306  0.4062 -0.1186
 4668SOL    HW125463   1.014   3.559   2.818 -1.7782  0.8308  0.4372
 4668SOL    HW225464   1.007   3.409   2.813  0.3553 -0.4284  0.8354
 4669SOL     OW25465   0.893   2.325   9.671  0.2243  0.5569 -0.4888
 4669SOL    HW125466   0.807   2.332   9.714  0.2194 -0.5694 -0.2918
 4669SOL    HW225467   0.951   2.298   9.743  0.7924 -0.1662 -1.2156
 4670SOL     OW25468   3.953   2.058   2.907 -0.4151  0.3018  0.1208
 4670SOL    HW125469   4.013   2.129   2.884 -0.6849  0.7058  0.6474
 4670SOL    HW225470   3.930   2.030   2.818 -0.6422  0.0433  0.2593
 4671SOL     OW25471   3.572   2.981  14.670 -0.1902 -0.6758  0.4332
 4671SOL    HW125472   3.576   3.077  14.671 -1.0194 -0.6000 -4.1623
 4671SOL    HW225473   3.544   2.950  14.756  2.6674  0.2447  1.7024
 4672SOL     OW25474   0.278   0.872   8.738  0.0339 -0.3440 -0.4480
 4672SOL    HW125475   0.238   0.792   8.771 -1.2373  1.0384  1.3530
 4672SOL    HW225476   0.216   0.936   8.773 -1.0960 -1.2994 -0.7172
 4673SOL     OW25477   3.595   3.951   9.139  0.0292 -0.6995  0.6869
 4673SOL    HW125478   3.528   4.010   9.175  0.8695  0.6132  0.0919
 4673SOL    HW225479   3.598   3.886   9.209 -1.3754  1.5091  2.8090
 4674SOL     OW25480   0.045   2.998   7.808  0.2029 -0.0044  0.4445
 4674SOL    HW125481   4.725   2.917   7.788  0.3066 -0.1368  0.7438
 4674SOL    HW225482   0.026   3.052   7.731  1.9122 -0.6440 -0.4258
 4675SOL     OW25483   1.023   1.558   1.760  0.1269  1.1135  0.2984
 4675SOL    HW125484   1.029   1.645   1.722  0.4399 -0.2944 -2.9012
 4675SOL    HW225485   0.964   1.512   1.701  0.8748  1.3821 -0.6571
 4676SOL     OW25486   1.712   4.011   3.199  0.8527 -0.1530  0.1067
 4676SOL    HW125487   1.740   4.021   3.108 -1.1853 -2.3071 -0.7364
 4676SOL    HW225488   1.797   4.017   3.243  0.1576  0.1326  1.3939
 4677SOL     OW25489   0.430   2.624   2.097  0.2929  0.0203  0.0872
 4677SOL    HW125490   0.470   2.559   2.155  0.1247 -1.0773 -1.0431
 4677SOL    HW225491   0.423   2.697   2.159  2.1868 -0.0103  0.3278
 4678SOL     OW25492   0.644   2.294   7.234  0.6682 -0.1896  0.1275
 4678SOL    HW125493   0.641   2.273   7.328 -0.9623 -2.9667 -0.5619
 4678SOL    HW225494   0.712   2.361   7.230  0.6280 -0.1987 -0.6777
 4679SOL     OW25495   3.472   1.508   9.455  0.1050  0.0097  0.1160
 4679SOL    HW125496   3.438   1.513   9.366  0.3503  1.0933  0.0832
 4679SOL    HW225497   3.414   1.575   9.490 -1.0318 -1.4754  1.0406
 4680SOL     OW25498   3.234   3.450   8.044  0.1318 -0.0900 -1.1773
 4680SOL    HW125499   3.218   3.388   8.115  2.6221  0.4658 -0.1463
 4680SOL    HW225500   3.268   3.521   8.099 -0.0690  0.1151 -1.3184
 4681SOL     OW25501   1.966   2.990   1.004 -0.7149  0.1872 -0.2236
 4681SOL    HW125502   1.960   2.899   1.033  1.3649  0.6251  1.5684
 4681SOL    HW225503   1.964   3.036   1.088 -2.0317  1.5992 -1.0369
 4682SOL     OW25504   1.390   3.831   3.188 -0.0294  0.7327 -0.3142
 4682SOL    HW125505   1.436   3.910   3.216 -0.9627  1.2343 -0.2031
 4682SOL    HW225506   1.315   3.836   3.248 -0.5129  0.4324 -0.8914
 4683SOL     OW25507   2.713   0.557   3.913  0.2999  0.2996 -0.3431
 4683SOL    HW125508   2.706   0.588   3.823  1.0689 -1.1821 -0.9007
 4683SOL    HW225509   2.622   0.580   3.932  0.8952 -0.9511  4.0953
 4684SOL     OW25510   2.259   3.530   1.769 -0.2742  0.0081  0.1674
 4684SOL    HW125511   2.203   3.604   1.790  2.2888  1.8775  0.3884
 4684SOL    HW225512   2.288   3.512   1.859  1.5199 -2.1568 -0.8287
 4685SOL     OW25513   0.754   1.417   2.023 -0.3314 -0.5770  0.2013
 4685SOL    HW125514   0.804   1.337   2.012  0.9627  0.4558 -1.4933
 4685SOL    HW225515   0.825   1.473   2.055 -3.1463  1.8894  2.1908
 4686SOL     OW25516   3.965   0.218   5.819  0.1441  0.0547 -0.0473
 4686SOL    HW125517   4.005   0.228   5.732 -2.9195  0.1534 -1.4494
 4686SOL    HW225518   3.878   0.188   5.793  1.6246 -3.9761 -0.4046
 4687SOL     OW25519   1.046   4.356   0.632 -0.1522 -0.3755 -0.8288
 4687SOL    HW125520   0.987   4.382   0.703  1.0621 -1.4698  0.5853
 4687SOL    HW225521   1.075   4.266   0.645 -3.3146 -1.5094 -1.6260
 4688SOL     OW25522   1.851   1.860   5.944  0.6249  0.0692  0.5424
 4688SOL    HW125523   1.900   1.909   5.877  1.0110  0.1949  0.9149
 4688SOL    HW225524   1.923   1.829   6.000 -0.7820 -0.7882  1.8570
 4689SOL     OW25525   4.270   1.852  14.993 -0.1684 -0.2029 -0.0435
 4689SOL    HW125526   4.301   1.809  14.913 -0.8411 -0.8128  0.0296
 4689SOL    HW225527   4.350   1.902  15.009  1.4836 -1.6080 -3.8820
 4690SOL     OW25528   2.227   3.954   2.076 -0.1225  0.2393  0.1464
 4690SOL    HW125529   2.288   3.887   2.045  0.4293  0.4132  0.8555
 4690SOL    HW225530   2.283   4.031   2.073 -0.0349  0.1077 -1.5215
 4691SOL     OW25531   2.989   0.304   9.012  0.1633  0.0824 -0.1003
 4691SOL    HW125532   2.985   0.399   9.025  1.2139  0.1146 -0.0094
 4691SOL    HW225533   3.032   0.284   9.096 -2.9775  1.4091  1.8503
 4692SOL     OW25534   1.174   4.180   4.398 -0.0843 -0.2710  0.3445
 4692SOL    HW125535   1.265   4.185   4.430  1.0306  0.2290 -2.8839
 4692SOL    HW225536   1.188   4.108   4.337  0.3962 -0.2955  0.4780
 4693SOL     OW25537   1.814   1.641   6.429 -0.4708 -0.1548 -0.3492
 4693SOL    HW125538   1.786   1.591   6.506  2.1726  0.2368  0.8998
 4693SOL    HW225539   1.740   1.700   6.439  0.1753  0.5381  0.3839
 4694SOL     OW25540   0.935   0.764   3.385  0.3173  0.8083 -0.0399
 4694SOL    HW125541   0.856   0.815   3.364 -0.2689 -0.3759 -0.6985
 4694SOL    HW225542   0.905   0.673   3.387 -0.8269  1.1845  0.2262
 4695SOL     OW25543   4.261   1.415   7.391  0.3942 -0.3204 -0.0292
 4695SOL    HW125544   4.175   1.396   7.353  1.7859 -0.8993 -2.8583
 4695SOL    HW225545   4.319   1.442   7.320 -1.9066 -0.2477 -1.8830
 4696SOL     OW25546   1.489   1.613   7.092  0.4265  0.0588 -0.1946
 4696SOL    HW125547   1.500   1.578   7.181  2.7459 -2.0276 -1.2668
 4696SOL    HW225548   1.466   1.531   7.048 -0.8605  0.2062  0.2033
 4697SOL     OW25549   2.669   2.286   5.039 -0.2771 -0.5196  0.3873
 4697SOL    HW125550   2.743   2.305   4.981 -1.4473  0.8491 -0.6334
 4697SOL    HW225551   2.671   2.369   5.087  1.7695 -0.3996  0.1114
 4698SOL     OW25552   0.029   2.391   8.547  0.8145  0.0931  0.1893
 4698SOL    HW125553   0.011   2.470   8.597 -0.9916 -0.3234  0.1998
 4698SOL    HW225554   4.704   2.408   8.468  0.1332 -1.1813  0.3687
 4699SOL     OW25555   1.047   1.627  16.329 -0.0796  0.0757 -0.1104
 4699SOL    HW125556   0.991   1.586  16.263  2.6720 -1.4657 -1.4947
 4699SOL    HW225557   1.022   1.719  16.333 -2.5254 -0.6619  2.1971
 4700SOL     OW25558   2.371   4.441   8.903 -0.3922  0.6798  0.0330
 4700SOL    HW125559   2.456   4.421   8.865 -0.3365 -0.7694  0.9130
 4700SOL    HW225560   2.395   4.418   8.992 -1.9807  2.5622  0.9571
 4701SOL     OW25561   1.244   0.675   3.992  0.3654 -0.5518  0.3867
 4701SOL    HW125562   1.266   0.679   3.899 -0.0835 -0.5114  0.2796
 4701SOL    HW225563   1.222   0.582   4.003 -1.2789 -0.1774  0.3452
 4702SOL     OW25564   3.382   4.177   4.345 -0.2939  0.3647 -0.1566
 4702SOL    HW125565   3.288   4.196   4.342 -0.0882  1.4530  0.2985
 4702SOL    HW225566   3.414   4.267   4.346 -0.2483  0.3074  2.6762
 4703SOL     OW25567   1.313   4.073   7.429 -0.3028 -0.2406 -0.8389
 4703SOL    HW125568   1.342   3.990   7.392  1.2532  0.2053 -0.6137
 4703SOL    HW225569   1.233   4.054   7.478  1.4825 -1.5219  1.5532
 4704SOL     OW25570   3.391   2.781   4.315 -0.3105  0.5461  0.0220
 4704SOL    HW125571   3.419   2.718   4.382  0.0062  0.7901  0.1197
 4704SOL    HW225572   3.311   2.741   4.280 -0.2427  1.0874 -0.7480
 4705SOL     OW25573   3.941   2.611   4.825 -0.6998 -0.0863  0.4886
 4705SOL    HW125574   3.932   2.564   4.908 -0.3315  0.0360  0.6009
 4705SOL    HW225575   4.035   2.632   4.827 -1.0154  1.5284 -1.6748
 4706SOL     OW25576   2.363   2.558  10.208  0.7483  0.1741  0.3220
 4706SOL    HW125577   2.363   2.614  10.285 -2.0341  0.6575 -0.0450
 4706SOL    HW225578   2.274   2.579  10.181  0.2253 -1.3170  0.8913
 4707SOL     OW25579   0.786   3.066   0.516  0.3122 -0.2759  0.1250
 4707SOL    HW125580   0.864   3.089   0.567 -1.5615  0.5454  2.5989
 4707SOL    HW225581   0.740   3.150   0.510  0.5585 -0.0080  1.9717
 4708SOL     OW25582   3.355   2.858  10.293  0.0194 -0.0848  0.0836
 4708SOL    HW125583   3.287   2.914  10.330  1.1706  1.3695 -0.0020
 4708SOL    HW225584   3.398   2.925  10.240  0.7180 -2.9213 -2.9361
 4709SOL     OW25585   3.281   2.821   3.681 -0.0330 -0.8594  0.4774
 4709SOL    HW125586   3.203   2.789   3.636  0.3609 -1.6755  0.3753
 4709SOL    HW225587   3.349   2.782   3.626 -1.4125 -1.6462 -0.6531
 4710SOL     OW25588   0.620   2.054  15.110  0.2046 -0.3178  0.1744
 4710SOL    HW125589   0.567   2.030  15.186  1.2533 -0.8748  0.7221
 4710SOL    HW225590   0.698   2.005  15.133  0.8111  0.5805  0.0030
 4711SOL     OW25591   1.782   2.616   0.022  0.0929  0.2582 -0.2517
 4711SOL    HW125592   1.830   2.541  17.695  1.6248  0.8354  0.6306
 4711SOL    HW225593   1.785   2.667  17.650 -0.4067  0.8346  0.0947
 4712SOL     OW25594   3.210   1.408   9.004  0.4292  0.3275  0.5082
 4712SOL    HW125595   3.158   1.328   9.009 -0.2019  0.7328  0.5101
 4712SOL    HW225596   3.192   1.450   8.919 -0.2057  0.3658  0.6572
 4713SOL     OW25597   2.803   1.809  13.542 -0.7029  0.0067 -0.1091
 4713SOL    HW125598   2.853   1.730  13.564  0.9752  1.3335  0.8186
 4713SOL    HW225599   2.779   1.813  13.449 -2.7170 -3.0213  0.2764
 4714SOL     OW25600   0.002   0.106   3.068 -0.4239 -0.1771  0.7578
 4714SOL    HW125601   4.653   0.085   3.123 -2.7550  0.0954 -2.3441
 4714SOL    HW225602   0.024   0.179   3.126 -1.0756 -0.1297  0.9416
 4715SOL     OW25603   2.301   3.691   7.308  0.0913  0.9213  0.0068
 4715SOL    HW125604   2.300   3.607   7.262  0.1385 -0.6436  2.9207
 4715SOL    HW225605   2.345   3.679   7.392  0.2856 -1.8587 -0.4754
 4716SOL     OW25606   0.123   3.632   8.016  0.1405  0.2583  0.4487
 4716SOL    HW125607   0.073   3.556   7.986 -0.1050  0.4998  0.2453
 4716SOL    HW225608   0.179   3.594   8.084  2.1511 -0.4322 -1.5802
 4717SOL     OW25609   2.117   1.854   2.126  0.2554 -0.8493 -0.0677
 4717SOL    HW125610   2.045   1.793   2.112  0.6319 -1.3209  0.0376
 4717SOL    HW225611   2.180   1.818   2.063  1.3134  0.7946  0.0254
 4718SOL     OW25612   0.381   1.900   8.425 -0.2214 -0.2498  0.4389
 4718SOL    HW125613   0.347   1.843   8.355 -0.0121 -0.0830  0.2006
 4718SOL    HW225614   0.474   1.881   8.414 -0.3349  1.0424 -2.6169
 4719SOL     OW25615   0.961   3.062   0.780  0.0009 -0.5545  0.4982
 4719SOL    HW125616   0.975   3.115   0.858  0.8448 -1.8723  1.2476
 4719SOL    HW225617   0.869   3.035   0.791 -0.0200 -0.5804  0.2682
 4720SOL     OW25618   3.120   4.011   7.953 -0.5368  0.4069 -0.0083
 4720SOL    HW125619   3.134   3.944   7.886  2.0344 -0.6581  1.6078
 4720SOL    HW225620   3.192   3.991   8.013  0.6111  0.0666 -1.4915
 4721SOL     OW25621   1.050   0.073   9.531  0.1818  0.0387  0.0566
 4721SOL    HW125622   0.961   0.110   9.529  0.2416  0.1525 -0.4564
 4721SOL    HW225623   1.066   0.056   9.438 -0.7096  1.8023 -0.4326
 4722SOL     OW25624   2.139   3.804   5.383 -0.0107 -0.1847  0.1562
 4722SOL    HW125625   2.085   3.874   5.345  0.2276  0.9482  1.9188
 4722SOL    HW225626   2.072   3.768   5.442 -0.2730 -0.3375 -0.2312
 4723SOL     OW25627   0.468   0.804   3.374  0.7104 -0.4768 -0.1382
 4723SOL    HW125628   0.446   0.726   3.323 -0.8461 -1.1471  1.5821
 4723SOL    HW225629   0.441   0.882   3.326  1.6089  0.1167  0.3140
 4724SOL     OW25630   4.562   0.124   3.411  0.2580 -0.0631 -0.3555
 4724SOL    HW125631   4.575   0.216   3.434 -2.7546  0.3715 -0.3527
 4724SOL    HW225632   4.476   0.140   3.372  1.2787  3.9472 -0.9668
 4725SOL     OW25633   0.666   1.614  13.201 -0.3151 -0.3117 -0.2649
 4725SOL    HW125634   0.721   1.552  13.249 -0.8222 -0.5817 -0.0332
 4725SOL    HW225635   0.712   1.625  13.118 -1.2608  1.7725 -0.5037
 4726SOL     OW25636   4.333   2.315   7.708 -0.5362 -0.1189  0.6130
 4726SOL    HW125637   4.264   2.252   7.689 -0.6881  0.2691 -0.1465
 4726SOL    HW225638   4.339   2.278   7.796  0.9446  1.2830  1.1054
 4727SOL     OW25639   2.513   0.713   8.917 -0.2249 -0.0494  0.0308
 4727SOL    HW125640   2.573   0.779   8.881 -1.2404 -0.8867 -3.1739
 4727SOL    HW225641   2.478   0.670   8.840 -0.4570  2.9158 -1.5049
 4728SOL     OW25642   2.221   4.393   4.060  0.0103 -0.3050 -0.1583
 4728SOL    HW125643   2.131   4.402   4.030  0.5691  2.2408 -1.1453
 4728SOL    HW225644   2.220   4.470   4.118 -0.3707 -1.0933  0.8843
 4729SOL     OW25645   0.063   1.155   7.113 -0.4365 -0.3675 -0.2609
 4729SOL    HW125646   0.102   1.115   7.036 -1.2080  0.7304 -1.2246
 4729SOL    HW225647   0.129   1.126   7.176  0.8655  4.4760  0.5923
 4730SOL     OW25648   3.459   2.671  11.634  0.7013 -0.0100 -0.3768
 4730SOL    HW125649   3.540   2.621  11.629  1.0301  0.6430 -1.5390
 4730SOL    HW225650   3.493   2.740  11.691  1.0049 -0.8913  0.5034
 4731SOL     OW25651   3.888   3.714   8.194  0.1293 -0.1788  0.1934
 4731SOL    HW125652   3.937   3.794   8.215 -0.2587 -0.0531  0.6230
 4731SOL    HW225653   3.890   3.717   8.099 -1.0399 -1.0950  0.1391
 4732SOL     OW25654   4.386   4.136   5.779  0.1552 -0.2399 -0.1545
 4732SOL    HW125655   4.291   4.144   5.787  0.1134  0.7125 -1.4617
 4732SOL    HW225656   4.402   4.230   5.767 -0.4460 -0.0796  0.3385
 4733SOL     OW25657   1.595   1.418   5.324  0.1103 -0.1212  0.3216
 4733SOL    HW125658   1.503   1.398   5.307  0.3820 -1.0037 -0.0968
 4733SOL    HW225659   1.600   1.433   5.419 -3.0933 -1.6561  0.7368
 4734SOL     OW25660   2.999   2.908   4.713  0.3168  0.2516  0.2308
 4734SOL    HW125661   2.918   2.956   4.694  1.3337  1.4324 -1.2392
 4734SOL    HW225662   2.982   2.894   4.806  0.4998 -2.0419 -0.0856
 4735SOL     OW25663   2.280   1.728  13.106 -0.2279 -0.4535  0.2664
 4735SOL    HW125664   2.300   1.786  13.033  1.0416  0.0449  1.0095
 4735SOL    HW225665   2.289   1.644  13.062 -1.0531  0.2388 -1.2253
 4736SOL     OW25666   2.200   1.818   3.723 -0.1643 -0.0723 -0.0800
 4736SOL    HW125667   2.284   1.777   3.745  0.7312  1.3860 -0.8010
 4736SOL    HW225668   2.224   1.909   3.706 -1.7588  0.4754  0.6230
 4737SOL     OW25669   4.669   0.513   3.938  0.0596 -0.0987  0.0049
 4737SOL    HW125670   4.597   0.537   3.880  0.6987 -1.4368 -1.3424
 4737SOL    HW225671   0.020   0.564   3.917  0.1155 -0.3801 -0.4842
 4738SOL     OW25672   4.631   1.308   9.524 -0.0009  0.2028  0.0160
 4738SOL    HW125673   4.657   1.383   9.576 -1.3598 -1.1404  2.6282
 4738SOL    HW225674   4.702   1.246   9.541  1.1606  1.3965 -0.4810
 4739SOL     OW25675   0.960   1.300  10.129 -0.5659  0.2996  0.4021
 4739SOL    HW125676   0.881   1.251  10.108  0.8263 -1.1642 -1.3430
 4739SOL    HW225677   0.972   1.282  10.222 -0.5036 -0.7438  0.1870
 4740SOL     OW25678   1.061   2.383   0.171  0.1229  0.2363 -0.0615
 4740SOL    HW125679   0.966   2.375   0.179 -0.0478  1.2709 -1.0799
 4740SOL    HW225680   1.088   2.387   0.263 -2.4649 -0.0431  0.7136
 4741SOL     OW25681   0.093   0.649   8.802 -0.5109  0.4813 -0.3907
 4741SOL    HW125682   0.098   0.655   8.897 -2.2822 -0.3249 -0.2505
 4741SOL    HW225683   0.147   0.573   8.779 -0.8591 -1.0730  3.8461
 4742SOL     OW25684   1.556   3.987  17.638  0.3572  0.1498  0.4493
 4742SOL    HW125685   1.529   3.909  17.590  0.6131  0.6063 -0.4303
 4742SOL    HW225686   1.515   3.984   0.017 -0.7422  1.9804  0.0013
 4743SOL     OW25687   1.849   0.205   4.193  0.6128  0.0962 -0.1026
 4743SOL    HW125688   1.778   0.206   4.258  0.7498 -2.5353  0.0882
 4743SOL    HW225689   1.834   0.119   4.154 -1.9555  0.0751  0.9236
 4744SOL     OW25690   3.644   4.428   4.592  0.2246  0.1215  0.3192
 4744SOL    HW125691   3.550   4.432   4.576  0.5499  1.4214 -1.3439
 4744SOL    HW225692   3.656   4.336   4.617  0.1715 -0.4229 -1.5998
 4745SOL     OW25693   4.456   4.298  10.631  0.1064 -0.6519 -0.2779
 4745SOL    HW125694   4.409   4.311  10.713  1.4629 -1.4619  0.6216
 4745SOL    HW225695   4.417   4.218  10.596 -2.5454  1.1467 -1.4951
 4746SOL     OW25696   0.998   1.237  11.606  0.0330  0.0146  0.5763
 4746SOL    HW125697   1.085   1.202  11.623  1.3700  1.5641 -3.1616
 4746SOL    HW225698   0.957   1.200  11.685 -0.0042 -0.3121  0.4047
 4747SOL     OW25699   1.383   3.286  13.714 -0.0504  0.2025 -0.3203
 4747SOL    HW125700   1.410   3.225  13.783 -0.5362  3.0882  2.4345
 4747SOL    HW225701   1.362   3.365  13.763  0.8530 -0.6214  1.3985
 4748SOL     OW25702   3.791   3.268   7.943 -0.7546  0.1570  0.3265
 4748SOL    HW125703   3.739   3.188   7.947 -1.7809  0.8519  0.8150
 4748SOL    HW225704   3.741   3.320   7.879  0.1425 -1.5147 -1.7354
 4749SOL     OW25705   3.479   4.572  15.371  0.1101 -0.1491 -0.0552
 4749SOL    HW125706   3.404   4.513  15.374  0.7929 -0.9405  1.1414
 4749SOL    HW225707   3.456   4.613  15.287 -1.1641 -0.9237 -0.0777
 4750SOL     OW25708   0.521   4.146   4.851  0.3906  0.7958 -0.2884
 4750SOL    HW125709   0.576   4.068   4.860 -0.7943 -0.0810 -0.6770
 4750SOL    HW225710   0.452   4.115   4.792  0.8856 -0.7196 -0.0622
 4751SOL     OW25711   2.641   4.657   8.711 -0.0278  0.3351  0.7129
 4751SOL    HW125712   2.643   0.013   8.759 -0.3245  2.0464 -2.2139
 4751SOL    HW225713   2.647   4.595   8.783 -3.4001 -0.5741  0.1950
 4752SOL     OW25714   1.315   1.336   5.395 -0.5129  0.0365 -0.1682
 4752SOL    HW125715   1.350   1.303   5.479 -1.5519  0.0089  0.2574
 4752SOL    HW225716   1.252   1.398   5.431  0.1556  1.1390 -0.9006
 4753SOL     OW25717   0.898   3.238   8.808  0.2003 -0.0321 -0.0365
 4753SOL    HW125718   0.946   3.196   8.879 -0.6153 -1.6025 -0.4050
 4753SOL    HW225719   0.807   3.208   8.817  0.3080 -0.5275 -0.5991
 4754SOL     OW25720   0.414   3.109   9.649  0.2426  0.5176 -0.2423
 4754SOL    HW125721   0.363   3.028   9.656  1.9021 -0.4420  0.8449
 4754SOL    HW225722   0.461   3.101   9.566  0.1755 -1.3382 -0.1062
 4755SOL     OW25723   2.542   0.372   8.462 -0.7647 -0.8497 -0.0989
 4755SOL    HW125724   2.630   0.403   8.485 -0.7035  1.4386 -3.3542
 4755SOL    HW225725   2.526   0.337   8.549 -2.4633  1.2945  0.4070
 4756SOL     OW25726   3.975   3.962   2.023 -0.1308 -0.2323  0.3891
 4756SOL    HW125727   4.018   3.885   1.985 -0.3167 -1.3605  2.4510
 4756SOL    HW225728   4.052   3.998   2.069 -0.5942 -0.9352  1.7256
 4757SOL     OW25729   0.175   4.141   2.692 -0.0827 -0.2253 -0.7169
 4757SOL    HW125730   0.115   4.193   2.746 -1.1674  0.0313 -2.1748
 4757SOL    HW225731   0.161   4.194   2.614  2.0901  0.8541 -0.3795
 4758SOL     OW25732   1.429   2.777   7.576 -0.0279 -0.0838  0.4536
 4758SOL    HW125733   1.440   2.771   7.671 -0.8724  0.4742  0.5909
 4758SOL    HW225734   1.356   2.715   7.575 -0.5025  0.5043 -0.9069
 4759SOL     OW25735   3.202   4.403   6.017 -0.5133  0.4342  0.2856
 4759SOL    HW125736   3.163   4.412   5.930  0.6250  1.7311 -0.0952
 4759SOL    HW225737   3.255   4.324   6.006 -2.4387 -1.1280  2.3586
 4760SOL     OW25738   4.022   3.697  17.272 -0.5605 -0.7061 -0.0150
 4760SOL    HW125739   4.085   3.735  17.332  2.4391 -1.8271 -2.4780
 4760SOL    HW225740   4.073   3.684  17.192  2.1216 -1.7422  1.8901
 4761SOL     OW25741   3.349   1.275   2.710  0.0096  0.5787  0.7990
 4761SOL    HW125742   3.274   1.241   2.759  0.9907 -2.4794  0.2212
 4761SOL    HW225743   3.409   1.295   2.782  1.0120 -1.6384  0.5693
 4762SOL     OW25744   0.239   1.812  16.243  0.1046  0.3774  0.4462
 4762SOL    HW125745   0.256   1.892  16.193  1.5557  0.3470  0.8753
 4762SOL    HW225746   0.244   1.850  16.331  0.5600  1.9929 -0.2623
 4763SOL     OW25747   4.499   3.702   5.235  0.2618  0.0560 -0.5722
 4763SOL    HW125748   4.555   3.673   5.306 -1.4304  0.5018  0.9540
 4763SOL    HW225749   4.501   3.624   5.180  1.1270  0.7900 -1.5850
 4764SOL     OW25750   1.605   3.700  14.502 -0.3225 -0.6982 -0.6317
 4764SOL    HW125751   1.662   3.723  14.576 -1.8328  0.9003  0.0441
 4764SOL    HW225752   1.584   3.613  14.536  1.4505 -0.0754  2.1634
 4765SOL     OW25753   1.350   0.618   2.425 -0.4510 -0.4441 -0.0493
 4765SOL    HW125754   1.275   0.575   2.383 -1.4233  3.2350 -2.1031
 4765SOL    HW225755   1.318   0.708   2.419 -1.8704 -0.7807  2.4456
 4766SOL     OW25756   2.066   1.924   0.258  0.0806 -0.3403 -0.0639
 4766SOL    HW125757   1.973   1.921   0.278  0.0474  1.0677  0.0032
 4766SOL    HW225758   2.074   2.017   0.238  1.7518 -0.4876 -0.1086
 4767SOL     OW25759   4.281   3.680   2.134  0.7513 -0.3722  0.1548
 4767SOL    HW125760   4.376   3.685   2.121  0.6843  1.5768  0.4028
 4767SOL    HW225761   4.277   3.589   2.164 -2.3035 -0.7078 -1.3894
 4768SOL     OW25762   1.319   4.454  13.397  0.7363  0.0654 -0.1064
 4768SOL    HW125763   1.257   4.455  13.324  0.9371 -0.2688 -0.2820
 4768SOL    HW225764   1.394   4.466  13.338 -1.3453  1.7139 -2.4104
 4769SOL     OW25765   3.026   4.240  16.229 -0.6870  0.2915  0.4240
 4769SOL    HW125766   2.933   4.229  16.248 -0.7858 -1.6053 -1.1836
 4769SOL    HW225767   3.064   4.233  16.316  3.3275  2.0599 -1.1860
 4770SOL     OW25768   3.819   2.810   2.417 -0.3403 -0.1427 -0.2938
 4770SOL    HW125769   3.758   2.817   2.489 -0.0437  0.3987 -0.0956
 4770SOL    HW225770   3.822   2.717   2.396  1.1309 -0.1798  0.0696
 4771SOL     OW25771   2.617   1.406   6.916 -0.3949 -0.0202  0.4199
 4771SOL    HW125772   2.583   1.322   6.884  0.4945 -0.1517 -0.1748
 4771SOL    HW225773   2.540   1.446   6.958 -0.4458  0.0268  0.2818
 4772SOL     OW25774   3.071   0.515   8.446 -0.0428 -0.0187 -0.1630
 4772SOL    HW125775   2.997   0.535   8.503  0.1547 -1.7704  0.7371
 4772SOL    HW225776   3.039   0.434   8.407  0.3392 -0.1520 -0.2036
 4773SOL     OW25777   3.366   1.488  10.477  0.1011  0.2814 -0.1809
 4773SOL    HW125778   3.433   1.484  10.546  0.9099  1.7845 -0.8745
 4773SOL    HW225779   3.304   1.422  10.509  0.2780 -0.6817 -1.7959
 4774SOL     OW25780   3.951   3.581   3.335 -0.1471  0.1131 -0.8773
 4774SOL    HW125781   4.017   3.527   3.380 -1.4198  0.2908  1.2344
 4774SOL    HW225782   3.868   3.552   3.373  0.6247 -1.6974 -0.5487
 4775SOL     OW25783   3.401   3.922   1.018  0.2329 -0.1263  0.1120
 4775SOL    HW125784   3.442   3.837   1.001  0.2500  0.0461 -0.7076
 4775SOL    HW225785   3.484   3.968   1.013 -0.2032  0.6596  0.1290
 4776SOL     OW25786   3.051   1.411  13.598  0.1191 -0.4367 -0.2283
 4776SOL    HW125787   3.007   1.367  13.525  0.6641 -0.3366 -0.6189
 4776SOL    HW225788   2.982   1.416  13.664  0.4083  1.7119 -0.0855
 4777SOL     OW25789   4.323   1.612   9.324  0.1297  0.5771  0.1829
 4777SOL    HW125790   4.354   1.524   9.301 -1.9973 -0.8205  2.6684
 4777SOL    HW225791   4.387   1.660   9.272  0.4556 -1.7696 -1.5951
 4778SOL     OW25792   4.458   2.286   8.766  0.3715  0.5027 -0.5175
 4778SOL    HW125793   4.527   2.309   8.828 -0.3663  1.3444 -0.0137
 4778SOL    HW225794   4.384   2.306   8.823  3.3712  2.7632  2.5144
 4779SOL     OW25795   2.725   2.789   4.827  0.0439 -0.0053 -0.1169
 4779SOL    HW125796   2.641   2.791   4.781 -0.2765  1.2049  0.5041
 4779SOL    HW225797   2.695   2.776   4.917 -0.0223  0.0870 -0.1251
 4780SOL     OW25798   3.094   3.329   2.856 -0.0890 -0.0949 -0.0082
 4780SOL    HW125799   3.108   3.293   2.768  1.3999  2.6452 -0.9043
 4780SOL    HW225800   3.081   3.423   2.842  0.4643 -0.4154 -2.7324
 4781SOL     OW25801   4.461   4.580   5.879 -0.2153  0.1220  0.4855
 4781SOL    HW125802   4.418   4.523   5.815 -1.4604  0.2672  1.1791
 4781SOL    HW225803   4.548   4.581   5.840 -0.6891  1.0509 -0.5364
 4782SOL     OW25804   2.685   0.894   5.877  0.5579  0.1912  0.5425
 4782SOL    HW125805   2.609   0.947   5.900  1.2298  1.5216 -0.3056
 4782SOL    HW225806   2.647   0.810   5.900  3.4204 -0.8886  1.3133
 4783SOL     OW25807   1.159   4.596   6.732  0.2665 -0.3769  0.0783
 4783SOL    HW125808   1.144   4.554   6.816 -0.6855 -1.3303 -0.5641
 4783SOL    HW225809   1.070   4.610   6.699  0.7939  0.7172 -0.8786
 4784SOL     OW25810   2.523   4.611  13.398  0.3896  0.3672  0.0554
 4784SOL    HW125811   2.580   4.654  13.462  0.1830 -0.2946  0.6870
 4784SOL    HW225812   2.470   4.685  13.372 -1.3420 -0.4569  1.2116
 4785SOL     OW25813   0.214   2.438   4.739 -0.0695  0.2044  0.1710
 4785SOL    HW125814   0.193   2.351   4.773  0.0124 -0.9117 -2.6490
 4785SOL    HW225815   0.272   2.474   4.806  0.5001 -1.7872  0.7631
 4786SOL     OW25816   3.852   1.321   2.740 -0.3226 -0.4002  0.3860
 4786SOL    HW125817   3.815   1.273   2.666  1.0020  0.4457 -0.8128
 4786SOL    HW225818   3.794   1.398   2.741 -1.2739 -1.1155  0.9003
 4787SOL     OW25819   0.246   3.583  12.530  0.3880 -0.2493 -0.4503
 4787SOL    HW125820   0.200   3.635  12.464  0.0066  0.0752  0.0683
 4787SOL    HW225821   0.262   3.506  12.475  1.4228 -0.2776 -0.0945
 4788SOL     OW25822   4.499   1.323   8.887  0.7577  0.0374 -0.0788
 4788SOL    HW125823   4.506   1.359   8.975  0.7157  0.8409 -0.4100
 4788SOL    HW225824   4.483   1.230   8.905 -1.6610  0.7441  1.5097
 4789SOL     OW25825   4.254   1.538  16.691 -0.1779  0.0427  0.1288
 4789SOL    HW125826   4.251   1.444  16.711  0.5296 -0.0397 -0.1476
 4789SOL    HW225827   4.162   1.559  16.699 -0.7634 -2.0020 -1.2032
 4790SOL     OW25828   2.648   2.976  17.362 -0.0634 -0.3368  0.2700
 4790SOL    HW125829   2.709   3.035  17.406 -1.2499  0.5841  0.7063
 4790SOL    HW225830   2.624   3.037  17.292 -2.1642  0.5112  1.7283
 4791SOL     OW25831   3.056   1.324   7.987 -0.7153 -0.3699  1.0470
 4791SOL    HW125832   3.118   1.384   8.029  0.6088 -2.0182  1.4697
 4791SOL    HW225833   3.031   1.377   7.912 -1.6197  1.3373  2.5555
 4792SOL     OW25834   0.720   2.224  12.881  0.2415 -0.1851  0.3916
 4792SOL    HW125835   0.655   2.250  12.816  1.7363  1.3146 -0.5085
 4792SOL    HW225836   0.685   2.249  12.966 -0.6277  1.2640 -0.4031
 4793SOL     OW25837   4.712   0.609   5.298  0.3007  0.0605 -0.3920
 4793SOL    HW125838   4.619   0.585   5.305  0.5162 -0.5291  0.3726
 4793SOL    HW225839   0.034   0.554   5.359  0.4015  1.0633  0.4293
 4794SOL     OW25840   3.488   3.219  10.426  0.2295 -0.0188  0.3304
 4794SOL    HW125841   3.443   3.222  10.342 -1.1216 -0.0804  1.0404
 4794SOL    HW225842   3.414   3.237  10.485 -1.1884  0.9476 -1.7462
 4795SOL     OW25843   0.039   0.510  17.274  0.3419  0.2284  0.5119
 4795SOL    HW125844   0.075   0.520  17.362  2.3714  0.8952 -0.3985
 4795SOL    HW225845   0.014   0.418  17.267  0.6249 -0.0335  3.1854
 4796SOL     OW25846   2.891   2.608   6.217  0.1887  1.2734 -0.4959
 4796SOL    HW125847   2.902   2.652   6.301  2.4364  1.5045 -0.9182
 4796SOL    HW225848   2.872   2.516   6.235 -4.4425  1.8672 -2.3262
 4797SOL     OW25849   1.653   2.486   2.948  0.3605  0.6608 -0.2155
 4797SOL    HW125850   1.662   2.408   2.893  1.8560  0.3922  0.4091
 4797SOL    HW225851   1.600   2.538   2.887  0.9484 -0.3732 -1.5832
 4798SOL     OW25852   1.568   2.660   7.978 -0.3488 -0.2120  0.2946
 4798SOL    HW125853   1.478   2.690   7.966  0.4414  2.2409  0.4665
 4798SOL    HW225854   1.549   2.570   8.003  2.4946 -0.4832  1.4835
 4799SOL     OW25855   1.957   2.467  15.899 -0.3079 -0.1314 -0.1760
 4799SOL    HW125856   2.019   2.465  15.826 -1.3686 -0.6580 -1.0817
 4799SOL    HW225857   1.907   2.388  15.879 -0.3964 -0.7530  2.6200
 4800SOL     OW25858   2.473   1.030   6.005  0.0311 -0.1594 -0.3246
 4800SOL    HW125859   2.393   1.035   6.058  0.7111 -1.6516  0.8338
 4800SOL    HW225860   2.494   1.122   5.996  3.6212 -0.8019  1.6416
 4801SOL     OW25861   0.964   2.034   7.298  0.4301  0.0177  0.2769
 4801SOL    HW125862   0.874   2.007   7.316 -0.2080  0.2649 -2.5880
 4801SOL    HW225863   0.996   1.973   7.232  0.7770 -0.3776  0.8129
 4802SOL     OW25864   4.176   2.721   3.149 -0.5056  0.0338 -0.6243
 4802SOL    HW125865   4.214   2.775   3.218  0.2318 -1.5134  0.1956
 4802SOL    HW225866   4.243   2.731   3.082  0.3776  1.1537  0.4488
 4803SOL     OW25867   1.417   0.347   1.015 -0.0082 -0.0065 -0.4732
 4803SOL    HW125868   1.341   0.405   1.016  0.0721  0.1075 -1.5244
 4803SOL    HW225869   1.388   0.258   0.997  0.6750 -0.5197  0.8818
 4804SOL     OW25870   4.080   0.410   6.468  0.3420  0.1583 -0.0867
 4804SOL    HW125871   4.073   0.358   6.548  1.2155  1.3005  0.7334
 4804SOL    HW225872   3.994   0.384   6.436  0.5709  0.5872 -1.0426
 4805SOL     OW25873   0.996   1.308   1.152  0.1454 -0.5233 -0.7197
 4805SOL    HW125874   1.037   1.331   1.236  0.3067 -0.2949 -0.8596
 4805SOL    HW225875   0.905   1.304   1.180  0.5657  0.9226  0.8756
 4806SOL     OW25876   1.927   3.368  16.643 -0.4428  0.2337  0.6988
 4806SOL    HW125877   2.018   3.396  16.645 -0.1033 -0.7776 -0.3184
 4806SOL    HW225878   1.932   3.280  16.682  0.1427  0.6925  1.6593
 4807SOL     OW25879   4.606   4.081   3.372  0.4373 -0.9342  0.1391
 4807SOL    HW125880   4.682   4.124   3.412  0.3543 -2.3610  1.8054
 4807SOL    HW225881   4.620   4.110   3.281 -1.4762 -0.4172  0.0054
 4808SOL     OW25882   2.958   0.643   4.628 -0.1744  0.0254  0.8616
 4808SOL    HW125883   2.897   0.599   4.687 -0.2533 -1.5350 -0.4070
 4808SOL    HW225884   2.915   0.727   4.611  1.6676  0.1268 -3.2639
 4809SOL     OW25885   2.090   2.433   0.397  0.0706 -0.0033 -0.0118
 4809SOL    HW125886   2.153   2.499   0.367 -1.0702  0.3297 -1.6211
 4809SOL    HW225887   2.142   2.353   0.398 -1.8734 -1.2635 -0.5581
 4810SOL     OW25888   3.981   3.723   0.789  0.8091  0.1136 -0.2035
 4810SOL    HW125889   4.044   3.731   0.861  0.3743  1.2457  0.0396
 4810SOL    HW225890   3.982   3.810   0.749 -0.6583  0.0705 -0.3330
 4811SOL     OW25891   1.751   1.567   5.584 -0.1116  0.3826  0.7819
 4811SOL    HW125892   1.734   1.651   5.628 -1.9784  0.1983  0.3819
 4811SOL    HW225893   1.786   1.598   5.500 -0.4223  0.2195  0.5959
 4812SOL     OW25894   4.023   0.855  13.554  0.1380 -0.5716 -0.1410
 4812SOL    HW125895   3.986   0.842  13.642 -1.1008 -0.8560 -0.7148
 4812SOL    HW225896   4.074   0.776  13.535  0.4109 -0.1297 -1.2056
 4813SOL     OW25897   1.371   0.074  16.503  0.0866  0.3397 -0.2568
 4813SOL    HW125898   1.296   0.048  16.557 -0.9701 -0.0446 -1.9082
 4813SOL    HW225899   1.400   0.150  16.554 -1.2406  1.6069 -1.3897
 4814SOL     OW25900   1.478   1.616   0.420 -0.1240  0.3273 -0.6331
 4814SOL    HW125901   1.487   1.524   0.392  0.5343 -0.9160  3.5901
 4814SOL    HW225902   1.469   1.613   0.515  3.1677  0.9633 -0.2944
 4815SOL     OW25903   0.063   0.380  10.880 -0.2007 -0.4849  0.0372
 4815SOL    HW125904   0.069   0.306  10.820  1.5425  0.0097 -0.3966
 4815SOL    HW225905   0.048   0.458  10.826  1.0712  0.2890  0.8163
 4816SOL     OW25906   0.229   3.894   5.058 -0.1407  0.0130  0.1668
 4816SOL    HW125907   0.168   3.886   4.984 -0.6538 -0.4653  0.6464
 4816SOL    HW225908   0.277   3.812   5.047  0.1016  0.2993 -0.9765
 4817SOL     OW25909   0.293   1.490  13.909  0.3382  0.0399  0.5649
 4817SOL    HW125910   0.244   1.445  13.977  1.7153 -0.6041  1.1162
 4817SOL    HW225911   0.233   1.536  13.849  1.2066 -1.2564 -1.3061
 4818SOL     OW25912   3.425   2.142   5.251  0.2414 -0.3664  0.7407
 4818SOL    HW125913   3.491   2.074   5.244  1.0715  0.8748 -3.1917
 4818SOL    HW225914   3.410   2.151   5.345  1.3752 -0.2670  0.9027
 4819SOL     OW25915   2.808   1.137   4.469 -0.3953  0.2721  0.2975
 4819SOL    HW125916   2.763   1.129   4.553 -0.5878  0.3481  0.1999
 4819SOL    HW225917   2.750   1.104   4.401  1.2461 -0.4431 -0.7701
 4820SOL     OW25918   2.289   0.970  17.571 -1.0560 -0.0297 -0.2342
 4820SOL    HW125919   2.283   0.899  17.507  0.0491 -0.0688 -0.2941
 4820SOL    HW225920   2.251   0.918  17.642  0.9425 -1.8304 -0.4526
 4821SOL     OW25921   3.968   2.075  10.628 -0.5039  0.0414  0.4418
 4821SOL    HW125922   4.021   2.149  10.659 -0.9470 -0.2794  1.9446
 4821SOL    HW225923   3.945   2.101  10.539 -0.1157  0.1812  0.3800
 4822SOL     OW25924   3.855   0.151   3.598 -0.2589  0.2468  0.3178
 4822SOL    HW125925   3.812   0.206   3.662  1.5088  1.2727  0.6201
 4822SOL    HW225926   3.792   0.079   3.589 -1.7092  1.7491 -1.4441
 4823SOL     OW25927   1.489   1.051   4.057  0.0775  0.3476 -0.1355
 4823SOL    HW125928   1.545   1.083   3.986 -1.0150  0.2250 -1.0682
 4823SOL    HW225929   1.442   1.132   4.074  1.8700  1.1781  0.7428
 4824SOL     OW25930   1.116   3.789  15.392  0.0388 -0.6907 -0.0004
 4824SOL    HW125931   1.145   3.852  15.459 -0.0615  1.1987 -1.7346
 4824SOL    HW225932   1.092   3.705  15.430 -1.5593 -0.6185 -0.8718
 4825SOL     OW25933   2.318   2.858   3.859  0.5382 -0.2640 -0.3917
 4825SOL    HW125934   2.281   2.892   3.940 -1.4063 -1.1714 -0.8921
 4825SOL    HW225935   2.241   2.871   3.803  1.7082 -1.5721 -2.3242
 4826SOL     OW25936   4.705   2.885  11.967  0.3954  0.2640 -0.5829
 4826SOL    HW125937   4.621   2.906  12.008 -0.6520 -0.5923 -2.2871
 4826SOL    HW225938   4.715   2.952  11.899  2.2748 -0.4276 -0.9650
 4827SOL     OW25939   3.882   0.230   4.119 -0.3600  0.2575 -0.1763
 4827SOL    HW125940   3.845   0.314   4.094 -0.8831 -0.1692 -0.8427
 4827SOL    HW225941   3.964   0.238   4.167  0.4949 -3.0616 -1.0737
 4828SOL     OW25942   1.507   2.322  14.863  0.2622  0.0497 -0.2023
 4828SOL    HW125943   1.487   2.410  14.831  0.3439 -0.0199 -0.4394
 4828SOL    HW225944   1.592   2.305  14.823 -1.0108 -2.0015 -2.0135
 4829SOL     OW25945   0.172   3.590  11.339 -0.2002 -0.7757  0.3019
 4829SOL    HW125946   0.231   3.633  11.278  0.0371 -0.8606  0.4679
 4829SOL    HW225947   0.089   3.624  11.307 -1.0758 -1.6287  1.6590
 4830SOL     OW25948   2.465   4.499   4.599  0.2328 -0.2734 -0.4818
 4830SOL    HW125949   2.426   4.586   4.592 -0.4784 -0.4844  0.8068
 4830SOL    HW225950   2.470   4.492   4.694 -0.7674 -0.7544 -0.4669
 4831SOL     OW25951   3.916   1.587   3.244  0.2082  0.5446  0.6490
 4831SOL    HW125952   3.938   1.515   3.303 -1.5257 -0.9097 -0.4731
 4831SOL    HW225953   3.946   1.552   3.160  1.8071  0.4103  1.2650
 4832SOL     OW25954   1.832   1.008   4.100 -0.2221  0.0635  0.3202
 4832SOL    HW125955   1.917   1.030   4.060 -0.0855  0.4258  0.8131
 4832SOL    HW225956   1.777   1.071   4.054  0.3036 -0.1867 -0.6627
 4833SOL     OW25957   0.753   0.385   3.943  0.4779 -0.2504 -0.6678
 4833SOL    HW125958   0.712   0.407   3.860  0.5714 -1.7730 -1.1148
 4833SOL    HW225959   0.796   0.300   3.930 -0.5480 -0.4658 -2.5186
 4834SOL     OW25960   4.717   1.708   7.485 -0.1229  0.7684 -0.6374
 4834SOL    HW125961   0.049   1.738   7.416  2.8286  0.6525  1.8148
 4834SOL    HW225962   4.647   1.773   7.482  0.1806  1.0349 -1.9929
 4835SOL     OW25963   3.029   1.593  13.366 -0.5694  0.0597 -0.2501
 4835SOL    HW125964   3.060   1.511  13.328 -0.1513  0.8606 -1.6564
 4835SOL    HW225965   3.007   1.559  13.452 -3.1702  0.4236 -0.7491
 4836SOL     OW25966   0.641   1.394  17.567  0.3947 -0.8651  0.4897
 4836SOL    HW125967   0.558   1.420  17.607 -0.9240 -0.7855 -2.2973
 4836SOL    HW225968   0.620   1.301  17.561 -0.9385 -0.4483 -1.6524
 4837SOL     OW25969   4.471   2.570   6.311 -0.1005  0.1633 -0.6280
 4837SOL    HW125970   4.466   2.538   6.221 -1.2315  1.2732 -0.9675
 4837SOL    HW225971   4.455   2.662   6.289 -0.2769  0.1884 -0.3968
 4838SOL     OW25972   1.121   1.388  13.215  0.6510 -0.1753  0.0172
 4838SOL    HW125973   1.129   1.431  13.130 -1.8621  1.6580  0.7069
 4838SOL    HW225974   1.029   1.374  13.233  1.1817 -2.1728  1.1364
 4839SOL     OW25975   4.721   4.530  16.867 -0.0451  0.0751 -0.2859
 4839SOL    HW125976   0.039   4.472  16.928  1.7446  1.1327 -0.6034
 4839SOL    HW225977   4.705   4.474  16.791  0.8946  3.1008 -2.7296
 4840SOL     OW25978   4.211   1.585   5.280  0.3506 -0.5123  0.3765
 4840SOL    HW125979   4.131   1.637   5.279  0.6594  0.0173  2.5566
 4840SOL    HW225980   4.175   1.497   5.276 -2.1074  0.5764 -1.5043
 4841SOL     OW25981   1.157   1.371   1.379 -0.6671  0.1858 -0.0935
 4841SOL    HW125982   1.237   1.424   1.376  0.5268 -1.6549 -0.5309
 4841SOL    HW225983   1.164   1.321   1.460 -2.2465 -0.8746 -0.6099
 4842SOL     OW25984   4.191   1.640   6.854  0.0861 -0.5644 -0.7439
 4842SOL    HW125985   4.229   1.678   6.933  2.3352 -1.0974 -1.5760
 4842SOL    HW225986   4.215   1.550   6.876 -0.0510 -0.3387  0.2975
 4843SOL     OW25987   3.466   1.133   5.686  0.1297 -0.4058 -0.1224
 4843SOL    HW125988   3.485   1.162   5.775 -0.2546 -2.0253  0.4833
 4843SOL    HW225989   3.436   1.044   5.704 -0.5776 -0.1835 -0.2200
 4844SOL     OW25990   2.236   1.611  15.094  0.7399  0.2959 -0.9415
 4844SOL    HW125991   2.231   1.518  15.116  0.9173  0.5885  0.3403
 4844SOL    HW225992   2.177   1.659  15.151  1.1636 -0.1846 -0.0931
 4845SOL     OW25993   2.513   1.725  16.662  0.1149  0.1710 -0.0634
 4845SOL    HW125994   2.565   1.756  16.736  0.9959 -2.0681  0.2422
 4845SOL    HW225995   2.569   1.746  16.587  0.3925  1.5617  0.5414
 4846SOL     OW25996   4.537   2.363   8.098  0.0267  0.0585  0.6548
 4846SOL    HW125997   4.444   2.341   8.100  0.1149 -0.4582 -2.0561
 4846SOL    HW225998   4.566   2.272   8.102  1.2896  0.3526 -1.7714
 4847SOL     OW25999   4.290   1.696   1.097 -0.1864 -0.0066  0.6083
 4847SOL    HW126000   4.280   1.601   1.092 -0.7268  0.1415 -1.2551
 4847SOL    HW226001   4.308   1.727   1.008 -0.4484 -1.4827  0.0524
 4848SOL     OW26002   2.261   4.694   4.208 -0.2968  0.2995  0.0279
 4848SOL    HW126003   2.199   0.009   4.268 -1.0251 -1.7564  0.7125
 4848SOL    HW226004   2.228   4.718   4.122 -3.6929 -1.4747  0.8171
 4849SOL     OW26005   3.492   1.181   3.563 -0.0167  0.1168 -0.3083
 4849SOL    HW126006   3.475   1.273   3.545  0.8636  0.3937  0.2501
 4849SOL    HW226007   3.445   1.187   3.646  0.1695  0.5331 -0.2336
 4850SOL     OW26008   3.162   0.249   6.303 -0.6774 -0.2562  0.2717
 4850SOL    HW126009   3.209   0.214   6.228 -1.3153 -0.2573 -0.1246
 4850SOL    HW226010   3.174   0.165   6.348 -1.2362  0.1111  1.1112
 4851SOL     OW26011   1.829   0.475   9.449  0.3327  0.2897 -0.0539
 4851SOL    HW126012   1.838   0.503   9.541 -2.2853 -0.3456  0.3788
 4851SOL    HW226013   1.735   0.469   9.437  0.5092 -1.7341 -0.3269
 4852SOL     OW26014   4.602   2.371   2.320  0.4713 -0.2215 -0.0681
 4852SOL    HW126015   4.582   2.362   2.227 -0.5163  0.3951  0.0726
 4852SOL    HW226016   4.551   2.299   2.357  2.5369 -0.5107  2.1879
 4853SOL     OW26017   3.638   3.736  13.902  0.4632 -0.0044  0.3884
 4853SOL    HW126018   3.550   3.737  13.938  0.2519  1.8624 -0.1563
 4853SOL    HW226019   3.658   3.644  13.883  1.8644  0.1870  0.9223
 4854SOL     OW26020   0.905   2.905  13.415 -0.3114  0.2926 -0.0228
 4854SOL    HW126021   0.969   2.977  13.416 -0.2442  0.2289  0.2047
 4854SOL    HW226022   0.955   2.837  13.370  0.2143  0.5201  0.2066
 4855SOL     OW26023   0.039   2.105  10.680 -0.4625  0.3425  0.0080
 4855SOL    HW126024   0.046   2.013  10.704  1.2427  0.3458 -0.4990
 4855SOL    HW226025   4.670   2.111  10.677 -0.2693  2.5803 -1.5592
 4856SOL     OW26026   4.667   0.363   8.629  0.6725  0.0412 -0.2824
 4856SOL    HW126027   0.029   0.399   8.630  1.2122 -1.3304  0.3533
 4856SOL    HW226028   4.628   0.430   8.686 -1.3216  0.7212 -2.4087
 4857SOL     OW26029   4.623   3.670   2.674 -0.3268  0.2431  0.2837
 4857SOL    HW126030   4.644   3.761   2.651  2.0858  0.2266  2.3338
 4857SOL    HW226031   4.589   3.671   2.763  0.7712 -0.4293  0.7168
 4858SOL     OW26032   2.162   3.470  16.643 -0.2836  0.3560 -0.3669
 4858SOL    HW126033   2.252   3.468  16.609  0.1104  2.1196  0.5533
 4858SOL    HW226034   2.190   3.464  16.735  0.6518  2.5450 -0.4961
 4859SOL     OW26035   3.536   2.243   7.991  0.1772  0.2135  0.0018
 4859SOL    HW126036   3.526   2.157   8.032 -0.5382  0.9198  1.3124
 4859SOL    HW226037   3.606   2.279   8.046 -0.8137  1.9313  0.1344
 4860SOL     OW26038   3.358   3.302  16.622  0.3004 -0.4747  0.2203
 4860SOL    HW126039   3.275   3.324  16.665  1.3400 -0.5410  2.2527
 4860SOL    HW226040   3.408   3.271  16.698  1.5724  1.0261 -0.0102
 4861SOL     OW26041   3.110   3.214   6.638 -0.3664  0.3214  0.1507
 4861SOL    HW126042   3.064   3.297   6.646  0.6321  0.8494  0.4584
 4861SOL    HW226043   3.073   3.158   6.706 -0.8925  0.1536 -0.2717
 4862SOL     OW26044   0.974   1.902   1.012  0.7413 -0.3323 -0.5168
 4862SOL    HW126045   0.960   1.850   1.092  0.6220 -2.5300 -1.9705
 4862SOL    HW226046   0.989   1.986   1.056  0.0696 -1.1005  1.1889
 4863SOL     OW26047   3.850   3.817   7.534  0.3439  0.4892 -0.1326
 4863SOL    HW126048   3.889   3.753   7.594  1.4261  0.5738 -0.7371
 4863SOL    HW226049   3.927   3.822   7.477  0.7117 -2.1403  0.1274
 4864SOL     OW26050   2.342   4.121   0.942  0.4480  0.1796 -0.4174
 4864SOL    HW126051   2.377   4.055   0.883 -2.1807 -1.9334  0.3527
 4864SOL    HW226052   2.250   4.132   0.916  0.3416 -1.2088 -0.6318
 4865SOL     OW26053   1.989   4.272   5.823  0.0499 -0.5498  0.4723
 4865SOL    HW126054   1.942   4.204   5.871 -0.6266  0.5383  1.3844
 4865SOL    HW226055   1.940   4.279   5.741 -1.4339 -0.0166  1.3978
 4866SOL     OW26056   3.733   4.559  13.546 -0.2162  0.1150 -0.1725
 4866SOL    HW126057   3.701   4.490  13.604  0.7606  1.1276  1.5482
 4866SOL    HW226058   3.707   4.524  13.461  0.3689 -1.7537  0.4153
 4867SOL     OW26059   3.689   4.720  15.986 -0.5216 -0.0096 -0.5546
 4867SOL    HW126060   3.615   4.682  16.033 -0.3972 -0.7684 -0.9745
 4867SOL    HW226061   3.762   4.717  16.048  0.3558  0.5785 -1.5472
 4868SOL     OW26062   3.294   2.177   1.665  0.3864 -0.3470 -0.0817
 4868SOL    HW126063   3.295   2.186   1.569  1.0054  0.2499 -0.0173
 4868SOL    HW226064   3.363   2.240   1.688  2.7780 -2.6069 -1.1191
 4869SOL     OW26065   1.336   2.567  16.267  0.2516 -0.1214  0.4415
 4869SOL    HW126066   1.268   2.564  16.334 -0.4095  0.0471 -0.2227
 4869SOL    HW226067   1.296   2.627  16.205 -1.6759 -0.9152  0.9367
 4870SOL     OW26068   1.054   2.504  11.866  0.2880  0.1115 -0.6058
 4870SOL    HW126069   1.060   2.425  11.920  2.3111  0.0458 -0.9158
 4870SOL    HW226070   1.034   2.474  11.777 -1.3346 -0.9993  0.1281
 4871SOL     OW26071   2.992   1.347   4.767 -0.4879 -0.5822 -0.4241
 4871SOL    HW126072   3.017   1.334   4.858  0.2561 -0.4336 -0.6077
 4871SOL    HW226073   3.005   1.442   4.769 -3.0022 -0.2483  0.3830
 4872SOL     OW26074   2.105   3.233  15.370 -0.2680  0.0281  0.1961
 4872SOL    HW126075   2.084   3.253  15.461 -2.6852 -1.2514 -0.0803
 4872SOL    HW226076   2.186   3.187  15.391 -0.2667  0.5901  1.4374
 4873SOL     OW26077   1.414   2.416   6.725  0.0339 -0.4491  0.0045
 4873SOL    HW126078   1.478   2.353   6.756  0.7479 -1.3028 -3.2044
 4873SOL    HW226079   1.358   2.421   6.803 -1.8297  0.8614 -1.4252
 4874SOL     OW26080   0.296   3.498   5.755  0.4451  0.1810  0.4515
 4874SOL    HW126081   0.349   3.418   5.754 -0.2097 -0.2785  1.3235
 4874SOL    HW226082   0.218   3.461   5.797 -0.4337  1.0459 -0.4340
 4875SOL     OW26083   1.259   2.229  17.683 -0.1829  0.2617 -0.2157
 4875SOL    HW126084   1.201   2.233   0.050 -0.8912 -0.7960 -0.7011
 4875SOL    HW226085   1.202   2.186  17.619 -2.0529  2.1021  0.2230
 4876SOL     OW26086   1.077   3.620   0.429 -0.3690  0.1216 -0.6215
 4876SOL    HW126087   1.051   3.703   0.467  5.1939  0.2039  2.9922
 4876SOL    HW226088   1.169   3.631   0.454  0.1090  2.0721 -3.1655
 4877SOL     OW26089   0.385   3.747   5.836 -0.2951  0.3397 -0.1706
 4877SOL    HW126090   0.356   3.678   5.777  0.2934  1.8507 -2.2454
 4877SOL    HW226091   0.346   3.712   5.916 -0.7367 -1.5423 -1.2299
 4878SOL     OW26092   2.404   3.965  10.361  0.1463  0.3409 -0.5108
 4878SOL    HW126093   2.337   3.909  10.398  0.0236  0.7060 -0.1839
 4878SOL    HW226094   2.370   3.967  10.271 -0.2242 -0.1784 -0.3764
 4879SOL     OW26095   2.753   0.586   4.272  0.5832  0.1317  0.8164
 4879SOL    HW126096   2.806   0.647   4.220  2.3288 -1.7436  0.3634
 4879SOL    HW226097   2.664   0.616   4.258  1.5368  3.0683  1.0874
 4880SOL     OW26098   0.421   1.892  17.118  0.1814 -0.0402  0.6244
 4880SOL    HW126099   0.476   1.969  17.111 -1.2178  0.9467  0.3542
 4880SOL    HW226100   0.353   1.908  17.052  1.5223 -0.7505 -0.9478
 4881SOL     OW26101   2.511   2.169   2.804  0.6532 -0.0414  0.5291
 4881SOL    HW126102   2.497   2.153   2.710  0.2412 -0.6829  0.7008
 4881SOL    HW226103   2.556   2.253   2.794 -0.0755  0.2768 -0.1475
 4882SOL     OW26104   4.131   3.597   6.064  0.3068  0.4770  0.0083
 4882SOL    HW126105   4.121   3.585   6.158  0.4553 -0.3090 -0.0759
 4882SOL    HW226106   4.110   3.691   6.059 -1.1918  0.2594  2.3014
 4883SOL     OW26107   4.113   0.050   7.876 -0.1911 -0.1257 -0.4527
 4883SOL    HW126108   4.084   0.049   7.968 -1.4574 -2.4929 -0.8887
 4883SOL    HW226109   4.080   0.134   7.844  0.0281 -0.3081 -1.1525
 4884SOL     OW26110   3.461   3.282   3.484 -0.5210 -1.0091  0.9426
 4884SOL    HW126111   3.405   3.205   3.491 -0.1093 -1.3250  0.7990
 4884SOL    HW226112   3.433   3.339   3.555 -1.1322 -1.2312  0.8831
 4885SOL     OW26113   3.061   2.900   3.033  0.0938  0.2204 -0.1005
 4885SOL    HW126114   3.103   2.938   2.955  0.6738 -0.9557 -0.3525
 4885SOL    HW226115   2.970   2.922   3.011  0.3069  0.4266 -0.7848
 4886SOL     OW26116   0.022   1.995  16.678  0.1271 -0.1169  0.3020
 4886SOL    HW126117   4.683   2.060  16.654 -0.7785 -0.7926  0.9318
 4886SOL    HW226118   4.696   1.944  16.740 -2.0936  3.2265  1.1566
 4887SOL     OW26119   1.670   2.795   6.081 -0.5367  0.3187 -0.0811
 4887SOL    HW126120   1.702   2.855   6.148  1.0181 -0.7299  0.1216
 4887SOL    HW226121   1.698   2.714   6.125  1.2486  0.7086 -0.5228
 4888SOL     OW26122   4.493   0.621   2.408 -0.4041  0.6683 -0.8214
 4888SOL    HW126123   4.561   0.644   2.345 -0.1141  1.5236 -0.2022
 4888SOL    HW226124   4.504   0.527   2.420  1.3745  1.0176  0.2178
 4889SOL     OW26125   4.020   2.225   7.187 -0.0130  0.3891 -0.1794
 4889SOL    HW126126   3.937   2.193   7.223 -2.1512  5.5931 -0.4663
 4889SOL    HW226127   4.008   2.210   7.093 -2.6325  1.2083  0.0278
 4890SOL     OW26128   3.490   3.202   6.228 -0.1297  0.2611  0.2078
 4890SOL    HW126129   3.564   3.240   6.181 -1.0134  0.6157 -0.9040
 4890SOL    HW226130   3.445   3.283   6.252  0.4429  1.1263 -1.6683
 4891SOL     OW26131   0.726   3.448   7.547  0.2451  0.2823 -0.4900
 4891SOL    HW126132   0.663   3.468   7.616 -0.5549 -1.6520 -0.6396
 4891SOL    HW226133   0.734   3.355   7.572 -1.8363  0.6963  1.7428
 4892SOL     OW26134   1.195   1.420   7.140  0.2363 -0.2357 -0.4624
 4892SOL    HW126135   1.204   1.450   7.049 -2.2481  1.9233 -0.0047
 4892SOL    HW226136   1.108   1.382   7.128 -0.4152  0.7582  1.0924
 4893SOL     OW26137   1.399   2.464   1.680  0.3868  0.1165 -0.0886
 4893SOL    HW126138   1.427   2.421   1.761  0.3144 -0.4449 -0.3661
 4893SOL    HW226139   1.485   2.474   1.640 -0.5768  2.8658 -1.4588
 4894SOL     OW26140   4.126   0.658   8.308 -0.6173 -0.2350  0.3335
 4894SOL    HW126141   4.046   0.695   8.345 -0.8493  1.0467 -1.4979
 4894SOL    HW226142   4.178   0.736   8.292  1.8330 -2.1445 -1.1153
 4895SOL     OW26143   2.284   3.477   8.451 -0.2995  0.0688  0.0135
 4895SOL    HW126144   2.270   3.410   8.517 -0.0563 -0.0093 -0.0166
 4895SOL    HW226145   2.269   3.417   8.378 -0.1101 -1.8559  1.5744
 4896SOL     OW26146   0.193   3.439   3.196 -0.3431 -0.0902  0.3039
 4896SOL    HW126147   0.275   3.487   3.198  0.1269 -0.8694 -0.6099
 4896SOL    HW226148   0.203   3.389   3.115 -1.7595  1.0809 -0.6100
 4897SOL     OW26149   3.666   3.943  13.720 -0.4827 -0.3312  0.0749
 4897SOL    HW126150   3.622   3.903  13.796 -0.0375  1.1775  1.1284
 4897SOL    HW226151   3.746   3.892  13.706 -1.1494 -2.0453  2.3560
 4898SOL     OW26152   0.014   2.457  12.578 -0.4289  0.3304 -0.0142
 4898SOL    HW126153   4.678   2.523  12.607 -1.1952 -0.2232 -0.3934
 4898SOL    HW226154   0.045   2.501  12.500 -0.1726  0.3658  0.1098
 4899SOL     OW26155   3.124   4.696   1.783 -0.1406  0.6003 -0.3004
 4899SOL    HW126156   3.058   0.004   1.723 -0.6121 -1.1626 -0.7869
 4899SOL    HW226157   3.196   4.714   1.722 -0.1981  0.7653 -0.3200
 4900SOL     OW26158   3.279   3.366   6.156 -0.3939 -0.3169  0.0867
 4900SOL    HW126159   3.222   3.295   6.127  0.7002 -1.9118  1.8508
 4900SOL    HW226160   3.310   3.400   6.072  0.5060 -2.0362 -0.2772
 4901SOL     OW26161   2.584   3.625   7.937  0.8522 -0.5203 -0.1388
 4901SOL    HW126162   2.635   3.687   7.989 -0.7849  0.0828  0.7624
 4901SOL    HW226163   2.506   3.680   7.928  1.4990  0.3720 -0.2402
 4902SOL     OW26164   4.337   2.479  11.895  0.1264 -0.1424 -0.5778
 4902SOL    HW126165   4.282   2.460  11.818 -1.8306  0.8494  0.5783
 4902SOL    HW226166   4.394   2.538  11.845 -0.0363  0.7005  0.2406
 4903SOL     OW26167   0.838   0.029  12.999 -0.2781  0.5976 -0.3144
 4903SOL    HW126168   0.756   0.077  12.982 -0.4853 -0.1127 -1.3494
 4903SOL    HW226169   0.811   4.681  13.051 -1.2910  2.0372  1.2373
 4904SOL     OW26170   0.058   2.831   6.311 -0.5566  0.2901  0.4481
 4904SOL    HW126171   0.086   2.914   6.274  0.1588 -0.3509 -0.4399
 4904SOL    HW226172   4.707   2.821   6.256  1.4841 -1.6312 -2.0833
 4905SOL     OW26173   1.208   3.271  15.961 -0.7643  0.6133 -0.2212
 4905SOL    HW126174   1.282   3.316  15.920 -0.8179  0.5271 -0.4153
 4905SOL    HW226175   1.242   3.282  16.050  0.3901  3.8209 -1.0437
 4906SOL     OW26176   0.917   0.178   6.608  0.7906 -0.1169  0.8769
 4906SOL    HW126177   0.928   0.183   6.703 -1.8696  0.4792  1.1659
 4906SOL    HW226178   0.844   0.238   6.596 -0.7253 -2.1379  0.0193
 4907SOL     OW26179   1.557   1.463   1.877 -0.0677  0.1449 -0.3775
 4907SOL    HW126180   1.611   1.429   1.806  0.0661  2.0814 -1.2177
 4907SOL    HW226181   1.468   1.428   1.878  0.6388 -1.6647 -0.9280
 4908SOL     OW26182   3.660   2.091  12.302  0.8805 -0.3652  0.2798
 4908SOL    HW126183   3.634   2.000  12.290  0.4387 -0.0137 -1.3718
 4908SOL    HW226184   3.711   2.104  12.222 -0.4604  1.1762 -0.3271
 4909SOL     OW26185   2.654   3.317   3.346  0.2119  0.2205 -0.3649
 4909SOL    HW126186   2.630   3.382   3.280 -0.3835  1.1689  0.7993
 4909SOL    HW226187   2.568   3.280   3.367  0.3358 -0.7950 -1.6319
 4910SOL     OW26188   3.174   1.084   2.441  0.1563 -0.7841 -0.4024
 4910SOL    HW126189   3.085   1.115   2.456  0.4740  0.2124 -0.5492
 4910SOL    HW226190   3.201   1.167   2.400  0.3504 -1.4880 -1.6819
 4911SOL     OW26191   4.012   0.240  17.391  0.7222 -0.7803  0.4116
 4911SOL    HW126192   3.941   0.196  17.344  2.9417 -3.6376 -0.2910
 4911SOL    HW226193   3.977   0.326  17.411  0.2296 -1.1171  0.9894
 4912SOL     OW26194   0.969   3.212   5.835 -0.3376 -0.9205 -0.5075
 4912SOL    HW126195   1.015   3.193   5.753 -0.5374 -0.4950 -0.7156
 4912SOL    HW226196   1.032   3.184   5.902 -1.2295 -3.5677 -0.7908
 4913SOL     OW26197   1.955   2.448  11.995 -0.2365 -0.1551 -0.1151
 4913SOL    HW126198   1.933   2.356  12.006  0.9497 -0.1004  2.6872
 4913SOL    HW226199   1.879   2.505  11.985  0.7599  1.1851 -0.1255
 4914SOL     OW26200   1.795   3.716   1.945 -0.4427 -0.7434  0.0246
 4914SOL    HW126201   1.791   3.803   1.983 -1.6415 -1.5297  1.7195
 4914SOL    HW226202   1.721   3.673   1.988 -1.8680 -0.0738 -1.7494
 4915SOL     OW26203   1.311   3.060   2.426  0.3082  0.4461  0.4064
 4915SOL    HW126204   1.241   3.119   2.396  0.7303 -0.3384 -2.1513
 4915SOL    HW226205   1.389   3.115   2.429  1.5478 -1.3459  0.7724
 4916SOL     OW26206   1.121   1.019   4.603  0.3071 -0.2090  0.7918
 4916SOL    HW126207   1.215   1.007   4.591  0.8173  4.1681  0.4715
 4916SOL    HW226208   1.085   1.018   4.515 -0.5040  0.5579  1.1113
 4917SOL     OW26209   0.811   2.266   4.648 -0.0114  0.1952 -0.0477
 4917SOL    HW126210   0.862   2.189   4.675  0.5843  0.1658 -1.2753
 4917SOL    HW226211   0.794   2.300   4.736 -1.4673 -0.1837 -0.1947
 4918SOL     OW26212   4.461   3.030   6.456  0.2682 -0.5064 -0.5238
 4918SOL    HW126213   4.481   3.057   6.546  2.1980 -3.1074 -0.1485
 4918SOL    HW226214   4.441   2.938   6.476 -1.4695  0.5064  2.4547
 4919SOL     OW26215   0.528   3.953   5.596 -0.6899  0.0674  0.8245
 4919SOL    HW126216   0.618   3.922   5.605 -1.4512 -1.8388  1.7817
 4919SOL    HW226217   0.495   3.961   5.685 -0.3708 -0.8367  1.0222
 4920SOL     OW26218   3.486   4.020   8.901  0.1162  0.5268 -0.0398
 4920SOL    HW126219   3.551   3.995   8.967  0.3882  0.5842 -0.2871
 4920SOL    HW226220   3.447   3.933   8.894  1.7369  0.1331 -3.9136
 4921SOL     OW26221   4.015   1.804   5.688 -0.0074  0.4216  0.5543
 4921SOL    HW126222   4.001   1.898   5.678  0.8076  0.4127 -0.6885
 4921SOL    HW226223   3.943   1.762   5.735 -1.2067  1.5829 -0.2329
 4922SOL     OW26224   4.451   3.743   8.668 -0.2298 -0.5064 -0.0954
 4922SOL    HW126225   4.386   3.796   8.623  0.6651  1.3899  0.8585
 4922SOL    HW226226   4.524   3.803   8.655 -0.5879 -0.0582  0.0005
 4923SOL     OW26227   3.958   0.865   9.532 -0.1631 -0.3100  0.5661
 4923SOL    HW126228   3.876   0.874   9.484 -0.6405 -0.0752  1.4439
 4923SOL    HW226229   3.984   0.781   9.494 -0.5077  0.4460 -1.3562
 4924SOL     OW26230   0.415   4.123   6.111 -0.3921 -0.5075 -0.1285
 4924SOL    HW126231   0.325   4.126   6.143 -0.4112  3.4498 -0.5778
 4924SOL    HW226232   0.414   4.217   6.091 -0.1596 -0.7755 -1.3712
 4925SOL     OW26233   2.318   3.369   1.496 -0.2202  0.1995 -0.2945
 4925SOL    HW126234   2.224   3.360   1.483  0.1065  0.8200 -3.2242
 4925SOL    HW226235   2.316   3.349   1.589 -1.9390  1.1530 -0.1251
 4926SOL     OW26236   2.056   3.278   1.721  0.1022 -0.2803 -0.1732
 4926SOL    HW126237   2.150   3.279   1.740 -0.3668 -0.9301  2.1359
 4926SOL    HW226238   2.038   3.364   1.757 -1.0244  0.1939 -1.8634
 4927SOL     OW26239   1.724   4.474   6.252  0.4200  0.0773 -0.4547
 4927SOL    HW126240   1.685   4.393   6.219 -1.3000  0.7367 -0.0385
 4927SOL    HW226241   1.803   4.430   6.282 -0.0683  0.1088  0.8721
 4928SOL     OW26242   2.035   3.020  17.227 -0.1186 -0.2205 -0.3631
 4928SOL    HW126243   1.940   3.009  17.227 -0.0464 -0.8280 -0.1601
 4928SOL    HW226244   2.049   3.049  17.317 -1.4233  0.7420 -0.4564
 4929SOL     OW26245   2.553   3.671   8.384  0.2231  0.2632  0.0470
 4929SOL    HW126246   2.503   3.593   8.361  0.6252 -0.0426  0.1910
 4929SOL    HW226247   2.561   3.655   8.478 -0.9250 -1.1647 -0.0953
 4930SOL     OW26248   2.486   0.221   8.712 -0.3177 -0.2220 -0.2451
 4930SOL    HW126249   2.548   0.283   8.750 -0.4090 -1.4449  1.9202
 4930SOL    HW226250   2.448   0.191   8.795  0.9648  0.4450  0.5882
 4931SOL     OW26251   2.788   0.241   7.396 -0.1591 -0.6729 -0.1558
 4931SOL    HW126252   2.825   0.202   7.317 -1.8362 -0.0518 -1.2481
 4931SOL    HW226253   2.788   0.335   7.376 -0.2613 -0.7002 -0.2874
 4932SOL     OW26254   3.935   4.394   7.996  0.1804  0.3553 -0.1909
 4932SOL    HW126255   3.941   4.329   7.925 -1.8481 -1.1307  0.9735
 4932SOL    HW226256   3.869   4.362   8.058  1.6192 -1.1338  0.5627
 4933SOL     OW26257   4.572   2.387   6.647  0.3080 -0.2222 -0.3501
 4933SOL    HW126258   4.589   2.480   6.660  2.8701 -0.6735 -0.6166
 4933SOL    HW226259   4.647   2.360   6.595  0.7187  0.4830 -0.1262
 4934SOL     OW26260   2.575   0.647   7.213 -0.4070 -0.3394 -0.4758
 4934SOL    HW126261   2.648   0.594   7.245  1.1672  2.9597  1.3619
 4934SOL    HW226262   2.620   0.720   7.170  1.7011 -0.3316  1.7448
 4935SOL     OW26263   2.366   3.442   3.770 -0.3631  0.1511  0.4770
 4935SOL    HW126264   2.336   3.527   3.736 -0.9884 -0.3549 -0.2595
 4935SOL    HW226265   2.442   3.430   3.712 -0.4323  2.3477 -0.0762
 4936SOL     OW26266   4.048   3.951   7.786  0.0243 -0.0608  0.5819
 4936SOL    HW126267   4.023   4.007   7.713  2.0584  0.2540  0.1359
 4936SOL    HW226268   4.080   3.874   7.738 -1.2006 -0.1294 -0.1361
 4937SOL     OW26269   2.069   1.374   8.166  0.0208 -0.0989 -0.0487
 4937SOL    HW126270   2.158   1.407   8.171  0.2137 -0.6893  0.4422
 4937SOL    HW226271   2.068   1.320   8.245  2.7555 -0.2618 -0.1357
 4938SOL     OW26272   4.337   4.138  12.328  0.2210 -0.1575  0.4793
 4938SOL    HW126273   4.383   4.221  12.316 -1.2031  0.4972 -0.3911
 4938SOL    HW226274   4.263   4.150  12.269  0.3920  1.6088  0.6368
 4939SOL     OW26275   1.061   3.392   4.351 -0.6607  0.5492 -0.2966
 4939SOL    HW126276   1.112   3.325   4.398  1.9320  1.7975 -1.3366
 4939SOL    HW226277   0.995   3.409   4.418 -3.0529  0.9855 -2.7748
 4940SOL     OW26278   2.786   1.792   7.141  0.3870 -0.1996 -0.3806
 4940SOL    HW126279   2.877   1.767   7.128  0.5770 -0.6846  1.9056
 4940SOL    HW226280   2.779   1.783   7.236 -2.4778 -1.4522 -0.7005
 4941SOL     OW26281   1.456   1.236   6.407 -0.0080  0.1981 -0.5703
 4941SOL    HW126282   1.462   1.271   6.497  2.2570  0.5747 -0.8528
 4941SOL    HW226283   1.446   1.144   6.431  0.7749  0.6122  1.4501
 4942SOL     OW26284   2.208   1.050   2.616 -0.3619 -0.1001  0.4849
 4942SOL    HW126285   2.186   1.072   2.526  3.5814  0.0362 -0.4606
 4942SOL    HW226286   2.120   1.053   2.654 -0.7362 -0.4295 -0.3672
 4943SOL     OW26287   1.099   0.465   1.990  0.7040 -0.1412 -0.8826
 4943SOL    HW126288   1.146   0.545   2.016 -1.8299  1.3681 -0.9871
 4943SOL    HW226289   1.178   0.427   1.951  0.4671  0.8838 -2.3476
 4944SOL     OW26290   3.430   2.180   3.104  0.4671 -0.3478 -0.8434
 4944SOL    HW126291   3.457   2.092   3.129 -1.1902 -0.3627  0.8483
 4944SOL    HW226292   3.490   2.205   3.033 -1.8291 -0.4460 -2.8159
 4945SOL     OW26293   1.667   1.651   0.945 -0.2510 -0.0554  0.0905
 4945SOL    HW126294   1.601   1.658   1.014  0.9612  1.4423  1.0958
 4945SOL    HW226295   1.616   1.666   0.866 -2.1646  0.6321  1.4574
 4946SOL     OW26296   2.787   0.222   1.484  0.2010 -0.7697  0.1013
 4946SOL    HW126297   2.773   0.275   1.562  0.3336 -1.2590  0.4564
 4946SOL    HW226298   2.869   0.181   1.513  1.5278  1.1486 -0.9350
 4947SOL     OW26299   0.261   4.278   6.787  0.4197 -0.1062  0.4376
 4947SOL    HW126300   0.280   4.279   6.881 -1.0509 -0.3899  0.7478
 4947SOL    HW226301   0.233   4.367   6.768  2.9999  0.7194  0.5590
 4948SOL     OW26302   3.531   0.079   7.761  0.0367 -0.3746 -0.0284
 4948SOL    HW126303   3.561   0.088   7.671 -0.0573 -0.3494 -0.0575
 4948SOL    HW226304   3.568   0.154   7.808  0.3169  0.1248 -1.0522
 4949SOL     OW26305   0.326   1.823   5.907 -0.5179  0.3596 -0.0600
 4949SOL    HW126306   0.261   1.791   5.845 -1.3660 -1.4185  1.7570
 4949SOL    HW226307   0.302   1.769   5.982 -2.4352  1.9442  0.4616
 4950SOL     OW26308   1.820   4.675   6.112  0.0427  0.1602 -0.2735
 4950SOL    HW126309   1.803   4.591   6.155  0.2183 -0.2336 -0.9736
 4950SOL    HW226310   1.795   0.019   6.171 -0.6849  0.5718 -1.0839
 4951SOL     OW26311   3.137   3.855   4.989 -0.4470  0.7210 -0.1079
 4951SOL    HW126312   3.104   3.845   5.078 -1.8200 -0.9832 -0.8110
 4951SOL    HW226313   3.170   3.945   4.992 -1.1840  0.9828  0.1174
 4952SOL     OW26314   0.354   2.319   0.095 -0.0619  0.0864  0.4079
 4952SOL    HW126315   0.391   2.293   0.011  1.4677  1.7101  0.5775
 4952SOL    HW226316   0.322   2.409   0.082  0.3432  0.1680 -0.0495
 4953SOL     OW26317   3.075   4.298   7.489  0.0408 -0.2748 -0.3305
 4953SOL    HW126318   3.039   4.359   7.552 -1.7318 -0.9728 -0.6705
 4953SOL    HW226319   3.048   4.211   7.519  3.1061 -0.9861  0.4367
 4954SOL     OW26320   0.683   4.720   3.114 -0.0181  0.3962 -0.7063
 4954SOL    HW126321   0.772   4.702   3.144  0.1937  1.7906 -0.5094
 4954SOL    HW226322   0.674   0.086   3.132 -0.9517  0.2060 -0.1489
 4955SOL     OW26323   1.104   0.813   9.272  0.2594  0.0418  0.0969
 4955SOL    HW126324   1.009   0.814   9.265  0.3173  2.1985 -0.4148
 4955SOL    HW226325   1.106   0.883   9.337  0.2437 -1.0801  1.2860
 4956SOL     OW26326   2.325   3.116   6.425 -0.2269  0.3677  0.0824
 4956SOL    HW126327   2.287   3.194   6.383 -0.6828  2.4387  4.3204
 4956SOL    HW226328   2.277   3.050   6.375  0.5046 -0.9914  1.1829
 4957SOL     OW26329   3.389   3.754   8.772 -0.0770  0.0032 -0.4803
 4957SOL    HW126330   3.306   3.707   8.763 -0.5813  0.5649  1.1561
 4957SOL    HW226331   3.430   3.708   8.845 -0.2318  2.0903  0.9187
 4958SOL     OW26332   4.055   2.582   5.952 -0.1067 -0.1566  0.3017
 4958SOL    HW126333   4.039   2.571   5.858  0.4335  0.6153  0.1145
 4958SOL    HW226334   4.025   2.496   5.979 -3.1967  0.7524 -0.2423
 4959SOL     OW26335   0.087   3.959   2.112  0.9545  0.4200  0.2896
 4959SOL    HW126336   0.025   3.979   2.182 -0.4654  0.9540 -1.1200
 4959SOL    HW226337   0.170   3.961   2.161  1.3762  0.0764 -0.4196
 4960SOL     OW26338   1.016   0.247  13.174  0.0694  0.0055 -0.4632
 4960SOL    HW126339   1.026   0.217  13.264 -1.9438 -0.8858 -0.5443
 4960SOL    HW226340   0.926   0.218  13.164  0.7082 -2.0274 -0.2239
 4961SOL     OW26341   1.942   0.949   5.687 -0.0376  0.1723 -0.6499
 4961SOL    HW126342   1.912   0.977   5.600 -0.6782  0.3091 -0.3756
 4961SOL    HW226343   1.978   0.862   5.667  0.5801 -0.2142  2.2063
 4962SOL     OW26344   1.046   0.580   1.588 -0.0639 -0.2537 -0.3672
 4962SOL    HW126345   1.099   0.647   1.631 -2.6888 -0.5677  3.3347
 4962SOL    HW226346   1.106   0.547   1.522  1.1876  0.7900  0.2505
 4963SOL     OW26347   1.572   0.709   7.943  0.2367 -0.0686  0.3845
 4963SOL    HW126348   1.588   0.800   7.919  3.7415 -0.6700  0.3530
 4963SOL    HW226349   1.579   0.703   8.038 -2.3038 -2.6584  0.4101
 4964SOL     OW26350   3.675   4.230   9.435  0.1677 -0.2945 -0.0719
 4964SOL    HW126351   3.770   4.231   9.450  0.0204  0.3881  0.7761
 4964SOL    HW226352   3.645   4.151   9.481 -0.0284 -0.0282  0.2572
 4965SOL     OW26353   1.427   4.076   9.961 -0.0669  0.4409 -0.7593
 4965SOL    HW126354   1.363   4.042  10.023  2.1871  0.0421  1.3378
 4965SOL    HW226355   1.505   4.088  10.014 -0.0468 -0.0643 -0.6750
 4966SOL     OW26356   1.574   0.650   4.157 -0.4865 -0.5177  0.3002
 4966SOL    HW126357   1.493   0.677   4.114 -0.2785 -1.7677 -0.8616
 4966SOL    HW226358   1.532   0.594   4.222 -2.1777 -0.8016 -1.0520
 4967SOL     OW26359   3.630   4.428  12.534 -0.4390  0.1140 -0.5261
 4967SOL    HW126360   3.631   4.520  12.559 -0.5620  0.0905 -0.4328
 4967SOL    HW226361   3.717   4.409  12.500  0.6610 -0.5801  2.6147
 4968SOL     OW26362   4.662   2.517   1.961 -0.1815 -0.0975  0.1411
 4968SOL    HW126363   4.644   2.611   1.960 -1.3372 -0.3278 -0.5844
 4968SOL    HW226364   4.574   2.487   1.983 -0.9132 -0.6788 -3.7103
 4969SOL     OW26365   3.036   2.398   9.505  0.5039 -0.2399 -0.0170
 4969SOL    HW126366   2.961   2.340   9.516 -0.9659  1.3210 -1.8672
 4969SOL    HW226367   3.100   2.347   9.456  2.4393  1.1350  1.0689
 4970SOL     OW26368   2.615   0.046   2.200  0.6812 -0.1928 -0.1286
 4970SOL    HW126369   2.590   0.135   2.175  0.0239 -0.3322  0.0208
 4970SOL    HW226370   2.550   4.709   2.167 -0.1011 -0.0334  1.1091
 4971SOL     OW26371   2.576   2.689   1.765 -0.6891  0.5446  0.1216
 4971SOL    HW126372   2.592   2.780   1.743  2.6853 -0.1138 -0.2829
 4971SOL    HW226373   2.631   2.671   1.842 -2.6330  0.1312  1.4315
 4972SOL     OW26374   1.609   3.331   7.229  0.3965 -0.3120  0.4412
 4972SOL    HW126375   1.629   3.304   7.319  0.6518  2.1486  1.1199
 4972SOL    HW226376   1.527   3.378   7.243  1.3428  1.9418 -1.7313
 4973SOL     OW26377   1.584   0.532  13.003  0.5683 -0.5652  0.2786
 4973SOL    HW126378   1.608   0.498  12.917 -0.0734  1.3661 -0.6673
 4973SOL    HW226379   1.615   0.622  12.999 -1.1847  0.0727  1.1523
 4974SOL     OW26380   3.546   0.791   3.103 -0.0263  0.4418  1.0532
 4974SOL    HW126381   3.475   0.841   3.143 -0.3215  0.9633 -0.1212
 4974SOL    HW226382   3.533   0.699   3.124  0.3701 -0.4648 -2.7060
 4975SOL     OW26383   0.702   1.107  12.650  0.4780  0.6107 -0.1278
 4975SOL    HW126384   0.665   1.196  12.642 -0.5348  0.1355 -0.7249
 4975SOL    HW226385   0.774   1.123  12.589  0.0596  0.1952 -0.7387
 4976SOL     OW26386   2.317   4.274  15.531 -0.0542  0.6560 -0.4247
 4976SOL    HW126387   2.255   4.275  15.458  0.6600 -0.4388 -1.0581
 4976SOL    HW226388   2.384   4.227  15.482  1.0396  2.4782 -0.6786
 4977SOL     OW26389   4.723   1.965   5.022  0.0190  0.1641 -0.2209
 4977SOL    HW126390   0.091   1.954   5.024 -0.1050 -1.3749 -2.7939
 4977SOL    HW226391   4.697   1.897   5.084 -1.0951 -0.0876 -0.9601
 4978SOL     OW26392   4.644   3.994   2.333  0.3364 -0.3782 -0.1847
 4978SOL    HW126393   4.627   3.968   2.424  1.6718 -1.1511 -0.1711
 4978SOL    HW226394   4.563   3.978   2.285 -0.6612  0.3372  1.2290
 4979SOL     OW26395   3.539   0.702   2.576 -0.4821 -0.3970 -0.2528
 4979SOL    HW126396   3.501   0.625   2.617  1.6441 -1.6785 -0.7061
 4979SOL    HW226397   3.520   0.762   2.649  0.9561 -0.9405  0.5630
 4980SOL     OW26398   3.305   1.513   4.667  0.0745  0.4738 -0.2080
 4980SOL    HW126399   3.321   1.457   4.743  1.3284  1.4860  0.2774
 4980SOL    HW226400   3.395   1.542   4.653  0.8453 -1.1367  1.3576
 4981SOL     OW26401   0.379   0.913  16.820  0.1907 -0.1259  0.3727
 4981SOL    HW126402   0.336   0.931  16.904 -2.5311 -0.8061 -0.8744
 4981SOL    HW226403   0.336   0.829  16.806 -0.1179  0.2509 -0.9585
 4982SOL     OW26404   1.843   0.451   2.210  0.1694  0.6596  0.4276
 4982SOL    HW126405   1.805   0.363   2.220 -2.8761  1.9626  0.1711
 4982SOL    HW226406   1.909   0.450   2.280  1.3662  1.3078 -0.6996
 4983SOL     OW26407   3.661   0.825  12.323  0.2016  0.2999  0.0481
 4983SOL    HW126408   3.730   0.885  12.296  0.8440 -0.3527  0.2384
 4983SOL    HW226409   3.661   0.835  12.418  0.2378 -0.0503  0.0836
 4984SOL     OW26410   0.547   0.272   0.888  0.0889  0.0027 -0.3991
 4984SOL    HW126411   0.627   0.315   0.919  0.3826 -1.6502  1.1351
 4984SOL    HW226412   0.499   0.354   0.874  1.7526  1.0055 -0.2806
 4985SOL     OW26413   1.196   0.418  10.224  0.0873 -0.1657 -0.4780
 4985SOL    HW126414   1.254   0.444  10.152 -1.1574  0.9046 -1.1072
 4985SOL    HW226415   1.119   0.467  10.194  0.6348 -1.6615 -4.4375
 4986SOL     OW26416   2.280   2.400   1.684 -0.1806  0.6975 -0.0249
 4986SOL    HW126417   2.211   2.410   1.619 -0.7059 -0.7372  0.3103
 4986SOL    HW226418   2.344   2.342   1.642  1.6746  1.9572  1.0503
 4987SOL     OW26419   1.189   1.492  16.016  0.1384 -0.3653  0.2985
 4987SOL    HW126420   1.094   1.498  16.022  0.1911 -0.7038  1.4871
 4987SOL    HW226421   1.215   1.428  16.082 -1.1068 -0.8356  0.3144
 4988SOL     OW26422   1.325   3.089   0.298 -0.3721  0.0814  0.0968
 4988SOL    HW126423   1.329   3.008   0.247 -0.2364  1.8609 -2.6534
 4988SOL    HW226424   1.417   3.116   0.302 -0.3725  0.2850 -1.3400
 4989SOL     OW26425   1.697   3.172   0.181  0.4079 -0.7455  0.5748
 4989SOL    HW126426   1.686   3.142   0.091  1.2777 -0.7477  0.4601
 4989SOL    HW226427   1.778   3.224   0.189  0.2687 -0.4110 -0.2291
 4990SOL     OW26428   1.735   1.281   0.246 -0.5048  0.1309  0.7838
 4990SOL    HW126429   1.719   1.350   0.183 -0.7102  0.7926  1.5639
 4990SOL    HW226430   1.652   1.286   0.293 -1.7192  0.5459 -1.4074
 4991SOL     OW26431   1.658   2.070   8.093  0.3569  0.1357  0.0739
 4991SOL    HW126432   1.720   2.139   8.114 -0.4829  1.3473 -1.3983
 4991SOL    HW226433   1.676   2.004   8.159 -0.8645 -1.3271 -1.0440
 4992SOL     OW26434   1.145   2.623   7.282 -0.8248  0.1729 -0.4754
 4992SOL    HW126435   1.233   2.645   7.252 -1.4238 -0.1191 -2.4172
 4992SOL    HW226436   1.168   2.550   7.339 -2.2083 -0.2627 -0.4768
 4993SOL     OW26437   0.694   0.486   3.097 -0.0782 -0.2654  0.3994
 4993SOL    HW126438   0.783   0.490   3.062  0.0562  1.7779  1.0175
 4993SOL    HW226439   0.665   0.576   3.109 -1.3946 -0.1663 -3.5460
 4994SOL     OW26440   0.929   1.621  13.093 -0.6786  0.9859  0.2578
 4994SOL    HW126441   0.990   1.682  13.051  1.1431 -2.1912 -1.6524
 4994SOL    HW226442   0.967   1.643  13.178 -2.1111  1.0514  0.8868
 4995SOL     OW26443   2.153   2.594  17.188 -0.3198  0.5818  0.2955
 4995SOL    HW126444   2.234   2.627  17.151  0.2464 -0.2139  0.8266
 4995SOL    HW226445   2.170   2.609  17.281  1.6179  2.1770 -0.3208
 4996SOL     OW26446   1.531   2.390   2.393  0.4141 -0.1909 -0.0258
 4996SOL    HW126447   1.590   2.401   2.468 -0.5151 -0.8871  0.8021
 4996SOL    HW226448   1.591   2.368   2.322 -0.0007 -0.4734 -0.2872
 4997SOL     OW26449   2.090   1.756   6.092 -0.7380  0.0524  0.0712
 4997SOL    HW126450   2.126   1.839   6.061 -0.4421 -0.5408 -1.1836
 4997SOL    HW226451   2.166   1.698   6.095 -0.9021  0.0115  3.3419
 4998SOL     OW26452   3.536   2.212   4.729  0.7010  1.3245 -0.1968
 4998SOL    HW126453   3.627   2.242   4.726  0.3116  2.6450  1.3345
 4998SOL    HW226454   3.545   2.138   4.669 -0.1087  0.0753  1.2299
 4999SOL     OW26455   3.354   4.446   4.445 -0.5859  0.2155  0.2615
 4999SOL    HW126456   3.265   4.427   4.476 -0.2444 -1.4581  0.2239
 4999SOL    HW226457   3.378   4.525   4.493 -0.1445  3.2674 -5.0109
 5000SOL     OW26458   4.298   3.610   0.945  0.6033 -0.3062  0.8526
 5000SOL    HW126459   4.338   3.581   1.027  0.3743 -0.5962  0.8623
 5000SOL    HW226460   4.228   3.546   0.944 -0.0100  0.3872 -1.2383
 5001SOL     OW26461   0.881   2.875   5.258  0.5653 -0.3713  0.2297
 5001SOL    HW126462   0.959   2.851   5.308  0.3810 -3.1794 -0.8584
 5001SOL    HW226463   0.858   2.958   5.299 -0.1792 -1.9310  2.9096
 5002SOL     OW26464   3.737   1.678   3.423 -0.0444 -0.3652 -0.1223
 5002SOL    HW126465   3.799   1.655   3.353  0.7342  3.3889 -0.6741
 5002SOL    HW226466   3.768   1.767   3.438 -0.7501 -0.1117 -0.2047
 5003SOL     OW26467   0.510   0.940  13.431  0.0518  0.6737 -0.8996
 5003SOL    HW126468   0.489   1.033  13.438  1.8223  0.7312  3.6128
 5003SOL    HW226469   0.418   0.916  13.417  0.5326 -1.5610 -0.2907
 5004SOL     OW26470   0.176   0.386   2.947  0.3732 -0.6059  0.0393
 5004SOL    HW126471   0.095   0.435   2.963  1.0549  0.7714 -0.7490
 5004SOL    HW226472   0.198   0.408   2.856 -0.3398 -2.9145 -0.6839
 5005SOL     OW26473   2.005   1.336   4.331  0.9704  0.6030 -0.2900
 5005SOL    HW126474   2.071   1.289   4.279  0.0644  0.0978 -0.9941
 5005SOL    HW226475   2.008   1.302   4.420  2.1547 -1.1382 -0.9757
 5006SOL     OW26476   3.080   0.881   9.477  0.1633  0.0807  0.4778
 5006SOL    HW126477   3.019   0.952   9.455  0.2818 -0.8892 -2.9015
 5006SOL    HW226478   3.019   0.807   9.472 -0.4064  0.6749 -1.3858
 5007SOL     OW26479   3.167   0.866   6.963  0.4874 -0.4633  0.2356
 5007SOL    HW126480   3.249   0.858   7.012  1.1243 -1.4845 -0.9929
 5007SOL    HW226481   3.109   0.914   7.021 -1.4814 -1.9290 -0.5168
 5008SOL     OW26482   2.915   2.005  16.456 -0.3502 -0.3241  0.2375
 5008SOL    HW126483   2.884   1.923  16.493  1.5072 -0.9507  0.4202
 5008SOL    HW226484   2.931   1.976  16.366 -0.0994  2.6470 -0.6821
 5009SOL     OW26485   2.778   0.030  11.512  0.0199  0.5506  0.3480
 5009SOL    HW126486   2.787   0.024  11.607 -2.7900 -0.0377  0.5792
 5009SOL    HW226487   2.760   0.123  11.505  1.8443  0.9682  1.5278
 5010SOL     OW26488   2.086   2.428   1.505 -0.1709  0.0049 -0.1494
 5010SOL    HW126489   2.051   2.517   1.500  0.8699  0.4182  0.1089
 5010SOL    HW226490   2.008   2.372   1.510 -1.4390  1.9005  1.2499
 5011SOL     OW26491   0.841   3.666   5.282 -0.3841  0.3934 -1.0535
 5011SOL    HW126492   0.926   3.676   5.326 -1.8523 -1.0951  2.0783
 5011SOL    HW226493   0.864   3.694   5.193 -1.7698  0.8612 -1.2693
 5012SOL     OW26494   1.299   4.416   6.197  0.1943  0.1580  0.0224
 5012SOL    HW126495   1.330   4.424   6.106  0.3986 -1.3705 -0.0452
 5012SOL    HW226496   1.282   4.321   6.202  0.7207  0.0198 -0.7777
 5013SOL     OW26497   4.513   3.298   2.236 -0.3178  0.3327 -0.2699
 5013SOL    HW126498   4.504   3.269   2.145  0.7793 -0.6537 -0.0560
 5013SOL    HW226499   4.598   3.342   2.228  0.3333 -0.8396  0.1121
 5014SOL     OW26500   4.220   1.756   5.550 -0.2401 -0.2351 -0.1968
 5014SOL    HW126501   4.186   1.721   5.468  0.9838 -2.0807  0.0757
 5014SOL    HW226502   4.140   1.772   5.601 -1.6372 -0.5202 -2.2846
 5015SOL     OW26503   0.195   1.662   2.224  0.3804  0.3366  0.2954
 5015SOL    HW126504   0.245   1.744   2.217 -0.1450  0.4485 -2.2072
 5015SOL    HW226505   0.151   1.677   2.308  1.0932 -0.2700  0.7738
 5016SOL     OW26506   2.836   2.920   8.425  0.0006 -0.2181  0.1158
 5016SOL    HW126507   2.829   2.841   8.371  1.4863  0.2237 -0.7391
 5016SOL    HW226508   2.931   2.931   8.425 -0.5155  4.1174 -2.3687
 5017SOL     OW26509   1.143   1.360   8.935  0.4102  0.5821 -0.3714
 5017SOL    HW126510   1.153   1.311   8.853  0.5161 -0.7195  0.4305
 5017SOL    HW226511   1.107   1.287   8.985  1.6533 -0.2467 -0.6820
 5018SOL     OW26512   3.596   3.204   8.243  0.6826  0.0045  0.0780
 5018SOL    HW126513   3.661   3.269   8.267  0.1851  0.6481 -0.3282
 5018SOL    HW226514   3.516   3.239   8.284  0.4180  0.6894 -1.0363
 5019SOL     OW26515   4.441   1.138   4.057 -0.0150 -0.2543  0.4485
 5019SOL    HW126516   4.526   1.178   4.075 -1.1847  2.7636 -0.7716
 5019SOL    HW226517   4.466   1.054   4.018  0.2922 -0.6026  1.3960
 5020SOL     OW26518   1.512   4.689   5.438 -0.4831 -0.2178  0.3683
 5020SOL    HW126519   1.481   0.052   5.447  0.5748  0.1727  0.1307
 5020SOL    HW226520   1.523   4.687   5.343 -0.2525 -1.6570  0.4350
 5021SOL     OW26521   3.283   2.907  16.412  0.9936 -0.2401  0.1083
 5021SOL    HW126522   3.218   2.944  16.473  1.9204 -1.7877  2.0068
 5021SOL    HW226523   3.286   2.815  16.437 -0.0085 -0.3141 -0.0338
 5022SOL     OW26524   4.582   3.456  10.932  0.1215  0.4634  0.0200
 5022SOL    HW126525   4.559   3.418  11.017  1.1516 -2.4952 -1.0180
 5022SOL    HW226526   4.646   3.390  10.902 -1.3311 -0.8137 -0.2822
 5023SOL     OW26527   0.794   2.542   2.839 -0.2523 -0.0908 -0.0926
 5023SOL    HW126528   0.769   2.516   2.750  0.5159  1.5987 -0.8156
 5023SOL    HW226529   0.888   2.524   2.839 -0.3802 -0.7670  0.4876
 5024SOL     OW26530   0.246   3.762   3.667 -0.8759  0.6723  0.0626
 5024SOL    HW126531   0.292   3.836   3.628  0.1895 -1.2925 -2.4562
 5024SOL    HW226532   0.234   3.705   3.591  2.6318  2.1973 -1.6146
 5025SOL     OW26533   4.249   2.632   7.731 -0.4868  0.0885  0.5144
 5025SOL    HW126534   4.216   2.595   7.649 -1.4902  0.4271  0.7623
 5025SOL    HW226535   4.172   2.606   7.780 -0.4554 -2.8865 -1.0268
 5026SOL     OW26536   2.063   2.608   4.894  0.5602  0.0546 -0.6368
 5026SOL    HW126537   1.980   2.650   4.915  0.9542  0.9337 -0.8584
 5026SOL    HW226538   2.119   2.671   4.939 -0.8808  0.6956  0.2221
 5027SOL     OW26539   4.515   2.736   3.836 -0.1912  0.2386 -0.5885
 5027SOL    HW126540   4.532   2.646   3.809  1.9092  0.9748 -1.7572
 5027SOL    HW226541   4.438   2.746   3.780 -2.2325 -0.1442  2.1509
 5028SOL     OW26542   0.090   4.541   4.987  0.6728 -0.0591  0.2493
 5028SOL    HW126543   0.068   4.631   5.009  1.3931 -0.0445  0.9364
 5028SOL    HW226544   0.135   4.550   4.903  2.6652 -0.3808  1.2607
 5029SOL     OW26545   1.175   0.883   5.335 -0.6754  0.0610 -0.3088
 5029SOL    HW126546   1.157   0.936   5.413  1.0714 -0.7082  0.6040
 5029SOL    HW226547   1.244   0.827   5.371 -0.5525 -0.3080 -1.1142
 5030SOL     OW26548   0.814   1.100   8.883  0.1220 -0.2449 -0.7272
 5030SOL    HW126549   0.895   1.052   8.870 -0.8836 -2.1369 -0.0772
 5030SOL    HW226550   0.762   1.072   8.808  0.5850 -2.0999 -0.3610
 5031SOL     OW26551   2.981   4.223  17.547  0.9351  0.4234 -0.0793
 5031SOL    HW126552   2.978   4.284  17.620  3.1645 -0.4921  0.7777
 5031SOL    HW226553   3.055   4.264  17.503  1.1910  0.6078  0.5249
 5032SOL     OW26554   3.215   2.653   4.618 -0.2199 -0.3414  0.3085
 5032SOL    HW126555   3.235   2.585   4.553  1.0482 -0.4608  0.8346
 5032SOL    HW226556   3.184   2.725   4.563  2.3200  0.4943 -0.0273
 5033SOL     OW26557   0.906   2.240   6.195 -0.7423 -0.1342 -0.1165
 5033SOL    HW126558   0.914   2.297   6.119 -2.9128 -1.1833 -1.1272
 5033SOL    HW226559   0.867   2.162   6.157  1.0776 -1.0247 -0.1773
 5034SOL     OW26560   4.259   3.432   2.230  0.0729 -0.4729 -0.6102
 5034SOL    HW126561   4.332   3.371   2.227  0.1331 -0.3939 -0.7669
 5034SOL    HW226562   4.243   3.429   2.324 -1.1415  1.8065 -0.7465
 5035SOL     OW26563   3.339   3.234   2.587  0.4630 -0.0887  0.3546
 5035SOL    HW126564   3.352   3.198   2.499 -0.8165  2.4910 -0.8925
 5035SOL    HW226565   3.375   3.322   2.572 -0.2424 -0.0523 -1.1018
 5036SOL     OW26566   0.490   3.836   0.733  0.0457  0.0873  0.4507
 5036SOL    HW126567   0.546   3.767   0.699  2.0827  2.2116 -0.4615
 5036SOL    HW226568   0.455   3.798   0.814 -3.5862  2.9759  0.2635
 5037SOL     OW26569   2.234   2.102  14.768 -0.6662  0.4497 -0.2016
 5037SOL    HW126570   2.287   2.158  14.825 -0.8388  1.3129 -0.8799
 5037SOL    HW226571   2.282   2.122  14.688  1.7858 -0.7253  0.9782
 5038SOL     OW26572   1.331   3.135   1.728  0.2118 -0.5376 -0.3472
 5038SOL    HW126573   1.268   3.070   1.697 -0.5770  1.0162 -2.0025
 5038SOL    HW226574   1.320   3.138   1.823  0.4721  1.3261 -0.3764
 5039SOL     OW26575   1.059   4.624   2.606  0.1155  0.0253  0.2508
 5039SOL    HW126576   1.004   4.546   2.595 -0.7257  0.4728  1.2918
 5039SOL    HW226577   1.095   4.646   2.520  0.9568 -1.0648  0.3204
 5040SOL     OW26578   2.608   0.612   9.430  0.1519  0.0900  0.0978
 5040SOL    HW126579   2.558   0.592   9.350 -0.5351  0.9125  0.3191
 5040SOL    HW226580   2.617   0.707   9.428 -0.1094  0.1378  1.0330
 5041SOL     OW26581   3.467   2.589  12.688  0.5048  0.2622  0.0442
 5041SOL    HW126582   3.468   2.680  12.716 -0.8441  0.7164 -1.4028
 5041SOL    HW226583   3.374   2.570  12.703  0.2128  1.7382  0.0474
 5042SOL     OW26584   4.260   4.599   6.964 -0.2919  1.0347 -0.2729
 5042SOL    HW126585   4.300   4.652   6.895 -2.4522  1.1323 -1.4624
 5042SOL    HW226586   4.264   4.513   6.923  1.3260  0.8338  0.3199
 5043SOL     OW26587   2.889   3.995   2.290  0.1726  0.1126  0.1518
 5043SOL    HW126588   2.969   4.033   2.327 -0.5969  1.6732  0.2241
 5043SOL    HW226589   2.868   4.069   2.233 -1.4896 -0.5468 -0.0757
 5044SOL     OW26590   1.500   3.260   6.958  0.3485 -0.2806  0.2939
 5044SOL    HW126591   1.416   3.224   6.987 -0.7366  1.6916 -0.4038
 5044SOL    HW226592   1.532   3.292   7.042  0.9658 -3.6762  1.3352
 5045SOL     OW26593   0.200   0.481  10.121 -0.3760  0.4647 -0.1281
 5045SOL    HW126594   0.108   0.461  10.138 -0.3028 -1.5638 -2.0032
 5045SOL    HW226595   0.220   0.397  10.080 -1.0425 -0.9647  2.4816
 5046SOL     OW26596   2.220   1.049   2.029  0.2378 -0.4348 -0.7566
 5046SOL    HW126597   2.217   0.985   1.958 -0.6188  2.8581 -3.6960
 5046SOL    HW226598   2.218   0.986   2.102  1.1146 -0.3539 -0.6630
 5047SOL     OW26599   3.358   1.229   0.797 -0.1617  0.1659 -0.2703
 5047SOL    HW126600   3.337   1.197   0.709 -1.5914 -1.5416  0.7006
 5047SOL    HW226601   3.453   1.237   0.789 -0.1574 -1.5324 -1.9673
 5048SOL     OW26602   0.794   2.165   4.210 -0.0387 -0.4142 -0.2889
 5048SOL    HW126603   0.794   2.244   4.264  2.4201 -0.7747  0.2466
 5048SOL    HW226604   0.835   2.214   4.139  0.0804  0.4087  0.3351
 5049SOL     OW26605   0.383   0.785   8.001  0.3131  0.9793 -0.1297
 5049SOL    HW126606   0.355   0.764   8.090  1.9962 -1.4141 -0.1647
 5049SOL    HW226607   0.314   0.846   7.976 -2.7032 -1.2398  2.7070
 5050SOL     OW26608   2.360   0.782   0.263 -0.4201 -0.4342  0.0068
 5050SOL    HW126609   2.294   0.764   0.330 -0.7561 -1.0642 -0.5002
 5050SOL    HW226610   2.427   0.824   0.317 -0.3351 -1.4747  0.7107
 5051SOL     OW26611   1.124   1.826   4.762 -0.1643 -0.0079  0.0620
 5051SOL    HW126612   1.207   1.871   4.745  0.9022 -2.1239 -0.3119
 5051SOL    HW226613   1.070   1.866   4.694 -0.5746 -0.9062 -0.1286
 5052SOL     OW26614   4.105   0.227  17.681 -0.0556  0.1834 -0.2992
 5052SOL    HW126615   4.069   0.228  17.592 -0.4609 -1.7041 -0.1609
 5052SOL    HW226616   4.124   0.133  17.679 -1.1163 -0.0539  0.8953
 5053SOL     OW26617   4.624   2.117  12.425  0.3599 -0.0862  0.1963
 5053SOL    HW126618   4.574   2.170  12.363  1.4660  0.5716 -0.1541
 5053SOL    HW226619   4.715   2.136  12.400  0.2140 -2.0338 -1.8292
 5054SOL     OW26620   3.165   2.340   3.638 -0.2018 -0.2406  0.1737
 5054SOL    HW126621   3.074   2.359   3.662  0.0161  0.9838  0.0210
 5054SOL    HW226622   3.173   2.367   3.546 -3.2793 -0.2859 -0.1123
 5055SOL     OW26623   2.845   1.744   5.895  0.3542  0.5852  0.2560
 5055SOL    HW126624   2.751   1.755   5.881  0.3999 -0.2926 -0.7127
 5055SOL    HW226625   2.839   1.655   5.929  0.7634  0.7571  0.7770
 5056SOL     OW26626   3.611   2.430  10.343  0.5793 -0.2267  0.1684
 5056SOL    HW126627   3.533   2.486  10.342 -0.2437 -1.3665  0.7222
 5056SOL    HW226628   3.588   2.366  10.410  0.5050  1.0696  1.4065
 5057SOL     OW26629   2.117   3.362   5.358  0.0733 -0.4667  0.4366
 5057SOL    HW126630   2.052   3.418   5.315  1.2157  0.3168 -0.2605
 5057SOL    HW226631   2.099   3.359   5.452 -0.1097  1.4886  0.4592
 5058SOL     OW26632   0.134   2.371   5.162  0.4571 -0.1649  0.1465
 5058SOL    HW126633   0.057   2.396   5.112  0.7869 -0.9854 -0.7736
 5058SOL    HW226634   0.205   2.414   5.114  0.7899  0.0638  0.8381
 5059SOL     OW26635   4.439   4.454   1.747  0.4473 -0.0281  0.1933
 5059SOL    HW126636   4.525   4.492   1.731  1.2799 -1.8381  0.4012
 5059SOL    HW226637   4.443   4.361   1.726 -0.1402 -0.5624  2.3575
 5060SOL     OW26638   3.966   2.824   6.305  0.6589  0.5135 -0.6946
 5060SOL    HW126639   4.057   2.824   6.277  0.2210  1.0124 -2.1399
 5060SOL    HW226640   3.913   2.817   6.226  2.2126  2.7212 -1.9510
 5061SOL     OW26641   0.063   1.282   1.820 -0.4556  0.1148 -0.1174
 5061SOL    HW126642   0.106   1.293   1.905 -0.3586 -3.7561  0.3324
 5061SOL    HW226643   0.054   1.373   1.789 -0.6246  1.0035  2.5144
 5062SOL     OW26644   0.745   4.265   6.311  0.5433  0.2860  0.1989
 5062SOL    HW126645   0.839   4.273   6.328  0.9906 -0.0134 -2.1762
 5062SOL    HW226646   0.713   4.191   6.363  0.8954 -0.4169 -0.5800
 5063SOL     OW26647   1.107   2.946   5.409  0.1438  0.0543  0.3906
 5063SOL    HW126648   1.202   2.945   5.395  0.3871 -0.6919  2.0523
 5063SOL    HW226649   1.096   2.895   5.489 -1.2410  0.6228  0.5723
 5064SOL     OW26650   4.439   2.909  17.425  0.2278  0.2799 -0.1556
 5064SOL    HW126651   4.373   2.864  17.478 -1.8882  4.4222  0.7241
 5064SOL    HW226652   4.506   2.846  17.398 -1.5513 -0.7881 -2.0308
 5065SOL     OW26653   1.469   1.136  10.198 -0.0087 -0.5377  0.8458
 5065SOL    HW126654   1.511   1.095  10.122  0.7827  1.0979  0.3927
 5065SOL    HW226655   1.383   1.094  10.206 -0.2948  0.0232  0.8055
 5066SOL     OW26656   0.213   0.752   5.481  0.2930  0.1802  0.0905
 5066SOL    HW126657   0.177   0.665   5.463  0.4856 -0.1045  1.1208
 5066SOL    HW226658   0.304   0.726   5.493  0.6439  0.7904 -1.2141
 5067SOL     OW26659   2.706   4.600   7.593 -0.4005  0.7952 -0.3103
 5067SOL    HW126660   2.785   4.547   7.605  0.5574  2.2305 -0.2356
 5067SOL    HW226661   2.736   4.687   7.620  0.1220  1.0151 -1.5688
 5068SOL     OW26662   1.254   4.565   7.255 -0.0136 -0.3042  0.1547
 5068SOL    HW126663   1.277   4.494   7.315 -0.8083  1.6816  2.7777
 5068SOL    HW226664   1.178   4.610   7.290 -0.9409  0.6051 -3.0145
 5069SOL     OW26665   4.430   4.722   4.297  0.4402 -0.2479 -0.3201
 5069SOL    HW126666   4.379   0.056   4.243  1.0314  1.1525  0.6909
 5069SOL    HW226667   4.397   4.724   4.387 -0.5960 -1.1722 -0.6713
 5070SOL     OW26668   1.289   1.378  10.120  0.3378  0.0557  0.5842
 5070SOL    HW126669   1.329   1.459  10.151  2.8552 -0.8118 -0.3847
 5070SOL    HW226670   1.366   1.326  10.146 -2.3164 -3.3166  1.6947
 5071SOL     OW26671   2.657   1.785   3.659  0.2875  0.2964  0.8446
 5071SOL    HW126672   2.722   1.737   3.608 -0.2334  0.1589  0.3078
 5071SOL    HW226673   2.702   1.804   3.741 -1.4072  0.6203  1.6958
 5072SOL     OW26674   1.480   2.801  10.573 -0.1200  0.1973 -0.6557
 5072SOL    HW126675   1.436   2.734  10.625  1.8396 -1.0087 -0.5783
 5072SOL    HW226676   1.418   2.872  10.589  2.4490  2.3647 -0.4118
 5073SOL     OW26677   0.952   4.394   7.339  0.0745 -0.6695  0.4239
 5073SOL    HW126678   0.977   4.320   7.394  1.6820  0.2737  0.9779
 5073SOL    HW226679   0.921   4.347   7.262  0.2420 -0.5937  0.3096
 5074SOL     OW26680   4.339   2.606  17.407 -0.0510  0.1369 -0.1025
 5074SOL    HW126681   4.261   2.553  17.391  0.2556 -0.5689  0.7826
 5074SOL    HW226682   4.304   2.666  17.473  0.6969 -1.1395  1.4566
 5075SOL     OW26683   1.635   0.208   2.226  0.0269 -0.2697  0.2262
 5075SOL    HW126684   1.592   0.169   2.150 -0.4762  2.4968 -0.8846
 5075SOL    HW226685   1.696   0.141   2.257 -0.0683 -0.2154  0.5292
 5076SOL     OW26686   4.616   0.974   8.994 -0.1973 -0.2359  0.2895
 5076SOL    HW126687   4.553   0.969   8.922 -0.6446 -3.1271  0.8761
 5076SOL    HW226688   4.687   1.014   8.943  0.4076 -0.8126  0.6713
 5077SOL     OW26689   3.198   2.564   6.564 -1.2672  0.1714 -0.2208
 5077SOL    HW126690   3.254   2.635   6.532 -0.2644 -1.2446 -1.6554
 5077SOL    HW226691   3.143   2.600   6.633 -0.8110  1.5640 -0.5961
 5078SOL     OW26692   2.704   0.918  11.301 -0.8423 -0.7873 -0.1863
 5078SOL    HW126693   2.731   0.926  11.393 -2.0763 -1.2840  0.2207
 5078SOL    HW226694   2.768   0.858  11.263 -0.2014  0.2233 -0.6737
 5079SOL     OW26695   4.025   1.945   4.442  0.1147  0.4570  0.0481
 5079SOL    HW126696   4.008   1.994   4.522 -1.4021 -1.6331  1.0360
 5079SOL    HW226697   4.084   2.004   4.395 -0.3717  0.4932 -0.5148
 5080SOL     OW26698   0.163   1.205   5.372  0.1920  0.8296  0.7138
 5080SOL    HW126699   0.154   1.294   5.337 -0.7579  1.0182  1.4312
 5080SOL    HW226700   0.119   1.229   5.453  0.6381  0.2183  1.1344
 5081SOL     OW26701   3.109   1.611   8.431  0.0142 -0.2193 -0.2849
 5081SOL    HW126702   3.045   1.595   8.500 -0.3474  0.6928 -0.4088
 5081SOL    HW226703   3.181   1.574   8.482  0.4499  1.1361  0.0561
 5082SOL     OW26704   2.531   2.134   5.290  0.6016  0.3948 -0.0433
 5082SOL    HW126705   2.607   2.176   5.331  0.9436 -1.5287  1.2879
 5082SOL    HW226706   2.531   2.172   5.202 -1.0935 -1.4809 -0.8337
 5083SOL     OW26707   0.718   1.565   8.482  0.2049  0.3709 -0.3042
 5083SOL    HW126708   0.790   1.502   8.485  1.3452  1.6742 -0.3094
 5083SOL    HW226709   0.694   1.560   8.575  1.0040 -1.3383 -0.2025
 5084SOL     OW26710   1.522   0.089   3.650  0.3341 -0.0072  0.5883
 5084SOL    HW126711   1.611   0.055   3.653 -0.5026 -2.3964 -2.0228
 5084SOL    HW226712   1.545   0.171   3.607  0.1542 -0.3114 -0.0842
 5085SOL     OW26713   2.584   0.538   6.607  0.1135  1.0669  0.3473
 5085SOL    HW126714   2.499   0.542   6.563 -0.3167 -0.1571  1.0497
 5085SOL    HW226715   2.558   0.560   6.696 -1.1846 -1.4116  0.5824
 5086SOL     OW26716   1.533   0.955   6.235  0.4444 -0.1053  0.8162
 5086SOL    HW126717   1.538   0.873   6.284 -1.4294 -0.5867  0.1943
 5086SOL    HW226718   1.622   0.989   6.231 -0.0276  1.0007 -0.6599
 5087SOL     OW26719   3.434   1.116  15.591 -0.2719 -0.1106  0.1608
 5087SOL    HW126720   3.457   1.206  15.614  0.7917  0.3021 -2.4604
 5087SOL    HW226721   3.349   1.114  15.634 -0.8907  1.2622 -0.9742
 5088SOL     OW26722   0.008   3.534   4.541 -0.3088 -0.0846 -0.0727
 5088SOL    HW126723   4.669   3.509   4.605 -0.5902 -0.2073 -0.4115
 5088SOL    HW226724   4.684   3.523   4.461  0.3159 -0.9452 -0.3502
 5089SOL     OW26725   0.549   0.533   9.291  0.8926 -0.2676 -0.4764
 5089SOL    HW126726   0.544   0.626   9.267 -0.1351  0.0688  1.0077
 5089SOL    HW226727   0.614   0.537   9.361  1.1081 -2.8939 -0.5496
 5090SOL     OW26728   0.577   3.000   6.415  0.0421 -0.1976 -0.0110
 5090SOL    HW126729   0.665   3.038   6.419 -0.0955  0.1618 -0.4773
 5090SOL    HW226730   0.573   2.959   6.329  2.4775  1.4219 -0.9091
 5091SOL     OW26731   1.365   3.261   1.446  0.0593  0.0815  0.4435
 5091SOL    HW126732   1.282   3.219   1.466  0.2474 -1.6264 -2.3641
 5091SOL    HW226733   1.431   3.205   1.487  0.6068  0.3590 -0.0558
 5092SOL     OW26734   4.626   4.245   8.336 -0.2375  0.4212 -0.1436
 5092SOL    HW126735   4.665   4.331   8.322 -1.3922  1.2140  1.4056
 5092SOL    HW226736   4.576   4.266   8.416  1.5086 -0.9916  1.3122
 5093SOL     OW26737   0.535   2.027  14.854  0.1513 -0.0765  0.2025
 5093SOL    HW126738   0.571   2.089  14.792  0.3824 -0.1040  0.3103
 5093SOL    HW226739   0.539   2.073  14.938  1.8770  1.5358 -0.7764
 5094SOL     OW26740   4.271   3.278   6.392  0.3967 -0.3419  0.4218
 5094SOL    HW126741   4.342   3.229   6.431 -0.7434 -2.6313 -0.3948
 5094SOL    HW226742   4.285   3.240   6.305  0.7223  1.0133 -0.1278
 5095SOL     OW26743   1.782   1.132   6.736 -0.3416  0.3177 -0.2127
 5095SOL    HW126744   1.741   1.127   6.822  0.9402  0.8473  0.4276
 5095SOL    HW226745   1.873   1.108   6.753  0.0835  2.4304  0.5100
 5096SOL     OW26746   1.697   0.070   6.731  0.0473 -0.2435  0.3161
 5096SOL    HW126747   1.643   0.032   6.662  0.9334  1.1544 -1.1380
 5096SOL    HW226748   1.645   0.064   6.811 -0.0992 -0.0620  0.2350
 5097SOL     OW26749   3.028   1.526  10.790  0.6540 -0.2626  0.3387
 5097SOL    HW126750   2.951   1.576  10.762  1.0203 -0.9711 -1.9927
 5097SOL    HW226751   2.994   1.476  10.864 -2.7819 -0.3240 -1.2747
 5098SOL     OW26752   4.009   3.814  11.345  0.3774 -0.2234 -0.1564
 5098SOL    HW126753   4.051   3.874  11.406  0.3492 -2.5160  2.1258
 5098SOL    HW226754   3.934   3.863  11.311  0.1111 -0.2706  0.3504
 5099SOL     OW26755   1.925   3.087  16.943  0.6371  0.0620  0.0171
 5099SOL    HW126756   1.966   3.043  17.016  1.7668  0.7923 -0.1790
 5099SOL    HW226757   1.958   3.177  16.948  1.8073 -0.4331  1.0033
 5100SOL     OW26758   4.449   4.704   8.356 -0.0157  0.5291  0.4751
 5100SOL    HW126759   4.362   4.699   8.395 -0.4143  0.6257 -0.3947
 5100SOL    HW226760   4.492   4.726   8.439  0.9902 -1.7870  0.5479
 5101SOL     OW26761   3.539   4.142  13.578  0.0983  0.0630 -0.0851
 5101SOL    HW126762   3.569   4.066  13.629 -0.2464  0.0615  0.1184
 5101SOL    HW226763   3.446   4.125  13.593  0.1033  0.0419 -0.0774
 5102SOL     OW26764   1.730   3.710   3.892  0.8122 -0.1943 -0.5368
 5102SOL    HW126765   1.675   3.759   3.953  1.4775  0.6389 -0.6109
 5102SOL    HW226766   1.707   3.749   3.808  1.2511  1.5684  0.1532
 5103SOL     OW26767   2.771   2.174   7.350 -0.1448 -0.4557  0.2740
 5103SOL    HW126768   2.820   2.119   7.289 -0.9334  0.0851 -0.8511
 5103SOL    HW226769   2.727   2.238   7.294  0.5777 -1.4012 -1.3785
 5104SOL     OW26770   1.293   0.366   9.529  0.2641  0.3613  0.6043
 5104SOL    HW126771   1.233   0.318   9.472  0.4701  1.7330 -0.7664
 5104SOL    HW226772   1.321   0.442   9.477 -0.3287 -0.3253 -0.7184
 5105SOL     OW26773   4.620   2.937   2.382 -0.1229 -0.2695  0.0052
 5105SOL    HW126774   4.644   2.932   2.290  0.2836 -2.1028  0.1963
 5105SOL    HW226775   4.691   2.991   2.417 -1.5849  0.6025  1.5796
 5106SOL     OW26776   1.465   1.030  10.482 -0.1893 -0.1178 -0.6592
 5106SOL    HW126777   1.471   0.999  10.392  2.1563  2.0151 -1.2613
 5106SOL    HW226778   1.371   1.045  10.489 -0.2030 -0.6148  0.1981
 5107SOL     OW26779   1.681   1.366   7.923  0.2796  0.3727 -0.0891
 5107SOL    HW126780   1.750   1.325   7.870  0.8902  0.5141  0.5993
 5107SOL    HW226781   1.701   1.331   8.010  0.6803  2.8141  0.8185
 5108SOL     OW26782   3.848   1.201  17.614 -0.4116 -0.1473  0.5202
 5108SOL    HW126783   3.889   1.119  17.641 -0.4507  0.2351  1.7680
 5108SOL    HW226784   3.767   1.181  17.566 -1.2808  0.6781  1.6273
 5109SOL     OW26785   2.415   2.079  10.859  0.7259 -0.2877 -0.3229
 5109SOL    HW126786   2.503   2.114  10.875  0.3873  0.1396  0.6655
 5109SOL    HW226787   2.421   2.062  10.765 -1.3184 -0.4421 -0.4238
 5110SOL     OW26788   3.209   0.715   8.882 -0.0923 -0.2952  0.2255
 5110SOL    HW126789   3.157   0.796   8.876  1.6703  0.9835  2.2879
 5110SOL    HW226790   3.246   0.710   8.795 -0.3605 -0.1289  0.0994
 5111SOL     OW26791   4.634   0.277  17.497 -0.3528  0.3562 -0.1705
 5111SOL    HW126792   4.655   0.265  17.404  1.8689 -0.4530  0.4204
 5111SOL    HW226793   4.539   0.277  17.483 -0.1202 -0.6662 -1.8068
 5112SOL     OW26794   1.810   3.285  10.306  0.5634 -0.0330 -0.0291
 5112SOL    HW126795   1.714   3.287  10.303  0.5514 -0.3536  0.1455
 5112SOL    HW226796   1.838   3.364  10.353 -0.8218  0.3035  0.2388
 5113SOL     OW26797   1.316   4.333   7.404 -0.9973 -0.1167  0.4547
 5113SOL    HW126798   1.407   4.359   7.390 -1.3161  0.1262 -1.2446
 5113SOL    HW226799   1.318   4.238   7.410  3.9976  0.0505  1.3295
 5114SOL     OW26800   2.173   2.888   2.849 -0.0408 -0.3047  0.4484
 5114SOL    HW126801   2.164   2.803   2.806 -4.2976  0.1445  0.4803
 5114SOL    HW226802   2.147   2.853   2.935  0.3267  0.7915  1.0107
 5115SOL     OW26803   3.812   0.895   1.481  0.1069  0.1101  0.2983
 5115SOL    HW126804   3.902   0.927   1.482 -0.2648  1.0999  2.0247
 5115SOL    HW226805   3.795   0.851   1.564 -0.1758  2.6850  1.5906
 5116SOL     OW26806   3.636   2.788   5.569  0.1337  0.0348  0.0498
 5116SOL    HW126807   3.723   2.804   5.605  0.3526 -1.4261  0.1659
 5116SOL    HW226808   3.594   2.738   5.638  0.0981 -1.5396 -1.1040
 5117SOL     OW26809   3.575   2.832   3.871  0.1342 -0.0298  0.4360
 5117SOL    HW126810   3.606   2.773   3.802  0.7330  0.6098  0.1581
 5117SOL    HW226811   3.634   2.806   3.942 -0.7761  3.5731  2.5126
 5118SOL     OW26812   3.627   3.870   6.778  0.2277  0.0687  0.4260
 5118SOL    HW126813   3.665   3.937   6.721 -0.6338  1.7262  1.7927
 5118SOL    HW226814   3.669   3.896   6.861  1.6752  1.1131 -0.6196
 5119SOL     OW26815   3.115   0.810   6.128  0.1602  0.2077 -0.9206
 5119SOL    HW126816   3.044   0.825   6.191 -0.2508 -0.4495 -1.2225
 5119SOL    HW226817   3.152   0.726   6.154  1.6691  1.5335  1.1797
 5120SOL     OW26818   2.964   4.163   9.357  0.8593  0.4861 -0.1226
 5120SOL    HW126819   2.979   4.145   9.450  2.5667 -2.3175 -0.9712
 5120SOL    HW226820   3.038   4.119   9.315 -0.6634  0.6922 -3.0148
 5121SOL     OW26821   0.223   0.160   3.846  0.9547  0.6056 -0.2234
 5121SOL    HW126822   0.278   0.084   3.823  0.3290 -0.1137  0.6479
 5121SOL    HW226823   0.289   0.226   3.866 -0.0199  0.8995  1.9846
 5122SOL     OW26824   0.793   2.935   7.154 -0.2197 -0.0988 -0.2923
 5122SOL    HW126825   0.800   2.839   7.153  1.8104  0.0613 -1.1855
 5122SOL    HW226826   0.837   2.959   7.073 -1.1818 -0.8700 -1.0494
 5123SOL     OW26827   4.203   0.203   6.878 -0.2764 -0.3574  0.0436
 5123SOL    HW126828   4.243   0.120   6.852 -0.0474 -0.6032  1.1796
 5123SOL    HW226829   4.123   0.169   6.918 -1.6355 -0.5054 -2.8594
 5124SOL     OW26830   3.946   3.312   4.434  0.3095 -0.0342 -0.1784
 5124SOL    HW126831   3.891   3.343   4.362 -0.1736  2.0424  1.0770
 5124SOL    HW226832   3.906   3.227   4.452  1.1822 -0.1727  1.1124
 5125SOL     OW26833   4.354   0.744  15.014  0.1898 -0.0188 -0.4932
 5125SOL    HW126834   4.330   0.830  14.978 -0.3179 -0.0594 -0.2594
 5125SOL    HW226835   4.434   0.769  15.060 -0.8337  2.9430 -0.2857
 5126SOL     OW26836   2.811   0.405  16.909  0.3728  0.2730 -0.1988
 5126SOL    HW126837   2.746   0.348  16.867  1.1381 -0.3754 -0.4895
 5126SOL    HW226838   2.840   0.452  16.831  2.4491 -1.1529 -0.2715
 5127SOL     OW26839   3.997   3.129   3.774  0.2378 -0.2765 -0.6675
 5127SOL    HW126840   4.072   3.182   3.802 -1.1584  0.8477  0.9457
 5127SOL    HW226841   3.977   3.079   3.853  0.8511 -0.1305 -0.4173
 5128SOL     OW26842   3.371   3.671   4.230  0.2924 -0.4424  0.2900
 5128SOL    HW126843   3.453   3.625   4.211 -0.0766 -1.0816  0.2616
 5128SOL    HW226844   3.345   3.688   4.140  2.2152 -0.0331 -0.1828
 5129SOL     OW26845   4.676   4.705  17.144 -0.4428 -0.1179  0.5171
 5129SOL    HW126846   4.711   4.637  17.086 -0.1696  1.5721 -1.2699
 5129SOL    HW226847   4.610   4.654  17.192  0.7596 -1.0829  1.1450
 5130SOL     OW26848   1.052   4.121   2.332 -0.5626  0.2422  0.0995
 5130SOL    HW126849   1.074   4.081   2.248  0.5431 -1.5378  1.2574
 5130SOL    HW226850   1.025   4.208   2.303  0.2069  0.6072  0.4836
 5131SOL     OW26851   2.472   3.072   5.001  0.7513 -0.0880  0.0217
 5131SOL    HW126852   2.391   3.120   5.017 -1.2423 -3.1029 -0.9577
 5131SOL    HW226853   2.488   3.110   4.914 -0.7209  1.6427  0.5092
 5132SOL     OW26854   1.239   3.858   5.712  0.1208 -0.5002  0.6986
 5132SOL    HW126855   1.160   3.862   5.658  0.2295 -0.5429  0.5350
 5132SOL    HW226856   1.228   3.936   5.766  3.7400 -0.3555  1.2444
 5133SOL     OW26857   0.001   4.394   9.626 -0.3258 -0.1252  0.1276
 5133SOL    HW126858   0.054   4.320   9.597 -0.0492  0.3698 -0.6186
 5133SOL    HW226859   0.070   4.448   9.667  0.5112 -0.2310 -1.1382
 5134SOL     OW26860   0.881   4.616   1.870 -0.1041  0.2177  0.2411
 5134SOL    HW126861   0.831   4.634   1.950 -0.2255  1.5400 -0.1310
 5134SOL    HW226862   0.856   4.689   1.814 -0.9406  1.0034  1.6346
 5135SOL     OW26863   3.905   2.692   3.115 -0.6690 -0.0854 -0.5353
 5135SOL    HW126864   3.992   2.699   3.155 -0.4015  0.9313 -1.2877
 5135SOL    HW226865   3.927   2.653   3.029 -0.6242 -0.8530 -0.1792
 5136SOL     OW26866   4.356   2.843   2.434  0.4121  0.3842 -0.0849
 5136SOL    HW126867   4.309   2.923   2.409 -0.7064 -0.5902 -1.0531
 5136SOL    HW226868   4.445   2.878   2.429 -0.2228  2.0796  0.5360
 5137SOL     OW26869   1.052   0.713   9.997 -0.1292  0.0687  0.2466
 5137SOL    HW126870   1.045   0.632  10.047 -1.1306 -2.1132 -3.4347
 5137SOL    HW226871   0.964   0.752   9.998  0.5882  1.7427 -0.6452
 5138SOL     OW26872   1.543   4.471  11.491  0.4449 -0.0528  0.7368
 5138SOL    HW126873   1.568   4.378  11.485  0.5542  0.0283 -0.1182
 5138SOL    HW226874   1.615   4.520  11.452  1.0694 -1.8050 -0.3252
 5139SOL     OW26875   0.059   2.428   6.171 -0.6324  0.5597 -0.0476
 5139SOL    HW126876   4.700   2.402   6.138  0.0397  0.2246 -1.5345
 5139SOL    HW226877   0.048   2.521   6.155  0.8358  0.5412 -1.1751
 5140SOL     OW26878   3.188   0.535   7.570 -0.8606  0.6742  0.3093
 5140SOL    HW126879   3.138   0.526   7.651 -2.2362 -0.9543 -0.7223
 5140SOL    HW226880   3.203   0.445   7.542 -0.0837 -0.1037  3.2768
 5141SOL     OW26881   3.247   3.036  14.719 -0.5861  0.2430 -0.1364
 5141SOL    HW126882   3.240   2.965  14.655  1.5278 -0.8219  0.8331
 5141SOL    HW226883   3.283   2.990  14.794  0.7325  0.6131 -0.5404
 5142SOL     OW26884   2.836   2.088   6.680  0.6996  0.1590 -0.3214
 5142SOL    HW126885   2.796   2.155   6.735 -1.1726 -0.4100 -0.9919
 5142SOL    HW226886   2.919   2.062   6.720  1.0160 -0.0651 -1.1189
 5143SOL     OW26887   3.653   1.018   7.711  0.2543  0.0979  0.3839
 5143SOL    HW126888   3.586   1.062   7.659  1.1325  1.6601  0.5567
 5143SOL    HW226889   3.730   1.071   7.692 -0.5508  0.8933 -0.6464
 5144SOL     OW26890   1.289   2.331   9.378 -0.3761  0.1543  0.1035
 5144SOL    HW126891   1.370   2.282   9.359 -1.7990 -2.3669  0.5499
 5144SOL    HW226892   1.314   2.382   9.455  0.7225  0.8448 -0.6991
 5145SOL     OW26893   2.583   2.085  11.117 -0.0262  0.0100  0.4883
 5145SOL    HW126894   2.514   2.152  11.114  0.8840  0.9146 -0.5725
 5145SOL    HW226895   2.585   2.063  11.210  1.2474 -2.2157 -0.0641
 5146SOL     OW26896   1.036   0.956   8.873 -0.3255 -0.3934 -0.5251
 5146SOL    HW126897   1.066   0.896   8.941 -1.6372 -1.8567 -1.2542
 5146SOL    HW226898   1.105   1.022   8.874 -1.7245  1.1070 -2.4870
 5147SOL     OW26899   1.804   0.217   5.372  1.0339  0.4370  0.3560
 5147SOL    HW126900   1.883   0.271   5.366  0.9667  0.4049 -0.8839
 5147SOL    HW226901   1.819   0.166   5.291  0.3973 -0.5041  0.8316
 5148SOL     OW26902   2.229   2.681   7.814 -0.0500 -0.2822 -0.5657
 5148SOL    HW126903   2.287   2.696   7.888  1.0199 -1.4155 -1.1597
 5148SOL    HW226904   2.280   2.717   7.741  0.2499 -3.4473 -1.9295
 5149SOL     OW26905   4.227   3.375   9.429 -0.3741 -0.0248  0.5761
 5149SOL    HW126906   4.253   3.466   9.415  1.8657 -0.8787 -0.7785
 5149SOL    HW226907   4.254   3.358   9.519  1.2095 -1.6831 -0.2108
 5150SOL     OW26908   1.382   2.906   6.804 -0.0567  0.1022  0.0800
 5150SOL    HW126909   1.303   2.857   6.830 -0.8090  0.3734 -1.6580
 5150SOL    HW226910   1.351   2.936   6.718 -0.7457 -0.5468  0.0954
 5151SOL     OW26911   2.781   4.196   0.849  0.1970  0.0943 -0.1346
 5151SOL    HW126912   2.863   4.242   0.831  1.3796 -1.2684  1.7705
 5151SOL    HW226913   2.731   4.247   0.913 -0.0029 -0.9697  0.5601
 5152SOL     OW26914   1.768   0.013   3.951 -0.4780  0.1130  0.2887
 5152SOL    HW126915   1.796   0.086   3.895  0.8565 -2.2127 -2.1484
 5152SOL    HW226916   1.674   0.010   3.938 -0.4055 -0.4659 -0.1161
 5153SOL     OW26917   1.611   4.508  13.643  0.1210  0.2662 -0.3250
 5153SOL    HW126918   1.527   4.546  13.671 -0.5260  0.1591 -2.1168
 5153SOL    HW226919   1.616   4.559  13.562  1.3592  2.6272  1.2383
 5154SOL     OW26920   4.727   1.399   5.288  0.1880 -0.1635 -0.2488
 5154SOL    HW126921   0.027   1.378   5.199  0.7226  0.1852 -0.1746
 5154SOL    HW226922   4.643   1.443   5.274 -0.1305 -0.7043 -0.0099
 5155SOL     OW26923   0.449   1.196   8.630  0.5188  0.2000 -0.0845
 5155SOL    HW126924   0.361   1.192   8.592  0.8178  0.7639 -0.8385
 5155SOL    HW226925   0.505   1.191   8.553  1.3603 -1.3339  0.6479
 5156SOL     OW26926   4.405   2.997   1.471  0.4458  0.4174 -0.1850
 5156SOL    HW126927   4.328   3.054   1.477 -0.3759 -0.9380  2.1234
 5156SOL    HW226928   4.462   3.043   1.409 -0.5002 -0.4871 -1.7572
 5157SOL     OW26929   2.572   3.960   2.196 -0.1148  0.6128 -0.1656
 5157SOL    HW126930   2.642   3.928   2.138 -1.9799  1.4365 -2.8774
 5157SOL    HW226931   2.555   4.050   2.167  0.9761  1.1919  0.9930
 5158SOL     OW26932   3.626   0.977   7.195  0.0142  0.2118 -0.0943
 5158SOL    HW126933   3.602   0.986   7.287  1.1363  1.2547  0.1065
 5158SOL    HW226934   3.680   1.055   7.179 -0.1997  0.5921  1.0645
 5159SOL     OW26935   3.042   1.560   7.429 -0.3155  0.4812  0.5718
 5159SOL    HW126936   3.071   1.651   7.435 -1.1763  0.8748 -1.5835
 5159SOL    HW226937   2.950   1.573   7.407  0.1072  0.7018 -1.0031
 5160SOL     OW26938   3.139   4.179   8.509 -0.0309 -0.6929  0.3013
 5160SOL    HW126939   3.055   4.205   8.472  0.5022  0.7483  0.1256
 5160SOL    HW226940   3.201   4.194   8.438  0.0758 -0.0562  0.5327
 5161SOL     OW26941   4.440   1.792  17.670 -0.4000  0.0321 -0.3517
 5161SOL    HW126942   4.445   1.825   0.052  3.9674  0.3071 -0.6906
 5161SOL    HW226943   4.407   1.869  17.626 -1.3188 -0.4212 -0.4409
 5162SOL     OW26944   2.748   2.008   0.533 -1.0473  0.3176  0.4510
 5162SOL    HW126945   2.729   2.031   0.624  0.1373 -1.0255  1.0420
 5162SOL    HW226946   2.778   2.093   0.502  1.4168 -0.5379  0.4818
 5163SOL     OW26947   0.594   0.397   1.514 -0.4964 -0.6098  0.8304
 5163SOL    HW126948   0.686   0.402   1.540  0.5253 -1.5170 -2.6673
 5163SOL    HW226949   0.601   0.320   1.457 -0.8749 -0.2648  0.3213
 5164SOL     OW26950   1.052   1.740   9.585 -0.3050  0.3801 -0.5837
 5164SOL    HW126951   0.970   1.788   9.585 -0.4141  0.1932 -0.1526
 5164SOL    HW226952   1.101   1.790   9.651  0.2706 -0.0377 -0.6946
 5165SOL     OW26953   3.905   1.021   2.873  0.2446 -0.3588  0.1907
 5165SOL    HW126954   3.883   1.082   2.802 -2.2985 -1.5500 -0.0425
 5165SOL    HW226955   3.876   0.940   2.831 -1.8293 -0.0109  0.9857
 5166SOL     OW26956   2.581   0.394  13.106 -0.6793  0.2476 -0.2438
 5166SOL    HW126957   2.676   0.393  13.102 -0.6382 -3.4686  1.7896
 5166SOL    HW226958   2.562   0.403  13.199 -0.9536 -1.1079 -0.1745
 5167SOL     OW26959   1.004   2.502   1.668  0.0110 -0.2420 -0.0017
 5167SOL    HW126960   1.076   2.552   1.707  0.2111 -1.1640  0.8248
 5167SOL    HW226961   1.047   2.481   1.585  0.6679 -0.2044  0.3305
 5168SOL     OW26962   4.533   2.618  11.774  0.2534 -0.6413  0.4650
 5168SOL    HW126963   4.629   2.616  11.767  0.1171 -4.2921  0.0215
 5168SOL    HW226964   4.533   2.709  11.744 -0.5117  0.5161  3.9160
 5169SOL     OW26965   4.551   0.255   9.521  0.2602  0.1376 -0.4055
 5169SOL    HW126966   4.581   0.200   9.448 -0.7641 -1.0049  0.0387
 5169SOL    HW226967   4.639   0.271   9.555  1.4002 -1.3878 -2.6627
 5170SOL     OW26968   2.727   3.818   2.011 -0.4055 -0.1225  0.4626
 5170SOL    HW126969   2.754   3.887   1.950 -2.2546  0.3313  0.1406
 5170SOL    HW226970   2.809   3.770   2.019 -1.2798 -1.8674 -1.0717
 5171SOL     OW26971   3.592   3.667   4.614  0.4121 -0.4325 -0.6607
 5171SOL    HW126972   3.544   3.727   4.558 -1.3631 -0.3517  0.9398
 5171SOL    HW226973   3.685   3.689   4.603  0.5861  0.3896  2.4247
 5172SOL     OW26974   4.382   1.470   6.064  0.3651  0.7261 -0.2246
 5172SOL    HW126975   4.410   1.378   6.067 -3.0903 -0.2955  0.2296
 5172SOL    HW226976   4.363   1.485   5.972 -1.2789 -0.8772 -0.1408
 5173SOL     OW26977   0.844   2.754  16.800  0.1302  0.1772  0.2057
 5173SOL    HW126978   0.923   2.743  16.853  0.9274 -0.0403 -1.0164
 5173SOL    HW226979   0.875   2.790  16.717  0.7954  2.8042  1.5735
 5174SOL     OW26980   1.512   4.035   7.906  0.0720 -0.7816  0.3173
 5174SOL    HW126981   1.561   3.976   7.963  0.7231  0.0903  0.6675
 5174SOL    HW226982   1.450   3.976   7.863  0.0747 -1.2250  0.9189
 5175SOL     OW26983   4.119   3.276   3.229  0.6512 -0.4953 -0.4069
 5175SOL    HW126984   4.116   3.356   3.177  2.8405 -1.4338 -1.9879
 5175SOL    HW226985   4.060   3.212   3.189 -0.4082 -0.3595  0.9061
 5176SOL     OW26986   3.967   1.908   2.661 -0.1425  0.2033  0.5861
 5176SOL    HW126987   3.894   1.879   2.607  0.1249  0.2173  0.2210
 5176SOL    HW226988   4.034   1.855   2.617  1.6555  0.9420  2.4187
 5177SOL     OW26989   3.466   3.982  11.011  0.3643 -0.2239 -0.3892
 5177SOL    HW126990   3.474   4.013  11.102  0.4670 -0.4571 -0.3201
 5177SOL    HW226991   3.472   3.888  11.029  0.5938  0.0198  0.8440
 5178SOL     OW26992   3.031   1.850   5.505  0.7126  0.1636 -0.1045
 5178SOL    HW126993   3.033   1.775   5.565 -2.8441 -0.6765 -1.0314
 5178SOL    HW226994   2.983   1.921   5.547  2.4575 -0.0220  2.1796
 5179SOL     OW26995   4.242   1.524   1.476 -0.7189 -0.1256  0.1362
 5179SOL    HW126996   4.308   1.527   1.546  1.3404  3.2430 -1.9313
 5179SOL    HW226997   4.179   1.594   1.493 -0.5459  0.0411  0.0922
 5180SOL     OW26998   0.975   0.346   5.117  0.7423  0.4602  0.8509
 5180SOL    HW126999   0.885   0.321   5.139  0.3004  1.6302  0.3756
 5180SOL    HW227000   0.970   0.350   5.022 -0.4273  0.3948  0.9080
 5181SOL     OW27001   4.177   3.369  14.163 -0.4412 -0.1638 -0.0848
 5181SOL    HW127002   4.261   3.404  14.193 -0.5107  0.6903 -0.8663
 5181SOL    HW227003   4.130   3.452  14.164 -1.4125 -0.6882 -2.7962
 5182SOL     OW27004   3.885   1.969   0.889  0.2445 -0.4675  0.6975
 5182SOL    HW127005   3.976   1.973   0.861 -0.3670  1.8453 -0.9947
 5182SOL    HW227006   3.894   2.001   0.979 -1.1413  0.1365  0.6216
 5183SOL     OW27007   2.864   0.766  14.820 -0.2248 -0.3334 -0.0659
 5183SOL    HW127008   2.836   0.849  14.782  0.0862 -0.6437 -0.9739
 5183SOL    HW227009   2.931   0.795  14.882 -0.0659  2.7079 -1.6424
 5184SOL     OW27010   0.881   1.347   2.791  0.4087  0.2173 -0.0379
 5184SOL    HW127011   0.863   1.326   2.699 -1.8514 -1.7274  0.8779
 5184SOL    HW227012   0.953   1.411   2.790  1.0315 -0.4659  1.1786
 5185SOL     OW27013   0.603   3.328   7.020  0.2606 -0.2534  0.3191
 5185SOL    HW127014   0.587   3.235   7.011  2.2018 -0.4005 -1.6331
 5185SOL    HW227015   0.518   3.372   7.026  1.9485  3.1330 -0.3514
 5186SOL     OW27016   0.396   3.685   4.877 -0.1461 -0.3277 -0.8893
 5186SOL    HW127017   0.410   3.602   4.833  0.2090 -2.2354  2.8472
 5186SOL    HW227018   0.342   3.645   4.944  0.9808  0.2791  0.3918
 5187SOL     OW27019   1.337   0.788   0.552  0.1786 -0.1779 -0.7726
 5187SOL    HW127020   1.285   0.859   0.517 -0.3662 -0.3437 -0.2921
 5187SOL    HW227021   1.425   0.825   0.564  0.5958 -0.3499 -3.3377
 5188SOL     OW27022   1.116   3.520   8.301 -0.0413  0.0720 -0.0991
 5188SOL    HW127023   1.112   3.425   8.309 -1.9061  0.2831  1.5458
 5188SOL    HW227024   1.053   3.556   8.362  0.0384  0.1016 -0.0337
 5189SOL     OW27025   0.205   4.182   1.724 -0.2380 -0.5864 -0.7386
 5189SOL    HW127026   0.178   4.132   1.647  0.4613 -0.1749 -1.2447
 5189SOL    HW227027   0.167   4.267   1.704 -0.5565 -0.1167  1.7614
 5190SOL     OW27028   2.969   1.906   7.945  0.1483  0.2928  0.2774
 5190SOL    HW127029   2.923   1.830   7.983 -0.5091 -0.0675 -1.2156
 5190SOL    HW227030   2.925   1.980   7.986 -1.3105 -0.7393  0.5936
 5191SOL     OW27031   3.680   4.305   8.621 -0.0251  0.4158  0.1470
 5191SOL    HW127032   3.600   4.253   8.616  0.9505 -1.2545  1.7697
 5191SOL    HW227033   3.652   4.384   8.576  1.3805  0.8460  0.0243
 5192SOL     OW27034   1.868   2.363   5.884  0.1554 -0.4851  0.4241
 5192SOL    HW127035   1.799   2.298   5.867 -1.2456  1.0109  0.3525
 5192SOL    HW227036   1.813   2.437   5.859  0.6151 -0.5516 -0.7968
 5193SOL     OW27037   3.803   1.050   0.543  0.1567  0.1963 -0.1868
 5193SOL    HW127038   3.839   1.035   0.630 -3.9134  0.0356  1.4890
 5193SOL    HW227039   3.750   0.971   0.530  1.9569 -0.7637 -1.7063
 5194SOL     OW27040   1.571   3.498   5.703  0.2988 -0.0588  0.3415
 5194SOL    HW127041   1.647   3.524   5.755  0.7157 -2.4277  0.9143
 5194SOL    HW227042   1.505   3.554   5.744  1.0434  0.3466  0.9995
 5195SOL     OW27043   3.654   1.557  14.444 -0.2265 -0.7257 -0.2516
 5195SOL    HW127044   3.579   1.614  14.430  0.4663  0.0535 -0.7977
 5195SOL    HW227045   3.718   1.600  14.386  0.1112  1.6346  1.8308
 5196SOL     OW27046   0.814   1.284   8.623  0.3510  0.1896 -0.5550
 5196SOL    HW127047   0.749   1.214   8.627 -0.4648  1.0395  1.2997
 5196SOL    HW227048   0.891   1.237   8.657  0.4333  0.1739 -0.7628
 5197SOL     OW27049   0.303   4.381   0.938  0.4043  0.5313  0.2141
 5197SOL    HW127050   0.344   4.453   0.889  0.2146  0.4849 -0.0153
 5197SOL    HW227051   0.212   4.413   0.943  0.1379 -0.1262 -0.4269
 5198SOL     OW27052   3.977   0.852   6.318 -0.7010  0.8849  0.3845
 5198SOL    HW127053   3.912   0.815   6.378  0.7640  0.7149  1.8612
 5198SOL    HW227054   3.914   0.890   6.257 -2.2713 -0.1788  1.3368
 5199SOL     OW27055   1.056   2.762   5.590  0.1132 -0.3906  0.5498
 5199SOL    HW127056   1.006   2.781   5.670  0.9265  1.5465  0.6047
 5199SOL    HW227057   1.134   2.731   5.636 -2.3495 -0.9223  4.3415
 5200SOL     OW27058   2.575   2.353   3.968  0.2972 -0.3296 -1.0492
 5200SOL    HW127059   2.508   2.310   3.914 -1.0876 -2.1675  2.1389
 5200SOL    HW227060   2.516   2.394   4.031  2.7635  0.8563  0.4694
 5201SOL     OW27061   3.901   0.077   8.706  0.4185  0.4543 -0.3337
 5201SOL    HW127062   3.935   0.085   8.617 -0.4593 -1.7493 -0.8576
 5201SOL    HW227063   3.929   4.718   8.736  1.1430  0.7360 -0.1911
 5202SOL     OW27064   0.911   0.712   4.250  0.2325  0.4858 -0.3968
 5202SOL    HW127065   0.947   0.684   4.335 -1.2192 -0.3254 -0.0265
 5202SOL    HW227066   0.851   0.638   4.233 -0.2891  1.2256 -1.7653
 5203SOL     OW27067   2.493   0.421   3.438 -0.1545  0.5975 -0.3860
 5203SOL    HW127068   2.478   0.515   3.448 -1.4780  0.1066  2.2444
 5203SOL    HW227069   2.588   0.421   3.454 -0.0823  2.0703 -0.8555
 5204SOL     OW27070   1.292   3.247  14.916 -0.3273  0.2208 -0.0470
 5204SOL    HW127071   1.230   3.318  14.928 -0.6548 -0.0461 -0.1666
 5204SOL    HW227072   1.371   3.297  14.935 -0.4678  0.7552 -0.8771
 5205SOL     OW27073   3.708   4.547  15.483  0.2072  0.3282  0.0772
 5205SOL    HW127074   3.619   4.568  15.453 -0.6044 -0.5734  1.8657
 5205SOL    HW227075   3.695   4.540  15.577  0.7562  1.2508  0.2247
 5206SOL     OW27076   3.089   3.079   7.970 -0.3449 -0.3457  0.2932
 5206SOL    HW127077   3.068   3.151   7.910  0.8468 -2.0848 -2.2250
 5206SOL    HW227078   3.008   3.067   8.020  1.3255 -0.3311  2.9824
 5207SOL     OW27079   0.180   0.960   7.933 -0.0808  0.1714  0.3633
 5207SOL    HW127080   0.146   0.952   8.022 -0.2300 -1.5218  0.1552
 5207SOL    HW227081   0.238   1.035   7.949  1.9417 -1.2818 -0.0939
 5208SOL     OW27082   4.341   3.389  15.957 -0.7780  0.3400 -0.8470
 5208SOL    HW127083   4.384   3.348  15.882 -0.7848 -2.7216  0.8183
 5208SOL    HW227084   4.330   3.323  16.025  1.3655 -0.2117 -1.0335
 5209SOL     OW27085   4.645   0.402   6.594 -0.5447 -0.3768 -0.4234
 5209SOL    HW127086   4.553   0.414   6.570 -0.3034 -1.4958 -1.9410
 5209SOL    HW227087   4.645   0.313   6.629 -0.3804 -0.5374 -0.8235
 5210SOL     OW27088   0.612   0.916   7.885 -0.3599 -0.3055 -0.1992
 5210SOL    HW127089   0.530   0.879   7.918  0.5374 -0.6507  1.6754
 5210SOL    HW227090   0.674   0.878   7.949 -0.9315 -0.6542  0.1478
 5211SOL     OW27091   3.969   0.030   4.908  0.5132 -0.2996 -0.0667
 5211SOL    HW127092   3.874   0.036   4.902  0.6096  2.0550  0.8128
 5211SOL    HW227093   3.990   0.112   4.862 -0.7004 -1.0112 -1.8703
 5212SOL     OW27094   1.005   3.769   4.387 -0.4450  0.4556  0.2491
 5212SOL    HW127095   1.098   3.762   4.368 -0.4872  1.4998 -0.4045
 5212SOL    HW227096   0.964   3.706   4.328 -2.5374  1.3914  0.6787
 5213SOL     OW27097   2.911   0.995   2.789 -0.4623  0.2025 -0.2272
 5213SOL    HW127098   2.952   0.909   2.779 -3.3638 -1.5200  2.9327
 5213SOL    HW227099   2.833   0.993   2.844 -0.6046 -3.0251 -0.5516
 5214SOL     OW27100   4.516   2.647   9.586 -0.4716 -0.3454 -0.5562
 5214SOL    HW127101   4.592   2.705   9.592 -0.3821 -0.2971 -2.1766
 5214SOL    HW227102   4.472   2.688   9.511 -1.0994  0.1225  0.0612
 5215SOL     OW27103   0.544   0.401   8.164  0.3378  0.1924 -0.3580
 5215SOL    HW127104   0.527   0.425   8.073  0.6575 -2.2064 -1.0502
 5215SOL    HW227105   0.559   0.307   8.154  2.2108  0.2209  2.0620
 5216SOL     OW27106   2.254   1.463   3.306 -0.3812  0.3541  0.4537
 5216SOL    HW127107   2.261   1.493   3.216 -0.8862  1.3345  0.7412
 5216SOL    HW227108   2.339   1.419   3.308  0.3410  1.7193 -0.3006
 5217SOL     OW27109   2.682   1.370   8.205  0.4925  0.1355  0.1409
 5217SOL    HW127110   2.776   1.355   8.208  0.0272 -2.7786  0.1829
 5217SOL    HW227111   2.664   1.371   8.299 -0.7808 -3.0496 -0.0507
 5218SOL     OW27112   2.707   1.136  17.299 -0.1834 -0.0148 -0.0945
 5218SOL    HW127113   2.662   1.095  17.225  0.4057 -0.1167 -0.3981
 5218SOL    HW227114   2.701   1.227  17.271  0.2727 -0.3126 -1.1871
 5219SOL     OW27115   0.939   2.088   4.802 -0.1390 -0.1729 -0.2503
 5219SOL    HW127116   0.970   2.129   4.882  1.3537  0.2480 -1.0481
 5219SOL    HW227117   1.017   2.075   4.748 -0.6955 -0.7739 -0.9135
 5220SOL     OW27118   0.155   1.979   3.879 -0.4306 -0.5084 -0.8421
 5220SOL    HW127119   0.110   2.056   3.914  0.3133  0.0586 -1.1326
 5220SOL    HW227120   0.246   2.002   3.894 -0.6536 -0.4011  0.3526
 5221SOL     OW27121   2.702   3.022   5.125 -0.3392 -0.6787  0.0492
 5221SOL    HW127122   2.629   3.056   5.074  1.0782 -1.1478 -2.3158
 5221SOL    HW227123   2.764   3.008   5.053  0.0694  0.4664  0.1725
 5222SOL     OW27124   1.532   4.229   9.224  0.6905  0.4701  0.9370
 5222SOL    HW127125   1.612   4.181   9.244  1.9459  1.9454 -0.5439
 5222SOL    HW227126   1.498   4.223   9.313  1.0324 -2.8423  0.8321
 5223SOL     OW27127   1.384   4.162   7.124  0.2900  0.1434 -0.4661
 5223SOL    HW127128   1.357   4.114   7.203  2.5660 -1.7819 -0.8757
 5223SOL    HW227129   1.469   4.120   7.111 -0.0018 -0.2390 -1.1231
 5224SOL     OW27130   1.045   1.190   4.817  0.4586  0.4314 -0.0116
 5224SOL    HW127131   1.095   1.140   4.752 -1.7361 -0.8926 -0.6997
 5224SOL    HW227132   0.992   1.230   4.748  0.4790 -0.3138 -0.4663
 5225SOL     OW27133   4.508   0.425  15.641  0.1097  0.2174  0.2607
 5225SOL    HW127134   4.454   0.348  15.622 -1.8187  1.3935  0.9724
 5225SOL    HW227135   4.589   0.377  15.623 -0.8541 -1.3407  0.1375
 5226SOL     OW27136   2.510   2.588   4.090  0.1027  0.3508 -0.3847
 5226SOL    HW127137   2.602   2.612   4.076 -0.1899  1.2380 -0.7902
 5226SOL    HW227138   2.515   2.548   4.177 -1.0109  3.5372  1.1371
 5227SOL     OW27139   1.543   0.366   3.782 -0.0329 -0.0341 -0.4502
 5227SOL    HW127140   1.550   0.340   3.874 -0.4416  3.4482  0.5673
 5227SOL    HW227141   1.619   0.424   3.776 -0.0306 -0.1427 -1.4669
 5228SOL     OW27142   4.130   4.555  12.886 -0.7739 -0.2043  0.0490
 5228SOL    HW127143   4.176   4.634  12.857 -0.3561 -0.0135  1.2171
 5228SOL    HW227144   4.163   4.482  12.832  3.6998  0.3740  1.9932
 5229SOL     OW27145   1.497   2.191   4.265  0.3707 -0.0526  0.2902
 5229SOL    HW127146   1.441   2.256   4.307 -1.5284 -0.3650 -1.7784
 5229SOL    HW227147   1.450   2.167   4.186  1.1091 -1.2737  0.2183
 5230SOL     OW27148   2.207   3.905   2.877  0.1842 -0.5655  0.3420
 5230SOL    HW127149   2.203   4.000   2.892  1.5165 -0.5282  0.5236
 5230SOL    HW227150   2.116   3.879   2.892 -0.7129  2.8654  0.9744
 5231SOL     OW27151   3.483   3.179  11.695  1.1147  0.6004  0.0400
 5231SOL    HW127152   3.395   3.195  11.661  0.7451  0.6504  1.0250
 5231SOL    HW227153   3.493   3.091  11.658 -0.7463  0.6181 -0.5390
 5232SOL     OW27154   4.436   3.226  12.072 -0.1539  0.9857 -0.5130
 5232SOL    HW127155   4.375   3.264  12.136  0.9093 -0.1337  1.1683
 5232SOL    HW227156   4.471   3.152  12.122  0.4187  1.1073 -0.7380
 5233SOL     OW27157   0.840   0.871   9.230  0.1574  0.0028 -0.2360
 5233SOL    HW127158   0.755   0.886   9.187  1.9729  3.1098 -2.7162
 5233SOL    HW227159   0.826   0.887   9.323 -1.1108  1.3387 -0.6455
 5234SOL     OW27160   2.026   0.241   3.476 -0.6742  0.4809  0.3497
 5234SOL    HW127161   2.111   0.245   3.520 -0.7028 -2.6558  0.6869
 5234SOL    HW227162   1.994   0.330   3.486 -0.0575  0.7749 -0.3400
 5235SOL     OW27163   2.724   1.765   6.739 -0.4260  0.1096  0.0221
 5235SOL    HW127164   2.736   1.856   6.712  3.4784 -0.1091  1.0393
 5235SOL    HW227165   2.633   1.752   6.764 -1.2387  0.2122 -2.8869
 5236SOL     OW27166   0.198   3.261   2.670 -0.2462 -0.4535  0.5034
 5236SOL    HW127167   0.125   3.242   2.729 -0.0739  0.8324  1.1295
 5236SOL    HW227168   0.170   3.346   2.636  3.0556 -0.3771 -1.9810
 5237SOL     OW27169   1.752   2.870   0.626 -0.1169  0.7560  0.3388
 5237SOL    HW127170   1.704   2.882   0.544 -0.2717  1.3448  0.5145
 5237SOL    HW227171   1.817   2.808   0.595  1.3461  0.8288  3.3076
 5238SOL     OW27172   1.791   0.966   1.733 -0.6019  0.0147  0.6232
 5238SOL    HW127173   1.812   0.976   1.826  0.6893  1.4070  0.1821
 5238SOL    HW227174   1.882   0.980   1.706 -0.9035  1.0238  0.1148
 5239SOL     OW27175   1.206   4.492   6.986  0.2177  0.8548  0.3147
 5239SOL    HW127176   1.293   4.454   6.972 -1.1444 -1.5170 -1.7561
 5239SOL    HW227177   1.209   4.504   7.080 -2.1769 -0.1769  0.5107
 5240SOL     OW27178   1.373   4.435   5.880 -0.1524 -0.7351  0.2847
 5240SOL    HW127179   1.457   4.445   5.836 -0.2977  0.4837  0.2942
 5240SOL    HW227180   1.353   4.525   5.903  0.5021 -0.7605  0.9513
 5241SOL     OW27181   2.202   1.951   3.029  0.5720  0.1922  0.2984
 5241SOL    HW127182   2.272   1.895   3.062  2.5241  2.6825  0.4476
 5241SOL    HW227183   2.172   1.916   2.945 -0.1390  1.3276  0.0673
 5242SOL     OW27184   0.412   3.758   4.353  0.0464  0.1167  0.0263
 5242SOL    HW127185   0.429   3.666   4.334  1.2043  0.4769 -0.7102
 5242SOL    HW227186   0.327   3.760   4.397  0.3803  1.5064  0.6225
 5243SOL     OW27187   3.748   3.807   1.276  0.4681 -0.1854 -0.2612
 5243SOL    HW127188   3.717   3.732   1.226 -2.3022  1.4857 -1.0302
 5243SOL    HW227189   3.690   3.792   1.350  0.3264  0.0619 -0.3201
 5244SOL     OW27190   1.830   3.778   4.454 -0.4507  0.2859  0.3837
 5244SOL    HW127191   1.799   3.723   4.526  2.0116  0.6103  1.7199
 5244SOL    HW227192   1.746   3.819   4.434  0.0061  0.9802 -0.1262
 5245SOL     OW27193   2.425   1.150   0.375 -0.6890 -0.0537  0.0252
 5245SOL    HW127194   2.521   1.157   0.376 -0.6006 -1.1438 -0.9299
 5245SOL    HW227195   2.419   1.084   0.445 -1.2826 -1.0766 -0.9885
 5246SOL     OW27196   2.752   0.161   8.897 -0.6331 -0.2373  0.2517
 5246SOL    HW127197   2.834   0.211   8.903 -0.9836  0.3733  0.0010
 5246SOL    HW227198   2.698   0.230   8.936  0.1704  0.6279 -0.1570
 5247SOL     OW27199   0.125   2.084   6.044  0.0465  0.2512 -0.6613
 5247SOL    HW127200   0.117   2.121   5.956  0.3761 -1.0673 -1.2416
 5247SOL    HW227201   0.041   2.038   6.046  1.7156 -2.7461 -0.6028
 5248SOL     OW27202   0.704   0.614   4.642 -0.4862  0.3620  0.2265
 5248SOL    HW127203   0.735   0.604   4.732 -2.3766  1.0176  0.9508
 5248SOL    HW227204   0.643   0.688   4.650  0.1056  0.8345  0.4393
 5249SOL     OW27205   3.967   2.090   1.410 -0.3102 -0.1077  0.0752
 5249SOL    HW127206   3.913   2.117   1.485  0.3184  0.2544  0.3910
 5249SOL    HW227207   4.039   2.153   1.411  0.1941 -0.6903  0.4057
 5250SOL     OW27208   1.518   4.317   3.483  0.1985 -0.6219 -0.1123
 5250SOL    HW127209   1.473   4.401   3.498 -0.7523 -1.0548 -0.5617
 5250SOL    HW227210   1.506   4.297   3.391 -1.0987 -2.4034  0.4457
 5251SOL     OW27211   0.659   4.473   8.348 -0.2107 -0.3825  0.3661
 5251SOL    HW127212   0.671   4.444   8.258 -1.6158  1.1407 -0.3003
 5251SOL    HW227213   0.572   4.511   8.339 -0.7360 -1.5822  0.3363
 5252SOL     OW27214   1.005   2.206   2.215  0.6377  0.6119  0.1901
 5252SOL    HW127215   1.100   2.215   2.201  0.8670  1.0232  1.9889
 5252SOL    HW227216   0.969   2.291   2.191  1.6488 -0.2123 -4.2338
 5253SOL     OW27217   0.585   0.124   3.815 -0.3842  0.0398 -0.5388
 5253SOL    HW127218   0.558   0.066   3.744 -0.9802 -1.6986  1.1065
 5253SOL    HW227219   0.645   0.177   3.762  0.8351  0.1981  0.9973
 5254SOL     OW27220   4.192   1.845  16.068  0.5328 -0.2380  0.0666
 5254SOL    HW127221   4.222   1.886  15.986 -0.4569  2.6107  1.1410
 5254SOL    HW227222   4.161   1.920  16.119  1.8081 -0.8879  1.7851
 5255SOL     OW27223   1.654   0.094   5.953  0.8273 -0.5577  0.1273
 5255SOL    HW127224   1.717   0.035   5.994 -0.2975 -1.1327  1.0247
 5255SOL    HW227225   1.714   0.166   5.933 -0.3414  0.1881 -0.6928
 5256SOL     OW27226   0.201   2.738  12.675 -0.0154  0.7209  0.1581
 5256SOL    HW127227   0.165   2.695  12.598  0.1484 -0.3860  0.6948
 5256SOL    HW227228   0.165   2.825  12.659 -1.3278  0.2266  0.4562
 5257SOL     OW27229   0.829   0.992   2.473  0.1306 -0.9627  0.2476
 5257SOL    HW127230   0.833   0.904   2.434  1.0217 -0.5920 -0.5138
 5257SOL    HW227231   0.901   0.994   2.536  0.4864 -2.6526 -0.0963
 5258SOL     OW27232   1.950   1.231   1.883  0.2477 -0.5853 -0.0482
 5258SOL    HW127233   2.012   1.263   1.949  1.6650 -1.4569 -0.9607
 5258SOL    HW227234   2.018   1.194   1.827 -1.7639 -1.1661 -2.0951
 5259SOL     OW27235   0.197   4.087   5.713  0.2806  0.1633  0.1061
 5259SOL    HW127236   0.232   4.096   5.624 -0.0809  0.7578  0.0204
 5259SOL    HW227237   0.253   4.023   5.756 -1.2658 -0.7059  0.8292
 5260SOL     OW27238   0.625   2.509  15.283 -0.2595 -0.0826 -0.3794
 5260SOL    HW127239   0.532   2.516  15.304 -0.8464  2.2978 -3.8668
 5260SOL    HW227240   0.626   2.573  15.212  1.3202  1.5195  1.1030
 5261SOL     OW27241   0.042   1.186  15.316  0.0270  0.1518 -0.4691
 5261SOL    HW127242   0.049   1.278  15.342  1.7493 -0.8974  2.8641
 5261SOL    HW227243   0.130   1.167  15.284  0.0294 -2.3141  1.0106
 5262SOL     OW27244   3.130   2.711   3.224 -0.4157 -0.2609  0.5754
 5262SOL    HW127245   3.097   2.773   3.159 -2.0804 -1.8117 -0.0654
 5262SOL    HW227246   3.216   2.693   3.186 -1.2559 -0.7681 -1.1113
 5263SOL     OW27247   0.568   2.416   8.347 -0.5521 -0.3503  0.6681
 5263SOL    HW127248   0.533   2.499   8.379  1.6185  0.1046  1.8482
 5263SOL    HW227249   0.657   2.432   8.378 -0.1935 -3.2885  1.1590
 5264SOL     OW27250   4.260   1.496   4.218  0.3652 -0.2245 -0.0272
 5264SOL    HW127251   4.197   1.564   4.191  0.7720  0.3264  0.4066
 5264SOL    HW227252   4.244   1.422   4.161 -0.7206 -0.5913  0.7524
 5265SOL     OW27253   1.841   0.675   8.188 -0.0539  0.5215 -1.0424
 5265SOL    HW127254   1.909   0.737   8.216 -0.7090  0.5032  0.5809
 5265SOL    HW227255   1.883   0.590   8.179  0.3234  0.6916 -0.8922
 5266SOL     OW27256   3.908   3.643   3.704 -0.7002 -0.0264 -0.7416
 5266SOL    HW127257   3.993   3.609   3.676 -0.1303 -1.1754  2.4937
 5266SOL    HW227258   3.909   3.645   3.799 -0.1668  2.0406 -0.7952
 5267SOL     OW27259   1.481   3.889   9.384 -0.0581  0.2994 -0.1421
 5267SOL    HW127260   1.526   3.858   9.462 -1.0929  0.5015  0.5381
 5267SOL    HW227261   1.507   3.981   9.388  1.7867 -0.2317 -0.2268
 5268SOL     OW27262   0.909   0.141   6.210  0.1959  0.1799 -0.0184
 5268SOL    HW127263   0.925   0.191   6.130 -0.6449  0.3295 -0.0940
 5268SOL    HW227264   0.840   0.197   6.246  1.7160  2.1007 -0.1128
 5269SOL     OW27265   3.086   4.073   2.994  0.3820  0.3041 -0.1935
 5269SOL    HW127266   3.038   4.147   3.030 -0.9592 -0.8790  0.4335
 5269SOL    HW227267   3.167   4.075   3.046 -0.1846  0.7801  0.6625
 5270SOL     OW27268   0.165   2.834   2.682 -0.4363 -0.4985 -0.0981
 5270SOL    HW127269   0.243   2.816   2.629  0.4467  1.3115  0.5857
 5270SOL    HW227270   0.094   2.817   2.621  0.7639 -0.3290 -1.5507
 5271SOL     OW27271   4.691   4.465   9.226 -0.7804 -0.0931 -0.2251
 5271SOL    HW127272   0.030   4.480   9.294  0.4724 -0.2705 -1.4153
 5271SOL    HW227273   4.684   4.370   9.225  0.3104 -0.1525 -1.2378
 5272SOL     OW27274   3.453   1.204   7.789  0.4886  0.0446  0.4231
 5272SOL    HW127275   3.500   1.169   7.865  0.3591 -0.4680  0.2699
 5272SOL    HW227276   3.398   1.128   7.768  0.0910  0.7191 -0.9726
 5273SOL     OW27277   0.757   3.842   8.116 -0.6729  0.1154  0.2058
 5273SOL    HW127278   0.766   3.778   8.046  0.1687 -0.2960  0.6829
 5273SOL    HW227279   0.662   3.855   8.112 -0.7951 -0.3321  1.5762
 5274SOL     OW27280   4.060   0.876   4.135 -0.6512  0.0036  0.0277
 5274SOL    HW127281   4.136   0.899   4.189 -0.9866  0.5780  0.2468
 5274SOL    HW227282   4.109   0.827   4.068  0.4587 -0.5449  1.2306
 5275SOL     OW27283   3.811   3.190  11.823 -0.3028 -0.2860 -0.1093
 5275SOL    HW127284   3.889   3.244  11.835 -1.2351  0.3597  2.8055
 5275SOL    HW227285   3.791   3.223  11.735 -1.8639  0.4494  0.5334
 5276SOL     OW27286   1.614   3.252   5.599  0.1070 -0.2530  0.6786
 5276SOL    HW127287   1.579   3.341   5.607  2.5579  0.7309  0.5008
 5276SOL    HW227288   1.555   3.220   5.531  0.1211  0.8119  0.1623
 5277SOL     OW27289   1.843   0.548  16.589 -0.1313  0.3769 -0.0697
 5277SOL    HW127290   1.887   0.555  16.504  1.9784  0.5116  1.0411
 5277SOL    HW227291   1.845   0.453  16.602  1.9156  0.1763 -1.7056
 5278SOL     OW27292   2.478   2.491   4.615 -0.0849  0.8554 -0.9600
 5278SOL    HW127293   2.562   2.491   4.661 -0.4669  1.3898 -0.2667
 5278SOL    HW227294   2.415   2.527   4.676  0.7428  1.5051 -0.4887
 5279SOL     OW27295   0.844   1.708  16.966  0.2541 -0.6135  0.4166
 5279SOL    HW127296   0.882   1.625  16.994 -2.6910 -2.3550 -0.7905
 5279SOL    HW227297   0.753   1.680  16.968 -0.3262  1.1968 -0.7540
 5280SOL     OW27298   0.361   3.194   6.394  0.0537 -0.3019 -0.1840
 5280SOL    HW127299   0.404   3.111   6.416  1.1328  0.4671  0.6134
 5280SOL    HW227300   0.414   3.237   6.327 -0.4802  0.3814 -0.1641
 5281SOL     OW27301   4.311   3.082  13.731 -0.1517  0.1594  0.1132
 5281SOL    HW127302   4.360   3.147  13.782  0.5412  0.2436 -0.6609
 5281SOL    HW227303   4.352   3.084  13.645 -2.4572 -0.1183 -0.9865
 5282SOL     OW27304   2.318   3.767   7.850 -0.5124 -0.1110 -0.9682
 5282SOL    HW127305   2.306   3.735   7.940 -1.8931  0.8646 -0.7900
 5282SOL    HW227306   2.237   3.815   7.835 -0.9553 -0.4936  0.1848
 5283SOL     OW27307   2.527   4.310   4.301 -0.1343 -0.1287 -0.7631
 5283SOL    HW127308   2.488   4.390   4.266  0.7273 -0.0591 -1.5502
 5283SOL    HW227309   2.617   4.336   4.322  0.3382 -1.9405 -0.5795
 5284SOL     OW27310   0.573   3.590   8.448 -0.6645  0.5587  0.1964
 5284SOL    HW127311   0.630   3.664   8.427  1.4591 -1.4018 -0.9746
 5284SOL    HW227312   0.625   3.543   8.513  0.3737 -0.4664 -1.3813
 5285SOL     OW27313   0.064   1.698   5.789  0.1158  0.1574 -0.1882
 5285SOL    HW127314   0.014   1.663   5.863 -0.1573  0.1742 -0.3682
 5285SOL    HW227315   0.096   1.615   5.755  0.5164  0.4629 -0.5634
 5286SOL     OW27316   1.639   2.695  10.406  0.4715  0.3510  0.0355
 5286SOL    HW127317   1.599   2.735  10.483 -1.6481  1.6041 -1.7134
 5286SOL    HW227318   1.708   2.747  10.365  1.1862 -0.3659  0.3314
 5287SOL     OW27319   3.424   4.141   3.851 -0.8871  0.0552 -0.7231
 5287SOL    HW127320   3.433   4.107   3.940 -0.8824  1.8555 -0.0364
 5287SOL    HW227321   3.461   4.229   3.863 -2.3847  0.5099  0.6090
 5288SOL     OW27322   2.031   4.120   6.388  0.1698  0.7037  0.4424
 5288SOL    HW127323   2.092   4.173   6.337  1.2752  1.0787  2.1324
 5288SOL    HW227324   2.096   4.072   6.439  0.8558  1.5961  0.4076
 5289SOL     OW27325   3.283   1.842   7.592 -0.6635 -0.4345 -0.4309
 5289SOL    HW127326   3.301   1.827   7.685 -0.5861  2.1187 -0.0329
 5289SOL    HW227327   3.323   1.761   7.560 -1.5885 -2.0367  2.5093
 5290SOL     OW27328   2.132   3.650   6.092 -0.1364  0.0037  0.1714
 5290SOL    HW127329   2.154   3.732   6.137 -1.0601 -0.1742  0.9686
 5290SOL    HW227330   2.102   3.690   6.011 -2.2144 -0.8547  0.5174
 5291SOL     OW27331   0.419   0.511   8.894  0.0715  0.0526  0.0470
 5291SOL    HW127332   0.339   0.459   8.888  0.0156  0.3587 -1.7505
 5291SOL    HW227333   0.397   0.572   8.966 -2.1623 -0.4914 -0.1760
 5292SOL     OW27334   2.084   3.935   6.131 -0.0250 -0.1576  0.0689
 5292SOL    HW127335   2.163   3.934   6.076  0.1131 -1.3163  0.2864
 5292SOL    HW227336   2.018   3.963   6.068  0.6839  1.4491  0.0532
 5293SOL     OW27337   1.105   2.078   6.454  0.1057 -0.2245  0.0678
 5293SOL    HW127338   1.073   2.034   6.375  3.0791 -0.7341 -0.8544
 5293SOL    HW227339   1.116   2.170   6.429  0.7330 -0.1447  0.6368
 5294SOL     OW27340   0.976   1.934   1.287 -0.3149  0.6839  0.2584
 5294SOL    HW127341   1.000   2.020   1.323 -0.1412 -0.0188  1.8204
 5294SOL    HW227342   1.056   1.887   1.310 -2.7587 -3.2034  0.8470
 5295SOL     OW27343   3.307   4.640   7.712 -0.3880 -0.2357 -0.1961
 5295SOL    HW127344   3.378   4.695   7.745  0.5268 -0.2545 -2.1397
 5295SOL    HW227345   3.358   4.576   7.663 -1.4732  0.7757 -2.6526
 5296SOL     OW27346   3.735   4.681   7.092  0.1423  0.2841 -0.1006
 5296SOL    HW127347   3.768   4.715   7.175 -0.0051 -3.3581  1.4463
 5296SOL    HW227348   3.780   4.597   7.098 -0.2639 -0.0644 -1.8613
 5297SOL     OW27349   3.152   0.904   6.671  0.4715  0.4949  0.3634
 5297SOL    HW127350   3.175   0.895   6.764  0.9381  2.4470  0.4348
 5297SOL    HW227351   3.158   0.999   6.665  3.2964  0.2723 -0.3306
 5298SOL     OW27352   0.750   0.869  13.467 -0.4322 -0.0019  0.2500
 5298SOL    HW127353   0.660   0.885  13.437  0.0549  2.3142  0.0507
 5298SOL    HW227354   0.738   0.817  13.547 -1.9094  0.9322  0.6328
 5299SOL     OW27355   1.689   3.820  12.397  0.0343  0.1536  0.5346
 5299SOL    HW127356   1.620   3.753  12.402 -0.9942  0.9984 -2.1714
 5299SOL    HW227357   1.739   3.781  12.324 -3.5686  0.7217 -2.2645
 5300SOL     OW27358   3.577   3.364   1.037  0.0790 -0.0154 -0.0464
 5300SOL    HW127359   3.492   3.371   1.079 -1.8372  0.0122 -3.8695
 5300SOL    HW227360   3.551   3.339   0.948 -2.1758 -1.5028  1.0227
 5301SOL     OW27361   0.196   4.719   0.685  0.3211  0.6381 -0.3975
 5301SOL    HW127362   0.167   0.077   0.649 -0.0590 -0.0694 -1.7566
 5301SOL    HW227363   0.276   0.026   0.726 -0.3551  2.2623 -0.3992
 5302SOL     OW27364   2.249   0.763   5.369 -0.0153  0.2596  0.1638
 5302SOL    HW127365   2.318   0.713   5.325  0.5855  0.6263  0.6853
 5302SOL    HW227366   2.222   0.830   5.306 -0.7937  0.4180  0.6695
 5303SOL     OW27367   4.509   3.370   3.793  0.0109 -0.6676 -0.3447
 5303SOL    HW127368   4.537   3.456   3.763 -2.5740  1.0767  2.1815
 5303SOL    HW227369   4.481   3.320   3.717 -0.2923 -1.3962  0.2385
 5304SOL     OW27370   1.611   3.134   2.914 -0.1863  0.1449 -0.2385
 5304SOL    HW127371   1.656   3.052   2.938  0.5134  0.7188  0.4365
 5304SOL    HW227372   1.547   3.143   2.985 -0.1321  2.9233 -0.5448
 5305SOL     OW27373   2.895   2.689   6.469 -0.1090 -0.5797  0.2720
 5305SOL    HW127374   2.847   2.708   6.550  0.5405  1.0523  0.2720
 5305SOL    HW227375   2.980   2.677   6.512 -0.3054 -0.5643  0.6664
 5306SOL     OW27376   1.170   3.675   0.842 -0.0956  0.1586  0.1441
 5306SOL    HW127377   1.108   3.609   0.811  1.1196 -1.4341  1.1193
 5306SOL    HW227378   1.247   3.619   0.842 -0.9199 -1.0015 -1.7335
 5307SOL     OW27379   4.003   3.198   7.079  1.0218  0.3653 -0.3635
 5307SOL    HW127380   3.992   3.225   6.988  0.4119 -1.0431 -0.7047
 5307SOL    HW227381   4.025   3.277   7.129  2.1737  1.5516 -2.7379
 5308SOL     OW27382   4.402   0.593  12.030  0.2776  0.2460 -0.2706
 5308SOL    HW127383   4.406   0.598  12.125  0.3195  1.3574 -0.3338
 5308SOL    HW227384   4.404   0.498  12.017 -0.0951  0.2910 -0.6936
 5309SOL     OW27385   2.306   2.373   2.665  0.2889 -0.5778  0.1406
 5309SOL    HW127386   2.327   2.430   2.591  0.6960 -0.5484  0.2798
 5309SOL    HW227387   2.370   2.401   2.730  0.1142  1.6295 -0.6179
 5310SOL     OW27388   2.925   0.740   5.855 -0.2321  0.5271  0.0515
 5310SOL    HW127389   2.854   0.800   5.876 -0.9432  0.5744 -2.4113
 5310SOL    HW227390   3.006   0.789   5.869 -1.1121  2.4253 -1.5462
 5311SOL     OW27391   3.840   2.510  16.284  1.1057  0.2876 -0.2948
 5311SOL    HW127392   3.753   2.494  16.246  0.6629 -1.8128  1.5845
 5311SOL    HW227393   3.892   2.516  16.204  1.8835  2.7136  0.3866
 5312SOL     OW27394   3.513   2.547   2.500  0.1087 -0.1954  0.3549
 5312SOL    HW127395   3.492   2.626   2.450 -1.9367 -1.7516 -1.2252
 5312SOL    HW227396   3.439   2.521   2.555  0.0225  1.8806  1.2563
 5313SOL     OW27397   0.574   2.497  13.286  0.2005 -0.0585 -0.5098
 5313SOL    HW127398   0.610   2.410  13.269  2.6191  1.1197 -1.5012
 5313SOL    HW227399   0.607   2.546  13.210 -1.9376  0.7790 -0.9235
 5314SOL     OW27400   3.280   1.949   5.600 -0.2749  0.2409  0.3950
 5314SOL    HW127401   3.201   1.918   5.555 -1.1860 -1.9386  3.4492
 5314SOL    HW227402   3.328   1.866   5.594 -0.6863 -0.0414  0.9280
 5315SOL     OW27403   4.670   4.378   7.085 -0.4349  0.1537 -0.1566
 5315SOL    HW127404   4.681   4.442   7.156 -0.2603 -1.3288  1.1411
 5315SOL    HW227405   0.006   4.309   7.107  0.0504  1.4785  2.7209
 5316SOL     OW27406   1.283   0.889   7.615 -0.1339 -0.5453  0.0234
 5316SOL    HW127407   1.188   0.892   7.619 -0.1465  0.4663 -1.0726
 5316SOL    HW227408   1.301   0.883   7.709 -0.0686  0.9547  0.1106
 5317SOL     OW27409   1.673   0.451   5.748 -0.0476 -0.2939 -0.3359
 5317SOL    HW127410   1.644   0.406   5.669  0.8461 -0.8033 -0.3624
 5317SOL    HW227411   1.725   0.381   5.787  0.0147 -0.2996 -0.4302
 5318SOL     OW27412   4.552   2.867   4.321 -0.1785 -0.2708  0.1547
 5318SOL    HW127413   4.527   2.877   4.230 -1.1623  1.1607  0.5805
 5318SOL    HW227414   4.468   2.878   4.366 -0.6909  2.1032 -1.4033
 5319SOL     OW27415   0.145   0.541   3.592 -0.2612 -0.0680 -0.5905
 5319SOL    HW127416   0.152   0.624   3.544 -0.3088 -0.2498 -0.9110
 5319SOL    HW227417   0.189   0.483   3.530  0.1259 -1.4723  1.0142
 5320SOL     OW27418   3.693   1.381   7.806 -0.6127  0.0821  0.4821
 5320SOL    HW127419   3.601   1.355   7.805 -0.4480 -0.4945 -0.6513
 5320SOL    HW227420   3.715   1.308   7.863 -1.3966 -0.2112  0.4117
 5321SOL     OW27421   0.207   2.734   6.817 -0.2102 -0.0706 -0.2511
 5321SOL    HW127422   0.259   2.687   6.882 -0.8403  0.2492  0.4795
 5321SOL    HW227423   0.128   2.743   6.870  0.9629 -2.5823  1.9339
 5322SOL     OW27424   1.981   2.415  14.674  0.0800 -0.8338  0.4183
 5322SOL    HW127425   2.024   2.431  14.758 -2.0222 -2.5346  1.8260
 5322SOL    HW227426   1.944   2.502  14.657 -0.1101 -1.1475 -0.7374
 5323SOL     OW27427   2.121   1.177   7.460 -0.1194 -0.3767  0.3075
 5323SOL    HW127428   2.182   1.206   7.528 -1.7219  1.7638  0.8099
 5323SOL    HW227429   2.087   1.097   7.500 -0.4243 -1.2017 -1.5678
 5324SOL     OW27430   3.673   2.211   2.948 -0.4752 -0.1432  0.5599
 5324SOL    HW127431   3.691   2.277   2.881 -1.8146 -0.3171  0.0141
 5324SOL    HW227432   3.710   2.136   2.902 -0.1851  0.8344 -0.8101
 5325SOL     OW27433   4.005   1.148   3.857 -0.4783 -0.1975  0.2068
 5325SOL    HW127434   3.963   1.155   3.771 -0.8778  1.3971  0.5279
 5325SOL    HW227435   4.040   1.059   3.851  2.7411  1.2246 -2.6368
 5326SOL     OW27436   1.690   3.980   0.711  0.0758  0.3124 -0.4642
 5326SOL    HW127437   1.662   3.927   0.785  1.0936 -1.1853 -1.1384
 5326SOL    HW227438   1.774   4.009   0.747  0.5690  0.0878 -1.4274
 5327SOL     OW27439   2.053   1.808  14.568 -0.0630  0.9861 -0.2234
 5327SOL    HW127440   1.967   1.849  14.555 -0.7912 -0.0283  1.4174
 5327SOL    HW227441   2.025   1.721  14.538 -1.9835  1.5945 -0.1653
 5328SOL     OW27442   3.668   1.326   6.655 -0.0330  0.3262 -0.2709
 5328SOL    HW127443   3.759   1.355   6.661  0.1121  0.2118 -1.8027
 5328SOL    HW227444   3.682   1.232   6.643 -1.5190  0.1239 -0.3662
 5329SOL     OW27445   0.385   4.259  12.798  0.2300  0.5853 -0.3837
 5329SOL    HW127446   0.457   4.212  12.755 -1.8840 -1.8531 -1.2496
 5329SOL    HW227447   0.417   4.264  12.888  0.0505 -0.7009 -0.2408
 5330SOL     OW27448   2.676   3.514   0.535 -0.4060  0.3526  0.2189
 5330SOL    HW127449   2.606   3.517   0.599  0.2353  1.2328  0.8603
 5330SOL    HW227450   2.730   3.589   0.559 -0.6567  0.6390 -0.1116
 5331SOL     OW27451   1.034   3.334   2.452  0.0883 -0.2959 -0.0119
 5331SOL    HW127452   1.010   3.295   2.368  0.7533 -2.3675  0.7659
 5331SOL    HW227453   1.036   3.424   2.420 -0.8325 -0.5804 -0.8473
 5332SOL     OW27454   0.444   0.152   3.327  0.3260 -0.7437  0.3964
 5332SOL    HW127455   0.535   0.180   3.339  0.4356 -1.6605  1.6948
 5332SOL    HW227456   0.426   0.196   3.244  0.8227 -0.0116  0.6780
 5333SOL     OW27457   2.625   1.671  14.368  0.3580  0.2982  0.0411
 5333SOL    HW127458   2.585   1.592  14.331  1.5545 -0.6239  0.7284
 5333SOL    HW227459   2.719   1.657  14.360  0.5673  1.0877  1.2326
 5334SOL     OW27460   2.241   4.558  12.029 -0.4615 -0.1538  0.2438
 5334SOL    HW127461   2.280   4.473  12.011  0.3344  0.3083 -0.2242
 5334SOL    HW227462   2.319   4.610  12.007  0.1822 -2.7588 -3.6121
 5335SOL     OW27463   1.002   2.929   2.715 -0.2364 -0.7594 -0.8277
 5335SOL    HW127464   0.963   2.934   2.803  0.1252 -1.4192 -0.6249
 5335SOL    HW227465   0.932   2.974   2.669  0.5556  0.0016 -1.2887
 5336SOL     OW27466   0.116   3.758   5.686 -0.1099  0.0198 -0.3520
 5336SOL    HW127467   0.163   3.787   5.608 -0.6684  2.0228  0.0556
 5336SOL    HW227468   0.169   3.799   5.754  5.4376 -0.7622 -4.1991
 5337SOL     OW27469   4.619   3.299   9.649  0.3392 -0.1839 -0.6000
 5337SOL    HW127470   4.583   3.211   9.649  0.0880 -0.0642  1.9326
 5337SOL    HW227471   4.710   3.281   9.626 -0.2763 -1.6455 -1.9050
 5338SOL     OW27472   0.101   4.662   8.681  0.5660  0.3358  0.3003
 5338SOL    HW127473   0.026   4.700   8.634 -1.1822 -0.6787  2.2674
 5338SOL    HW227474   0.062   4.582   8.716  0.0307  0.5692  0.2492
 5339SOL     OW27475   2.989   3.945   5.534 -0.2835 -0.1298  0.2695
 5339SOL    HW127476   2.897   3.941   5.560 -0.3514 -3.1203 -0.4867
 5339SOL    HW227477   3.026   3.879   5.591 -0.8233  0.1337  0.9204
 5340SOL     OW27478   4.713   2.112   8.423 -0.3592  0.5060 -0.1369
 5340SOL    HW127479   0.048   2.090   8.353  0.9531 -1.1553  1.5082
 5340SOL    HW227480   0.014   2.193   8.467  0.9497  0.0627 -0.1410
 5341SOL     OW27481   3.351   4.290   9.714  0.1114 -0.5381 -0.1568
 5341SOL    HW127482   3.432   4.333   9.739 -0.3231  0.7372 -0.9242
 5341SOL    HW227483   3.312   4.369   9.676 -1.5570 -1.3388 -0.0891
 5342SOL     OW27484   1.626   3.959   6.684 -0.4948  0.4049 -0.3188
 5342SOL    HW127485   1.617   3.971   6.589  0.1720 -0.9275 -0.5486
 5342SOL    HW227486   1.644   4.050   6.707  1.9771 -0.4599  1.1100
 5343SOL     OW27487   3.924   4.068   2.863 -0.3573  0.1036 -0.2459
 5343SOL    HW127488   3.877   4.145   2.898  1.1266  0.3775  1.1443
 5343SOL    HW227489   3.938   4.108   2.777 -2.2625  1.6223  0.1312
 5344SOL     OW27490   3.416   3.670   6.731  0.1681  0.0320  0.3268
 5344SOL    HW127491   3.371   3.723   6.796 -1.1690 -0.9553  0.2098
 5344SOL    HW227492   3.491   3.727   6.715  0.9711 -1.0813  0.0760
 5345SOL     OW27493   2.294   3.196   8.673 -0.1031 -0.4104 -0.1797
 5345SOL    HW127494   2.267   3.152   8.754 -1.9335  2.3358  0.6940
 5345SOL    HW227495   2.379   3.228   8.704 -0.1665 -1.3502  0.9722
 5346SOL     OW27496   1.673   0.596  14.245  0.1385 -0.4250 -0.1245
 5346SOL    HW127497   1.743   0.659  14.231  1.0169 -1.0799  1.2418
 5346SOL    HW227498   1.600   0.648  14.213  0.6977  1.9407  2.4166
 5347SOL     OW27499   2.296   1.715  16.929  0.0002  0.3839 -0.2208
 5347SOL    HW127500   2.268   1.748  17.015  0.4689 -1.1735  0.5368
 5347SOL    HW227501   2.345   1.642  16.966 -1.3837 -0.3417  0.1971
 5348SOL     OW27502   4.156   0.150   2.425  0.1661 -1.3966  0.1461
 5348SOL    HW127503   4.181   0.137   2.517  2.6203  0.7872 -0.2275
 5348SOL    HW227504   4.060   0.148   2.434  0.0724 -1.0445 -0.7995
 5349SOL     OW27505   1.305   4.632   2.719  0.0472  0.0756 -0.0835
 5349SOL    HW127506   1.216   4.634   2.684  0.5861  2.9064 -1.2087
 5349SOL    HW227507   1.339   4.716   2.689 -0.0096  0.4775  0.9603
 5350SOL     OW27508   0.836   3.159  12.605 -0.4188 -0.2724 -0.8244
 5350SOL    HW127509   0.875   3.072  12.610  1.3657  0.5346 -0.4098
 5350SOL    HW227510   0.879   3.187  12.524 -2.1052  0.5637 -1.4318
 5351SOL     OW27511   3.050   1.190   9.078 -0.0344 -0.1666 -0.0332
 5351SOL    HW127512   2.976   1.251   9.075 -0.1120 -0.2827 -0.5062
 5351SOL    HW227513   3.017   1.101   9.089 -0.8205  0.1072 -0.1882
 5352SOL     OW27514   1.566   1.494  14.999  0.0989  0.2279  0.3317
 5352SOL    HW127515   1.585   1.515  14.908  0.7826 -1.9287 -0.0290
 5352SOL    HW227516   1.529   1.405  15.002  2.6054 -0.8741 -2.1569
 5353SOL     OW27517   2.609   2.696   3.139  0.1346 -0.4478  0.8370
 5353SOL    HW127518   2.591   2.788   3.157  0.4034 -0.0990 -0.6692
 5353SOL    HW227519   2.674   2.664   3.202 -0.4429 -2.3053  0.4746
 5354SOL     OW27520   1.320   3.655   8.493 -0.2551 -0.3552 -0.4040
 5354SOL    HW127521   1.232   3.624   8.471  0.1258 -2.0239  0.4761
 5354SOL    HW227522   1.375   3.579   8.474 -1.1465 -1.5191  1.6116
 5355SOL     OW27523   0.586   4.367   7.740 -0.7830 -0.6407 -0.0368
 5355SOL    HW127524   0.536   4.396   7.817 -0.1360  2.5117 -0.8189
 5355SOL    HW227525   0.538   4.414   7.671 -0.5448  0.2322  0.4031
 5356SOL     OW27526   2.844   1.545   8.489  0.5940 -0.1110 -0.2497
 5356SOL    HW127527   2.831   1.485   8.416 -1.4475  0.0497 -0.0234
 5356SOL    HW227528   2.791   1.621   8.465  0.5095 -0.2890 -0.6284
 5357SOL     OW27529   3.357   2.139  12.123 -0.0278 -0.1448  0.2005
 5357SOL    HW127530   3.405   2.218  12.097 -0.9770  0.6641  0.9318
 5357SOL    HW227531   3.428   2.103  12.177  1.1968 -0.2905 -1.5091
 5358SOL     OW27532   0.183   4.366   8.085 -0.2312 -0.0902 -0.7571
 5358SOL    HW127533   0.267   4.328   8.108  0.3273  0.9299 -1.1268
 5358SOL    HW227534   0.156   4.302   8.018 -1.3094 -1.3564  0.8808
 5359SOL     OW27535   0.002   4.581   4.333  0.5425 -0.3673 -0.6110
 5359SOL    HW127536   4.665   4.641   4.294  1.1119 -0.2238 -1.3285
 5359SOL    HW227537   0.078   4.640   4.327  0.2981 -0.1635 -1.8426
 5360SOL     OW27538   4.412   2.815   6.215  0.2948  0.0879 -0.5712
 5360SOL    HW127539   4.322   2.815   6.183  0.2013 -2.4505 -0.3061
 5360SOL    HW227540   4.419   2.893   6.270 -0.1395 -0.0139 -0.3765
 5361SOL     OW27541   0.648   2.984  13.442 -0.3764 -0.0399  0.3599
 5361SOL    HW127542   0.725   2.944  13.402  0.9204  2.0024  0.7793
 5361SOL    HW227543   0.686   3.070  13.460 -0.4706 -0.0325  0.5174
 5362SOL     OW27544   1.310   0.476   7.195  0.5407  0.5924  0.4811
 5362SOL    HW127545   1.403   0.463   7.210  0.5774 -0.3699 -0.5872
 5362SOL    HW227546   1.281   0.427   7.272 -1.5307 -0.0423 -0.6851
 5363SOL     OW27547   0.324   0.845   7.455 -0.2966 -0.6752  0.1322
 5363SOL    HW127548   0.406   0.815   7.494 -0.3118 -2.8888 -1.5718
 5363SOL    HW227549   0.355   0.897   7.380  2.9208  1.5240  2.9350
 5364SOL     OW27550   1.351   2.672  16.616  0.2128 -0.4307  0.2192
 5364SOL    HW127551   1.411   2.734  16.576 -1.2790 -0.1061 -1.5454
 5364SOL    HW227552   1.395   2.659  16.699 -1.0768  0.5614  1.0671
 5365SOL     OW27553   0.677   3.237   3.735  0.0707 -0.1278 -0.3568
 5365SOL    HW127554   0.647   3.147   3.752  0.3761  0.1071  1.4825
 5365SOL    HW227555   0.703   3.267   3.822  0.6704  0.2850 -0.6799
 5366SOL     OW27556   3.071   1.900   6.652  0.0863  0.3212 -0.4721
 5366SOL    HW127557   3.131   1.865   6.718  0.0927  0.7236 -0.2692
 5366SOL    HW227558   3.029   1.821   6.617 -1.0740  0.1539  1.3220
 5367SOL     OW27559   0.017   3.431  11.708  0.4948  0.4030  0.3161
 5367SOL    HW127560   4.714   3.365  11.771  2.5830 -0.2468  0.6297
 5367SOL    HW227561   4.676   3.411  11.644 -0.7580 -2.1279  2.3726
 5368SOL     OW27562   1.297   0.426   8.147 -0.4575  0.2826  0.1620
 5368SOL    HW127563   1.311   0.480   8.069 -0.8317  0.7921  0.4466
 5368SOL    HW227564   1.249   0.490   8.200  0.5269  2.7074 -1.9007
 5369SOL     OW27565   4.452   4.543   7.579  0.0068 -0.3257  0.6095
 5369SOL    HW127566   4.434   4.622   7.629 -0.6268  1.0296 -1.7912
 5369SOL    HW227567   4.526   4.511   7.632 -0.5955 -1.2099  0.9145
 5370SOL     OW27568   4.530   2.573   0.440 -0.6041 -0.1539 -0.2889
 5370SOL    HW127569   4.611   2.588   0.393  0.0075 -1.4849  0.3302
 5370SOL    HW227570   4.503   2.493   0.395  0.5883 -0.5648 -0.2739
 5371SOL     OW27571   0.044   1.417   8.737  0.5482 -0.1079 -0.5372
 5371SOL    HW127572   0.030   1.509   8.715  2.8885  0.4862  0.4951
 5371SOL    HW227573   4.681   1.385   8.741  1.6893 -3.4404 -2.0390
 5372SOL     OW27574   2.211   3.341   4.373  0.1553  0.6101  0.1105
 5372SOL    HW127575   2.214   3.429   4.411  2.4308  0.7803 -0.4595
 5372SOL    HW227576   2.192   3.291   4.452 -1.4172  0.7711 -0.1648
 5373SOL     OW27577   1.215   2.496  17.409 -0.2057  0.0595 -0.0818
 5373SOL    HW127578   1.151   2.496  17.480 -1.2151 -0.5235 -1.0012
 5373SOL    HW227579   1.173   2.425  17.361 -1.2240 -0.4704  1.5822
 5374SOL     OW27580   1.928   4.343   5.517  0.4385  0.2977 -0.1884
 5374SOL    HW127581   1.885   4.349   5.432 -0.7520  0.3844  0.4283
 5374SOL    HW227582   1.885   4.416   5.562 -1.8307 -1.3457  0.3128
 5375SOL     OW27583   2.949   1.315   8.308  0.0419 -0.3078 -0.1324
 5375SOL    HW127584   3.003   1.336   8.384 -2.0375  1.2234  0.9094
 5375SOL    HW227585   2.981   1.231   8.275 -0.4868 -0.0650 -1.2672
 5376SOL     OW27586   0.241   0.563   9.814  0.4258  0.6797 -0.8297
 5376SOL    HW127587   0.200   0.639   9.854 -1.1620 -0.5319 -0.1467
 5376SOL    HW227588   0.164   0.507   9.827 -0.0364  1.2945 -0.9157
 5377SOL     OW27589   2.170   1.117   5.861 -0.3678  0.0657 -0.3791
 5377SOL    HW127590   2.172   1.128   5.956 -2.6381  0.6883 -0.3994
 5377SOL    HW227591   2.201   1.026   5.863  0.9059  0.4691 -1.7826
 5378SOL     OW27592   4.550   4.394   3.244  0.5315  0.5500  0.8930
 5378SOL    HW127593   4.564   4.375   3.337 -0.5989  2.0775  1.3648
 5378SOL    HW227594   4.626   4.451   3.230 -0.2751  1.4253  0.1091
 5379SOL     OW27595   1.932   3.517  14.894 -0.2106  0.4197  0.3686
 5379SOL    HW127596   1.957   3.588  14.953 -0.8900 -0.0213  1.1884
 5379SOL    HW227597   2.012   3.500  14.844  0.7347  0.7866  1.7790
 5380SOL     OW27598   3.868   4.245   6.662  0.3039  0.2471 -0.4392
 5380SOL    HW127599   3.917   4.325   6.681  1.4978 -0.4759 -0.4409
 5380SOL    HW227600   3.845   4.256   6.570  0.9096  0.3621 -0.5803
 5381SOL     OW27601   4.028   1.798   4.781  0.0330 -0.0811  0.2077
 5381SOL    HW127602   4.086   1.734   4.740 -0.1988 -0.8719  1.1130
 5381SOL    HW227603   4.093   1.862   4.809 -0.8999  1.0863 -0.3126
 5382SOL     OW27604   1.740   2.323   3.378  0.0442 -0.1022 -0.1509
 5382SOL    HW127605   1.831   2.310   3.351 -0.2330  0.6863 -1.5020
 5382SOL    HW227606   1.727   2.233   3.408  0.5313 -0.1413 -0.0493
 5383SOL     OW27607   2.402   1.845   4.998 -0.5269  0.3544 -0.1960
 5383SOL    HW127608   2.465   1.915   4.984  0.0395 -0.4359 -1.6023
 5383SOL    HW227609   2.455   1.786   5.051 -2.7134 -0.3204  1.2641
 5384SOL     OW27610   4.510   2.085   4.911  0.1982  0.2406  0.6722
 5384SOL    HW127611   4.532   2.032   4.834 -0.8310  0.5737  0.1325
 5384SOL    HW227612   4.567   2.045   4.977  0.4664 -1.1913 -0.4181
 5385SOL     OW27613   0.195   4.544   6.789 -0.1659  0.5379 -0.2181
 5385SOL    HW127614   0.102   4.559   6.808 -0.5184 -0.7181 -1.0222
 5385SOL    HW227615   0.245   4.607   6.841 -0.3902  0.7522 -0.2623
 5386SOL     OW27616   1.098   3.117   0.545  0.7560  0.2735  0.2391
 5386SOL    HW127617   1.049   3.035   0.554  0.4608  0.3282 -0.8697
 5386SOL    HW227618   1.123   3.137   0.635  1.7675 -2.0579  0.4623
 5387SOL     OW27619   1.143   0.415   7.848  0.2738 -0.2525 -0.2204
 5387SOL    HW127620   1.084   0.457   7.786 -0.2439 -0.1343  0.3508
 5387SOL    HW227621   1.190   0.492   7.878  1.6563 -2.0277  2.1895
 5388SOL     OW27622   0.891   2.969   1.056 -0.0380  0.3819 -0.4661
 5388SOL    HW127623   0.978   2.930   1.072  0.7242  2.7754  1.1826
 5388SOL    HW227624   0.909   3.063   1.057 -0.4059  0.4479 -0.3572
 5389SOL     OW27625   2.969   3.815   8.199  0.1257 -0.1416 -0.0827
 5389SOL    HW127626   3.062   3.800   8.213  0.4702  2.0828  0.0994
 5389SOL    HW227627   2.946   3.722   8.200 -1.2159  0.1881 -0.2448
 5390SOL     OW27628   1.328   0.073   1.151  0.1157 -0.6067  0.1213
 5390SOL    HW127629   1.237   0.086   1.123  0.1895 -1.3371 -0.4726
 5390SOL    HW227630   1.336   0.153   1.202  3.2628 -0.2139 -0.9913
 5391SOL     OW27631   0.507   3.078  14.982  0.8659 -0.2132  0.0789
 5391SOL    HW127632   0.582   3.067  15.040  1.3919  1.8769 -0.2064
 5391SOL    HW227633   0.536   3.164  14.953 -1.1716  0.4416 -0.0429
 5392SOL     OW27634   2.128   3.888  10.783 -0.6495 -0.5112 -0.4421
 5392SOL    HW127635   2.084   3.959  10.831 -0.5019 -1.9225  1.7983
 5392SOL    HW227636   2.107   3.911  10.693  1.0170  1.0011 -0.4483
 5393SOL     OW27637   2.301   0.711  16.085  0.7706  0.5159  0.4171
 5393SOL    HW127638   2.286   0.729  15.993 -1.5587 -1.1692  0.4657
 5393SOL    HW227639   2.232   0.645  16.088  1.8362 -0.6248 -0.1765
 5394SOL     OW27640   1.213   3.481   4.116  0.0447  0.1026 -0.1310
 5394SOL    HW127641   1.200   3.422   4.041 -0.4598 -0.4376  0.3804
 5394SOL    HW227642   1.165   3.435   4.185  0.3070  2.7824  1.8285
 5395SOL     OW27643   3.157   3.511   3.216 -0.8945 -0.5052  0.4714
 5395SOL    HW127644   3.167   3.579   3.283  1.6746 -1.1092  0.6872
 5395SOL    HW227645   3.066   3.532   3.194 -1.6089 -1.0483  2.8890
 5396SOL     OW27646   1.164   1.946   5.011 -0.1497  0.1039  0.2881
 5396SOL    HW127647   1.143   1.907   4.926 -0.2452  1.2134 -0.2068
 5396SOL    HW227648   1.099   1.905   5.069 -1.1479  0.2252 -0.7281
 5397SOL     OW27649   0.919   4.387   2.665  0.2976  0.2508  0.2731
 5397SOL    HW127650   0.835   4.422   2.695  0.2722  0.2050  0.2566
 5397SOL    HW227651   0.901   4.293   2.670 -0.2772  0.3211 -0.3549
 5398SOL     OW27652   1.927   1.015  16.736  0.0684 -0.1595 -0.2658
 5398SOL    HW127653   1.872   1.067  16.794  0.0281  1.1668 -1.4864
 5398SOL    HW227654   1.868   0.945  16.708  0.1946 -0.2555 -0.2891
 5399SOL     OW27655   4.259   1.642   5.832 -0.4195 -0.3791 -0.3042
 5399SOL    HW127656   4.265   1.647   5.736 -0.3038  3.0050 -0.1285
 5399SOL    HW227657   4.169   1.671   5.842  0.0409  1.2117 -0.8044
 5400SOL     OW27658   2.013   2.536  13.235  0.2465  0.1592  0.3886
 5400SOL    HW127659   2.078   2.577  13.292  0.6591 -0.0925  0.0994
 5400SOL    HW227660   1.939   2.526  13.296 -0.0173 -0.2442 -0.0004
 5401SOL     OW27661   1.452   4.399   9.051 -0.0212  0.0161 -0.3049
 5401SOL    HW127662   1.475   4.340   8.979 -0.5819  0.7455 -1.0681
 5401SOL    HW227663   1.484   4.344   9.123  1.5406  1.5703  0.1890
 5402SOL     OW27664   0.521   3.117  10.397 -0.1147 -0.0173  0.3265
 5402SOL    HW127665   0.512   3.157  10.483  0.3695  1.5389 -0.3597
 5402SOL    HW227666   0.578   3.042  10.416 -1.9874 -1.8203 -1.0352
 5403SOL     OW27667   4.690   3.649   5.423  0.5099 -0.7179 -0.3011
 5403SOL    HW127668   0.034   3.710   5.405  0.7611 -0.6589  0.8522
 5403SOL    HW227669   4.699   3.638   5.518 -1.1386  2.3386  0.2036
 5404SOL     OW27670   2.916   3.081   3.793 -0.3521 -0.5217 -0.0093
 5404SOL    HW127671   2.867   3.161   3.814  0.1126 -0.7892  2.1459
 5404SOL    HW227672   2.869   3.058   3.713 -1.3405  0.7003  0.2194
 5405SOL     OW27673   0.875   2.602   4.047  0.0463  0.0300  0.8536
 5405SOL    HW127674   0.853   2.610   4.140 -1.3975  1.0640  0.4350
 5405SOL    HW227675   0.793   2.637   4.012 -0.0356 -0.3172  0.6982
 5406SOL     OW27676   3.956   0.527  10.659  0.2693 -0.3024 -0.1610
 5406SOL    HW127677   3.932   0.497  10.747 -0.4907  0.2941 -0.1682
 5406SOL    HW227678   3.960   0.622  10.671  0.0285 -0.3675  0.4265
 5407SOL     OW27679   4.474   2.755  14.985 -0.1894 -0.2874 -0.1249
 5407SOL    HW127680   4.519   2.670  14.989 -0.7782 -0.5473  0.9085
 5407SOL    HW227681   4.468   2.761  14.890 -1.8961  2.3829  0.1669
 5408SOL     OW27682   1.964   3.931   6.874  0.0094 -0.2794 -0.0749
 5408SOL    HW127683   1.931   3.888   6.953  1.5372 -0.9859  0.1614
 5408SOL    HW227684   1.943   4.023   6.893  2.1114  0.0087  0.7984
 5409SOL     OW27685   2.481   0.612   4.808  0.2250  0.3779 -0.5187
 5409SOL    HW127686   2.418   0.683   4.820  1.4912  1.5057 -0.5414
 5409SOL    HW227687   2.476   0.593   4.714  1.1028 -1.2990 -0.2315
 5410SOL     OW27688   3.221   0.070  13.154 -0.0590  0.0393  0.1540
 5410SOL    HW127689   3.125   0.066  13.145  0.0466 -1.8740 -0.1863
 5410SOL    HW227690   3.241   0.142  13.094 -0.2517  0.3900  0.5158
 5411SOL     OW27691   3.861   3.245  13.736  0.3466  0.1251  0.6689
 5411SOL    HW127692   3.912   3.270  13.813 -0.1005  0.5028  0.8425
 5411SOL    HW227693   3.846   3.331  13.696 -0.9453 -0.5233 -0.2415
 5412SOL     OW27694   1.998   3.663   2.543 -0.0285 -0.3230 -0.6290
 5412SOL    HW127695   2.015   3.753   2.516 -2.5855  0.3543 -0.0171
 5412SOL    HW227696   1.947   3.675   2.623 -1.1548  1.1164 -1.5657
 5413SOL     OW27697   0.429   3.418  12.867 -0.1545  0.8103 -0.1857
 5413SOL    HW127698   0.498   3.355  12.890  0.8333  0.7946 -3.1383
 5413SOL    HW227699   0.481   3.481  12.817  3.0516  0.0463  2.1204
 5414SOL     OW27700   0.253   3.507  10.643 -0.0924 -0.1838  0.1982
 5414SOL    HW127701   0.186   3.575  10.647  0.4081  0.3401 -0.3434
 5414SOL    HW227702   0.322   3.567  10.673 -0.2274 -0.9736  2.0770
 5415SOL     OW27703   2.408   0.798   1.174 -0.4215 -0.0044  0.0891
 5415SOL    HW127704   2.492   0.779   1.130 -0.1913 -0.7611  0.8702
 5415SOL    HW227705   2.432   0.862   1.241 -1.2371  0.0784  0.3028
 5416SOL     OW27706   3.778   3.617   8.423 -0.4668  0.0053  0.2498
 5416SOL    HW127707   3.806   3.639   8.334 -1.2055  0.0287  0.0215
 5416SOL    HW227708   3.819   3.691   8.468 -1.0525  1.4339 -1.5582
 5417SOL     OW27709   0.867   3.047   1.426  0.4963 -0.1808  0.1799
 5417SOL    HW127710   0.800   2.987   1.393  1.0367 -0.9333  0.4790
 5417SOL    HW227711   0.881   3.018   1.516 -0.1995  0.5453  0.5270
 5418SOL     OW27712   2.778   3.623   1.120 -0.6262  0.5069  0.6099
 5418SOL    HW127713   2.754   3.666   1.202 -0.6966  0.8302  0.4194
 5418SOL    HW227714   2.756   3.532   1.141 -0.9346  0.3055 -0.5880
 5419SOL     OW27715   3.751   1.030   2.207  0.6494  0.3683  0.2397
 5419SOL    HW127716   3.763   0.944   2.245  0.9111  1.4400  2.5688
 5419SOL    HW227717   3.665   1.055   2.241  0.2098 -1.2067  0.2474
 5420SOL     OW27718   1.242   1.284  10.451  0.0219 -0.0077 -0.4123
 5420SOL    HW127719   1.162   1.324  10.415  0.1560  2.8422  2.4705
 5420SOL    HW227720   1.211   1.200  10.484  2.3941 -1.1659 -1.1524
 5421SOL     OW27721   4.052   0.329   0.726 -0.1441 -0.1828  0.4119
 5421SOL    HW127722   4.063   0.289   0.640  3.3348 -0.3419  0.9660
 5421SOL    HW227723   4.131   0.382   0.736  1.1400 -2.2851  1.3426
 5422SOL     OW27724   2.520   1.955   1.989  0.4996  0.5310  0.3379
 5422SOL    HW127725   2.559   1.928   2.072 -0.7447  0.8684  1.0290
 5422SOL    HW227726   2.576   1.903   1.932 -1.4022  0.7825 -1.7657
 5423SOL     OW27727   4.586   0.135   5.434 -0.5314 -1.1947 -0.1387
 5423SOL    HW127728   4.573   0.127   5.529 -1.0174  1.9339  0.0562
 5423SOL    HW227729   4.681   0.131   5.427 -0.2883  0.0225  2.2017
 5424SOL     OW27730   3.892   4.020   4.070 -0.0960 -0.4225 -0.2174
 5424SOL    HW127731   3.802   3.993   4.051 -0.6669  1.7857 -0.7202
 5424SOL    HW227732   3.909   4.095   4.013  0.8008 -0.9398 -0.6247
 5425SOL     OW27733   2.508   3.898   9.151  0.0086  0.1566 -0.1682
 5425SOL    HW127734   2.479   3.989   9.143 -0.7435 -0.3469 -3.1192
 5425SOL    HW227735   2.581   3.910   9.212  0.0311  2.4494 -0.6395
 5426SOL     OW27736   2.967   4.290   3.135  0.0499  0.2549  0.4791
 5426SOL    HW127737   2.979   4.264   3.226 -2.3717 -4.5853 -0.5651
 5426SOL    HW227738   2.873   4.302   3.135  0.1110  0.7478  1.4766
 5427SOL     OW27739   3.360   2.221   7.340 -0.2350 -0.2110  0.3606
 5427SOL    HW127740   3.372   2.312   7.313 -2.7036  0.4847  1.6145
 5427SOL    HW227741   3.282   2.223   7.394  0.1510 -3.2220  1.0302
 5428SOL     OW27742   2.266   3.046   8.456 -0.0233 -0.3880 -0.1121
 5428SOL    HW127743   2.311   3.096   8.523 -2.2223  1.4400  0.0076
 5428SOL    HW227744   2.185   3.025   8.503 -0.3328  1.3419  0.0971
 5429SOL     OW27745   1.911   4.551   6.600 -0.3113 -0.0128 -0.2231
 5429SOL    HW127746   1.819   4.556   6.576 -0.2858  0.7280 -0.1853
 5429SOL    HW227747   1.935   4.484   6.536  0.4373 -0.2749  0.3273
 5430SOL     OW27748   1.240   3.295   0.720  0.1821  0.3434 -0.2132
 5430SOL    HW127749   1.248   3.294   0.625 -1.0071 -0.4714 -0.3155
 5430SOL    HW227750   1.165   3.351   0.740  1.9314  2.0067  1.4962
 5431SOL     OW27751   3.414   0.728   7.892  0.3233 -0.0479 -0.7148
 5431SOL    HW127752   3.360   0.657   7.856  0.1081  0.1145 -0.7116
 5431SOL    HW227753   3.381   0.807   7.849 -2.4520 -1.3478 -0.9285
 5432SOL     OW27754   4.133   0.494   2.160  0.0341  0.0198 -0.5409
 5432SOL    HW127755   4.079   0.462   2.232 -1.7080  1.4373 -1.2075
 5432SOL    HW227756   4.077   0.478   2.084  0.6266 -2.5173 -0.4207
 5433SOL     OW27757   0.398   1.063   3.718 -0.4941 -0.7846  0.4031
 5433SOL    HW127758   0.488   1.072   3.750 -1.2103  2.9656  1.2740
 5433SOL    HW227759   0.383   1.129   3.651 -1.0686 -0.1540  1.1504
 5434SOL     OW27760   2.874   3.758   7.641 -0.3739  0.3142 -0.0472
 5434SOL    HW127761   2.950   3.777   7.696  0.8809  1.4885 -2.1941
 5434SOL    HW227762   2.835   3.688   7.693  0.0862 -0.0648 -0.2227
 5435SOL     OW27763   2.853   2.025   5.576 -0.2998 -0.2062 -0.0091
 5435SOL    HW127764   2.800   2.092   5.534  1.2288 -0.0176 -1.6155
 5435SOL    HW227765   2.794   1.950   5.582 -2.2102  1.3803  1.0067
 5436SOL     OW27766   2.872   1.688   4.502 -0.5212  0.1806  0.1037
 5436SOL    HW127767   2.901   1.737   4.425  1.0854 -1.0417 -0.0627
 5436SOL    HW227768   2.837   1.761   4.553  1.1135 -0.7815  2.5601
 5437SOL     OW27769   3.301   4.623   8.551  0.1445 -0.5653  0.2137
 5437SOL    HW127770   3.245   4.573   8.610 -0.6113 -0.2426 -0.2267
 5437SOL    HW227771   3.276   4.713   8.574 -0.8537 -0.5035 -1.0915
 5438SOL     OW27772   0.764   3.681   9.347 -0.2400  0.2567  0.0836
 5438SOL    HW127773   0.842   3.674   9.402 -0.3199 -0.1694  0.1454
 5438SOL    HW227774   0.786   3.758   9.296  0.8506  0.3800  0.7378
 5439SOL     OW27775   2.139   4.631   8.896 -0.6164 -0.3479  0.2097
 5439SOL    HW127776   2.222   4.600   8.860 -0.5831  0.1467 -0.1465
 5439SOL    HW227777   2.100   4.545   8.908  2.0572 -1.6201 -0.2176
 5440SOL     OW27778   3.809   0.690   0.090  0.3215  0.6919 -0.1508
 5440SOL    HW127779   3.816   0.731   0.176 -4.9194  1.7739 -0.2422
 5440SOL    HW227780   3.903   0.683   0.074  0.2321 -0.0430 -0.3837
 5441SOL     OW27781   1.515   2.841   5.624  0.6120  0.1534  0.5759
 5441SOL    HW127782   1.598   2.828   5.669  0.2216  0.7736  1.4682
 5441SOL    HW227783   1.476   2.922   5.658  0.9870  0.0703  1.2097
 5442SOL     OW27784   2.353   3.752  15.996  0.3537  0.6062 -0.2737
 5442SOL    HW127785   2.336   3.814  16.067  0.2632  2.5552 -2.0026
 5442SOL    HW227786   2.264   3.727  15.972 -0.9849  2.9153  2.2391
 5443SOL     OW27787   4.662   4.530   7.865 -0.0272  0.3518  0.2512
 5443SOL    HW127788   0.014   4.483   7.894  1.2060  0.6780 -2.5488
 5443SOL    HW227789   4.708   4.599   7.818 -1.2844  0.9937 -0.0309
 5444SOL     OW27790   4.304   2.325   5.813 -0.1538 -0.0489  0.6371
 5444SOL    HW127791   4.255   2.311   5.731 -1.3783  2.7913  0.8867
 5444SOL    HW227792   4.225   2.335   5.866 -1.2814 -2.2130 -0.5861
 5445SOL     OW27793   4.499   4.245   9.479 -0.2847 -0.1552 -0.1457
 5445SOL    HW127794   4.517   4.274   9.568 -1.7144  0.2017  0.0303
 5445SOL    HW227795   4.532   4.155   9.480 -0.6553 -0.2923 -0.2404
 5446SOL     OW27796   3.948   3.046   7.975 -0.3315 -0.0702  0.1275
 5446SOL    HW127797   4.039   3.061   7.948 -0.9585  1.4348 -1.1913
 5446SOL    HW227798   3.905   3.121   7.934  0.2977  0.6747  0.8171
 5447SOL     OW27799   3.183   1.909  17.180 -0.6484  0.5313 -0.5513
 5447SOL    HW127800   3.219   1.850  17.115  1.7354  0.1285  1.1472
 5447SOL    HW227801   3.209   1.864  17.260  0.9713  2.7526  0.1797
 5448SOL     OW27802   1.262   2.902  16.848  0.1100 -0.2310 -0.0851
 5448SOL    HW127803   1.323   2.881  16.777 -1.1642 -0.9643 -0.9548
 5448SOL    HW227804   1.273   2.823  16.900  0.2646  0.4264  0.8670
 5449SOL     OW27805   2.684   3.689   0.877  0.6698  0.2059  0.0620
 5449SOL    HW127806   2.712   3.660   0.964 -1.7783  0.1397  0.8189
 5449SOL    HW227807   2.724   3.776   0.882  1.3382 -0.2136  2.1011
 5450SOL     OW27808   1.671   4.520   4.790  0.3344 -0.3062  0.6865
 5450SOL    HW127809   1.724   4.590   4.752  0.4450 -0.0221  1.3655
 5450SOL    HW227810   1.747   4.481   4.833  1.2335  1.4476  0.6607
 5451SOL     OW27811   3.729   0.464   4.199 -0.2378 -0.0366  0.3947
 5451SOL    HW127812   3.659   0.408   4.166  0.2424 -0.4087  0.0003
 5451SOL    HW227813   3.682   0.506   4.271 -1.3889  0.3237 -0.5737
 5452SOL     OW27814   0.232   0.768  15.413 -0.4156  0.2324  0.4560
 5452SOL    HW127815   0.308   0.824  15.424 -1.5589  1.9411 -0.2645
 5452SOL    HW227816   0.205   0.753  15.503  0.0921  2.4321  0.9566
 5453SOL     OW27817   2.620   2.116  12.180 -0.6444  0.3448  0.2454
 5453SOL    HW127818   2.537   2.157  12.157 -0.3776  1.6515  1.5651
 5453SOL    HW227819   2.657   2.176  12.245  0.6390  1.9079 -1.9079
 5454SOL     OW27820   1.937   3.850   2.891 -0.1939  0.2444  0.6293
 5454SOL    HW127821   1.876   3.916   2.923 -0.6079 -0.3267  1.0214
 5454SOL    HW227822   1.884   3.814   2.820 -2.2773 -0.0302  2.3099
 5455SOL     OW27823   2.074   2.950   2.366 -0.0373 -0.3724 -0.4263
 5455SOL    HW127824   2.063   3.033   2.413  0.1454 -0.7156  0.2187
 5455SOL    HW227825   1.985   2.916   2.357 -0.2270  0.6385 -2.3268
 5456SOL     OW27826   2.694   4.203   2.468 -0.3360  0.2694  0.3953
 5456SOL    HW127827   2.733   4.225   2.383 -0.6067  0.5433  0.3426
 5456SOL    HW227828   2.743   4.260   2.528 -0.4641  2.0813 -1.2574
 5457SOL     OW27829   2.629   2.748   5.089 -0.4384  0.5986 -0.1697
 5457SOL    HW127830   2.634   2.837   5.123 -0.2927 -0.2075  1.9299
 5457SOL    HW227831   2.549   2.713   5.128 -0.6036  0.6489 -0.4717
 5458SOL     OW27832   4.630   2.621   4.490 -0.0104 -0.2520 -0.5826
 5458SOL    HW127833   4.650   2.548   4.431 -0.9583 -0.9174 -0.0789
 5458SOL    HW227834   4.601   2.684   4.423  0.3354 -1.9388 -2.3163
 5459SOL     OW27835   3.382   4.173  17.399  0.3429  0.2235  0.6866
 5459SOL    HW127836   3.340   4.250  17.438 -0.2867  1.2376 -2.0205
 5459SOL    HW227837   3.362   4.175  17.306 -0.2412  0.4830  0.8150
 5460SOL     OW27838   0.744   4.168   7.615  0.6424  0.0952 -0.4344
 5460SOL    HW127839   0.806   4.237   7.639 -0.0624 -0.1842  2.2104
 5460SOL    HW227840   0.678   4.173   7.685  3.1389  2.0101  1.8048
 5461SOL     OW27841   3.623   0.912   4.604 -0.1871  0.2298 -0.3365
 5461SOL    HW127842   3.643   0.876   4.690 -1.4222  0.0341 -0.1265
 5461SOL    HW227843   3.550   0.855   4.578  0.0350 -0.4674  0.5989
 5462SOL     OW27844   0.666   1.800  12.940  0.1630  0.3865 -0.5118
 5462SOL    HW127845   0.611   1.867  12.978 -1.3108 -1.3399  0.3889
 5462SOL    HW227846   0.747   1.844  12.965 -0.1126 -0.9456  2.6517
 5463SOL     OW27847   1.667   2.838   0.986  0.6640 -0.1106  0.0726
 5463SOL    HW127848   1.745   2.787   1.009  2.1635  1.1847 -2.1655
 5463SOL    HW227849   1.621   2.816   1.067 -0.1083 -0.3219 -0.4292
 5464SOL     OW27850   1.446   2.839  17.110  0.3034  0.1857  0.0766
 5464SOL    HW127851   1.407   2.915  17.066  0.3523  0.4188  0.4349
 5464SOL    HW227852   1.371   2.818  17.165  0.7243 -1.0389  0.1782
 5465SOL     OW27853   3.799   2.018   3.932  0.2304  0.2627  0.2425
 5465SOL    HW127854   3.833   2.099   3.894  2.2601 -0.8692 -0.3342
 5465SOL    HW227855   3.848   1.954   3.880 -0.4800 -1.2892  1.4744
 5466SOL     OW27856   3.580   3.379   5.235  0.3264  0.1567 -0.0994
 5466SOL    HW127857   3.493   3.366   5.274  0.7159 -0.1578  0.6584
 5466SOL    HW227858   3.621   3.296   5.257  0.5182  0.3086  0.1106
 5467SOL     OW27859   4.250   0.282   2.875  0.1237 -0.4409 -0.5628
 5467SOL    HW127860   4.292   0.199   2.895  1.2908  0.5722  1.2091
 5467SOL    HW227861   4.214   0.311   2.959 -1.4808  0.2495 -1.4806
 5468SOL     OW27862   0.846   1.832   3.075 -0.3313 -0.3721  0.2982
 5468SOL    HW127863   0.842   1.745   3.035 -1.4555 -0.3816  0.4313
 5468SOL    HW227864   0.859   1.809   3.167 -0.4735 -1.5506  0.0147
 5469SOL     OW27865   3.678   4.393   1.660 -0.3679 -0.3583  0.9570
 5469SOL    HW127866   3.717   4.327   1.602 -1.9945 -1.2036  0.8273
 5469SOL    HW227867   3.754   4.447   1.682  0.4132 -0.8567 -0.4887
 5470SOL     OW27868   3.100   1.029   4.182  0.2397 -0.0286 -0.2901
 5470SOL    HW127869   3.164   1.100   4.186  1.3444 -0.9390 -1.5244
 5470SOL    HW227870   3.030   1.078   4.140 -0.1344  1.5307  2.1778
 5471SOL     OW27871   2.992   0.283  14.048  0.3761 -0.1502  0.0689
 5471SOL    HW127872   3.008   0.369  14.010  0.1429  0.4312  1.2829
 5471SOL    HW227873   2.949   0.299  14.132 -1.9205  0.4482 -1.2163
 5472SOL     OW27874   2.336   4.145  11.406 -0.0679 -1.2163 -0.5942
 5472SOL    HW127875   2.327   4.214  11.340 -0.3959  1.7167  2.5418
 5472SOL    HW227876   2.246   4.125  11.434 -0.2905 -0.1007 -0.5164
 5473SOL     OW27877   0.887   0.843   3.019  0.0009 -0.5145  1.3187
 5473SOL    HW127878   0.847   0.868   2.935  2.9147  0.0680  0.0911
 5473SOL    HW227879   0.816   0.848   3.083  0.2669 -0.6190  1.6226
 5474SOL     OW27880   1.478   0.799   1.837  0.2167  0.3513 -0.4836
 5474SOL    HW127881   1.482   0.711   1.875 -2.2300  0.4282 -0.0048
 5474SOL    HW227882   1.545   0.801   1.768  1.1756  0.5137  0.4542
 5475SOL     OW27883   2.853   1.720  16.582  0.0847  0.3018 -0.6127
 5475SOL    HW127884   2.917   1.754  16.645 -1.0450  0.6974  0.3335
 5475SOL    HW227885   2.822   1.644  16.632 -2.5475 -0.2601 -3.1008
 5476SOL     OW27886   4.656   0.620   5.821  0.2698 -0.0132  0.1692
 5476SOL    HW127887   4.707   0.540   5.804  1.3375  0.8460 -0.6344
 5476SOL    HW227888   4.571   0.597   5.784 -0.6279  0.0410  2.1810
 5477SOL     OW27889   1.453   1.558   1.641 -0.6921 -0.0192  0.2885
 5477SOL    HW127890   1.401   1.536   1.718  0.2276 -1.0097  0.6331
 5477SOL    HW227891   1.504   1.634   1.669  0.2297 -0.7917  0.7233
 5478SOL     OW27892   2.406   1.553  13.631  0.4111 -0.8157 -0.6199
 5478SOL    HW127893   2.466   1.624  13.655 -0.1858 -0.6233  0.2808
 5478SOL    HW227894   2.380   1.586  13.545  3.4202  0.2263 -1.1141
 5479SOL     OW27895   2.179   0.187   7.089  0.0217  0.5887  0.6016
 5479SOL    HW127896   2.175   0.281   7.111 -3.6581  0.3027  1.1470
 5479SOL    HW227897   2.137   0.150   7.167  1.2814 -2.0511 -0.0081
 5480SOL     OW27898   4.707   1.242   5.577  0.2001  0.3108  0.4312
 5480SOL    HW127899   4.725   1.177   5.645 -1.3240 -0.5985 -0.0556
 5480SOL    HW227900   4.634   1.200   5.533  0.1138  0.5424  0.3529
 5481SOL     OW27901   1.398   0.047   6.796  0.0994  0.0165  0.3156
 5481SOL    HW127902   1.310   0.014   6.812 -0.1193  0.8103  0.7465
 5481SOL    HW227903   1.445   4.693   6.776  2.1535  1.0972  0.7244
 5482SOL     OW27904   3.564   3.616   5.663  0.1815 -0.5515 -0.9868
 5482SOL    HW127905   3.613   3.615   5.582  0.7576 -0.1346 -0.6406
 5482SOL    HW227906   3.593   3.530   5.694  1.5719 -0.0134 -0.7964
 5483SOL     OW27907   1.326   4.415  12.307  0.4320  0.5830  0.5984
 5483SOL    HW127908   1.414   4.447  12.329  2.3337 -2.0852 -3.2048
 5483SOL    HW227909   1.283   4.496  12.276 -2.5395 -0.5329  1.8434
 5484SOL     OW27910   0.991   3.698   2.734  0.4325 -0.3517  0.1119
 5484SOL    HW127911   1.071   3.745   2.712  0.2485 -2.0410 -4.0893
 5484SOL    HW227912   0.937   3.737   2.665  0.3974 -0.2319  0.2078
 5485SOL     OW27913   1.520   0.533   6.931 -0.4007 -0.4916 -0.1213
 5485SOL    HW127914   1.469   0.453   6.913 -0.2661 -0.4854 -0.5416
 5485SOL    HW227915   1.587   0.489   6.984 -0.7058 -2.1799 -1.1178
 5486SOL     OW27916   3.055   2.198   0.681  1.1830 -0.2790 -0.1987
 5486SOL    HW127917   2.971   2.238   0.704  1.2890  0.0894 -0.4551
 5486SOL    HW227918   3.060   2.212   0.587 -0.7388  1.4222 -0.0554
 5487SOL     OW27919   3.635   4.671   3.479  0.8452  0.2718 -0.2290
 5487SOL    HW127920   3.641   4.582   3.514 -0.2722  0.4433  0.4045
 5487SOL    HW227921   3.540   4.677   3.485  0.9231  0.0533  1.1274
 5488SOL     OW27922   4.232   0.466   3.200  0.3270 -0.0698 -0.5131
 5488SOL    HW127923   4.152   0.417   3.181  0.4219 -0.6478  0.5592
 5488SOL    HW227924   4.242   0.441   3.292  1.8465  0.4324 -0.5425
 5489SOL     OW27925   1.307   4.476   5.439  0.1890 -0.3776 -0.2557
 5489SOL    HW127926   1.353   4.559   5.445  0.1997 -0.3027 -1.4711
 5489SOL    HW227927   1.257   4.465   5.520  0.3173 -0.4081 -0.1805
 5490SOL     OW27928   0.293   0.187   9.686 -0.0807 -0.4620  0.0942
 5490SOL    HW127929   0.368   0.202   9.629  0.7886 -1.2941  1.0190
 5490SOL    HW227930   0.219   0.223   9.636 -0.4020 -2.1337 -0.6332
 5491SOL     OW27931   0.873   0.858   3.755  0.3915 -0.2825 -0.5380
 5491SOL    HW127932   0.927   0.877   3.831 -0.7502  0.9007 -0.0152
 5491SOL    HW227933   0.934   0.883   3.685  1.3455  0.2021  0.4781
 5492SOL     OW27934   1.335   2.825   6.442 -0.3434 -0.7646  0.9120
 5492SOL    HW127935   1.284   2.811   6.362  0.4829 -1.7707  0.5580
 5492SOL    HW227936   1.276   2.892   6.476 -1.3147 -0.0881 -2.0884
 5493SOL     OW27937   2.812   3.985   6.050  0.1060 -0.2670 -0.3449
 5493SOL    HW127938   2.884   4.048   6.044  0.3731 -0.6297 -0.9308
 5493SOL    HW227939   2.825   3.928   6.126  0.3293  0.5840  0.2589
 5494SOL     OW27940   2.930   0.208   0.266 -0.2741 -0.2925 -0.3984
 5494SOL    HW127941   3.013   0.256   0.266  0.2542 -1.2257  0.5968
 5494SOL    HW227942   2.895   0.237   0.350  0.6155 -0.2512 -0.0326
 5495SOL     OW27943   1.902   2.831   2.654  0.3948 -0.1849 -0.1304
 5495SOL    HW127944   1.822   2.882   2.668  0.7153  0.0479  0.8642
 5495SOL    HW227945   1.969   2.894   2.627 -0.8291  1.2581  0.2135
 5496SOL     OW27946   2.240   2.338   5.122 -0.1378 -0.4120 -0.0294
 5496SOL    HW127947   2.148   2.365   5.132  0.8012  2.8706 -0.1069
 5496SOL    HW227948   2.279   2.322   5.208  0.0256 -0.6293 -0.1447
 5497SOL     OW27949   0.529   0.590   2.483  0.5899  0.3797  0.2953
 5497SOL    HW127950   0.508   0.681   2.503  1.4399  0.8284 -0.8514
 5497SOL    HW227951   0.497   0.546   2.562 -2.9819  2.0556 -0.1977
 5498SOL     OW27952   0.656   1.314   8.963 -0.3776 -0.1716  0.4704
 5498SOL    HW127953   0.574   1.267   8.952  0.6199 -1.7659 -0.1896
 5498SOL    HW227954   0.720   1.244   8.958  1.6696  1.7488 -0.5897
 5499SOL     OW27955   0.456   4.424   6.019  0.3340 -0.0872 -0.3515
 5499SOL    HW127956   0.446   4.414   5.925 -2.1174 -4.4917  0.4061
 5499SOL    HW227957   0.525   4.491   6.024  0.1828 -0.0495  1.1890
 5500SOL     OW27958   1.700   2.631   6.872 -0.3741 -0.2479  0.2836
 5500SOL    HW127959   1.749   2.607   6.794  1.5749 -1.4378  1.9022
 5500SOL    HW227960   1.716   2.725   6.883  1.7807 -0.4185 -1.5234
 5501SOL     OW27961   2.161   2.104   3.270  0.0252 -0.6902 -0.0154
 5501SOL    HW127962   2.159   2.043   3.197 -1.4802 -0.4969 -0.1560
 5501SOL    HW227963   2.140   2.033   3.330  0.3622  0.3676  1.3727
 5502SOL     OW27964   4.230   1.452   8.790  0.4834 -0.0933  0.3706
 5502SOL    HW127965   4.325   1.440   8.796  0.6514  1.0710  0.0778
 5502SOL    HW227966   4.204   1.378   8.846  0.3524 -0.3222  0.0022
 5503SOL     OW27967   1.241   0.979   6.373  0.0480  0.2235  0.1953
 5503SOL    HW127968   1.256   0.885   6.367  1.1711  0.5910 -2.6218
 5503SOL    HW227969   1.242   1.016   6.285 -1.5832 -0.1753  0.0213
 5504SOL     OW27970   4.624   0.810  12.848 -0.0617 -0.5180  0.9768
 5504SOL    HW127971   4.712   0.841  12.828 -0.4346  0.0999  0.2839
 5504SOL    HW227972   4.587   0.804  12.760  0.6497  1.7056  0.5108
 5505SOL     OW27973   2.850   1.013  12.348 -0.1010 -0.0908  0.3100
 5505SOL    HW127974   2.890   1.058  12.273  0.0532  1.8071  1.5196
 5505SOL    HW227975   2.919   1.033  12.411 -0.9004  1.8991  0.5449
 5506SOL     OW27976   0.687   3.857   1.779  0.2118  0.2918 -0.3745
 5506SOL    HW127977   0.680   3.788   1.713  1.3270 -1.5257  1.4035
 5506SOL    HW227978   0.755   3.913   1.741  1.0650 -0.2319  0.3593
 5507SOL     OW27979   2.419   0.853   4.459 -0.1953  1.0384  0.0561
 5507SOL    HW127980   2.461   0.873   4.543  0.7891 -0.4536 -0.0708
 5507SOL    HW227981   2.348   0.915   4.448  0.9401  2.0405 -1.7177
 5508SOL     OW27982   0.601   0.014  12.396  0.4266  0.5271  0.3994
 5508SOL    HW127983   0.619   4.663  12.343  0.2886  0.2545  0.7488
 5508SOL    HW227984   0.660   0.076  12.353 -0.6668  0.2633 -1.4999
 5509SOL     OW27985   1.933   4.674   3.170  0.5473 -0.2939  0.1009
 5509SOL    HW127986   1.904   4.656   3.080 -1.1442 -2.7816  1.1072
 5509SOL    HW227987   1.968   4.585   3.181 -0.4899 -1.0209 -2.2510
 5510SOL     OW27988   2.470   1.022   2.197 -0.1807  0.1597  0.4964
 5510SOL    HW127989   2.460   1.113   2.226  0.6921  0.4930 -0.2723
 5510SOL    HW227990   2.524   0.987   2.268 -0.0772 -1.4728 -0.3773
 5511SOL     OW27991   4.082   1.821   0.660 -0.5433  0.1416  0.2357
 5511SOL    HW127992   4.036   1.748   0.700  0.2682  1.0347  2.8431
 5511SOL    HW227993   4.095   1.881   0.734 -0.5246 -1.8744  1.8506
 5512SOL     OW27994   1.503   4.452   4.590  0.0808 -0.8079  0.0155
 5512SOL    HW127995   1.541   4.449   4.678 -0.1741  0.4784  0.1766
 5512SOL    HW227996   1.497   4.547   4.577 -0.6253 -0.5715  2.1248
 5513SOL     OW27997   3.412   0.356  13.590 -0.3911  0.7125 -0.3062
 5513SOL    HW127998   3.412   0.274  13.541 -0.6713  0.7977 -0.4453
 5513SOL    HW227999   3.469   0.339  13.665  0.4189  1.6845 -0.6985
 5514SOL     OW28000   0.053   1.313  10.608 -0.4671  0.3175 -0.1739
 5514SOL    HW128001   4.708   1.375  10.605 -1.4863 -0.7417  2.3078
 5514SOL    HW228002   0.001   1.234  10.596  0.8330 -0.5500 -0.1289
 5515SOL     OW28003   3.437   3.282   9.753 -0.5307  0.1049  0.3223
 5515SOL    HW128004   3.523   3.260   9.789  0.0119 -0.4867 -1.3311
 5515SOL    HW228005   3.436   3.378   9.759  0.5931  0.0959  0.6234
 5516SOL     OW28006   2.049   2.385  12.990  0.0360 -0.7104  0.3284
 5516SOL    HW128007   2.115   2.353  13.052  0.1960 -0.1794  0.4256
 5516SOL    HW228008   1.999   2.439  13.051  1.1267 -0.1259  0.7067
 5517SOL     OW28009   3.882   3.718   4.579 -0.2322 -0.4164 -0.2095
 5517SOL    HW128010   3.967   3.753   4.607 -0.0692 -2.1787  1.5110
 5517SOL    HW228011   3.887   3.725   4.484  1.6206  0.4085 -0.0428
 5518SOL     OW28012   2.415   1.407   7.372  0.0658 -0.3628  0.0533
 5518SOL    HW128013   2.485   1.455   7.327 -0.9491  1.4558  0.4240
 5518SOL    HW228014   2.458   1.343   7.429 -0.5745 -0.9092 -0.0716
 5519SOL     OW28015   0.564   1.423   6.434 -0.0156  0.5470 -0.0678
 5519SOL    HW128016   0.524   1.471   6.362 -0.5940  0.2828  0.0759
 5519SOL    HW228017   0.494   1.409   6.498  2.6317 -2.3622  2.2344
 5520SOL     OW28018   3.856   3.983   5.081  0.5938  0.2871 -0.1924
 5520SOL    HW128019   3.916   4.054   5.061 -1.0587  1.7836  0.1948
 5520SOL    HW228020   3.843   3.934   5.000 -1.6475 -1.8315  1.4103
 5521SOL     OW28021   4.690   2.649   6.058 -0.4565 -0.6473  0.0825
 5521SOL    HW128022   4.617   2.590   6.040  0.1256 -0.6647 -2.2934
 5521SOL    HW228023   4.659   2.734   6.030  0.3800  0.4862  2.5859
 5522SOL     OW28024   1.275   0.459   8.518  0.3662  0.4368 -0.0809
 5522SOL    HW128025   1.280   0.543   8.565 -3.2166  0.7003 -0.1264
 5522SOL    HW228026   1.194   0.453   8.467 -0.2111  1.7072  0.6793
 5523SOL     OW28027   3.263   1.742  14.597 -0.0472  0.3112 -0.5990
 5523SOL    HW128028   3.349   1.738  14.556 -0.7679  0.6686 -2.1522
 5523SOL    HW228029   3.255   1.836  14.584  0.3410  0.4644  0.3155
 5524SOL     OW28030   0.023   0.686   0.640 -0.0483 -0.2498 -0.0175
 5524SOL    HW128031   0.092   0.699   0.706  1.3669  2.9679 -2.1320
 5524SOL    HW228032   0.059   0.617   0.584  1.0866  1.9414 -1.9864
 5525SOL     OW28033   0.165   3.110   3.711 -0.3884  0.1871 -0.4394
 5525SOL    HW128034   0.148   3.189   3.658 -1.0648 -0.7722 -1.6615
 5525SOL    HW228035   0.093   3.127   3.771 -1.2746  0.7647 -1.6755
 5526SOL     OW28036   0.159   1.310   6.050  0.1021  0.1912  0.2787
 5526SOL    HW128037   0.225   1.270   6.107  1.1368  2.9515  1.0351
 5526SOL    HW228038   0.090   1.243   6.050 -0.4207  0.7399 -1.6992
 5527SOL     OW28039   2.013   0.525  16.056 -0.2471  0.1190 -0.4794
 5527SOL    HW128040   1.937   0.480  16.018 -2.1731  1.4821  1.7811
 5527SOL    HW228041   2.078   0.459  16.030 -0.9078 -0.8326  0.2968
 5528SOL     OW28042   2.523   3.091   2.606  0.3579 -0.4932  0.2440
 5528SOL    HW128043   2.450   3.106   2.666  2.0256 -0.8722  2.3434
 5528SOL    HW228044   2.533   3.175   2.561 -2.0836  0.8385  2.1485
 5529SOL     OW28045   2.308   0.604   8.456 -0.1635  0.1959 -0.2897
 5529SOL    HW128046   2.334   0.532   8.399 -3.1020 -1.2339  0.1810
 5529SOL    HW228047   2.347   0.676   8.407 -1.0672  0.4089 -0.6889
 5530SOL     OW28048   0.854   2.451  13.134  0.9177 -0.4727 -0.3381
 5530SOL    HW128049   0.933   2.464  13.080  1.5810 -0.1689  0.7044
 5530SOL    HW228050   0.816   2.538  13.133  2.6758  0.2966 -1.9115
 5531SOL     OW28051   3.792   1.723   5.837  0.5834  0.1562 -0.1088
 5531SOL    HW128052   3.701   1.739   5.863  0.3102 -1.6702  0.0983
 5531SOL    HW228053   3.778   1.658   5.767 -0.8301 -1.8530  2.0109
 5532SOL     OW28054   3.923   2.019   5.560 -0.2518 -0.0068 -0.0671
 5532SOL    HW128055   3.854   2.067   5.514  0.4476 -0.7278 -1.8401
 5532SOL    HW228056   3.992   2.036   5.496 -1.4248  0.4346 -1.2124
 5533SOL     OW28057   2.466   1.418  15.390 -0.0701  0.0911  0.5674
 5533SOL    HW128058   2.497   1.330  15.368 -2.0602 -0.3242 -0.5127
 5533SOL    HW228059   2.396   1.433  15.327  1.4353 -1.1895 -1.4138
 5534SOL     OW28060   3.573   1.690   8.093 -0.5408  0.3150  0.5775
 5534SOL    HW128061   3.495   1.683   8.148 -1.3945  0.5791 -0.5951
 5534SOL    HW228062   3.635   1.631   8.136 -1.4627 -2.0584 -1.3645
 5535SOL     OW28063   4.563   0.539   4.362 -0.0130  0.3927  0.2055
 5535SOL    HW128064   4.636   0.555   4.301  0.5954  0.9503  1.0743
 5535SOL    HW228065   4.617   0.485   4.420  0.8368  2.6493  1.5365
 5536SOL     OW28066   0.043   4.652   6.051  0.8227  0.4324  0.0994
 5536SOL    HW128067   0.011   4.641   5.961 -3.3216  0.1906  1.5859
 5536SOL    HW228068   0.080   4.567   6.074  2.5700  1.1475 -0.1114
 5537SOL     OW28069   1.284   2.150  17.189 -0.4826  0.2192 -0.0749
 5537SOL    HW128070   1.247   2.063  17.205  1.0123 -0.6447 -1.3307
 5537SOL    HW228071   1.374   2.119  17.178  0.3037  3.6214 -3.1065
 5538SOL     OW28072   2.460   1.928   7.110  0.3913  0.3039 -0.1499
 5538SOL    HW128073   2.501   2.013   7.097 -1.3042  1.2304  0.5039
 5538SOL    HW228074   2.535   1.869   7.098 -0.3505 -0.4479 -1.1191
 5539SOL     OW28075   1.971   0.556   5.535  0.0569 -0.3220  0.6105
 5539SOL    HW128076   2.032   0.629   5.551 -2.1004  1.9885 -1.7648
 5539SOL    HW228077   1.975   0.541   5.441  1.4029 -2.0554  0.9536
 5540SOL     OW28078   2.382   3.108   0.559  0.2503 -0.5482  0.2031
 5540SOL    HW128079   2.453   3.046   0.540  1.0931  0.7768 -0.9354
 5540SOL    HW228080   2.428   3.152   0.631 -1.6769 -0.4059  1.3516
 5541SOL     OW28081   2.362   1.986  16.757 -0.3400  0.8805 -0.6009
 5541SOL    HW128082   2.446   2.012  16.721  0.0683 -1.6275 -1.4255
 5541SOL    HW228083   2.364   2.009  16.850  1.7265 -1.6011 -0.0480
 5542SOL     OW28084   0.473   1.617   5.307 -0.5234 -0.3680  0.8143
 5542SOL    HW128085   0.380   1.607   5.331 -0.4350  1.6463  1.9934
 5542SOL    HW228086   0.492   1.527   5.282 -2.1951 -0.6118  0.4061
 5543SOL     OW28087   0.131   3.382   8.429  0.2009 -0.3297  0.1203
 5543SOL    HW128088   0.084   3.357   8.508 -1.0610 -1.0732 -0.8678
 5543SOL    HW228089   0.187   3.448   8.471 -0.7259  1.3366 -1.2746
 5544SOL     OW28090   1.502   0.272  16.669  0.1038 -0.2335  0.5133
 5544SOL    HW128091   1.532   0.342  16.728  0.5975 -0.5219  0.6044
 5544SOL    HW228092   1.532   0.193  16.715 -2.3683 -0.1583  2.2436
 5545SOL     OW28093   4.346   0.848   8.255  0.3819  0.0319 -0.5433
 5545SOL    HW128094   4.339   0.862   8.161  1.0050  1.5852 -0.3545
 5545SOL    HW228095   4.418   0.784   8.254 -1.1375 -1.6749 -1.4207
 5546SOL     OW28096   3.937   2.129   6.177  0.1644 -0.3555  0.1833
 5546SOL    HW128097   3.912   2.221   6.186  1.6430  0.1492 -0.7552
 5546SOL    HW228098   3.874   2.083   6.232  0.7650 -0.3301  0.8962
 5547SOL     OW28099   0.248   3.293   5.017 -0.0729 -0.1572  0.1588
 5547SOL    HW128100   0.265   3.318   5.107  2.9296  0.6276 -0.6376
 5547SOL    HW228101   0.172   3.235   5.027 -1.2527  1.7451  2.2432
 5548SOL     OW28102   0.275   0.717  15.131 -0.1420  0.1320 -0.0059
 5548SOL    HW128103   0.277   0.717  15.226 -1.6392  0.3345  0.0329
 5548SOL    HW228104   0.322   0.634  15.119 -2.7645 -1.4513  0.6223
 5549SOL     OW28105   2.042   2.298  17.173  0.1318  0.0254  0.2245
 5549SOL    HW128106   2.054   2.387  17.140  0.6928 -0.3745 -0.6582
 5549SOL    HW228107   2.131   2.261  17.176  0.2440  0.0809 -2.5620
 5550SOL     OW28108   3.411   4.265   2.709  0.5717  0.3637 -0.6594
 5550SOL    HW128109   3.343   4.198   2.713  1.0788 -0.0733  0.6016
 5550SOL    HW228110   3.422   4.276   2.614 -1.2589 -0.2962 -0.9431
 5551SOL     OW28111   2.937   2.055   8.445 -0.5549 -0.1231 -0.2318
 5551SOL    HW128112   2.952   1.963   8.425  0.9239 -0.0005  0.3227
 5551SOL    HW228113   2.848   2.057   8.481 -1.0222 -0.2528 -1.3774
 5552SOL     OW28114   1.327   2.433   3.836 -0.0903 -0.2690 -0.8094
 5552SOL    HW128115   1.385   2.414   3.910 -0.9200  2.4558  0.5456
 5552SOL    HW228116   1.263   2.364   3.853  0.2621 -0.9045 -2.1010
 5553SOL     OW28117   4.274   2.686   8.136  0.0261  0.4841  0.0984
 5553SOL    HW128118   4.193   2.634   8.140 -0.6199  1.6358  2.2508
 5553SOL    HW228119   4.303   2.653   8.052 -1.2710  0.5517 -0.3790
 5554SOL     OW28120   3.416   2.750   2.316 -0.8763 -0.2116  0.0265
 5554SOL    HW128121   3.401   2.811   2.244  0.2461  1.2854  1.0538
 5554SOL    HW228122   3.387   2.664   2.288 -1.3839 -0.0399  0.0208
 5555SOL     OW28123   1.283   4.370   3.032  0.0161  0.3386  0.1647
 5555SOL    HW128124   1.221   4.307   2.994 -1.6519  2.7893 -1.1615
 5555SOL    HW228125   1.366   4.330   3.004 -0.0348 -0.9354  1.8098
 5556SOL     OW28126   0.957   3.722   3.576 -0.2383 -0.3319 -0.0949
 5556SOL    HW128127   0.938   3.685   3.662 -1.7365 -0.8253 -0.6435
 5556SOL    HW228128   0.915   3.654   3.523  1.3632 -0.1212 -1.6439
 5557SOL     OW28129   1.189   2.952   1.060  0.3611 -0.6092 -0.4906
 5557SOL    HW128130   1.222   2.911   1.140  2.7831  2.2968 -0.0302
 5557SOL    HW228131   1.179   3.042   1.089 -1.3114 -0.4773 -1.5074
 5558SOL     OW28132   1.764   1.090   4.406  0.6254  0.4866  0.3804
 5558SOL    HW128133   1.699   1.160   4.417  0.0341 -0.3947  2.4370
 5558SOL    HW228134   1.736   1.051   4.323  2.3502  2.0891 -0.9425
 5559SOL     OW28135   0.841   2.521   5.767  0.6634 -0.3343  0.5457
 5559SOL    HW128136   0.890   2.560   5.840 -1.8390  2.9307  0.4567
 5559SOL    HW228137   0.866   2.429   5.780  0.8725 -0.1797  1.2454
 5560SOL     OW28138   1.201   1.653   9.921  0.3618  0.8719 -0.6204
 5560SOL    HW128139   1.278   1.695   9.884  1.2311 -1.1632 -1.1239
 5560SOL    HW228140   1.176   1.729   9.973  0.3561 -0.0048  0.6838
 5561SOL     OW28141   2.439   1.776   6.784  0.3269  0.3420  0.2399
 5561SOL    HW128142   2.404   1.768   6.695 -0.9076 -1.4275  0.8729
 5561SOL    HW228143   2.373   1.720   6.826  1.8084 -1.1075  0.6559
 5562SOL     OW28144   1.852   0.022   2.317 -0.4460  0.1784 -0.3760
 5562SOL    HW128145   1.894   4.682   2.263 -0.0723  0.9102 -0.9950
 5562SOL    HW228146   1.845   4.711   2.404 -0.5055 -0.3243 -0.5984
 5563SOL     OW28147   3.320   2.627   3.047  0.2715  0.1300 -0.0151
 5563SOL    HW128148   3.261   2.601   2.976 -0.2927 -0.4022  0.6587
 5563SOL    HW228149   3.398   2.597   2.999  1.2061  1.4813  0.6436
 5564SOL     OW28150   0.489   2.793   4.545 -0.2183 -0.1645 -0.1663
 5564SOL    HW128151   0.407   2.831   4.577 -1.3096 -3.4250  0.9886
 5564SOL    HW228152   0.469   2.700   4.555 -0.8474 -0.1937 -1.7970
 5565SOL     OW28153   3.668   0.598   3.858  0.2755 -0.1159  0.1396
 5565SOL    HW128154   3.725   0.666   3.895 -0.0954 -0.7367  1.8848
 5565SOL    HW228155   3.583   0.627   3.892 -0.6495 -1.0896 -1.3625
 5566SOL     OW28156   1.770   2.803   2.305 -0.1668  0.5038 -0.2547
 5566SOL    HW128157   1.717   2.874   2.342  1.1258  1.7209 -0.7466
 5566SOL    HW228158   1.787   2.747   2.381  1.3040 -1.5695 -2.1188
 5567SOL     OW28159   3.229   0.726   4.757  0.5197 -0.3160 -0.4946
 5567SOL    HW128160   3.154   0.695   4.706 -1.4268  1.7319  1.0660
 5567SOL    HW228161   3.184   0.771   4.829  0.2391  0.0566 -0.9030
 5568SOL     OW28162   0.276   3.476   9.214 -0.3020 -0.0618 -0.5839
 5568SOL    HW128163   0.336   3.512   9.280 -0.8891 -0.6750  0.2825
 5568SOL    HW228164   0.193   3.498   9.257  0.0939  3.3139 -1.5135
 5569SOL     OW28165   2.241   3.729  11.725 -0.0846  0.0960  0.2330
 5569SOL    HW128166   2.233   3.745  11.819 -0.1968  1.4940 -0.0097
 5569SOL    HW228167   2.286   3.810  11.702  0.1733 -0.7299 -2.2060
 5570SOL     OW28168   4.488   4.413  15.537 -0.3042  0.0119 -0.5922
 5570SOL    HW128169   4.488   4.357  15.459  1.5316 -0.8112  0.0140
 5570SOL    HW228170   4.498   4.352  15.610  2.2417  1.3606  0.1820
 5571SOL     OW28171   3.531   2.049   3.941 -0.1908 -0.5198  1.0059
 5571SOL    HW128172   3.465   2.000   3.893  1.0176 -0.2054 -0.9866
 5571SOL    HW228173   3.618   2.055   3.900 -0.8164 -0.5294 -0.3189
 5572SOL     OW28174   1.394   0.694   5.403 -0.2778 -0.2747  0.3009
 5572SOL    HW128175   1.465   0.758   5.397 -0.3607 -0.0563  1.6139
 5572SOL    HW228176   1.438   0.642   5.471  1.0180  1.0714  0.4785
 5573SOL     OW28177   0.996   3.491   0.740 -0.1339 -0.1443 -0.5175
 5573SOL    HW128178   0.965   3.481   0.650  3.7463  0.5866 -1.9118
 5573SOL    HW228179   0.918   3.454   0.782 -1.2886  0.0209 -2.5400
 5574SOL     OW28180   0.784   0.003   9.700 -0.2067  0.5725 -0.0697
 5574SOL    HW128181   0.860   4.705   9.753 -0.8682 -3.2289 -0.9041
 5574SOL    HW228182   0.726   4.690   9.764  2.8690 -2.6379  0.6661
 5575SOL     OW28183   2.998   0.547   3.922  0.0286  0.6173  0.7037
 5575SOL    HW128184   3.009   0.459   3.885 -2.7197  0.7250 -0.3364
 5575SOL    HW228185   2.904   0.564   3.921 -0.3670 -1.5819  1.3782
 5576SOL     OW28186   3.093   4.660   8.058 -0.6172 -0.0334  0.1754
 5576SOL    HW128187   3.138   0.017   8.046  0.2844 -0.9386 -2.8435
 5576SOL    HW228188   3.118   4.636   8.147  1.3809  3.9875  0.7183
 5577SOL     OW28189   1.110   1.732   9.267  0.1817  0.2581  0.1248
 5577SOL    HW128190   1.110   1.825   9.242  2.0645 -0.0431 -0.9551
 5577SOL    HW228191   1.084   1.691   9.185 -2.0070  1.1941  0.3198
 5578SOL     OW28192   1.677   1.860   8.850 -0.3781  0.2012  0.0197
 5578SOL    HW128193   1.609   1.819   8.902  2.2011 -2.2506  1.4359
 5578SOL    HW228194   1.726   1.785   8.817  0.0080 -0.1036  1.3016
 5579SOL     OW28195   4.518   2.771   0.950 -0.0666 -0.7093 -0.1786
 5579SOL    HW128196   4.527   2.857   0.990  2.0427 -0.5771 -0.9284
 5579SOL    HW228197   4.488   2.808   0.866  2.7593  1.2690 -0.3026
 5580SOL     OW28198   1.176   0.859   3.327  0.3874  0.3358 -0.6271
 5580SOL    HW128199   1.236   0.812   3.385  0.2996 -0.4792 -1.1962
 5580SOL    HW228200   1.092   0.814   3.339  0.0863  0.7711 -1.0920
 5581SOL     OW28201   2.442   0.068   4.625 -0.1449 -0.0474  0.1459
 5581SOL    HW128202   2.366   0.123   4.605  1.0848  1.2770 -0.8946
 5581SOL    HW228203   2.454   0.085   4.719 -0.6146  0.8735  0.0387
 5582SOL     OW28204   2.534   4.707   3.325 -0.5543  0.1445  0.0036
 5582SOL    HW128205   2.507   4.646   3.257 -2.1665 -2.5103  3.0310
 5582SOL    HW228206   2.487   0.062   3.311 -1.8920 -0.2482  2.1846
 5583SOL     OW28207   1.708   4.648   3.376  0.0234 -0.4370 -1.2916
 5583SOL    HW128208   1.729   4.555   3.374  3.1904  0.2972 -1.0289
 5583SOL    HW228209   1.782   4.678   3.324 -0.6106 -0.8648 -2.4293
 5584SOL     OW28210   1.887   0.964   1.968  0.7400 -0.3252 -0.7827
 5584SOL    HW128211   1.960   0.914   2.005  0.8967 -0.5116 -1.3446
 5584SOL    HW228212   1.932   1.047   1.959 -0.6940  0.7059  1.4111
 5585SOL     OW28213   1.733   0.490   1.932 -0.2672 -0.1004 -0.0242
 5585SOL    HW128214   1.784   0.410   1.925 -0.5658 -0.2874 -0.0959
 5585SOL    HW228215   1.709   0.506   1.840  1.9226 -3.2407 -1.1169
 5586SOL     OW28216   2.315   3.419   7.141 -0.2792  0.1430  0.4780
 5586SOL    HW128217   2.304   3.496   7.087  0.4591  1.2526  1.9131
 5586SOL    HW228218   2.253   3.365   7.092 -0.1512  0.3049  0.1406
 5587SOL     OW28219   2.778   1.809   3.906 -0.1249 -0.4587  0.5034
 5587SOL    HW128220   2.757   1.881   3.966  1.8796 -0.5268  1.3123
 5587SOL    HW228221   2.852   1.843   3.856 -0.2071 -1.1688 -0.0996
 5588SOL     OW28222   4.574   3.923   5.591  0.0076  0.2938 -0.1931
 5588SOL    HW128223   4.530   3.995   5.637 -1.5026  0.3342 -1.7252
 5588SOL    HW228224   4.661   3.924   5.632  0.3122 -1.8987 -0.8398
 5589SOL     OW28225   2.912   2.023   4.971 -0.5201  0.1108 -0.3160
 5589SOL    HW128226   2.881   2.085   5.037 -2.8498  0.0408 -1.3586
 5589SOL    HW228227   2.908   1.938   5.016  2.0778 -0.1320 -0.5141
 5590SOL     OW28228   3.837   0.772   2.800  0.4379  0.4325 -0.0550
 5590SOL    HW128229   3.907   0.713   2.773 -0.7194 -0.6585 -0.6617
 5590SOL    HW228230   3.756   0.723   2.789  0.0021  0.4195  3.1152
 5591SOL     OW28231   3.514   3.636  11.486 -0.5517 -0.1498  0.4675
 5591SOL    HW128232   3.448   3.586  11.437  0.0926  1.4959 -2.0413
 5591SOL    HW228233   3.568   3.562  11.513  0.6584  0.0796 -1.3884
 5592SOL     OW28234   3.117   3.122   3.226 -0.4791  0.3273  0.6850
 5592SOL    HW128235   3.053   3.140   3.295 -0.1636  2.0621  0.5307
 5592SOL    HW228236   3.061   3.066   3.172 -1.5078 -0.5923  2.6799
 5593SOL     OW28237   0.279   1.953   7.608 -0.2620  0.2284  0.0381
 5593SOL    HW128238   0.226   1.892   7.659 -0.4475 -0.1312 -0.5832
 5593SOL    HW228239   0.249   2.041   7.633  0.3056  0.6898 -0.9073
 5594SOL     OW28240   0.429   0.676  14.790  0.2045 -0.7097 -0.4473
 5594SOL    HW128241   0.408   0.763  14.823  0.0862 -0.8468 -0.1556
 5594SOL    HW228242   0.345   0.650  14.753 -0.6847  0.3720  0.7972
 5595SOL     OW28243   2.004   3.649   7.450 -0.0775 -0.0328 -0.4967
 5595SOL    HW128244   2.017   3.630   7.357  0.7571  0.1448 -0.4184
 5595SOL    HW228245   2.015   3.743   7.459  0.1583 -0.0350 -0.7388
 5596SOL     OW28246   3.234   1.105  12.763 -0.0864 -0.0421 -0.2811
 5596SOL    HW128247   3.273   1.177  12.714  1.3731 -1.4533 -1.1921
 5596SOL    HW228248   3.313   1.053  12.777 -0.3355 -0.4632 -0.4529
 5597SOL     OW28249   3.022   3.733   2.535  0.6842 -0.2208  0.3377
 5597SOL    HW128250   2.962   3.721   2.609  2.4187  0.6277  1.8748
 5597SOL    HW228251   2.968   3.716   2.458  2.3091 -0.6929 -0.6773
 5598SOL     OW28252   3.218   1.818   6.155  0.0485  0.0455  0.6500
 5598SOL    HW128253   3.193   1.754   6.222  0.0434 -2.2739 -1.5674
 5598SOL    HW228254   3.226   1.755   6.084 -1.5760 -1.2713  1.6214
 5599SOL     OW28255   2.076   1.328   6.420 -0.4358  0.1619  0.5141
 5599SOL    HW128256   1.983   1.316   6.401  0.3577 -2.3702 -1.8072
 5599SOL    HW228257   2.098   1.414   6.385 -2.2236  0.4727  0.1672
 5600SOL     OW28258   4.009   1.314   3.104 -0.3991 -0.0180  0.2428
 5600SOL    HW128259   4.102   1.332   3.117 -0.0660 -0.8371 -1.0050
 5600SOL    HW228260   4.001   1.221   3.124  0.9911  0.3037  2.3001
 5601SOL     OW28261   1.917   2.174  12.050 -0.0286 -0.1574 -0.1673
 5601SOL    HW128262   1.967   2.136  11.978 -3.3947 -1.8764 -1.5962
 5601SOL    HW228263   1.845   2.112  12.063  0.6435 -1.0204 -0.5742
 5602SOL     OW28264   4.350   0.588   9.229 -0.3420 -0.1069 -0.2488
 5602SOL    HW128265   4.405   0.517   9.196 -0.1118  0.1128 -0.3357
 5602SOL    HW228266   4.409   0.663   9.236 -0.7595  0.0107  1.7801
 5603SOL     OW28267   2.891   4.069   8.086 -0.1660 -0.8768 -0.4328
 5603SOL    HW128268   2.951   4.135   8.052 -0.7284  0.7120  1.6565
 5603SOL    HW228269   2.948   3.992   8.095  2.6119  1.1545 -0.5853
 5604SOL     OW28270   0.127   1.492   3.294 -0.9427  0.2966  0.7573
 5604SOL    HW128271   0.119   1.474   3.387  3.3306 -1.5448  0.7876
 5604SOL    HW228272   0.193   1.562   3.295 -1.3039  0.6292  1.1051
 5605SOL     OW28273   0.046   2.398   0.868  0.1895 -0.0391 -0.1397
 5605SOL    HW128274   0.049   2.442   0.783 -0.7094  2.3302  1.0775
 5605SOL    HW228275   0.044   2.469   0.932 -1.0603 -0.9552  0.8516
 5606SOL     OW28276   4.175   3.058   2.359 -0.2215  0.4095  0.1483
 5606SOL    HW128277   4.108   3.092   2.300 -0.9614  1.0945  1.3864
 5606SOL    HW228278   4.118   3.047   2.435 -0.7372 -0.7937 -0.4242
 5607SOL     OW28279   3.757   2.922  11.551  0.5764 -0.1892 -0.4814
 5607SOL    HW128280   3.665   2.920  11.527  0.6025 -2.3674 -0.4537
 5607SOL    HW228281   3.799   2.930  11.466 -1.0500 -0.4498 -1.2986
 5608SOL     OW28282   3.455   3.699   8.026 -0.5246  0.7022  0.1254
 5608SOL    HW128283   3.519   3.628   8.033  0.9350  1.9670 -0.5655
 5608SOL    HW228284   3.417   3.665   7.946  0.8316  0.8237 -0.5633
 5609SOL     OW28285   3.008   4.570   0.190 -0.1432  0.3393  0.7859
 5609SOL    HW128286   2.937   4.612   0.141  1.5410  2.2507 -0.0044
 5609SOL    HW228287   2.995   4.477   0.170 -4.1027  1.2974 -1.0921
 5610SOL     OW28288   0.615   3.229   5.185 -0.4783  0.0789 -0.6927
 5610SOL    HW128289   0.533   3.186   5.159  0.1045 -1.5613  0.1456
 5610SOL    HW228290   0.588   3.313   5.221 -1.9181 -0.7757  0.2432
 5611SOL     OW28291   3.904   0.965   5.894 -0.6027  0.0106  0.2459
 5611SOL    HW128292   3.919   1.047   5.846  3.7046 -0.2261  1.1881
 5611SOL    HW228293   3.901   1.011   5.978  0.5560  1.2943 -0.4233
 5612SOL     OW28294   0.336   0.762  10.358  0.3446 -0.3479  0.2259
 5612SOL    HW128295   0.426   0.780  10.332 -0.0355 -1.2863 -1.7015
 5612SOL    HW228296   0.318   0.846  10.401 -0.9557  0.2257 -1.4635
 5613SOL     OW28297   2.903   2.560   8.738 -0.6197  0.1758 -0.1492
 5613SOL    HW128298   2.970   2.626   8.754 -0.8986  1.2054 -3.4684
 5613SOL    HW228299   2.837   2.607   8.688 -0.6290  1.0619  0.6927
 5614SOL     OW28300   0.371   4.706   6.202 -0.0023 -0.0432  0.2965
 5614SOL    HW128301   0.427   0.056   6.207 -0.0601 -0.0683  1.2372
 5614SOL    HW228302   0.399   4.680   6.114 -1.3493 -0.7164  0.0665
 5615SOL     OW28303   4.513   2.239   2.860  0.3425 -0.2948  0.2291
 5615SOL    HW128304   4.498   2.171   2.925 -0.3771  1.6110  2.0604
 5615SOL    HW228305   4.421   2.262   2.850  0.7284  1.3459  0.4437
 5616SOL     OW28306   2.971   1.808   8.323 -0.0822 -0.1457 -0.5124
 5616SOL    HW128307   2.937   1.772   8.241  3.0539 -2.2990 -0.8821
 5616SOL    HW228308   3.018   1.731   8.355  1.7621  0.5421 -1.5420
 5617SOL     OW28309   2.947   2.811   1.920  0.3422  0.2814 -0.0567
 5617SOL    HW128310   3.030   2.770   1.896 -1.0463 -0.9330 -2.8001
 5617SOL    HW228311   2.956   2.837   2.012  0.0018 -1.9838  0.6194
 5618SOL     OW28312   2.919   0.863   6.318 -0.6642 -0.3434 -0.8202
 5618SOL    HW128313   2.969   0.929   6.366  1.2554 -3.7923  1.8792
 5618SOL    HW228314   2.928   0.786   6.373 -3.0187  0.4624  0.6656
 5619SOL     OW28315   3.149   0.194   8.630 -0.2251  0.5462  0.2282
 5619SOL    HW128316   3.166   0.288   8.629 -2.6659  0.9900  0.9877
 5619SOL    HW228317   3.197   0.182   8.713  0.9654 -1.3945 -0.7379
 5620SOL     OW28318   1.102   3.523   5.931 -0.2868  0.4384 -0.1693
 5620SOL    HW128319   1.049   3.471   5.870  1.0929  1.4238 -2.2490
 5620SOL    HW228320   1.040   3.566   5.989  0.9902 -1.0469  2.2699
 5621SOL     OW28321   1.520   1.974   6.271 -0.8061  0.1667  0.2116
 5621SOL    HW128322   1.441   2.005   6.227 -0.9858 -1.4034 -0.6054
 5621SOL    HW228323   1.578   1.959   6.197 -0.7867  0.3596  0.1886
 5622SOL     OW28324   3.482   1.572   7.071  0.4466 -0.2202 -0.3556
 5622SOL    HW128325   3.432   1.646   7.104 -0.9374 -0.4555 -1.9158
 5622SOL    HW228326   3.501   1.611   6.985  1.4861 -2.5270 -1.1817
 5623SOL     OW28327   2.643   4.213   5.984 -0.2379  0.7112 -0.3029
 5623SOL    HW128328   2.669   4.229   6.075  4.3513 -0.0787 -1.4785
 5623SOL    HW228329   2.658   4.119   5.979  1.2863  1.0133 -1.3601
 5624SOL     OW28330   0.912   4.024   8.555  0.4081 -0.4648 -0.1702
 5624SOL    HW128331   0.842   4.082   8.524  0.8803  1.2759  1.9750
 5624SOL    HW228332   0.982   4.089   8.544  0.6322 -0.8250 -0.8557
 5625SOL     OW28333   2.325   0.743   7.284 -0.2309  0.3122 -0.4190
 5625SOL    HW128334   2.416   0.718   7.271  0.2946  1.6494  0.6032
 5625SOL    HW228335   2.327   0.764   7.377  1.1605  2.5278 -0.9587
 5626SOL     OW28336   3.834   4.086   4.426  0.6849  0.3214 -0.2380
 5626SOL    HW128337   3.774   4.097   4.500  1.7377  0.1848  0.6446
 5626SOL    HW228338   3.912   4.075   4.480  0.5061  0.9718  0.1571
 5627SOL     OW28339   2.349   1.447   7.849  0.2266 -0.0510  0.0597
 5627SOL    HW128340   2.284   1.421   7.914 -0.8343  0.2674 -0.8770
 5627SOL    HW228341   2.316   1.431   7.761  0.0034 -1.3928  0.3875
 5628SOL     OW28342   2.623   1.253   8.551  0.4240 -0.6276 -0.5168
 5628SOL    HW128343   2.676   1.279   8.626  0.2144  0.4774 -0.7407
 5628SOL    HW228344   2.663   1.174   8.515  0.1926 -1.1245  0.3267
 5629SOL     OW28345   1.898   1.982   5.430 -0.2628  0.5671 -0.0841
 5629SOL    HW128346   1.854   1.951   5.351 -1.2973  0.5302  0.5146
 5629SOL    HW228347   1.960   2.038   5.384 -1.5443  1.7469 -0.3677
 5630SOL     OW28348   1.339   3.669   6.269 -1.0128  0.4263  0.4147
 5630SOL    HW128349   1.274   3.734   6.294 -1.3626  0.5006 -0.6662
 5630SOL    HW228350   1.301   3.586   6.300 -1.8811  1.3437  1.8190
 5631SOL     OW28351   1.852   4.419  17.471 -0.3605  0.5078 -0.3859
 5631SOL    HW128352   1.913   4.438  17.400  0.9008  0.0362  0.5560
 5631SOL    HW228353   1.813   4.335  17.448  2.3821 -1.3698  1.8074
 5632SOL     OW28354   4.497   2.114  10.108  0.2365 -0.0817 -0.2550
 5632SOL    HW128355   4.492   2.162  10.025 -1.2670  0.3747  0.0925
 5632SOL    HW228356   4.537   2.185  10.158 -0.8750 -0.0265  0.5530
 5633SOL     OW28357   0.425   2.832  13.485 -0.2856  0.0583  0.2146
 5633SOL    HW128358   0.513   2.866  13.472 -0.9969  1.4537 -1.0192
 5633SOL    HW228359   0.365   2.886  13.433  0.0030 -1.4074 -1.6711
 5634SOL     OW28360   1.495   3.462  17.511 -0.4313 -0.0329  0.1434
 5634SOL    HW128361   1.457   3.410  17.440 -0.5236  0.7904 -0.4080
 5634SOL    HW228362   1.588   3.447  17.491 -0.5268 -0.0923 -0.2439
 5635SOL     OW28363   2.721   1.271   6.284  0.5111 -0.5646  0.2091
 5635SOL    HW128364   2.755   1.359   6.301  0.6695 -0.8746  1.4626
 5635SOL    HW228365   2.688   1.253   6.372 -2.2904 -0.2532 -0.7967
 5636SOL     OW28366   0.190   1.862   3.057 -0.2693 -0.1068 -0.4628
 5636SOL    HW128367   0.185   1.823   2.970 -2.3499  0.7809 -0.7266
 5636SOL    HW228368   0.106   1.908   3.057  0.1979  0.7484 -0.0577
 5637SOL     OW28369   1.835   0.168   0.186 -0.2666  0.1730  0.3544
 5637SOL    HW128370   1.925   0.140   0.198 -0.3199 -1.1533 -2.4244
 5637SOL    HW228371   1.805   0.177   0.096 -4.0949 -1.5327  1.4328
 5638SOL     OW28372   2.408   0.078   7.066 -0.3721  0.0271 -0.0602
 5638SOL    HW128373   2.441   0.157   7.108 -1.0672  0.4356 -0.2811
 5638SOL    HW228374   2.313   0.089   7.075 -0.2434 -0.2637  1.5691
 5639SOL     OW28375   2.669   1.963  10.279  0.4058 -0.4039  0.2089
 5639SOL    HW128376   2.718   1.934  10.356 -1.7132 -2.7724  0.6682
 5639SOL    HW228377   2.623   2.037  10.319  0.0236  0.0267 -1.0190
 5640SOL     OW28378   0.308   3.012   7.839 -0.1912 -0.6011 -0.1524
 5640SOL    HW128379   0.222   3.037   7.807 -0.4215  0.2050  1.0839
 5640SOL    HW228380   0.301   2.919   7.858  1.0311 -0.6607 -0.0216
 5641SOL     OW28381   3.894   1.171  11.514 -0.0903 -0.1286 -0.5516
 5641SOL    HW128382   3.988   1.160  11.530  0.3291  1.7405 -1.7440
 5641SOL    HW228383   3.867   1.079  11.512  2.1671 -0.8077  0.1180
 5642SOL     OW28384   2.222   3.532   2.610 -0.3862  0.4363  0.1571
 5642SOL    HW128385   2.146   3.589   2.602  0.0556  1.2319  1.5950
 5642SOL    HW228386   2.262   3.571   2.688  1.2405 -2.3675  0.7294
 5643SOL     OW28387   0.681   4.556   2.688  0.4147  0.1072  0.2117
 5643SOL    HW128388   0.630   4.533   2.611 -0.2048 -1.0543  0.9616
 5643SOL    HW228389   0.616   4.595   2.747 -0.7524  2.5424 -2.7465
 5644SOL     OW28390   1.365   0.167  11.574  0.7843  0.4038  0.2696
 5644SOL    HW128391   1.351   0.088  11.522 -2.8191  1.0772  0.2217
 5644SOL    HW228392   1.351   0.134  11.662  1.3544 -1.4353 -0.3327
 5645SOL     OW28393   2.162   1.556   3.032 -0.7421 -0.0237 -0.2397
 5645SOL    HW128394   2.079   1.546   3.079  0.3721 -2.4501  1.2185
 5645SOL    HW228395   2.125   1.560   2.944 -1.7075 -0.8816  0.1320
 5646SOL     OW28396   3.332   1.587   9.954 -0.3178 -0.7901  0.4986
 5646SOL    HW128397   3.352   1.496   9.930 -1.6985 -0.7954 -0.6901
 5646SOL    HW228398   3.393   1.595  10.027 -0.0362  0.0146  0.1666
 5647SOL     OW28399   1.360   3.609   0.486  0.1254  0.7341 -0.0926
 5647SOL    HW128400   1.438   3.637   0.535  1.2325 -1.4731 -0.6125
 5647SOL    HW228401   1.394   3.612   0.397 -0.6874  0.9398 -0.3927
 5648SOL     OW28402   4.581   2.907  15.784  0.3650 -0.0011  0.1114
 5648SOL    HW128403   4.614   2.880  15.698  1.9760 -0.5193  0.8842
 5648SOL    HW228404   4.528   2.829  15.801  0.0845 -0.4536 -2.8479
 5649SOL     OW28405   0.335   1.180   7.521  0.2002  0.3719 -0.0284
 5649SOL    HW128406   0.410   1.150   7.573 -0.3417 -0.0673  0.5077
 5649SOL    HW228407   0.368   1.179   7.431 -1.6754  0.1326 -0.7096
 5650SOL     OW28408   1.136   4.673   8.000  0.0109 -0.3265 -0.7006
 5650SOL    HW128409   1.064   4.709   8.051  1.0465 -0.5184  0.8896
 5650SOL    HW228410   1.143   0.019   7.938 -0.4661 -1.2750 -1.8553
 5651SOL     OW28411   3.059   3.348  12.440  0.1666  0.0223  0.2975
 5651SOL    HW128412   3.147   3.308  12.443  0.5343  0.6827 -1.5288
 5651SOL    HW228413   3.006   3.269  12.428  0.7579 -0.2634 -0.4964
 5652SOL     OW28414   3.049   3.287   9.683  0.3957 -0.7905 -0.4447
 5652SOL    HW128415   3.075   3.199   9.656  1.7263 -0.6334  0.3016
 5652SOL    HW228416   3.125   3.340   9.656 -0.1298 -0.4483 -1.2547
 5653SOL     OW28417   3.808   3.478  13.624  0.4798 -0.1607  0.3018
 5653SOL    HW128418   3.816   3.536  13.548  0.8976  0.5669  0.8969
 5653SOL    HW228419   3.714   3.463  13.618  0.3221  0.3786  1.3791
 5654SOL     OW28420   0.437   4.030   7.028 -0.7453  0.5226  0.0406
 5654SOL    HW128421   0.483   4.113   7.029  1.0034 -0.4439  0.2530
 5654SOL    HW228422   0.480   3.991   6.952 -1.5281  0.7052 -0.4923
 5655SOL     OW28423   2.933   2.836   6.998 -0.1433  0.3963  0.3622
 5655SOL    HW128424   2.953   2.747   7.027  1.6480  0.3994 -0.8211
 5655SOL    HW228425   2.846   2.844   7.035  0.0810  0.8469  0.7953
 5656SOL     OW28426   3.013   3.293  14.913  0.0924  0.2324 -0.3098
 5656SOL    HW128427   3.082   3.313  14.977  0.0350 -0.5525 -0.0097
 5656SOL    HW228428   2.994   3.382  14.883 -0.1199  0.4262  0.4065
 5657SOL     OW28429   1.580   1.309   3.551  0.5668 -0.4266  0.1618
 5657SOL    HW128430   1.617   1.396   3.537 -3.1049  1.2410  0.7257
 5657SOL    HW228431   1.647   1.262   3.501 -0.8484 -2.5360  0.2670
 5658SOL     OW28432   3.210   0.383   5.004 -0.6723 -0.3175 -0.3190
 5658SOL    HW128433   3.257   0.390   5.087  2.2896 -1.5176 -1.9008
 5658SOL    HW228434   3.160   0.301   5.012 -0.9712 -0.0849  0.1715
 5659SOL     OW28435   1.927   3.676  13.121  0.0917 -0.0577 -0.3453
 5659SOL    HW128436   1.941   3.583  13.106  0.7200  0.2601 -1.6855
 5659SOL    HW228437   1.983   3.689  13.198 -2.5795 -2.4571  2.0092
 5660SOL     OW28438   2.552   4.557  15.942 -0.0379 -0.5770 -0.0147
 5660SOL    HW128439   2.601   4.480  15.972  2.1266  1.2141  1.0301
 5660SOL    HW228440   2.544   4.541  15.848 -0.5140 -1.2656  0.1429
 5661SOL     OW28441   4.485   3.871   6.851  0.4142  0.0920 -0.3744
 5661SOL    HW128442   4.517   3.926   6.923 -0.9891  2.0281 -1.2342
 5661SOL    HW228443   4.566   3.864   6.800  0.0886 -0.7184 -0.7770
 5662SOL     OW28444   1.435   0.596   1.290  0.0141  0.2154  0.1516
 5662SOL    HW128445   1.382   0.661   1.245 -2.6402 -1.1675  1.2546
 5662SOL    HW228446   1.513   0.648   1.307 -0.4180  1.1300 -0.6956
 5663SOL     OW28447   1.156   1.014  10.491 -0.0942 -0.4092  0.1891
 5663SOL    HW128448   1.075   1.019  10.541  1.0160 -2.4303  2.2225
 5663SOL    HW228449   1.190   0.927  10.512 -2.1903 -0.7896  2.0008
 5664SOL     OW28450   2.009   4.618   1.698 -0.3564 -0.3990  1.0345
 5664SOL    HW128451   1.998   4.667   1.617  0.4814 -1.4252  0.3009
 5664SOL    HW228452   2.100   4.591   1.687  0.0649  1.7631 -0.7596
 5665SOL     OW28453   1.575   4.230   6.206  0.0336 -0.2220  0.2372
 5665SOL    HW128454   1.484   4.227   6.233  1.0002  1.8909  3.7659
 5665SOL    HW228455   1.563   4.202   6.116  0.2645  0.5766 -0.0384
 5666SOL     OW28456   0.809   3.908   4.117 -0.1700  0.3047  0.6072
 5666SOL    HW128457   0.793   3.981   4.058  2.1362  0.8692  0.7048
 5666SOL    HW228458   0.720   3.874   4.127  0.2426 -0.8301  0.4710
 5667SOL     OW28459   2.611   2.454  17.180  0.2902 -0.4233 -0.9147
 5667SOL    HW128460   2.557   2.438  17.257  2.7464 -0.7768  0.7552
 5667SOL    HW228461   2.600   2.549  17.178 -0.5333 -0.4991  0.5967
 5668SOL     OW28462   1.040   3.937  14.495 -0.5343 -0.3775  0.3411
 5668SOL    HW128463   0.989   4.015  14.517 -2.9604 -1.4779 -1.4454
 5668SOL    HW228464   1.130   3.972  14.492  0.2431 -2.4618 -0.6433
 5669SOL     OW28465   4.661   2.329   9.078 -0.3882 -0.2351  0.1210
 5669SOL    HW128466   4.704   2.318   9.163 -0.7358  2.0686  0.5868
 5669SOL    HW228467   4.705   2.249   9.047 -1.4134 -0.4760 -0.7290
 5670SOL     OW28468   0.570   2.833   6.183 -0.5427  0.2550  0.2392
 5670SOL    HW128469   0.638   2.768   6.164 -0.9711 -0.2848  0.5408
 5670SOL    HW228470   0.498   2.770   6.172 -1.5986  1.4790  0.1557
 5671SOL     OW28471   2.254   0.032   5.256  0.0670  0.1960  0.2175
 5671SOL    HW128472   2.196   0.056   5.328  0.2449  0.8582  0.1438
 5671SOL    HW228473   2.316   4.714   5.313  0.1046  0.4837  0.4022
 5672SOL     OW28474   1.613   4.580   7.690 -0.6326 -0.3165 -0.4852
 5672SOL    HW128475   1.661   4.576   7.607 -2.0486  0.2986 -1.3341
 5672SOL    HW228476   1.675   4.533   7.746 -0.8641 -2.0153 -1.6627
 5673SOL     OW28477   1.981   3.850   6.394 -0.5070  0.1161  0.2547
 5673SOL    HW128478   2.019   3.869   6.308 -1.5804  1.3710  0.0652
 5673SOL    HW228479   1.956   3.938   6.421  1.0518  0.4078  0.7334
 5674SOL     OW28480   1.400   0.064  10.546  0.1948 -0.0659  0.1020
 5674SOL    HW128481   1.428   0.097  10.460 -1.5246  2.5748  0.5445
 5674SOL    HW228482   1.311   0.035  10.527 -0.7588  1.7766  1.7708
 5675SOL     OW28483   3.645   0.108   9.764  0.0823 -0.1488  0.2525
 5675SOL    HW128484   3.654   0.060   9.846  0.5672  1.1544  0.9670
 5675SOL    HW228485   3.731   0.145   9.744  0.0571  0.5744  1.4658
 5676SOL     OW28486   3.006   0.775   4.909  0.1047 -0.2675  0.8216
 5676SOL    HW128487   2.963   0.692   4.932 -1.3567 -0.0771 -1.1673
 5676SOL    HW228488   2.972   0.843   4.967 -1.2855  0.4243 -0.8139
 5677SOL     OW28489   2.093   3.410   3.245  0.1564 -0.2091  0.3854
 5677SOL    HW128490   2.146   3.416   3.166  1.3097  0.5813  1.2222
 5677SOL    HW228491   2.019   3.361   3.208  0.0553  0.3872 -0.2001
 5678SOL     OW28492   2.707   2.234   2.457 -0.5660 -0.2258 -0.6533
 5678SOL    HW128493   2.710   2.144   2.490 -0.7959 -0.0628 -0.1790
 5678SOL    HW228494   2.799   2.260   2.457 -0.7955  0.6047 -0.0643
 5679SOL     OW28495   2.848   4.200   2.799  0.0209 -0.6853  0.4352
 5679SOL    HW128496   2.918   4.255   2.833  0.6078 -0.9006 -0.4049
 5679SOL    HW228497   2.816   4.253   2.726  0.6959 -1.6931 -0.6039
 5680SOL     OW28498   2.066   1.053   8.030  0.5238  0.3720 -0.0701
 5680SOL    HW128499   2.098   0.965   8.009 -1.2847 -0.3556  0.2264
 5680SOL    HW228500   1.978   1.049   8.067  0.2746 -1.2111 -0.8051
 5681SOL     OW28501   0.746   4.540   9.019  0.4915 -0.3604  0.0698
 5681SOL    HW128502   0.736   4.446   9.002  0.4328 -0.7209  2.1222
 5681SOL    HW228503   0.785   4.542   9.106 -0.7124  1.1015  0.5833
 5682SOL     OW28504   0.778   3.640   2.394 -0.1718  0.0919  0.0559
 5682SOL    HW128505   0.703   3.584   2.375 -0.9087  0.2008  2.6003
 5682SOL    HW228506   0.749   3.675   2.478  1.6625  1.0560  0.2901
 5683SOL     OW28507   2.680   3.435   9.562 -0.2337  0.0959  1.0186
 5683SOL    HW128508   2.769   3.471   9.556 -0.4601  0.1466 -2.3533
 5683SOL    HW228509   2.645   3.459   9.476 -1.1150  0.2819  1.4331
 5684SOL     OW28510   4.717   1.835   8.884  0.9117 -0.5311 -0.1294
 5684SOL    HW128511   4.660   1.764   8.911  2.3599 -1.2058  1.1439
 5684SOL    HW228512   4.697   1.855   8.792 -1.4485 -0.6017  0.3885
 5685SOL     OW28513   1.355   1.484   9.097 -0.0084  0.0583 -0.3072
 5685SOL    HW128514   1.437   1.454   9.058  0.5580  0.5709  0.5005
 5685SOL    HW228515   1.291   1.424   9.059 -0.2636  1.4551 -2.1011
 5686SOL     OW28516   3.859   2.888   5.288 -0.1269  0.7252  0.2696
 5686SOL    HW128517   3.907   2.953   5.237  0.2835 -0.6693 -1.1226
 5686SOL    HW228518   3.806   2.846   5.220 -0.1895 -0.2422  0.9170
 5687SOL     OW28519   0.654   2.894   8.632  0.0963 -0.1022 -0.3913
 5687SOL    HW128520   0.659   2.889   8.728 -1.6671  1.5914 -0.2127
 5687SOL    HW228521   0.581   2.843   8.600  0.1089 -0.9184  0.8663
 5688SOL     OW28522   4.390   1.201   2.157 -0.3613  0.3208 -0.2988
 5688SOL    HW128523   4.316   1.230   2.104  0.5283  0.6849 -1.3390
 5688SOL    HW228524   4.345   1.137   2.212 -0.8626 -0.5787 -1.7387
 5689SOL     OW28525   2.059   1.209   6.804 -0.1167 -0.3937 -0.1606
 5689SOL    HW128526   2.040   1.294   6.762 -0.3202 -0.5078 -0.2999
 5689SOL    HW228527   2.018   1.224   6.889 -0.5349 -0.9119 -0.2702
 5690SOL     OW28528   3.736   2.373  17.523 -0.1274  0.2700 -0.5413
 5690SOL    HW128529   3.651   2.377  17.479 -1.2657  1.3160  1.7522
 5690SOL    HW228530   3.768   2.463  17.519 -2.1739  1.0814  1.5146
 5691SOL     OW28531   1.159   0.597   8.327 -0.2838 -0.1595 -0.3924
 5691SOL    HW128532   1.084   0.620   8.383  0.9622 -0.2070  1.2789
 5691SOL    HW228533   1.220   0.669   8.315 -0.3958  0.0780  0.4896
 5692SOL     OW28534   0.044   3.330   6.990  0.3088  0.2649  0.3507
 5692SOL    HW128535   4.702   3.389   6.960  0.4670 -1.1204 -2.7275
 5692SOL    HW228536   0.037   3.248   6.941  0.2908 -0.3415  1.3749
 5693SOL     OW28537   3.413   2.742   2.748  0.7190 -0.3925  0.4916
 5693SOL    HW128538   3.382   2.778   2.665 -0.2173 -0.2624  0.9074
 5693SOL    HW228539   3.340   2.689   2.781 -0.3043 -0.7691 -2.3343
 5694SOL     OW28540   3.831   0.919   4.296 -0.3237 -0.1046  0.0335
 5694SOL    HW128541   3.906   0.887   4.246 -0.3685  1.2123 -0.8798
 5694SOL    HW228542   3.821   0.849   4.361 -2.3392  0.3907  0.2708
 5695SOL     OW28543   4.028   1.731   5.977  0.1804  0.4751  0.4912
 5695SOL    HW128544   3.952   1.731   5.918 -1.6080  1.7168  2.7993
 5695SOL    HW228545   4.051   1.819   6.005  0.0707 -0.2225  2.8062
 5696SOL     OW28546   0.549   1.481   3.162  0.1677 -0.2535  0.2635
 5696SOL    HW128547   0.536   1.563   3.210 -1.0199 -0.8015  0.8805
 5696SOL    HW228548   0.462   1.441   3.164  0.3004 -0.5664 -0.2896
 5697SOL     OW28549   0.601   0.869  14.371 -0.0772  0.1008  0.2198
 5697SOL    HW128550   0.610   0.791  14.317  0.8440 -0.5602  1.3438
 5697SOL    HW228551   0.513   0.897  14.345  1.0018  1.6077 -1.8331
 5698SOL     OW28552   0.658   1.782   5.436 -0.4998 -0.0909  0.4787
 5698SOL    HW128553   0.719   1.709   5.422 -1.8388 -1.3491  1.1901
 5698SOL    HW228554   0.585   1.735   5.395  0.1162  1.7282 -2.6886
 5699SOL     OW28555   3.360   2.230   1.390 -0.4652 -0.8545  0.2487
 5699SOL    HW128556   3.309   2.219   1.310 -0.5431 -1.2949  0.3621
 5699SOL    HW228557   3.441   2.272   1.362 -1.3513  1.9416  1.9012
 5700SOL     OW28558   2.622   3.616   2.303  0.1849  0.3880  0.0692
 5700SOL    HW128559   2.716   3.613   2.286  0.2264 -0.1748  0.3831
 5700SOL    HW228560   2.586   3.567   2.230 -1.2418  1.5310  0.0088
 5701SOL     OW28561   1.299   1.106  15.872 -0.1522  0.6284 -0.2334
 5701SOL    HW128562   1.380   1.144  15.906  1.0521 -1.3277 -0.9357
 5701SOL    HW228563   1.281   1.050  15.947  0.0657  0.4005 -0.3510
 5702SOL     OW28564   4.171   4.390   2.928  0.0952 -0.1368 -0.4084
 5702SOL    HW128565   4.217   4.426   2.853  0.4470  0.0243 -0.1139
 5702SOL    HW228566   4.122   4.329   2.872 -0.0733 -0.2594 -0.1272
 5703SOL     OW28567   4.270   2.579   2.705 -0.0173  0.1564  0.1962
 5703SOL    HW128568   4.332   2.619   2.645  1.9702 -1.7025  1.0167
 5703SOL    HW228569   4.290   2.487   2.688 -0.2753  0.1072  0.1543
 5704SOL     OW28570   4.095   0.988   7.216  0.0658 -0.3499  0.1106
 5704SOL    HW128571   4.031   0.952   7.278  0.5471  1.5443  1.7034
 5704SOL    HW228572   4.175   0.965   7.263  0.7305  0.9113 -0.4085
 5705SOL     OW28573   0.899   4.605   3.746 -0.1342 -0.3969 -0.0007
 5705SOL    HW128574   0.933   4.655   3.672  0.1129 -0.3443  0.1459
 5705SOL    HW228575   0.919   4.667   3.815  0.1861 -1.6484  1.0450
 5706SOL     OW28576   1.065   4.382   3.811  0.4476 -0.1620 -0.2242
 5706SOL    HW128577   1.090   4.419   3.727 -2.0413 -0.0563 -0.9111
 5706SOL    HW228578   1.006   4.450   3.845  1.2891  0.4674 -0.0309
 5707SOL     OW28579   2.491   4.007  11.219  0.1760 -0.2999 -0.2359
 5707SOL    HW128580   2.550   4.081  11.231  0.8131 -0.8193 -0.1333
 5707SOL    HW228581   2.433   4.013  11.295 -1.0065  1.3256 -1.2846
 5708SOL     OW28582   0.452   1.506  13.077 -1.1759 -0.1990  0.4135
 5708SOL    HW128583   0.529   1.557  13.103 -1.3300 -0.0705  0.6253
 5708SOL    HW228584   0.436   1.456  13.157  0.9145 -1.6810 -0.1092
 5709SOL     OW28585   3.091   4.344   8.153  0.1608  0.0636  0.4935
 5709SOL    HW128586   3.130   4.271   8.200  3.5189  0.3329 -1.9144
 5709SOL    HW228587   3.129   4.421   8.195  2.2352 -1.2846  1.0553
 5710SOL     OW28588   2.164   3.995  15.190 -0.3727 -0.6558 -1.0036
 5710SOL    HW128589   2.187   3.949  15.271  2.2998  1.2669 -0.6849
 5710SOL    HW228590   2.191   4.084  15.210  0.9103 -1.6887  1.9352
 5711SOL     OW28591   1.914   0.099  11.593 -0.3645  0.1931 -0.3381
 5711SOL    HW128592   1.894   0.011  11.561 -1.5119 -0.6818  2.7768
 5711SOL    HW228593   1.893   0.091  11.686  0.9270  3.2327  0.1943
 5712SOL     OW28594   3.611   1.983   5.141  0.1101  0.8511 -0.0135
 5712SOL    HW128595   3.676   1.937   5.089 -0.6172 -0.9036  0.6208
 5712SOL    HW228596   3.559   2.013   5.067 -0.1079  0.0033 -0.2050
 5713SOL     OW28597   0.470   1.831   9.269  0.1154  0.2785  0.1221
 5713SOL    HW128598   0.553   1.788   9.249 -0.8087 -1.4879  0.1152
 5713SOL    HW228599   0.496   1.923   9.282 -0.2069  0.5231 -1.0161
 5714SOL     OW28600   3.683   0.813   5.261  0.2354  0.4162  0.7865
 5714SOL    HW128601   3.709   0.721   5.255 -0.1353  0.3931 -0.6110
 5714SOL    HW228602   3.605   0.826   5.315  0.8301  1.7424  1.3271
 5715SOL     OW28603   4.670   3.469   7.886  0.1819 -0.0865  0.2433
 5715SOL    HW128604   4.658   3.375   7.875 -0.9291 -0.3333  3.6356
 5715SOL    HW228605   4.624   3.475   7.970 -2.5971  1.4089 -1.3778
 5716SOL     OW28606   0.263   0.477   6.844 -0.0905  0.1408 -0.4064
 5716SOL    HW128607   0.210   0.535   6.898  1.3694  1.7911 -0.7396
 5716SOL    HW228608   0.214   0.478   6.761 -2.1773 -1.0660  0.8194
 5717SOL     OW28609   0.610   4.517   6.464  0.2566  0.2228 -0.0537
 5717SOL    HW128610   0.668   4.572   6.411  0.8701 -1.6700 -1.3653
 5717SOL    HW228611   0.656   4.435   6.447 -1.1130 -0.8042  1.2711
 5718SOL     OW28612   3.023   2.724   3.634 -0.1727 -0.8471 -0.7797
 5718SOL    HW128613   3.018   2.774   3.716  0.8078 -1.0330 -0.6113
 5718SOL    HW228614   3.041   2.784   3.563  0.0356  0.5117  0.4306
 5719SOL     OW28615   2.195   0.047  15.947 -0.4570 -0.0952  0.5074
 5719SOL    HW128616   2.235   0.072  16.030  0.1416 -0.7088  0.4038
 5719SOL    HW228617   2.220   4.682  15.956  1.6381  0.5891  1.6921
 5720SOL     OW28618   2.493   0.235  15.663  0.2555 -0.2761 -0.0576
 5720SOL    HW128619   2.577   0.195  15.685 -0.4628 -0.3607  2.5903
 5720SOL    HW228620   2.495   0.301  15.732  3.2746 -1.8413  1.3317
 5721SOL     OW28621   1.462   1.547   5.824 -0.1396  0.1112  0.5499
 5721SOL    HW128622   1.509   1.630   5.832  0.2619 -0.1215  0.6066
 5721SOL    HW228623   1.376   1.560   5.862 -0.1980  0.4106  0.3104
 5722SOL     OW28624   0.824   4.066   8.896 -0.4913 -0.1275  0.5203
 5722SOL    HW128625   0.859   4.146   8.857  0.8437 -1.0480 -0.1927
 5722SOL    HW228626   0.890   4.006   8.860  0.0926  0.1329  1.1566
 5723SOL     OW28627   4.472   0.820   2.633  0.0249  0.1575  0.7248
 5723SOL    HW128628   4.442   0.785   2.549  1.9586 -0.6841  0.3794
 5723SOL    HW228629   4.472   0.740   2.685  3.2461  0.0459  0.5889
 5724SOL     OW28630   1.796   4.298   3.803  0.2966  0.1687 -0.0502
 5724SOL    HW128631   1.874   4.264   3.847 -0.0116  1.1076  1.2043
 5724SOL    HW228632   1.797   4.249   3.721  0.0914 -1.1248  0.7252
 5725SOL     OW28633   1.806   0.170  17.604  0.4398  0.3150  0.8652
 5725SOL    HW128634   1.830   0.078  17.595 -0.8694  0.0692 -0.0474
 5725SOL    HW228635   1.728   0.180  17.550  1.6002 -1.3354 -1.1270
 5726SOL     OW28636   1.820   3.822   5.780  0.1463 -0.2658  0.1252
 5726SOL    HW128637   1.794   3.744   5.829 -1.4852 -0.2861 -0.7807
 5726SOL    HW228638   1.908   3.833   5.816  0.2365 -1.5457  0.2956
 5727SOL     OW28639   4.029   1.813   2.194  0.1657 -0.0689 -0.6423
 5727SOL    HW128640   4.105   1.866   2.167  0.4767 -0.8988 -1.4025
 5727SOL    HW228641   4.067   1.732   2.161 -0.3910 -0.6193  0.0844
 5728SOL     OW28642   0.245   3.293   7.943 -0.1010 -0.5507 -0.2614
 5728SOL    HW128643   0.179   3.302   8.012 -0.2454  0.5100 -0.5318
 5728SOL    HW228644   0.263   3.199   7.939 -0.8092 -0.7105  0.2935
 5729SOL     OW28645   4.163   1.293   2.014 -0.2385  0.8063  0.3569
 5729SOL    HW128646   4.076   1.256   2.032 -0.4715  1.4469  0.5281
 5729SOL    HW228647   4.147   1.379   2.053 -1.9990  0.6292  0.0473
 5730SOL     OW28648   0.872   2.516   0.912  0.1674  0.9382  0.1880
 5730SOL    HW128649   0.822   2.501   0.832  1.1551 -0.0574 -0.2290
 5730SOL    HW228650   0.843   2.606   0.930 -1.8826 -0.1313  2.3320
 5731SOL     OW28651   2.618   2.087   0.286 -0.4244 -0.5851 -0.8360
 5731SOL    HW128652   2.659   2.075   0.371 -1.2529 -0.0893 -0.3621
 5731SOL    HW228653   2.681   2.050   0.225  1.0650 -0.8441  0.8678
 5732SOL     OW28654   0.264   0.144   1.862 -0.1295  0.1545  0.0245
 5732SOL    HW128655   0.344   0.193   1.842 -0.3158  0.0707 -0.9495
 5732SOL    HW228656   0.283   0.119   1.952 -2.5053  0.6664  0.6672
 5733SOL     OW28657   2.539   4.552  11.113  0.0084 -0.0574  0.3163
 5733SOL    HW128658   2.634   4.546  11.116 -0.0134  0.3814  2.2784
 5733SOL    HW228659   2.522   4.629  11.168 -0.7250  1.0777 -1.5181
 5734SOL     OW28660   4.369   3.156   5.493 -0.2626  0.4445 -0.8635
 5734SOL    HW128661   4.413   3.234   5.461  0.0691  0.6535  0.1314
 5734SOL    HW228662   4.387   3.163   5.587 -2.1623  0.2423 -0.4809
 5735SOL     OW28663   3.579   1.120   6.924 -0.2394  0.1413  0.0101
 5735SOL    HW128664   3.660   1.170   6.937 -0.4640  0.7491 -0.8789
 5735SOL    HW228665   3.578   1.077   7.009  0.4372  0.0867 -0.0089
 5736SOL     OW28666   3.674   3.093   2.282  0.2975  0.3351 -0.3166
 5736SOL    HW128667   3.592   3.116   2.326  0.0408  1.9413 -1.5944
 5736SOL    HW228668   3.680   3.000   2.300 -0.0657  0.5479  0.8762
 5737SOL     OW28669   3.588   2.013   6.978  0.0225 -0.2027  1.0066
 5737SOL    HW128670   3.659   2.063   6.940 -0.0539 -0.2026  0.8627
 5737SOL    HW228671   3.541   1.982   6.900 -1.2689  3.0014  0.5190
 5738SOL     OW28672   2.156   2.082   3.666  0.3446  0.0355 -0.5627
 5738SOL    HW128673   2.082   2.142   3.657  0.9855  1.1083  1.4964
 5738SOL    HW228674   2.104   2.027   3.725 -0.6985  1.4567 -0.1477
 5739SOL     OW28675   0.362   4.642   3.909 -0.4180 -0.8113 -0.0338
 5739SOL    HW128676   0.333   4.660   3.999  1.1407  0.9911  0.0973
 5739SOL    HW228677   0.411   4.562   3.926  0.0031 -0.1676  1.7884
 5740SOL     OW28678   3.448   2.553  10.666  0.5023 -0.1858  0.6418
 5740SOL    HW128679   3.438   2.580  10.575  0.7630 -2.5861 -0.0905
 5740SOL    HW228680   3.503   2.476  10.651 -0.6518 -0.9708  0.3601
 5741SOL     OW28681   4.461   0.599   3.610  0.4202 -0.0853  0.0791
 5741SOL    HW128682   4.524   0.670   3.618 -0.0780  0.4887 -1.2079
 5741SOL    HW228683   4.392   0.636   3.556  0.5117 -0.5886 -0.3859
 5742SOL     OW28684   4.615   3.002   8.730  0.1905 -0.4591 -0.2315
 5742SOL    HW128685   4.571   2.991   8.814 -1.8135  0.0410 -1.2276
 5742SOL    HW228686   4.652   2.914   8.724  1.6410  0.2988 -2.3971
 5743SOL     OW28687   3.027   3.866  12.882  0.0065  0.5265  0.1566
 5743SOL    HW128688   2.991   3.779  12.867 -1.3885  1.0096  0.6784
 5743SOL    HW228689   2.978   3.921  12.822 -0.4016  2.1360  1.9519
 5744SOL     OW28690   1.419   3.238   5.391 -0.7213  0.6165 -0.0366
 5744SOL    HW128691   1.418   3.295   5.314 -2.2803  1.1285  0.3601
 5744SOL    HW228692   1.361   3.293   5.445 -0.6972 -0.5492  1.1655
 5745SOL     OW28693   4.233   2.486  14.599  0.5627 -0.0662 -0.4891
 5745SOL    HW128694   4.226   2.518  14.509 -0.7939 -1.2696 -0.8047
 5745SOL    HW228695   4.144   2.509  14.627  1.7401  2.0414  1.5024
 5746SOL     OW28696   0.718   0.980   8.637  0.6839 -0.0484 -0.1336
 5746SOL    HW128697   0.738   0.927   8.559  0.5363  1.6274 -1.3145
 5746SOL    HW228698   0.648   0.929   8.678 -1.9055  0.3525 -4.0116
 5747SOL     OW28699   3.375   2.171  15.289 -0.1233 -0.0440  1.0469
 5747SOL    HW128700   3.321   2.175  15.210 -2.0147 -2.2635  2.2163
 5747SOL    HW228701   3.299   2.175  15.346 -1.4305 -1.0994 -0.6404
 5748SOL     OW28702   4.212   1.598  15.956 -0.3964 -0.2517  0.5134
 5748SOL    HW128703   4.210   1.678  16.008  1.3761  1.2423 -1.7219
 5748SOL    HW228704   4.252   1.629  15.874 -0.7096  0.1534  0.5173
 5749SOL     OW28705   1.683   2.526   7.742 -0.1504  0.2454 -0.0064
 5749SOL    HW128706   1.682   2.621   7.749  3.9702  0.2412  0.7635
 5749SOL    HW228707   1.598   2.507   7.703 -0.9282 -2.8486  3.1250
 5750SOL     OW28708   0.102   1.039   6.070  0.0381  0.1389 -0.6047
 5750SOL    HW128709   0.179   0.990   6.099 -0.7550 -0.0709  1.1178
 5750SOL    HW228710   0.035   1.019   6.135  1.0019 -3.2524 -0.6641
 5751SOL     OW28711   3.088   0.818  13.081  0.0663 -0.1381  0.2494
 5751SOL    HW128712   3.092   0.895  13.137  0.8244 -0.9753  1.3363
 5751SOL    HW228713   3.046   0.857  13.004 -0.3213 -1.4796 -0.2192
 5752SOL     OW28714   4.664   1.617   8.581 -0.3911  0.4781  0.0634
 5752SOL    HW128715   4.605   1.686   8.610  0.1598  0.4318  1.2681
 5752SOL    HW228716   4.719   1.662   8.518 -0.0721  0.5383  0.3852
 5753SOL     OW28717   1.314   1.259   5.145  0.3108 -0.1843 -0.1926
 5753SOL    HW128718   1.348   1.171   5.164  0.2476  0.5401  3.2190
 5753SOL    HW228719   1.313   1.292   5.234  3.3217 -1.5108  0.3648
 5754SOL     OW28720   0.081   2.686   4.727  0.5455  0.1530 -0.0810
 5754SOL    HW128721   0.106   2.597   4.752  0.6492 -0.1148 -1.1507
 5754SOL    HW228722   0.035   2.670   4.645  1.5391 -1.3072 -0.3508
 5755SOL     OW28723   0.619   2.239   0.228  0.2580  0.4520  0.2508
 5755SOL    HW128724   0.638   2.171   0.163 -0.5779  0.0195  0.4571
 5755SOL    HW228725   0.531   2.263   0.198  0.4445 -0.7372 -1.2485
 5756SOL     OW28726   0.097   0.951   8.182  0.7645  0.4015  0.3219
 5756SOL    HW128727   0.137   0.900   8.252  0.1418  1.3699  1.3833
 5756SOL    HW228728   0.012   0.974   8.221  0.2919 -2.9332  1.3007
 5757SOL     OW28729   3.663   1.348   8.586  0.0980 -0.1427  0.3370
 5757SOL    HW128730   3.662   1.263   8.542  4.4264 -0.4122  0.7089
 5757SOL    HW228731   3.752   1.371   8.561  0.1743 -0.6897  0.1037
 5758SOL     OW28732   3.389   4.676  15.099 -0.0809 -0.2059 -0.0754
 5758SOL    HW128733   3.463   4.637  15.051  0.2768  3.4435 -2.4893
 5758SOL    HW228734   3.341   0.001  15.034  1.0297  0.0698 -0.6842
 5759SOL     OW28735   4.712   1.282  12.621 -0.4473  0.1103  0.1976
 5759SOL    HW128736   4.653   1.357  12.615  2.4433  2.3550  0.0021
 5759SOL    HW228737   4.649   1.210  12.628  0.5016 -0.5705  1.8069
 5760SOL     OW28738   2.222   2.570   7.368 -0.3223 -0.1844 -0.2714
 5760SOL    HW128739   2.304   2.575   7.320  1.0878  1.8512  2.3878
 5760SOL    HW228740   2.230   2.629   7.442  1.2428 -1.9998  1.0044
 5761SOL     OW28741   3.051   3.423  10.758 -0.0065 -0.1082 -0.4425
 5761SOL    HW128742   3.118   3.403  10.692  0.3476 -2.6006  0.6710
 5761SOL    HW228743   3.054   3.519  10.758 -0.1868 -0.1037 -0.0793
 5762SOL     OW28744   2.358   4.087   3.441 -0.4143 -0.5288  0.2357
 5762SOL    HW128745   2.317   4.044   3.516 -0.5428  0.8981  0.9805
 5762SOL    HW228746   2.346   4.024   3.369 -0.5226 -0.2260 -0.0109
 5763SOL     OW28747   4.298   3.947   2.791  0.5471  0.1670 -0.1590
 5763SOL    HW128748   4.286   3.854   2.809 -0.4894  0.4157  0.4311
 5763SOL    HW228749   4.297   3.969   2.884 -1.4282  1.7943 -0.5670
 5764SOL     OW28750   3.832   2.918   0.254 -0.5098 -0.2421  0.2577
 5764SOL    HW128751   3.894   2.980   0.292 -1.0393 -0.3191  1.2484
 5764SOL    HW228752   3.799   2.872   0.331  0.8422 -1.4095  0.1271
 5765SOL     OW28753   2.894   1.432  15.693 -0.6295  0.5935  0.2020
 5765SOL    HW128754   2.986   1.440  15.669 -0.4195  1.1802  1.1636
 5765SOL    HW228755   2.855   1.426  15.606 -1.2648  1.6192  0.4052
 5766SOL     OW28756   3.134   3.207  15.753  0.7080  0.0124 -0.0344
 5766SOL    HW128757   3.118   3.259  15.832  1.8493  1.1093 -0.5223
 5766SOL    HW228758   3.228   3.221  15.742  0.4266  1.5166 -0.5801
 5767SOL     OW28759   3.514   1.689   6.802  0.0647  0.3003 -0.1912
 5767SOL    HW128760   3.450   1.648   6.743  1.1693 -0.9204 -0.5296
 5767SOL    HW228761   3.597   1.667   6.762 -0.5044 -0.9582 -0.6961
 5768SOL     OW28762   4.234   2.344  12.154  0.6029  0.3748  0.1303
 5768SOL    HW128763   4.245   2.397  12.075  0.3252 -0.7004 -0.6271
 5768SOL    HW228764   4.251   2.253  12.128 -0.2914 -0.0675  1.1009
 5769SOL     OW28765   4.051   3.310  13.914 -0.0991  0.0175  0.2416
 5769SOL    HW128766   4.062   3.305  14.009 -0.4691  1.4504  0.3671
 5769SOL    HW228767   4.132   3.352  13.885  0.7400 -3.4967 -2.4364
 5770SOL     OW28768   3.010   1.228   3.211  0.1032  0.3782  0.0187
 5770SOL    HW128769   2.940   1.212   3.148  0.6786  1.4024 -0.8835
 5770SOL    HW228770   3.078   1.171   3.176  0.7840  0.1596  1.7175
 5771SOL     OW28771   2.386   3.171  17.484 -0.0577 -0.2249 -0.0350
 5771SOL    HW128772   2.400   3.167  17.579  0.6769  0.8187 -0.0997
 5771SOL    HW228773   2.423   3.258  17.468  0.6943 -0.2938  1.3734
 5772SOL     OW28774   2.489   4.556   2.069  0.2465  0.1140 -0.8459
 5772SOL    HW128775   2.520   4.601   1.991  1.2397 -1.4904 -1.3751
 5772SOL    HW228776   2.436   4.484   2.035  0.1626  0.4863 -1.4907
 5773SOL     OW28777   1.785   2.761   7.291 -0.7032 -0.9203  0.4745
 5773SOL    HW128778   1.790   2.823   7.364  0.5857 -0.0225 -0.3877
 5773SOL    HW228779   1.759   2.685   7.343  1.2750 -0.7303  1.7258
 5774SOL     OW28780   0.493   3.372   0.603 -0.1655 -0.3985 -0.2260
 5774SOL    HW128781   0.431   3.332   0.663 -1.1367 -1.0846 -1.6883
 5774SOL    HW228782   0.522   3.450   0.650  1.4833 -0.1114 -1.7151
 5775SOL     OW28783   1.635   2.414  10.364  0.1874  0.4549  0.3792
 5775SOL    HW128784   1.654   2.416  10.270 -0.8303  0.8553  0.1797
 5775SOL    HW228785   1.659   2.505  10.375 -2.2491  1.1812 -0.3132
 5776SOL     OW28786   4.300   2.825   3.638  0.2894 -0.1303  0.4331
 5776SOL    HW128787   4.219   2.856   3.597 -1.0409  0.4238  3.4034
 5776SOL    HW228788   4.325   2.767   3.566  3.4672  0.5961  0.9608
 5777SOL     OW28789   1.657   4.232   8.594 -0.0881  0.5010 -0.4636
 5777SOL    HW128790   1.711   4.156   8.575 -0.5202 -0.2752  1.3902
 5777SOL    HW228791   1.639   4.258   8.504  1.0291  0.5819 -0.6635
 5778SOL     OW28792   3.061   0.046   7.064 -0.0915  0.5463  0.1228
 5778SOL    HW128793   3.128   4.707   7.083 -0.8704  0.5460  2.8735
 5778SOL    HW228794   3.080   0.056   6.971 -2.6649  0.9449 -0.3655
 5779SOL     OW28795   3.688   0.539   2.812  0.0628  0.3781  0.3057
 5779SOL    HW128796   3.754   0.483   2.854  0.6799  0.6685 -0.2680
 5779SOL    HW228797   3.612   0.511   2.863  0.1656 -1.2594 -0.4181
 5780SOL     OW28798   4.121   4.561  10.759  0.0543  0.1686 -0.5123
 5780SOL    HW128799   4.066   4.635  10.783 -0.2781 -0.2228 -0.0693
 5780SOL    HW228800   4.205   4.597  10.786  0.4284 -1.7049  0.8150
 5781SOL     OW28801   0.750   1.927  12.118  0.3825  0.0133  0.5146
 5781SOL    HW128802   0.749   1.968  12.032 -2.4354  0.0472  0.5470
 5781SOL    HW228803   0.733   2.005  12.172 -1.3442 -0.5273  0.7691
 5782SOL     OW28804   2.423   2.917   0.883 -0.5438 -0.2906 -0.2087
 5782SOL    HW128805   2.344   2.965   0.859 -1.6147 -1.2897  1.3460
 5782SOL    HW228806   2.393   2.901   0.972 -2.4518  1.1469 -0.6002
 5783SOL     OW28807   1.508   0.144   8.576 -0.6514  0.1917 -0.0607
 5783SOL    HW128808   1.483   0.160   8.667  0.7414  0.6532  0.2506
 5783SOL    HW228809   1.424   0.122   8.536  0.3033  0.4816 -2.2175
 5784SOL     OW28810   2.427   4.318   3.853 -0.1328 -0.1172  0.5962
 5784SOL    HW128811   2.352   4.283   3.902  0.1359 -0.2394  0.9157
 5784SOL    HW228812   2.453   4.394   3.906  2.1996  1.1819 -2.4389
 5785SOL     OW28813   0.119   0.528  15.339  0.3423  0.4558  0.1134
 5785SOL    HW128814   0.147   0.620  15.347  1.4348  0.1354  0.0374
 5785SOL    HW228815   0.144   0.516  15.431  0.2699  1.9693  0.3458
 5786SOL     OW28816   0.519   2.652   1.830  0.3795 -0.6058 -0.1248
 5786SOL    HW128817   0.475   2.570   1.809  0.0193 -0.2290 -0.8120
 5786SOL    HW228818   0.497   2.658   1.923  4.9290 -0.3180  0.9590
 5787SOL     OW28819   2.801   3.822   4.915 -0.3390 -0.4409  0.0382
 5787SOL    HW128820   2.806   3.744   4.861 -0.0954 -0.7029  0.4345
 5787SOL    HW228821   2.823   3.783   5.000  1.9042 -3.8101 -2.0874
 5788SOL     OW28822   4.301   2.071   6.603 -0.4948 -0.0946 -0.8907
 5788SOL    HW128823   4.300   2.163   6.577 -1.1082  0.0826 -0.2387
 5788SOL    HW228824   4.362   2.038   6.537  1.4222  0.6503  0.5169
 5789SOL     OW28825   4.129   0.810   5.911 -0.0265 -0.0291 -0.0787
 5789SOL    HW128826   4.045   0.852   5.894  0.4348  0.4230 -1.2642
 5789SOL    HW228827   4.129   0.798   6.006  0.4414 -0.9837 -0.2035
 5790SOL     OW28828   4.128   0.818   7.942  0.6253  0.2184  0.0150
 5790SOL    HW128829   4.220   0.794   7.950  0.1346 -1.4406  0.7786
 5790SOL    HW228830   4.127   0.910   7.917 -0.6208  0.2196  0.0823
 5791SOL     OW28831   0.923   4.030  10.105  0.0812  0.1291 -0.0034
 5791SOL    HW128832   0.993   4.084  10.068  0.3681 -0.9616 -1.0590
 5791SOL    HW228833   0.968   3.945  10.114 -1.5583 -0.8162 -0.7470
 5792SOL     OW28834   0.141   4.355   2.143 -0.0405  0.3639  0.0619
 5792SOL    HW128835   0.186   4.283   2.098 -0.3898 -0.2230  0.6454
 5792SOL    HW228836   0.054   4.332   2.109  0.5558 -2.3695  0.4141
 5793SOL     OW28837   0.053   0.179  10.712 -0.3511 -0.7235 -0.5194
 5793SOL    HW128838   0.020   0.212  10.629  0.4705  1.0115 -0.1755
 5793SOL    HW228839   0.145   0.162  10.692  0.2994  1.6675  0.3866
 5794SOL     OW28840   4.666   2.580  15.800 -0.2882  0.4892  0.4411
 5794SOL    HW128841   4.682   2.597  15.708  0.3626  0.3219  0.5236
 5794SOL    HW228842   0.029   2.576  15.832 -0.0693  3.0292  0.1004
 5795SOL     OW28843   1.070   1.034   6.559 -0.1347  0.0657  0.2180
 5795SOL    HW128844   1.023   0.953   6.578 -3.4118  2.2628  1.4334
 5795SOL    HW228845   1.145   1.005   6.508 -0.8250 -0.2728 -0.6007
 5796SOL     OW28846   4.677   3.598   7.280 -0.6024 -0.2108  0.3964
 5796SOL    HW128847   0.016   3.653   7.322  0.6194 -0.6744 -0.9228
 5796SOL    HW228848   4.654   3.540   7.353  0.0060 -0.3515  0.4777
 5797SOL     OW28849   3.583   0.875   4.154 -0.0133  0.4824 -0.2400
 5797SOL    HW128850   3.674   0.853   4.174  0.0800  0.3566 -0.7978
 5797SOL    HW228851   3.546   0.908   4.236  0.5103  0.0035  0.1959
 5798SOL     OW28852   2.318   3.395   5.611 -0.3372  0.2229  0.1201
 5798SOL    HW128853   2.387   3.395   5.676  0.5045  2.2390 -0.7627
 5798SOL    HW228854   2.371   3.380   5.533  1.1481 -0.8881  1.3600
 5799SOL     OW28855   3.583   2.105   9.034 -0.0240  0.3063 -0.5034
 5799SOL    HW128856   3.661   2.161   9.031 -0.9090  1.6174  1.4583
 5799SOL    HW228857   3.522   2.146   9.095 -0.6217 -2.7706  0.9707
 5800SOL     OW28858   1.200   0.002  16.020  0.3622 -0.6012 -0.5619
 5800SOL    HW128859   1.290   0.026  16.043 -0.1621  0.5118  0.3209
 5800SOL    HW228860   1.196   4.635  16.038  0.6280 -0.4525  0.2625
 5801SOL     OW28861   1.827   3.106  11.533  0.1202  0.9665  0.3899
 5801SOL    HW128862   1.903   3.098  11.591  0.6313 -0.2557 -0.4497
 5801SOL    HW228863   1.879   3.120  11.454 -0.8322  1.6735 -0.1128
 5802SOL     OW28864   0.584   1.266  15.717  0.1140  0.0866 -0.1585
 5802SOL    HW128865   0.633   1.199  15.669 -0.2206  0.9747 -1.7299
 5802SOL    HW228866   0.607   1.238  15.806 -0.5859  2.5459  0.7974
 5803SOL     OW28867   3.855   3.752   8.860 -0.0546 -0.2908  1.0776
 5803SOL    HW128868   3.765   3.732   8.834  0.7059 -2.1396 -0.0706
 5803SOL    HW228869   3.905   3.691   8.806  0.8966  1.2667  0.1850
 5804SOL     OW28870   0.603   0.086  15.802  0.3206  0.1113  0.4608
 5804SOL    HW128871   0.574   0.012  15.854  0.2895  0.9927  1.6898
 5804SOL    HW228872   0.597   0.146  15.876  1.2975  0.3208  0.3743
 5805SOL     OW28873   4.535   0.852   4.184  0.5141  1.0241  0.1442
 5805SOL    HW128874   4.629   0.853   4.166  0.0732  1.4782 -2.1741
 5805SOL    HW228875   4.509   0.872   4.094 -0.7882  1.1280  0.5428
 5806SOL     OW28876   2.486   0.057  10.570 -0.4489  0.5544 -0.3842
 5806SOL    HW128877   2.500   4.720  10.500  4.2017  1.4289 -0.2756
 5806SOL    HW228878   2.513   0.008  10.648  0.7201 -0.9750 -1.7353
 5807SOL     OW28879   4.488   2.056   7.261  0.3353 -0.4511 -0.0558
 5807SOL    HW128880   4.417   2.066   7.197  2.3654 -0.9103 -2.3718
 5807SOL    HW228881   4.447   2.106   7.332 -0.8245 -1.5070  0.0259
 5808SOL     OW28882   4.398   0.081  12.425 -0.4790 -0.0446 -0.2257
 5808SOL    HW128883   4.417   0.057  12.334  2.1286 -0.3493  0.3939
 5808SOL    HW228884   4.462   0.038  12.482  1.8725  0.8831 -2.1635
 5809SOL     OW28885   0.674   3.853  12.485  0.0067  0.0168  0.0381
 5809SOL    HW128886   0.761   3.814  12.492  0.6302  1.1698 -1.4907
 5809SOL    HW228887   0.650   3.824  12.397  2.0635 -4.8511  1.0594
 5810SOL     OW28888   4.427   2.558   2.433  0.0483  0.0620  0.0325
 5810SOL    HW128889   4.457   2.493   2.369 -0.0452  3.6851 -3.7101
 5810SOL    HW228890   4.440   2.643   2.391 -0.9095  0.6373  0.9026
 5811SOL     OW28891   1.887   3.372   1.997 -0.2329 -0.5122 -0.3787
 5811SOL    HW128892   1.795   3.347   1.998 -0.3970  0.0349 -1.9189
 5811SOL    HW228893   1.894   3.423   1.917  0.3068  0.1744  0.1023
 5812SOL     OW28894   4.200   2.115  15.080  0.3560 -0.3319 -0.9637
 5812SOL    HW128895   4.264   2.182  15.053  1.5626 -1.6042 -1.2345
 5812SOL    HW228896   4.175   2.074  14.997 -1.1262 -0.0881 -0.6383
 5813SOL     OW28897   2.721   0.368  13.809 -0.2399  0.0189 -0.0036
 5813SOL    HW128898   2.708   0.374  13.714  1.2115 -0.6260 -0.2415
 5813SOL    HW228899   2.639   0.329  13.841  0.2162 -0.9907 -0.0511
 5814SOL     OW28900   0.839   1.293   2.524  0.1460  0.1427  0.7543
 5814SOL    HW128901   0.839   1.237   2.447 -1.1656 -0.7995  1.4349
 5814SOL    HW228902   0.783   1.364   2.491  1.3192  0.4127 -0.6372
 5815SOL     OW28903   3.755   2.758   0.469 -0.3822  0.1355 -0.1302
 5815SOL    HW128904   3.682   2.697   0.470  0.4673 -0.9026 -1.0984
 5815SOL    HW228905   3.729   2.818   0.539  1.7596  0.6796  0.2245
 5816SOL     OW28906   4.089   3.432   0.967  0.7642 -0.3781 -0.1921
 5816SOL    HW128907   4.126   3.347   0.995 -0.1505 -0.9058 -0.5798
 5816SOL    HW228908   4.023   3.446   1.035 -0.2950 -0.3080 -1.2457
 5817SOL     OW28909   3.871   3.579   2.075  0.0439 -0.5251 -0.5410
 5817SOL    HW128910   3.787   3.543   2.048  0.0707 -0.3705 -0.8325
 5817SOL    HW228911   3.931   3.505   2.084 -0.5865 -0.8370  1.1595
 5818SOL     OW28912   4.536   0.662   9.416  0.4249 -0.3943  0.3417
 5818SOL    HW128913   4.528   0.700   9.504  2.0597 -0.5256  0.5428
 5818SOL    HW228914   4.567   0.736   9.363  1.9315  0.6418  2.6700
 5819SOL     OW28915   1.192   3.503  16.381 -0.4500 -0.2251  0.5113
 5819SOL    HW128916   1.102   3.483  16.353 -0.8057  1.1389  0.6573
 5819SOL    HW228917   1.217   3.569  16.316 -2.1844 -0.5058 -0.4697
 5820SOL     OW28918   0.375   4.392   6.383 -0.1312 -0.0373 -0.4108
 5820SOL    HW128919   0.382   4.315   6.440  0.1675  1.8292  2.0660
 5820SOL    HW228920   0.454   4.434   6.416  0.2404 -0.6565 -0.5065
 5821SOL     OW28921   3.520   1.969   7.352 -0.0427 -0.0565  0.4015
 5821SOL    HW128922   3.469   2.049   7.365 -0.3395  0.0151 -1.2271
 5821SOL    HW228923   3.500   1.925   7.435 -2.0965  1.4164  0.6881
 5822SOL     OW28924   1.118   0.749   5.749 -0.3130 -0.5985 -1.0699
 5822SOL    HW128925   1.080   0.802   5.819 -0.7825 -1.5098 -0.6363
 5822SOL    HW228926   1.042   0.741   5.693 -0.9626 -0.7969 -0.1624
 5823SOL     OW28927   3.540   3.153   7.461  0.2268  0.3357  0.0150
 5823SOL    HW128928   3.489   3.159   7.541  0.5231 -0.7249  0.2821
 5823SOL    HW228929   3.538   3.058   7.453 -0.0865  0.2759  0.8278
 5824SOL     OW28930   0.330   4.171   7.337 -0.4801  0.2747  0.4515
 5824SOL    HW128931   0.419   4.188   7.369 -0.7099  1.2367  0.6025
 5824SOL    HW228932   0.295   4.159   7.425 -0.2386  1.2333  0.6861
 5825SOL     OW28933   2.768   4.363   5.337 -0.2845 -0.4029  0.5811
 5825SOL    HW128934   2.822   4.377   5.415 -2.0417  0.4186  1.6344
 5825SOL    HW228935   2.765   4.268   5.348  0.8380 -0.7909 -2.2518
 5826SOL     OW28936   0.840   3.815   5.050  0.6199  0.0590 -0.4320
 5826SOL    HW128937   0.749   3.819   5.019 -0.1156 -4.1297  1.2567
 5826SOL    HW228938   0.883   3.851   4.973  0.3669  1.1733 -0.0562
 5827SOL     OW28939   2.126   3.706   4.816  0.4451 -0.5734 -0.2705
 5827SOL    HW128940   2.220   3.726   4.819  0.4078 -0.5847  0.9608
 5827SOL    HW228941   2.119   3.613   4.795 -1.1149 -1.1319  2.7265
 5828SOL     OW28942   4.043   0.693   4.678  0.2455  0.0074 -0.0841
 5828SOL    HW128943   4.102   0.618   4.683 -0.6608 -0.6343  0.9777
 5828SOL    HW228944   4.059   0.745   4.758 -2.0712 -0.9899  1.0230
 5829SOL     OW28945   0.833   0.233   9.574 -0.1844  0.0622  0.4334
 5829SOL    HW128946   0.786   0.164   9.621 -0.4303  0.2234  0.4235
 5829SOL    HW228947   0.828   0.305   9.637 -0.4673  1.6288 -1.3502
 5830SOL     OW28948   0.907   1.500  17.629  0.3771 -0.1502 -0.4160
 5830SOL    HW128949   0.825   1.451  17.631 -0.2878  1.0306  1.2330
 5830SOL    HW228950   0.883   1.586  17.663  0.4275 -0.4552  0.3812
 5831SOL     OW28951   3.293   3.022   4.421  0.0346 -0.8746  0.2790
 5831SOL    HW128952   3.342   2.945   4.391  0.2423 -0.1323 -1.2741
 5831SOL    HW228953   3.214   2.974   4.449  0.7095 -1.3962  1.3005
 5832SOL     OW28954   4.024   3.681   8.671  0.2470  0.9514 -0.1136
 5832SOL    HW128955   4.112   3.684   8.710 -0.1916  1.1576  0.8300
 5832SOL    HW228956   4.042   3.624   8.595  1.7595  0.6597  0.4677
 5833SOL     OW28957   0.531   3.170   4.015  0.1398  0.3616  0.2899
 5833SOL    HW128958   0.448   3.208   3.989 -0.8856 -2.2042 -0.1551
 5833SOL    HW228959   0.525   3.172   4.111  2.6556  1.4300  0.4251
 5834SOL     OW28960   2.903   0.518   5.709 -0.0093 -0.1325  0.0584
 5834SOL    HW128961   2.939   0.602   5.736  0.5253 -1.0128  2.0991
 5834SOL    HW228962   2.843   0.501   5.782 -1.1213  0.6372 -0.6702
 5835SOL     OW28963   1.772   1.801   4.451 -0.0272 -0.2262  0.0059
 5835SOL    HW128964   1.801   1.891   4.437  0.7733 -0.4930 -0.0572
 5835SOL    HW228965   1.697   1.794   4.391 -0.9896  0.2511  1.1633
 5836SOL     OW28966   1.859   0.308  11.871 -0.2017 -0.2720  0.4721
 5836SOL    HW128967   1.875   0.216  11.894 -0.2494 -1.0092 -2.3722
 5836SOL    HW228968   1.936   0.339  11.824 -1.0016 -0.2886 -0.8633
 5837SOL     OW28969   1.593   3.703   8.831  0.0121  0.0874  0.2628
 5837SOL    HW128970   1.679   3.670   8.858 -0.1464 -0.6955 -0.1744
 5837SOL    HW228971   1.585   3.643   8.756 -0.0200  1.4016 -0.7821
 5838SOL     OW28972   3.710   1.193   1.892 -0.0356 -0.3334  0.4054
 5838SOL    HW128973   3.709   1.098   1.906 -1.3217 -0.5755 -1.3953
 5838SOL    HW228974   3.692   1.215   1.801 -0.4145 -1.2875  0.2479
 5839SOL     OW28975   0.504   0.548  11.765  0.1784  0.3592  0.4140
 5839SOL    HW128976   0.560   0.470  11.771 -1.6285 -0.9668  0.1312
 5839SOL    HW228977   0.481   0.556  11.672 -0.1108  0.9640  0.5366
 5840SOL     OW28978   4.190   4.409   3.855 -0.7902  0.3116  0.0382
 5840SOL    HW128979   4.215   4.458   3.933 -0.5166 -1.7624  1.2553
 5840SOL    HW228980   4.224   4.466   3.786 -1.6274  0.0387 -0.6049
 5841SOL     OW28981   4.424   2.243   9.300  0.5152 -0.0879  0.9330
 5841SOL    HW128982   4.398   2.176   9.363  0.2225 -0.3753  0.5077
 5841SOL    HW228983   4.368   2.311   9.338  0.2893  0.1897  0.1178
 5842SOL     OW28984   0.779   4.576   9.932  0.0367  0.3937 -0.3454
 5842SOL    HW128985   0.821   4.571  10.018 -1.1061 -0.2550  0.1718
 5842SOL    HW228986   0.729   4.496   9.920  0.1171 -0.1419  2.8782
 5843SOL     OW28987   0.734   4.210  10.221 -0.1902 -0.5732  0.0408
 5843SOL    HW128988   0.810   4.155  10.201 -0.3919 -0.6255 -0.6058
 5843SOL    HW228989   0.786   4.278  10.262 -1.0057 -0.6006  1.1191
 5844SOL     OW28990   0.685   2.587   6.171  0.1637  0.0348  0.0517
 5844SOL    HW128991   0.641   2.509   6.138  1.6038 -0.2474 -1.2211
 5844SOL    HW228992   0.734   2.549   6.244  1.9303 -3.3359 -2.8750
 5845SOL     OW28993   2.291   3.105   2.758  0.0820  0.2115  0.1073
 5845SOL    HW128994   2.258   3.022   2.794 -0.1871 -0.2460 -1.2151
 5845SOL    HW228995   2.214   3.145   2.717  0.1511 -1.5236 -1.7126
 5846SOL     OW28996   3.353   0.718   8.653 -0.4206 -0.2856 -0.3555
 5846SOL    HW128997   3.378   0.804   8.687  0.4397 -0.1804 -1.2485
 5846SOL    HW228998   3.371   0.720   8.559 -0.3616 -0.2468 -0.3433
 5847SOL     OW28999   0.743   2.766   1.266  0.1189  0.1998 -0.1723
 5847SOL    HW129000   0.710   2.736   1.351  2.0130 -0.9553  0.1553
 5847SOL    HW229001   0.659   2.781   1.223  0.0060 -0.4811 -0.1839
 5848SOL     OW29002   0.388   3.918   3.475  0.2080 -0.1484  0.2004
 5848SOL    HW129003   0.311   3.874   3.440  1.1086 -0.5053 -1.3321
 5848SOL    HW229004   0.439   3.916   3.394  1.3335  0.1595  0.8960
 5849SOL     OW29005   0.174   0.726   2.429 -0.3745 -0.1469  0.7389
 5849SOL    HW129006   0.256   0.767   2.456 -1.0893  0.0142  2.6839
 5849SOL    HW229007   0.112   0.776   2.481  1.2896  1.7574  0.8707
 5850SOL     OW29008   4.005   3.033   3.307  0.3599 -0.2244  0.5442
 5850SOL    HW129009   3.921   3.045   3.263  0.0969  1.0529  1.3818
 5850SOL    HW229010   3.995   3.097   3.377  2.7597  0.3325  0.3720
 5851SOL     OW29011   4.210   4.059   2.135 -0.1660 -0.2724 -0.4858
 5851SOL    HW129012   4.283   4.028   2.190  1.8703 -1.1703 -3.6930
 5851SOL    HW229013   4.254   4.087   2.055  0.6299 -0.4473 -0.1111
 5852SOL     OW29014   1.785   4.342   0.388  0.4511 -0.5559  0.3044
 5852SOL    HW129015   1.732   4.284   0.443  1.1045 -0.6438  0.8297
 5852SOL    HW229016   1.797   4.288   0.309  0.2948 -1.8820  1.1811
 5853SOL     OW29017   1.443   3.027   5.065 -0.0012  0.5936 -0.2140
 5853SOL    HW129018   1.458   2.932   5.064  0.2400  0.6318  0.0115
 5853SOL    HW229019   1.501   3.065   4.999  0.7548 -0.0734  0.0736
 5854SOL     OW29020   1.126   0.648   7.067  0.0418 -0.4510  0.4500
 5854SOL    HW129021   1.113   0.716   7.133  3.2668  1.6441 -1.1058
 5854SOL    HW229022   1.176   0.584   7.119  0.7688 -0.4203 -0.2072
 5855SOL     OW29023   3.442   3.455   3.670 -0.0435  0.0446 -0.4383
 5855SOL    HW129024   3.521   3.507   3.683  1.6036 -2.1633 -1.5641
 5855SOL    HW229025   3.449   3.396   3.745  0.1556 -0.8143 -1.1302
 5856SOL     OW29026   2.185   1.390  11.901  0.5420 -0.2801 -0.0734
 5856SOL    HW129027   2.125   1.382  11.975 -1.4434  1.0842 -1.5075
 5856SOL    HW229028   2.137   1.329  11.845  0.7420 -1.8314  1.4768
 5857SOL     OW29029   1.695   3.507   0.721  0.6102  0.1737  0.9566
 5857SOL    HW129030   1.674   3.583   0.667  2.0222 -0.6327 -0.7488
 5857SOL    HW229031   1.671   3.519   0.813 -3.3387  2.9577 -0.4394
 5858SOL     OW29032   2.331   4.358   1.962 -0.6776 -0.4688 -0.4853
 5858SOL    HW129033   2.328   4.338   1.868  1.4859  0.2445 -0.7108
 5858SOL    HW229034   2.251   4.409   1.969  0.1164  1.0538 -2.6128
 5859SOL     OW29035   1.676   2.439  13.056  0.1382  0.6358  0.4855
 5859SOL    HW129036   1.717   2.505  12.999 -1.6151  0.1508 -1.3087
 5859SOL    HW229037   1.670   2.360  13.003  0.5987  0.1078  1.2132
 5860SOL     OW29038   3.146   3.767   7.795 -0.2319  0.4043  0.0907
 5860SOL    HW129039   3.159   3.673   7.806 -0.4041  0.6177  2.2648
 5860SOL    HW229040   3.224   3.777   7.740 -0.5795  0.5040 -0.3830
 5861SOL     OW29041   1.340   3.547   7.474  0.0580 -0.3382  0.2885
 5861SOL    HW129042   1.411   3.610   7.488  2.1664 -3.2516  2.7426
 5861SOL    HW229043   1.360   3.531   7.382 -0.1832  0.6521  0.0630
 5862SOL     OW29044   0.259   2.726  10.788  0.6422  0.3633  0.1055
 5862SOL    HW129045   0.268   2.811  10.746 -0.0552 -0.2467 -1.3131
 5862SOL    HW229046   0.350   2.722  10.817  0.6700 -1.8829 -0.2556
 5863SOL     OW29047   4.342   3.421   7.339 -0.7595  0.1414  0.4142
 5863SOL    HW129048   4.331   3.379   7.254  0.7321  1.7505 -0.5825
 5863SOL    HW229049   4.377   3.505   7.309  0.5800 -0.6483 -0.2518
 5864SOL     OW29050   2.678   0.650  11.061 -0.1825 -0.3787 -0.1781
 5864SOL    HW129051   2.755   0.631  11.007 -0.1024 -0.6693  0.0380
 5864SOL    HW229052   2.640   0.562  11.069 -1.2819  0.2335  1.1980
 5865SOL     OW29053   0.227   2.924  13.298  0.1921  0.1311  0.3181
 5865SOL    HW129054   0.295   2.988  13.275 -1.0976  0.7057 -1.8873
 5865SOL    HW229055   0.156   2.969  13.343  2.6817  1.6418  2.7265
 5866SOL     OW29056   2.871   3.549  17.143  0.7980 -0.4899 -0.0723
 5866SOL    HW129057   2.916   3.608  17.082  0.9372 -0.5295 -0.0083
 5866SOL    HW229058   2.855   3.602  17.221 -0.4005  1.3586 -1.5580
 5867SOL     OW29059   2.149   2.424   5.738 -0.3393  0.3403 -0.6305
 5867SOL    HW129060   2.165   2.518   5.747 -1.2745  0.3285  1.0699
 5867SOL    HW229061   2.054   2.417   5.730 -0.4779 -0.3816  1.6908
 5868SOL     OW29062   1.981   2.734   6.363  0.3043  0.4375 -0.1316
 5868SOL    HW129063   1.913   2.778   6.312  0.4690  2.1668  1.1556
 5868SOL    HW229064   1.934   2.721   6.445 -0.6971  0.8219 -0.6485
 5869SOL     OW29065   1.969   0.239   3.200  0.0910 -0.3421 -0.0572
 5869SOL    HW129066   1.985   0.228   3.294 -0.3024  0.7533  0.1414
 5869SOL    HW229067   1.972   0.148   3.169 -3.6824 -1.1226  1.8915
 5870SOL     OW29068   3.886   0.771   8.850 -0.6611 -0.1891  0.0859
 5870SOL    HW129069   3.861   0.777   8.942 -1.2737 -0.1455 -0.0883
 5870SOL    HW229070   3.852   0.684   8.830  0.2700 -1.0295  2.0949
 5871SOL     OW29071   1.388   3.883   5.127  0.1902 -0.3286 -0.2915
 5871SOL    HW129072   1.372   3.789   5.138 -1.5963 -0.0242 -0.1723
 5871SOL    HW229073   1.347   3.920   5.205  1.8661 -1.3794  1.0572
 5872SOL     OW29074   1.022   3.671   0.185  0.1054  0.2924 -0.2478
 5872SOL    HW129075   1.038   3.646   0.276  1.3852 -0.5258 -0.6913
 5872SOL    HW229076   0.978   3.601   0.136  0.3269  1.6129 -2.3611
 5873SOL     OW29077   0.524   2.302   3.968  0.3748  0.3103 -0.3989
 5873SOL    HW129078   0.548   2.361   4.040 -2.4836  1.0478 -0.0543
 5873SOL    HW229079   0.561   2.362   3.904  1.2380  0.5149  0.2894
 5874SOL     OW29080   0.141   3.025  10.681 -0.2818 -0.7237  0.7594
 5874SOL    HW129081   0.048   3.005  10.675 -0.0914 -1.5782  0.6037
 5874SOL    HW229082   0.143   3.052  10.773 -0.7887  2.5562 -0.2067
 5875SOL     OW29083   3.831   1.869   5.017 -0.2634  0.0400  0.2719
 5875SOL    HW129084   3.868   1.846   4.932  0.4726  2.1058  0.0334
 5875SOL    HW229085   3.884   1.946   5.040  0.2394 -0.2011 -0.0783
 5876SOL     OW29086   1.189   4.102   3.269 -0.2028 -0.5549 -0.5940
 5876SOL    HW129087   1.228   4.153   3.340  0.3482 -2.0530  0.1747
 5876SOL    HW229088   1.137   4.043   3.324 -1.1300  1.3251  0.5450
 5877SOL     OW29089   0.667   1.544   4.018 -0.5798  0.2269  0.2286
 5877SOL    HW129090   0.736   1.480   4.033  0.2347  0.9018 -0.6476
 5877SOL    HW229091   0.606   1.483   3.975 -2.1077  0.3515  2.2385
 5878SOL     OW29092   1.924   0.294   2.756  0.0163  0.7413  0.3765
 5878SOL    HW129093   1.965   0.212   2.731  2.4211  1.2135  2.7829
 5878SOL    HW229094   1.997   0.353   2.742 -0.7983  1.2099 -1.9916
 5879SOL     OW29095   3.411   0.207   5.456  0.2594 -0.6474  0.2202
 5879SOL    HW129096   3.505   0.198   5.438 -0.4427  1.0769 -4.4116
 5879SOL    HW229097   3.371   0.131   5.414 -0.5371 -0.7214  1.1087
 5880SOL     OW29098   2.722   1.360   2.475  0.1276 -0.3919  0.9784
 5880SOL    HW129099   2.799   1.311   2.503  0.6151 -0.1692  0.0399
 5880SOL    HW229100   2.697   1.412   2.551  3.3081  0.6067  1.3516
 5881SOL     OW29101   0.457   0.542  10.169 -0.1653 -0.1103 -0.7950
 5881SOL    HW129102   0.439   0.544  10.263  1.3297  3.3627 -0.5717
 5881SOL    HW229103   0.367   0.542  10.136 -0.4215  2.7021 -0.0880
 5882SOL     OW29104   4.438   1.944  11.827 -0.4518  0.5553 -0.2600
 5882SOL    HW129105   4.467   1.874  11.767 -1.6706  0.8832 -1.2083
 5882SOL    HW229106   4.345   1.951  11.807 -0.7858  1.7780  1.8419
 5883SOL     OW29107   2.533   0.829   5.511 -0.2098 -0.1488 -0.3229
 5883SOL    HW129108   2.560   0.773   5.583 -1.0015 -0.5404 -0.3248
 5883SOL    HW229109   2.457   0.794   5.465 -0.0106 -1.7735  0.6009
 5884SOL     OW29110   0.136   1.936   5.311  0.2593  0.6870 -0.1787
 5884SOL    HW129111   0.068   1.868   5.305  1.4998 -0.4746 -0.9915
 5884SOL    HW229112   0.199   1.908   5.245  0.6572  1.2998 -0.0578
 5885SOL     OW29113   2.159   1.929   5.108  0.2295  0.4526 -0.0779
 5885SOL    HW129114   2.105   1.858   5.073 -0.0249 -0.2480  1.7160
 5885SOL    HW229115   2.237   1.924   5.053  0.4754 -0.3174  0.3400
 5886SOL     OW29116   4.111   1.357   9.205  0.2718 -0.4739  0.1223
 5886SOL    HW129117   4.085   1.296   9.273 -0.8744 -0.6949 -0.5142
 5886SOL    HW229118   4.180   1.320   9.149 -0.0579 -1.3412  0.2941
 5887SOL     OW29119   1.873   1.046   5.952  0.1412  0.7257  0.2117
 5887SOL    HW129120   1.951   1.040   5.896  1.2290 -2.1803  2.0839
 5887SOL    HW229121   1.817   0.990   5.898 -0.4172  2.2548 -0.8141
 5888SOL     OW29122   1.713   2.462   2.583 -0.3114 -0.3320 -0.5023
 5888SOL    HW129123   1.799   2.501   2.568 -0.1556 -0.3490  0.3496
 5888SOL    HW229124   1.737   2.395   2.648  0.6305  0.4765 -0.0180
 5889SOL     OW29125   0.664   4.661   7.583 -0.1578 -0.4219 -0.2178
 5889SOL    HW129126   0.601   4.590   7.573 -1.0797  0.2883  0.4713
 5889SOL    HW229127   0.743   4.627   7.542 -0.5658 -1.8100  0.1712
 5890SOL     OW29128   0.659   4.166   5.863  0.0240  0.3360 -0.1537
 5890SOL    HW129129   0.593   4.096   5.867  0.5429  0.2156  5.6766
 5890SOL    HW229130   0.640   4.190   5.772 -1.7506  1.6165  0.5604
 5891SOL     OW29131   0.670   4.215   5.099 -0.0072 -0.1169  0.2066
 5891SOL    HW129132   0.596   4.167   5.061  1.5418 -0.9095 -1.8242
 5891SOL    HW229133   0.738   4.179   5.041 -0.1588  1.7417 -1.1164
 5892SOL     OW29134   3.075   1.663   3.443  0.2206  0.4138  0.0632
 5892SOL    HW129135   3.117   1.665   3.358  0.8671  0.3666  0.3796
 5892SOL    HW229136   3.142   1.707   3.496  1.9936  1.2286 -2.8565
 5893SOL     OW29137   1.988   1.618   2.077 -0.4899  0.0475 -0.2520
 5893SOL    HW129138   1.946   1.534   2.097  0.8509 -0.0009  2.3998
 5893SOL    HW229139   1.915   1.655   2.028  0.4561  1.1640 -0.8152
 5894SOL     OW29140   0.793   0.627   7.301  0.1173  0.2405 -0.3842
 5894SOL    HW129141   0.821   0.666   7.218  0.2813  1.0050  0.0245
 5894SOL    HW229142   0.838   0.689   7.359 -0.1876 -0.5520  0.6775
 5895SOL     OW29143   1.661   4.194  17.498  1.1436 -0.3582  0.0212
 5895SOL    HW129144   1.617   4.120  17.540  0.7877 -0.6922 -0.9519
 5895SOL    HW229145   1.613   4.192  17.415 -1.1281  0.2194  1.3354
 5896SOL     OW29146   3.829   0.384   6.372  0.0282  0.4853 -0.6079
 5896SOL    HW129147   3.753   0.438   6.348 -0.0508  0.4971 -0.3301
 5896SOL    HW229148   3.780   0.302   6.378  2.1269 -0.7073  0.0520
 5897SOL     OW29149   1.835   1.989  11.808 -0.3840  0.3075  0.3529
 5897SOL    HW129150   1.791   2.074  11.822 -0.0471  0.2642  1.7468
 5897SOL    HW229151   1.764   1.931  11.837 -1.3148  1.1588 -0.2071
 5898SOL     OW29152   3.368   3.090   9.929  0.0160 -0.0819  0.1621
 5898SOL    HW129153   3.392   3.173   9.970 -0.7555  0.4922 -0.5623
 5898SOL    HW229154   3.346   3.117   9.840  0.0231  0.5249  0.3460
 5899SOL     OW29155   3.322   3.498   7.071  0.0407 -0.0019  0.0344
 5899SOL    HW129156   3.279   3.413   7.082  1.0167 -0.4473  0.3843
 5899SOL    HW229157   3.273   3.532   6.996  0.3172 -0.6978 -0.4614
 5900SOL     OW29158   3.343   2.644   1.362 -0.5787 -0.7082  0.0823
 5900SOL    HW129159   3.349   2.586   1.437 -0.7532 -1.0454 -0.1673
 5900SOL    HW229160   3.358   2.729   1.404 -0.7594 -0.1078 -1.0791
 5901SOL     OW29161   3.471   4.712  16.153 -0.5244  0.0841  0.0302
 5901SOL    HW129162   3.377   0.003  16.150 -0.4313  0.4002 -1.0816
 5901SOL    HW229163   3.477   4.658  16.232 -2.0961  0.7906  0.6369
 5902SOL     OW29164   0.180   1.504  16.214  0.6239 -0.1188  0.0658
 5902SOL    HW129165   0.143   1.579  16.167 -0.4261 -0.4787  0.3242
 5902SOL    HW229166   0.257   1.476  16.164  0.6685  0.4309 -0.1767
 5903SOL     OW29167   0.076   1.068   3.029 -0.0334  0.0007  0.1553
 5903SOL    HW129168   0.008   1.081   2.963  1.5250  0.0118 -1.4312
 5903SOL    HW229169   0.026   1.097   3.106  1.6697  0.2346  1.1818
 5904SOL     OW29170   1.082   0.665   2.623  0.3704  0.3279 -0.2248
 5904SOL    HW129171   1.145   0.600   2.654  2.4242  1.6100 -1.6833
 5904SOL    HW229172   1.064   0.630   2.535  0.4901  0.6999 -0.3962
 5905SOL     OW29173   2.584   0.263   6.195  0.5881  0.2497  0.4157
 5905SOL    HW129174   2.560   0.349   6.232  0.7549 -0.4905  2.2505
 5905SOL    HW229175   2.678   0.274   6.182  0.4765  0.4421 -0.2043
 5906SOL     OW29176   2.714   2.327   6.818  0.4623  0.0249  1.0170
 5906SOL    HW129177   2.686   2.364   6.735 -1.0901  2.5752  2.6864
 5906SOL    HW229178   2.800   2.368   6.830 -0.2982  1.6277  1.0428
 5907SOL     OW29179   1.950   3.601  11.353 -0.4322 -0.6041 -0.1143
 5907SOL    HW129180   1.935   3.520  11.401 -0.9992 -2.2537 -3.0389
 5907SOL    HW229181   2.009   3.568  11.286 -0.8661 -0.3646 -0.6176
 5908SOL     OW29182   2.270   0.103   0.515  0.2557 -0.5586 -0.1727
 5908SOL    HW129183   2.353   0.068   0.547 -0.5344 -1.7943  0.5420
 5908SOL    HW229184   2.255   0.169   0.584 -2.8305 -1.1717 -0.2507
 5909SOL     OW29185   3.730   1.758   2.869 -0.4331 -0.5471 -0.4767
 5909SOL    HW129186   3.742   1.679   2.817 -0.1909  1.8708 -4.1173
 5909SOL    HW229187   3.819   1.766   2.902 -0.8283  3.3377 -0.3591
 5910SOL     OW29188   0.716   3.686   4.702 -0.4625  0.2815 -0.5140
 5910SOL    HW129189   0.702   3.636   4.621 -1.5443 -1.6468  0.8879
 5910SOL    HW229190   0.803   3.724   4.687 -0.5065  0.8517  0.7356
 5911SOL     OW29191   1.062   1.681  17.278  0.4370  0.3557  0.4764
 5911SOL    HW129192   1.036   1.652  17.190 -0.2539 -2.5742  1.6480
 5911SOL    HW229193   1.129   1.615  17.294  2.1603  2.4237  1.7860
 5912SOL     OW29194   0.055   4.372   8.741 -0.4643 -0.3050  0.0009
 5912SOL    HW129195   0.094   4.377   8.828 -0.0951 -2.4167 -0.0651
 5912SOL    HW229196   4.698   4.330   8.760  0.6447 -2.2723  0.4723
 5913SOL     OW29197   1.194   2.405   0.415 -0.3723  0.1064  0.3387
 5913SOL    HW129198   1.186   2.477   0.478 -1.4407  2.1141 -2.1124
 5913SOL    HW229199   1.283   2.417   0.381 -1.5342 -0.8508 -3.0644
 5914SOL     OW29200   0.426   0.176   9.442  0.7787 -0.2595 -0.5549
 5914SOL    HW129201   0.399   0.099   9.391 -1.0653  0.0190 -0.0006
 5914SOL    HW229202   0.515   0.185   9.407  1.0305  2.4906  0.8116
 5915SOL     OW29203   3.042   4.552   4.840 -0.1141  0.7623  0.4540
 5915SOL    HW129204   3.025   4.584   4.752  1.3338  2.5291  0.7842
 5915SOL    HW229205   2.957   4.520   4.870 -0.5439  2.5190  1.1184
 5916SOL     OW29206   0.557   2.330  12.671 -0.1150  0.1335 -0.4291
 5916SOL    HW129207   0.518   2.384  12.602  2.0776  2.4662  0.1254
 5916SOL    HW229208   0.471   2.300  12.701  0.5147 -0.1150  1.1483
 5917SOL     OW29209   3.863   0.354   0.898  0.1946 -0.4511  0.5122
 5917SOL    HW129210   3.930   0.348   0.830 -0.3179 -2.4752  0.2014
 5917SOL    HW229211   3.789   0.306   0.861 -0.4950  1.0491 -0.0661
 5918SOL     OW29212   2.332   4.316  11.960  0.1644 -0.5949  0.0485
 5918SOL    HW129213   2.261   4.253  11.947 -1.5278  1.3392 -0.1134
 5918SOL    HW229214   2.395   4.257  12.001 -0.4562 -0.8798  0.5872
 5919SOL     OW29215   2.007   4.494  10.456 -0.0756  0.4542 -0.2947
 5919SOL    HW129216   1.929   4.549  10.447  0.3595  1.1965  0.5150
 5919SOL    HW229217   2.068   4.530  10.392  1.7118 -0.4541  0.8822
 5920SOL     OW29218   4.722   1.897   7.277 -0.8820  0.0448 -0.2886
 5920SOL    HW129219   4.717   1.854   7.192  1.2030 -0.7461 -0.0108
 5920SOL    HW229220   4.647   1.956   7.277 -0.3153  0.7606 -1.8129
 5921SOL     OW29221   2.990   3.257   5.628  0.2200  0.3885 -0.3408
 5921SOL    HW129222   2.928   3.205   5.577  1.6241 -1.8416  0.2162
 5921SOL    HW229223   3.066   3.207   5.598 -0.1968 -0.2453 -0.3447
 5922SOL     OW29224   2.554   4.693  11.353  0.1222  0.5478  0.5622
 5922SOL    HW129225   2.504   4.626  11.398 -0.7974  2.0053  1.7039
 5922SOL    HW229226   2.626   4.715  11.412  0.8449  1.2007 -0.5571
 5923SOL     OW29227   2.918   3.369   0.525  0.0744  0.3431  0.0836
 5923SOL    HW129228   2.836   3.418   0.518 -0.7594 -1.2959 -1.4950
 5923SOL    HW229229   2.903   3.328   0.440  1.8754 -3.9107  1.8329
 5924SOL     OW29230   2.287   2.339   4.835  0.4766 -0.3035  0.7011
 5924SOL    HW129231   2.252   2.316   4.922 -3.8562 -0.5268 -1.0624
 5924SOL    HW229232   2.308   2.432   4.839  0.2313 -0.1986 -0.5341
 5925SOL     OW29233   3.787   3.564  14.453  0.6835 -0.1629 -0.6708
 5925SOL    HW129234   3.806   3.489  14.509 -1.2066 -0.9527 -1.0902
 5925SOL    HW229235   3.876   3.599  14.443  0.3281  1.1304  0.6997
 5926SOL     OW29236   4.528   1.855   8.122  0.4219 -0.4400 -0.1662
 5926SOL    HW129237   4.521   1.767   8.085  2.5265  0.7874 -3.4593
 5926SOL    HW229238   4.436   1.876   8.140  0.9748 -0.9033  3.1938
 5927SOL     OW29239   3.254   3.182  16.049 -0.2938 -0.5499  0.0416
 5927SOL    HW129240   3.253   3.109  15.987  2.6274 -1.9445  1.7106
 5927SOL    HW229241   3.193   3.244  16.007 -0.1498  0.3764  1.2010
 5928SOL     OW29242   0.566   2.237   1.766  0.1548  0.2932 -0.2967
 5928SOL    HW129243   0.519   2.219   1.684 -1.2507  0.8942  0.3707
 5928SOL    HW229244   0.640   2.177   1.776  1.2854  1.6249 -0.7843
 5929SOL     OW29245   4.025   2.551   0.660  0.2599  0.4553  0.2290
 5929SOL    HW129246   4.077   2.606   0.601  1.1289 -0.7509 -0.1182
 5929SOL    HW229247   4.009   2.475   0.605  2.5287 -0.9717  1.5644
 5930SOL     OW29248   1.679   1.738   1.883  0.3688  0.3779 -0.3062
 5930SOL    HW129249   1.651   1.757   1.793  0.6463 -0.0406 -0.4781
 5930SOL    HW229250   1.604   1.684   1.906 -0.0345  1.3539  0.6431
 5931SOL     OW29251   0.291   3.961  12.148 -0.0755  0.7058  0.4675
 5931SOL    HW129252   0.280   4.027  12.079 -1.4741  0.6935  0.6762
 5931SOL    HW229253   0.353   3.898  12.112 -1.0675 -0.9121  1.6086
 5932SOL     OW29254   4.154   2.140   7.602 -0.1974  0.3412 -0.1118
 5932SOL    HW129255   4.085   2.205   7.611  0.0860  0.3370  2.1561
 5932SOL    HW229256   4.104   2.059   7.612  1.0316 -0.5382 -1.0331
 5933SOL     OW29257   3.558   2.178   2.099 -0.0934 -0.0136  0.3872
 5933SOL    HW129258   3.557   2.240   2.026  0.2572  1.6984  1.8172
 5933SOL    HW229259   3.626   2.204   2.161  0.6513 -1.2221  0.0692
 5934SOL     OW29260   3.034   1.671   4.047 -0.3049 -0.3071  0.7935
 5934SOL    HW129261   3.089   1.750   4.044  0.2576 -0.7982 -1.8080
 5934SOL    HW229262   2.961   1.709   4.095  2.1782  1.6349  3.0675
 5935SOL     OW29263   3.853   2.397  10.259  0.3666 -0.2034 -0.1576
 5935SOL    HW129264   3.762   2.419  10.277  0.3113  2.7082 -4.1409
 5935SOL    HW229265   3.851   2.301  10.256 -2.2761 -0.1263 -0.6718
 5936SOL     OW29266   4.359   0.522   6.543 -0.2616 -0.2114 -0.0178
 5936SOL    HW129267   4.334   0.485   6.628  1.4363  2.9145  1.8647
 5936SOL    HW229268   4.292   0.480   6.490 -0.7318 -0.1418  0.5198
 5937SOL     OW29269   4.350   0.218   4.104  0.3620  0.1572  0.1241
 5937SOL    HW129270   4.406   0.246   4.031 -0.6135 -0.8553 -1.0025
 5937SOL    HW229271   4.269   0.212   4.054 -0.4734  1.7881  1.2788
 5938SOL     OW29272   2.744   2.763   6.035  0.1955 -0.0682  0.3086
 5938SOL    HW129273   2.823   2.815   6.019 -2.1611  2.5603 -2.8027
 5938SOL    HW229274   2.790   2.697   6.087  1.4395  0.9204  0.4834
 5939SOL     OW29275   1.678   2.080   9.150  0.4741 -0.8768  0.0639
 5939SOL    HW129276   1.667   2.068   9.056  0.2729  1.8362 -0.2742
 5939SOL    HW229277   1.770   2.108   9.149 -0.0335  0.6741 -3.2897
 5940SOL     OW29278   3.715   3.717   3.166  0.2101 -0.5749 -0.1686
 5940SOL    HW129279   3.802   3.694   3.200  0.5892 -0.3948 -1.0267
 5940SOL    HW229280   3.689   3.629   3.137 -1.2777 -0.1885 -0.0023
 5941SOL     OW29281   1.680   3.260  10.656 -0.3819  0.3087  0.3574
 5941SOL    HW129282   1.742   3.239  10.726 -0.9148  0.1636  0.7880
 5941SOL    HW229283   1.673   3.166  10.636 -1.3884  0.8334 -1.8126
 5942SOL     OW29284   2.025   3.850  17.013  0.4943 -0.1321 -0.4096
 5942SOL    HW129285   2.036   3.935  16.972 -1.1080 -0.0716 -0.7191
 5942SOL    HW229286   2.111   3.818  16.985  0.1397 -1.4646  0.0190
 5943SOL     OW29287   2.619   3.213   8.480 -0.4620  0.1241 -0.1474
 5943SOL    HW129288   2.693   3.252   8.528 -0.9551  0.8145  0.0460
 5943SOL    HW229289   2.586   3.157   8.550 -1.4972 -3.1408 -3.2521
 5944SOL     OW29290   4.219   3.218   2.897  0.2991 -0.4237  0.0815
 5944SOL    HW129291   4.126   3.207   2.918  0.1171  0.7495 -0.0946
 5944SOL    HW229292   4.208   3.253   2.809 -0.1073 -0.6825  0.0277
 5945SOL     OW29293   0.977   3.882   2.998 -0.2748  0.4588 -0.2069
 5945SOL    HW129294   0.958   3.816   3.065  0.1829 -2.3993 -2.8686
 5945SOL    HW229295   0.982   3.823   2.923  1.7551 -1.8719  1.7445
 5946SOL     OW29296   2.815   2.887  11.497 -0.2610  0.1531  0.6776
 5946SOL    HW129297   2.743   2.948  11.489 -0.9464 -0.7637 -0.1677
 5946SOL    HW229298   2.812   2.854  11.586  0.4133 -1.1952  0.2097
 5947SOL     OW29299   1.939   2.269  10.929 -0.4180  0.3745 -0.3730
 5947SOL    HW129300   1.960   2.343  10.871 -0.7060 -0.3386 -1.3947
 5947SOL    HW229301   2.015   2.271  10.987 -1.8989 -0.4163  1.5841
 5948SOL     OW29302   3.559   3.227  12.876 -0.4066  0.6917 -0.4622
 5948SOL    HW129303   3.581   3.139  12.907  0.0838  0.8224 -0.4434
 5948SOL    HW229304   3.590   3.285  12.946 -2.1128 -1.0167  1.7382
 5949SOL     OW29305   0.686   1.878  17.526  0.0931 -0.1219  0.2078
 5949SOL    HW129306   0.746   1.937  17.479 -0.2046 -0.6859 -0.8763
 5949SOL    HW229307   0.715   1.788  17.511 -0.2008 -0.2673  0.5236
 5950SOL     OW29308   0.350   1.332   2.953  0.4954 -0.0157 -0.3618
 5950SOL    HW129309   0.300   1.310   2.874  1.2377 -2.3881 -0.1690
 5950SOL    HW229310   0.417   1.395   2.926  0.9704  0.5069  2.0324
 5951SOL     OW29311   1.746   3.592   4.640  0.3255 -0.2616 -0.1939
 5951SOL    HW129312   1.724   3.553   4.555 -0.9532  0.9491 -0.4093
 5951SOL    HW229313   1.795   3.517   4.675 -2.0388 -1.7080 -0.0319
 5952SOL     OW29314   1.480   3.920  15.224 -0.5728 -0.1592 -0.3999
 5952SOL    HW129315   1.474   3.978  15.300  0.1101 -0.0561 -0.4234
 5952SOL    HW229316   1.488   3.979  15.149  0.0931  0.0634 -0.1583
 5953SOL     OW29317   2.114   0.220  13.703  0.7504  0.0565 -0.1164
 5953SOL    HW129318   2.096   0.239  13.795 -1.4295 -2.7024  0.0242
 5953SOL    HW229319   2.024   0.224  13.671  0.7221  0.4140 -0.0045
 5954SOL     OW29320   0.602   3.873   4.904  0.1928 -0.5720 -0.2400
 5954SOL    HW129321   0.520   3.824   4.911 -0.4956  0.4105 -1.2411
 5954SOL    HW229322   0.631   3.816   4.832 -1.7921 -0.2106 -1.3444
 5955SOL     OW29323   2.201   3.338   8.216  0.2318 -0.1670 -0.2474
 5955SOL    HW129324   2.242   3.252   8.216 -1.9579 -1.2209 -0.8624
 5955SOL    HW229325   2.194   3.368   8.125  1.7649  0.4114 -0.1644
 5956SOL     OW29326   2.360   1.729  10.311  0.2158 -0.2827 -0.5466
 5956SOL    HW129327   2.442   1.749  10.266 -0.4794 -1.1442 -2.2332
 5956SOL    HW229328   2.388   1.682  10.389 -0.6117  0.3761  0.1382
 5957SOL     OW29329   2.273   3.751  11.256  0.1081 -0.1555 -0.2267
 5957SOL    HW129330   2.242   3.684  11.195  0.6053  0.2283 -0.9004
 5957SOL    HW229331   2.248   3.722  11.344  1.0012 -0.1024  0.0440
 5958SOL     OW29332   2.479   4.228   4.777 -0.3117 -0.0724  0.5769
 5958SOL    HW129333   2.538   4.180   4.834  3.3607  2.1273 -1.3294
 5958SOL    HW229334   2.429   4.280   4.840 -0.8755 -0.0004  0.0711
 5959SOL     OW29335   1.482   0.797  13.170 -0.2530  0.1970  0.2807
 5959SOL    HW129336   1.387   0.783  13.175 -0.1153 -0.1788  1.7144
 5959SOL    HW229337   1.493   0.890  13.152 -2.9432  0.1495 -1.6606
 5960SOL     OW29338   3.717   4.180   9.833 -0.8433  0.1456  0.1130
 5960SOL    HW129339   3.700   4.211   9.922  0.0416 -2.2609  1.0973
 5960SOL    HW229340   3.809   4.201   9.817 -1.0338  0.6068 -0.3860
 5961SOL     OW29341   0.382   1.251   3.485  0.2340  0.0309 -0.3511
 5961SOL    HW129342   0.473   1.225   3.470 -0.0096 -1.2157  0.3914
 5961SOL    HW229343   0.366   1.267   3.392  2.3598 -0.8249 -0.8512
 5962SOL     OW29344   2.803   1.407   1.044 -0.2737  0.2500 -0.5366
 5962SOL    HW129345   2.750   1.366   0.975  0.9867 -2.3688  0.0489
 5962SOL    HW229346   2.755   1.383   1.123 -1.2566  0.9089 -0.9341
 5963SOL     OW29347   0.885   4.087  14.749  0.3247  0.1789 -0.0008
 5963SOL    HW129348   0.825   4.082  14.824  0.8242 -1.3251  0.2914
 5963SOL    HW229349   0.960   4.038  14.783 -0.2861  0.0911  1.2383
 5964SOL     OW29350   2.002   0.416   5.276 -0.6658 -0.7191 -0.1594
 5964SOL    HW129351   2.095   0.398   5.264 -0.3677  1.1719 -0.6032
 5964SOL    HW229352   1.970   0.431   5.187 -1.2800  1.3834  0.4103
 5965SOL     OW29353   0.721   0.221  12.572 -0.0759 -0.1555  0.4082
 5965SOL    HW129354   0.777   0.205  12.496 -0.6115 -1.5510  0.3164
 5965SOL    HW229355   0.677   0.305  12.554 -0.0376 -0.6507 -1.9397
 5966SOL     OW29356   4.069   1.026   3.233  0.2360  0.4444 -0.0249
 5966SOL    HW129357   4.005   0.959   3.256 -0.1532  1.9482  3.3692
 5966SOL    HW229358   4.094   0.987   3.150  3.0722  1.4997  0.3301
 5967SOL     OW29359   1.654   1.703   3.758 -0.1929  0.4380  0.0416
 5967SOL    HW129360   1.683   1.659   3.677  0.5994 -1.2646  1.2400
 5967SOL    HW229361   1.736   1.721   3.805 -0.9904  1.4300  1.0398
 5968SOL     OW29362   1.962   2.929   1.398 -0.5216  0.3303  0.1863
 5968SOL    HW129363   2.005   2.982   1.331  0.6148 -0.7700  0.0442
 5968SOL    HW229364   1.870   2.944   1.374  0.1500  1.3719 -1.7455
 5969SOL     OW29365   0.756   4.433   8.599  0.1035 -0.1469  0.1817
 5969SOL    HW129366   0.670   4.392   8.609 -0.0981  0.4258  0.8394
 5969SOL    HW229367   0.744   4.438   8.505  1.7402 -0.2536 -0.0202
 5970SOL     OW29368   0.715   4.615   4.714 -0.1526 -0.3461 -0.3819
 5970SOL    HW129369   0.704   4.629   4.620 -1.3089 -1.1258 -0.3607
 5970SOL    HW229370   0.709   4.520   4.719 -0.6954 -0.3556 -1.3412
 5971SOL     OW29371   2.910   3.464   6.429 -0.1948 -0.1368  0.1394
 5971SOL    HW129372   2.853   3.528   6.386  2.1398  1.3543 -0.7263
 5971SOL    HW229373   2.994   3.487   6.389 -0.4375 -0.4670 -0.5606
 5972SOL     OW29374   1.339   2.462   2.689  0.3401  0.3180 -0.5522
 5972SOL    HW129375   1.394   2.384   2.678 -2.7946 -1.6738 -2.0081
 5972SOL    HW229376   1.273   2.438   2.625  0.9936  0.1387 -1.1577
 5973SOL     OW29377   2.975   4.568   6.786  0.0940  0.0951  0.3159
 5973SOL    HW129378   2.995   4.501   6.851  1.6256 -0.2966 -0.5670
 5973SOL    HW229379   2.883   4.540   6.779 -0.1243  0.6926  0.9039
 5974SOL     OW29380   2.345   2.353   7.143  0.1497  0.0968 -0.1398
 5974SOL    HW129381   2.358   2.350   7.049  1.5035  1.1513  0.0167
 5974SOL    HW229382   2.397   2.429   7.167  0.3107  0.0835 -0.4519
 5975SOL     OW29383   0.897   1.388   4.120  0.4208 -0.0583 -0.1019
 5975SOL    HW129384   0.989   1.362   4.126  0.7103  0.6520 -1.6559
 5975SOL    HW229385   0.866   1.298   4.129  0.0831  0.2010  1.3676
 5976SOL     OW29386   2.020   2.567  12.477 -0.0932 -0.1259  0.2095
 5976SOL    HW129387   1.962   2.515  12.421 -0.9444  0.5465  0.4883
 5976SOL    HW229388   2.063   2.508  12.539  0.5407 -0.9065 -0.9454
 5977SOL     OW29389   1.950   0.204   8.595 -0.1252 -0.3998 -0.3796
 5977SOL    HW129390   1.888   0.218   8.523 -1.0704 -0.3184  0.4468
 5977SOL    HW229391   1.997   0.287   8.603  0.1043 -0.5476 -0.1976
 5978SOL     OW29392   3.036   4.469   9.100 -0.1134 -0.2656 -0.5615
 5978SOL    HW129393   3.059   4.467   9.193 -0.6126 -0.7427 -0.4433
 5978SOL    HW229394   3.048   4.560   9.074 -1.0425 -0.0500 -0.2160
 5979SOL     OW29395   4.208   3.492   1.485 -0.2146  0.5584  0.0389
 5979SOL    HW129396   4.286   3.446   1.456 -0.3463 -0.4197  1.2435
 5979SOL    HW229397   4.144   3.436   1.441 -0.0672  1.2385 -1.0392
 5980SOL     OW29398   0.068   2.267   3.534  0.0154 -0.1295 -0.2147
 5980SOL    HW129399   0.099   2.330   3.600 -0.9470 -2.7689  2.7323
 5980SOL    HW229400   0.082   2.317   3.454 -0.4008  0.5321  0.1256
 5981SOL     OW29401   3.871   4.521   4.443  0.2578  0.2673 -0.3966
 5981SOL    HW129402   3.796   4.467   4.467 -1.2463  1.9660 -1.2837
 5981SOL    HW229403   3.841   4.555   4.359  0.0770 -4.0327 -2.0592
 5982SOL     OW29404   0.553   1.410   7.254  0.1318  0.0697  0.7736
 5982SOL    HW129405   0.534   1.473   7.324  0.4338  0.3710  0.5864
 5982SOL    HW229406   0.566   1.477   7.187 -2.0099 -0.2137  0.0607
 5983SOL     OW29407   2.846   0.491  17.158  0.2283 -0.7002  0.1972
 5983SOL    HW129408   2.825   0.459  17.070 -2.9427  1.3375  0.2243
 5983SOL    HW229409   2.919   0.431  17.173  0.0474 -1.2249 -1.0265
 5984SOL     OW29410   1.291   3.931   2.322  0.3380  0.3416  0.1786
 5984SOL    HW129411   1.380   3.922   2.356  1.2190  0.6367 -2.0500
 5984SOL    HW229412   1.250   3.970   2.398  0.7834 -0.8867  1.0429
 5985SOL     OW29413   4.630   1.333   4.946 -0.0126  0.5280  0.3002
 5985SOL    HW129414   4.644   1.321   4.852 -0.4711  1.6298  0.0903
 5985SOL    HW229415   4.718   1.319   4.982  0.3453  0.7637 -0.4918
 5986SOL     OW29416   0.817   2.935   8.427 -0.7149 -0.3986  0.1890
 5986SOL    HW129417   0.752   2.970   8.367 -0.5808  0.2159  0.4078
 5986SOL    HW229418   0.763   2.916   8.504 -2.6954 -0.0061 -1.0956
 5987SOL     OW29419   4.367   4.536   4.882  0.4447 -0.0794 -0.3690
 5987SOL    HW129420   4.420   4.466   4.922  1.8795  0.7182 -0.9083
 5987SOL    HW229421   4.415   4.612   4.913  0.0321 -0.3510  0.9551
 5988SOL     OW29422   4.003   3.594  14.188  0.1982  0.2616  0.2262
 5988SOL    HW129423   4.009   3.586  14.283 -0.1382  1.7675  0.3721
 5988SOL    HW229424   4.034   3.684  14.176  0.0140  0.0457 -1.8862
 5989SOL     OW29425   3.524   4.727   4.134  0.5688  0.0412 -0.0684
 5989SOL    HW129426   3.497   0.089   4.154 -0.3616  0.0581 -1.4235
 5989SOL    HW229427   3.512   0.000   4.039 -0.3797 -1.7163  0.0453
 5990SOL     OW29428   3.503   2.974   4.137  0.5133  0.4036 -0.2396
 5990SOL    HW129429   3.468   2.920   4.207  1.3827 -1.6600 -1.3881
 5990SOL    HW229430   3.425   2.986   4.083  0.3588 -1.2845 -0.3881
 5991SOL     OW29431   3.289   0.997   7.775  0.0608  0.0077  0.4265
 5991SOL    HW129432   3.233   0.941   7.722  1.6179 -0.7829 -0.4028
 5991SOL    HW229433   3.226   1.021   7.842 -1.8714 -2.0512 -0.6500
 5992SOL     OW29434   0.265   0.901  11.110  0.2570 -0.1634  0.3456
 5992SOL    HW129435   0.317   0.964  11.059 -2.7707  1.4708 -0.7374
 5992SOL    HW229436   0.225   0.842  11.046  1.3993  0.4181 -0.9098
 5993SOL     OW29437   1.695   0.838  11.089  0.0266 -0.5893 -0.1567
 5993SOL    HW129438   1.607   0.843  11.126  0.4637 -1.1229  0.9487
 5993SOL    HW229439   1.741   0.789  11.157  2.4490  1.0963 -0.5681
 5994SOL     OW29440   4.288   0.005   5.645  0.0068 -0.0765  0.0647
 5994SOL    HW129441   4.340   4.679   5.585  1.0608 -0.8034  1.5939
 5994SOL    HW229442   4.350   0.073   5.671 -0.6383  0.2467  0.7693
 5995SOL     OW29443   3.340   2.030   2.198 -0.4731 -0.0358  0.0535
 5995SOL    HW129444   3.397   2.005   2.271  1.1552  0.8866 -0.9050
 5995SOL    HW229445   3.383   2.109   2.166  1.1127 -0.1868  1.7751
 5996SOL     OW29446   3.529   1.533   3.915 -0.3254 -0.5311 -0.7778
 5996SOL    HW129447   3.548   1.496   4.001 -0.6397 -0.9364 -0.8829
 5996SOL    HW229448   3.593   1.604   3.913 -1.8447  0.8218 -0.2244
 5997SOL     OW29449   1.503   3.965   4.895 -0.5521  0.2279  0.3261
 5997SOL    HW129450   1.464   3.939   4.978 -3.7179 -0.9310 -1.4950
 5997SOL    HW229451   1.479   3.884   4.848 -0.4454  0.5288 -0.2469
 5998SOL     OW29452   0.763   3.460  15.404 -0.2268 -0.2998 -0.1405
 5998SOL    HW129453   0.859   3.464  15.407 -0.1392 -2.5980 -0.3086
 5998SOL    HW229454   0.757   3.448  15.309 -0.7172  0.9427 -0.2689
 5999SOL     OW29455   1.616   2.805   8.745  0.0124 -0.1910  0.5380
 5999SOL    HW129456   1.628   2.814   8.839  0.5141 -1.2443  0.5785
 5999SOL    HW229457   1.700   2.763   8.728  0.2391  0.9900 -1.2402
 6000SOL     OW29458   0.864   1.231   2.280  0.0775 -0.2230 -0.2971
 6000SOL    HW129459   0.945   1.283   2.284 -0.2462  0.3326 -0.9542
 6000SOL    HW229460   0.870   1.186   2.195 -0.8741 -0.3498 -0.3010
 6001SOL     OW29461   2.930   1.363   7.057  0.2983 -0.0053  0.2408
 6001SOL    HW129462   2.845   1.383   7.018  0.6598  1.2980  0.1119
 6001SOL    HW229463   2.903   1.288   7.111 -0.9290  1.8388  2.1779
 6002SOL     OW29464   0.735   1.383   7.493 -0.2567 -0.4830 -0.1446
 6002SOL    HW129465   0.780   1.441   7.555 -0.2735 -1.6499  0.9487
 6002SOL    HW229466   0.670   1.447   7.463 -0.7450 -0.7855  0.2844
 6003SOL     OW29467   1.863   2.518   1.265 -0.1586  0.0270 -0.0826
 6003SOL    HW129468   1.891   2.547   1.352  1.2171 -3.8294  0.7429
 6003SOL    HW229469   1.787   2.465   1.289  0.0495  0.9737  2.6086
 6004SOL     OW29470   1.582   4.700  12.825  0.1057 -0.2873 -0.8056
 6004SOL    HW129471   1.537   4.620  12.853  1.0148  0.2552  2.1005
 6004SOL    HW229472   1.549   0.033  12.892  3.4098 -1.0950  1.5160
 6005SOL     OW29473   0.638   1.038   6.858 -0.5216  0.2843 -0.0417
 6005SOL    HW129474   0.607   0.958   6.901 -0.1901  0.3706  0.3518
 6005SOL    HW229475   0.591   1.109   6.902  1.5208  1.8610 -0.4091
 6006SOL     OW29476   0.260   3.626   9.496  0.0494  0.2972  0.8008
 6006SOL    HW129477   0.289   3.607   9.585  1.4089 -0.9889  0.0919
 6006SOL    HW229478   0.340   3.628   9.442  0.6624  1.2628  1.7430
 6007SOL     OW29479   1.926   4.716  16.613  1.1300  0.2049 -0.2782
 6007SOL    HW129480   1.997   4.656  16.592  0.3628 -0.4970 -0.9032
 6007SOL    HW229481   1.934   0.018  16.703 -3.3323 -0.1675  0.2631
 6008SOL     OW29482   1.747   2.135   8.886 -0.0388 -0.0808  0.1261
 6008SOL    HW129483   1.836   2.101   8.877  0.2889  1.5573 -2.8989
 6008SOL    HW229484   1.701   2.053   8.869 -0.2849 -0.2970  1.8094
 6009SOL     OW29485   1.710   4.510   8.259  0.3588  0.3222 -0.0874
 6009SOL    HW129486   1.685   4.419   8.241  1.9347 -0.3215  0.9513
 6009SOL    HW229487   1.766   4.513   8.337 -0.7021  3.2398  0.5366
 6010SOL     OW29488   2.283   1.207   5.024 -0.2885  0.1409 -0.0949
 6010SOL    HW129489   2.334   1.165   5.093 -0.5314  0.2593  0.1582
 6010SOL    HW229490   2.293   1.294   5.062  0.9553  0.2342 -0.6367
 6011SOL     OW29491   1.470   1.756   0.728  0.4512  0.4970  0.2892
 6011SOL    HW129492   1.516   1.791   0.651 -1.4119 -2.1992 -2.0772
 6011SOL    HW229493   1.388   1.803   0.715  1.2825  1.5426 -1.2625
 6012SOL     OW29494   0.638   0.791   4.076 -0.0173 -0.1290  0.0722
 6012SOL    HW129495   0.725   0.787   4.114 -0.6815 -0.5363  1.5375
 6012SOL    HW229496   0.580   0.753   4.142 -1.2321 -0.9595 -1.4609
 6013SOL     OW29497   2.489   3.883  16.900 -0.1876 -0.0396  0.0009
 6013SOL    HW129498   2.467   3.816  16.965  0.9431 -1.0296 -0.6262
 6013SOL    HW229499   2.544   3.832  16.841 -1.1144 -1.2221  0.1820
 6014SOL     OW29500   0.548   3.814   6.409 -0.1806 -0.4070  0.1234
 6014SOL    HW129501   0.454   3.831   6.401  0.3103  2.0855 -0.3377
 6014SOL    HW229502   0.541   3.745   6.476  0.1977 -0.1900  0.3824
 6015SOL     OW29503   1.304   3.100   2.005  0.1424 -0.0544 -0.0961
 6015SOL    HW129504   1.270   3.184   2.035 -2.0978 -0.5078 -1.3729
 6015SOL    HW229505   1.242   3.044   2.053  0.1914 -0.7017 -0.7834
 6016SOL     OW29506   4.151   0.504   9.589 -0.0094  0.1440 -0.2560
 6016SOL    HW129507   4.240   0.497   9.555 -1.1232 -0.5463 -3.0040
 6016SOL    HW229508   4.118   0.415   9.579  0.6551  0.0800 -1.8055
 6017SOL     OW29509   1.779   0.455  13.500  0.4659  0.3174 -0.4662
 6017SOL    HW129510   1.864   0.494  13.523 -0.7054  1.4908  1.9255
 6017SOL    HW229511   1.803   0.362  13.500 -0.3934  0.0971 -1.5321
 6018SOL     OW29512   3.853   4.402  12.808  0.0178 -0.0153 -0.2176
 6018SOL    HW129513   3.829   4.494  12.801  0.9077  0.3803  1.8906
 6018SOL    HW229514   3.943   4.406  12.775 -0.0712 -1.2503 -0.6304
 6019SOL     OW29515   4.357   4.265  13.927 -0.3412 -0.0285  0.1015
 6019SOL    HW129516   4.435   4.246  13.875  0.3851 -0.3844  1.3179
 6019SOL    HW229517   4.292   4.279  13.858  0.2347  0.5253 -0.3296
 6020SOL     OW29518   3.423   0.546   7.299  0.1769 -0.0747  0.2911
 6020SOL    HW129519   3.493   0.481   7.292  1.5545  1.4178  0.3006
 6020SOL    HW229520   3.368   0.526   7.223 -0.1602  0.7872  0.3012
 6021SOL     OW29521   0.469   0.644  12.011 -0.2668  0.3025 -0.0431
 6021SOL    HW129522   0.563   0.648  12.027 -0.2895 -2.7181  0.8838
 6021SOL    HW229523   0.477   0.611  11.922 -2.5728 -1.4844  0.4033
 6022SOL     OW29524   2.364   1.569   2.113 -0.0648 -0.6195 -0.0304
 6022SOL    HW129525   2.312   1.645   2.086 -1.9919 -1.1012  2.4148
 6022SOL    HW229526   2.372   1.537   2.023 -0.4054 -1.7860  0.3649
 6023SOL     OW29527   4.478   1.062   7.067  0.4514 -0.4108 -0.7828
 6023SOL    HW129528   4.569   1.059   7.040  0.9223  1.1856  0.6664
 6023SOL    HW229529   4.487   1.073   7.162  0.6169  0.4146 -0.9021
 6024SOL     OW29530   4.383   2.278  11.627  0.3460  0.6281  0.2793
 6024SOL    HW129531   4.467   2.307  11.590 -0.3122 -1.8786 -3.0782
 6024SOL    HW229532   4.340   2.235  11.554 -0.9891  0.3736  1.2055
 6025SOL     OW29533   4.035   4.033  11.892 -0.2378  0.6487 -0.2138
 6025SOL    HW129534   3.964   3.992  11.843 -0.8748  0.9004  0.5046
 6025SOL    HW229535   4.040   3.984  11.975 -1.0509 -0.1734 -0.6525
 6026SOL     OW29536   0.601   2.611  14.866  0.1873 -0.8805 -0.0462
 6026SOL    HW129537   0.548   2.533  14.849  0.3440 -1.2262  1.0534
 6026SOL    HW229538   0.692   2.582  14.854  1.1619  1.9257  0.6703
 6027SOL     OW29539   3.448   3.761   1.894  0.4954 -0.5422  0.0912
 6027SOL    HW129540   3.364   3.778   1.937  0.5961 -1.2482  0.5738
 6027SOL    HW229541   3.494   3.843   1.913 -3.7618  1.9142 -0.2140
 6028SOL     OW29542   0.181   2.380  14.562 -0.0768 -0.5852 -0.2927
 6028SOL    HW129543   0.246   2.407  14.496  0.7866  0.4268  0.9789
 6028SOL    HW229544   0.222   2.309  14.611 -0.9359 -0.4725  0.5716
 6029SOL     OW29545   1.181   2.491  16.498  0.3420 -0.6902  0.3071
 6029SOL    HW129546   1.233   2.554  16.548 -1.6064  0.9298  0.3123
 6029SOL    HW229547   1.102   2.542  16.478 -1.1352 -2.7087  1.0562
 6030SOL     OW29548   3.006   4.587   6.080 -0.3469 -0.0953 -0.0259
 6030SOL    HW129549   3.075   4.654   6.076 -0.9065  0.3011 -3.0359
 6030SOL    HW229550   3.067   4.514   6.072  2.2298  2.1044 -0.6017
 6031SOL     OW29551   3.494   1.694   7.490 -0.5491 -0.0859  0.8156
 6031SOL    HW129552   3.551   1.682   7.414 -2.1299 -1.7046 -0.1251
 6031SOL    HW229553   3.541   1.669   7.569 -1.8915 -2.4637  0.8610
 6032SOL     OW29554   0.281   3.853   5.489 -0.2313  0.0348  0.0029
 6032SOL    HW129555   0.306   3.776   5.439 -0.1881 -0.1102  0.2478
 6032SOL    HW229556   0.365   3.889   5.515  0.3163 -1.2592  0.0022
 6033SOL     OW29557   1.098   1.422  12.945 -0.6690 -0.3735  0.2084
 6033SOL    HW129558   1.056   1.342  12.913 -2.4731  0.7499 -0.2047
 6033SOL    HW229559   1.084   1.481  12.871 -1.1738 -1.3886 -0.5134
 6034SOL     OW29560   2.932   4.474   7.687 -0.4472 -0.4742 -0.3335
 6034SOL    HW129561   2.960   4.563   7.706 -2.2384  0.5109 -2.3404
 6034SOL    HW229562   2.901   4.450   7.775  0.0038  0.2901  0.0338
 6035SOL     OW29563   0.097   3.860  13.882  0.3024  0.1524 -0.5544
 6035SOL    HW129564   0.062   3.803  13.814 -2.3008  0.0251  0.9158
 6035SOL    HW229565   0.180   3.819  13.905 -0.6103  1.1868  4.4255
 6036SOL     OW29566   0.944   0.401   4.845  0.1525  0.1039  0.4798
 6036SOL    HW129567   1.020   0.428   4.793  0.9210 -2.3554  0.3356
 6036SOL    HW229568   0.911   0.328   4.792 -0.3130  0.1948  0.6440
 6037SOL     OW29569   2.605   3.092   7.949 -0.7891  0.3905  0.0181
 6037SOL    HW129570   2.514   3.120   7.953 -0.7414  0.6357 -0.7585
 6037SOL    HW229571   2.640   3.172   7.910 -1.9823  1.0778  0.3404
 6038SOL     OW29572   0.631   4.305   5.345 -0.0900 -0.6055  0.6225
 6038SOL    HW129573   0.620   4.391   5.304 -1.0463 -2.5570 -3.1680
 6038SOL    HW229574   0.655   4.256   5.266 -0.7361 -0.0942  0.1103
 6039SOL     OW29575   1.959   4.391   6.356 -0.1830  0.0784  0.4347
 6039SOL    HW129576   2.045   4.433   6.350  0.1001 -0.5907 -0.2016
 6039SOL    HW229577   1.981   4.299   6.345 -3.0175 -0.5726  0.2633
 6040SOL     OW29578   0.742   1.965  14.367 -0.1235  0.1340 -0.0948
 6040SOL    HW129579   0.649   1.962  14.390  0.1215 -1.6711  0.6243
 6040SOL    HW229580   0.783   1.996  14.448 -1.3789 -1.9980  1.3370
 6041SOL     OW29581   1.988   0.723   8.813 -0.0762  0.4686  0.3934
 6041SOL    HW129582   2.017   0.637   8.845 -1.5342 -0.4259 -0.6880
 6041SOL    HW229583   1.919   0.691   8.754  0.8495  1.4515 -1.2223
 6042SOL     OW29584   0.538   4.412   4.980 -0.3529 -0.3289  0.4628
 6042SOL    HW129585   0.513   4.423   4.888 -2.0268 -0.2240  0.9264
 6042SOL    HW229586   0.603   4.343   4.966  0.5275  0.7917 -0.9667
 6043SOL     OW29587   3.986   3.093  10.203 -0.1199 -0.3181 -0.2448
 6043SOL    HW129588   3.981   3.096  10.298 -0.2236  0.8614 -0.2861
 6043SOL    HW229589   4.028   3.176  10.179  0.1191  0.1991  1.9507
 6044SOL     OW29590   1.214   2.925   0.799 -0.4328 -0.6423  0.0498
 6044SOL    HW129591   1.121   2.947   0.787 -0.2486  0.5707  0.8430
 6044SOL    HW229592   1.222   2.936   0.894 -0.5490 -2.3823  0.2533
 6045SOL     OW29593   0.898   4.521   4.475  0.5623  0.3346 -0.6818
 6045SOL    HW129594   0.979   4.536   4.425  1.4430  1.4029  1.0831
 6045SOL    HW229595   0.872   4.439   4.432  1.0984 -1.2184  1.9909
 6046SOL     OW29596   0.054   0.120  10.986 -0.0053  0.1968 -0.1613
 6046SOL    HW129597   0.032   0.111  10.893  1.2803 -1.4712 -0.3086
 6046SOL    HW229598   0.075   0.213  10.992 -0.2708  0.1413  1.6360
 6047SOL     OW29599   4.086   1.422   4.825  0.0766  0.1099  0.3189
 6047SOL    HW129600   4.062   1.346   4.772  0.6832  0.4181 -0.3899
 6047SOL    HW229601   4.116   1.372   4.901 -1.9959 -2.5730 -0.6158
 6048SOL     OW29602   4.026   3.368   2.125  0.3178  0.2351  0.0329
 6048SOL    HW129603   4.110   3.406   2.153 -0.1960  0.7769  0.8562
 6048SOL    HW229604   4.013   3.307   2.198  2.2559 -1.9085 -1.3961
 6049SOL     OW29605   1.246   3.524   3.078 -0.3651 -0.0739 -0.2947
 6049SOL    HW129606   1.214   3.556   2.994 -1.9243 -2.2875 -0.5596
 6049SOL    HW229607   1.213   3.435   3.068  0.4976 -0.4391  0.0754
 6050SOL     OW29608   0.437   4.393   4.035 -0.4345 -0.5539  0.3531
 6050SOL    HW129609   0.436   4.300   4.015  2.6765  0.1219 -2.9328
 6050SOL    HW229610   0.514   4.393   4.091  1.3414 -3.2412 -2.0725
 6051SOL     OW29611   0.347   3.946   4.637  0.3910 -0.6498 -0.1968
 6051SOL    HW129612   0.309   3.858   4.636 -0.2072 -0.4003  0.9619
 6051SOL    HW229613   0.275   4.000   4.668  0.5596 -0.2587 -0.4879
 6052SOL     OW29614   3.418   0.346  15.579 -0.1697 -0.5845 -0.5120
 6052SOL    HW129615   3.453   0.387  15.658  0.7372 -2.2836 -0.0271
 6052SOL    HW229616   3.465   0.383  15.504 -2.0382  3.2028  0.2037
 6053SOL     OW29617   4.359   3.586  14.367  0.4798  0.0963  0.4434
 6053SOL    HW129618   4.386   3.603  14.277 -0.5303  0.3662  0.1908
 6053SOL    HW229619   4.382   3.666  14.415  0.8889  0.9802 -1.2376
 6054SOL     OW29620   4.314   0.724   3.358  0.1474  0.5164 -0.3432
 6054SOL    HW129621   4.278   0.663   3.294  1.2944  0.7756 -1.2176
 6054SOL    HW229622   4.368   0.778   3.301  1.4079  0.3809  0.7240
 6055SOL     OW29623   0.496   2.912   8.337  0.6000  0.0381  0.2123
 6055SOL    HW129624   0.437   2.986   8.322  2.2322  1.2879  0.0091
 6055SOL    HW229625   0.466   2.885   8.424 -0.6998  0.0194 -0.2357
 6056SOL     OW29626   2.441   0.272   5.459  0.7372  0.2859 -0.0937
 6056SOL    HW129627   2.443   0.176   5.462 -2.3797  0.2803  1.0713
 6056SOL    HW229628   2.535   0.280   5.479  1.0089 -0.2487 -1.1514
 6057SOL     OW29629   1.423   0.111   2.629  0.3731  0.0101  0.3222
 6057SOL    HW129630   1.431   0.165   2.551  0.6811  0.6905  0.8282
 6057SOL    HW229631   1.401   0.176   2.696  0.2052 -1.9699  2.1874
 6058SOL     OW29632   0.719   1.860   1.358  0.1646 -0.3291 -0.1387
 6058SOL    HW129633   0.701   1.862   1.452  1.0941  1.3836 -0.0034
 6058SOL    HW229634   0.811   1.876   1.338  1.0059 -1.9660  2.4891
 6059SOL     OW29635   4.506   1.224  11.747  0.3500 -0.4048 -0.4563
 6059SOL    HW129636   4.549   1.196  11.666  1.4014  0.9248 -0.3603
 6059SOL    HW229637   4.475   1.141  11.783 -0.6109  0.3550  0.4679
 6060SOL     OW29638   3.182   3.926   1.777 -0.4266  0.4596 -0.5168
 6060SOL    HW129639   3.221   3.917   1.690  0.5517 -3.5654  0.3131
 6060SOL    HW229640   3.118   3.993   1.754 -2.0185 -0.0742  2.3345
 6061SOL     OW29641   0.132   2.429   3.739 -0.3664  0.6919  0.1611
 6061SOL    HW129642   0.144   2.435   3.834 -2.2001  0.9031  0.3924
 6061SOL    HW229643   0.124   2.523   3.721  0.9573  0.5690 -0.9968
 6062SOL     OW29644   1.930   2.277   1.092 -0.6440  0.1235  0.3955
 6062SOL    HW129645   1.997   2.238   1.148  0.0727  1.0890  0.1988
 6062SOL    HW229646   1.981   2.355   1.072 -1.8824  0.5967 -0.9046
 6063SOL     OW29647   3.548   2.274   5.053 -0.7056 -0.4048 -0.1967
 6063SOL    HW129648   3.501   2.318   4.982 -0.8164  0.5728  0.4920
 6063SOL    HW229649   3.476   2.251   5.111  1.7670 -1.3777  2.4371
 6064SOL     OW29650   2.433   3.619   7.531 -0.0225  0.3083 -0.1826
 6064SOL    HW129651   2.424   3.577   7.617 -0.4737 -0.9585 -0.8613
 6064SOL    HW229652   2.527   3.611   7.519 -0.1344 -0.8647 -0.2224
 6065SOL     OW29653   2.574   2.978  16.571 -0.2719  0.5692 -0.6925
 6065SOL    HW129654   2.517   3.051  16.597  1.4804  0.7057  2.7447
 6065SOL    HW229655   2.631   2.968  16.647 -0.7336 -0.2893 -0.4717
 6066SOL     OW29656   0.793   3.275   8.400 -0.2585 -0.1949  0.1189
 6066SOL    HW129657   0.792   3.254   8.307  1.0890 -0.1989  0.0982
 6066SOL    HW229658   0.700   3.292   8.411 -0.3093 -0.9005  0.8414
 6067SOL     OW29659   2.887   4.443   5.087 -0.0263 -0.2784 -0.2228
 6067SOL    HW129660   2.830   4.419   5.160  0.7542 -2.0684 -0.1950
 6067SOL    HW229661   2.950   4.372   5.073 -1.3760 -1.9060  1.9984
 6068SOL     OW29662   2.320   1.136   4.402  0.5023 -0.1107  0.3804
 6068SOL    HW129663   2.328   1.174   4.489  0.6497 -1.4929  0.9726
 6068SOL    HW229664   2.407   1.155   4.366 -0.1291 -0.1617 -1.1553
 6069SOL     OW29665   3.677   3.153   3.370 -0.1311  0.1236 -0.6310
 6069SOL    HW129666   3.729   3.231   3.351  0.3317 -0.2002 -0.6962
 6069SOL    HW229667   3.605   3.185   3.423  0.7547  0.8993  0.1101
 6070SOL     OW29668   0.644   2.228   2.875  0.5730  0.9415  0.0998
 6070SOL    HW129669   0.630   2.141   2.910  0.4655  0.4511 -1.1458
 6070SOL    HW229670   0.733   2.226   2.839  0.5671 -2.6010  0.2548
 6071SOL     OW29671   0.853   0.523  12.862  0.0326 -0.2041  0.0340
 6071SOL    HW129672   0.798   0.583  12.812  0.4208  0.7399  0.7362
 6071SOL    HW229673   0.820   0.439  12.830 -0.5938 -0.4608  1.3620
 6072SOL     OW29674   1.086   4.128   2.928 -0.6563  0.3549 -0.4521
 6072SOL    HW129675   1.043   4.045   2.950  1.8692 -1.2868 -1.6863
 6072SOL    HW229676   1.038   4.145   2.847 -1.9216 -3.7814 -0.5915
 6073SOL     OW29677   1.031   2.776   1.278 -0.3393  0.0798 -0.4931
 6073SOL    HW129678   1.012   2.870   1.288  1.0665  0.0468  2.6227
 6073SOL    HW229679   0.940   2.745   1.275 -1.0248  2.0828 -0.6524
 6074SOL     OW29680   4.578   1.628   8.954  0.1320 -0.4995  0.2862
 6074SOL    HW129681   4.502   1.570   8.966  0.1173 -0.2584  1.3599
 6074SOL    HW229682   4.586   1.665   9.042  0.0676  0.4159 -0.0916
 6075SOL     OW29683   3.746   3.940   0.832 -0.6553  0.2705  0.7252
 6075SOL    HW129684   3.834   3.955   0.797 -0.8725  1.3131  0.6370
 6075SOL    HW229685   3.758   3.948   0.927  0.2483  0.3639  0.6033
 6076SOL     OW29686   4.709   2.808   9.653  0.4033 -0.9361 -0.6452
 6076SOL    HW129687   0.032   2.812   9.734  0.4213  1.6846 -0.7996
 6076SOL    HW229688   0.054   2.791   9.593  0.8934  1.8424 -0.8364
 6077SOL     OW29689   4.450   3.156  17.317  0.0997 -0.2089  0.0837
 6077SOL    HW129690   4.432   3.068  17.351 -1.2381  0.4440  1.1114
 6077SOL    HW229691   4.538   3.172  17.351  0.1626 -0.2096 -0.0818
 6078SOL     OW29692   3.037   4.278   6.338 -0.2004  0.4872 -0.7454
 6078SOL    HW129693   3.050   4.198   6.287 -0.6682  1.1337 -1.8653
 6078SOL    HW229694   2.947   4.303   6.318  0.1181  1.2248 -1.2542
 6079SOL     OW29695   1.572   0.587   7.552 -0.1461  0.0685 -0.0107
 6079SOL    HW129696   1.579   0.492   7.551 -1.4450 -0.0397  1.0233
 6079SOL    HW229697   1.483   0.603   7.522  0.6148  0.4042 -2.1459
 6080SOL     OW29698   2.967   2.613   5.806  0.3835  0.0912 -0.2411
 6080SOL    HW129699   2.931   2.569   5.728 -0.6869  1.8886 -0.7693
 6080SOL    HW229700   2.900   2.585   5.869  2.6513 -0.6728  1.7988
 6081SOL     OW29701   1.576   2.700   4.486 -0.5289 -0.3808 -0.8904
 6081SOL    HW129702   1.551   2.625   4.540  0.7666 -0.1489  0.0355
 6081SOL    HW229703   1.518   2.763   4.528  1.2686  2.0974 -2.1641
 6082SOL     OW29704   3.036   4.140   6.007 -0.6527 -0.5350  0.1546
 6082SOL    HW129705   3.038   4.185   5.923 -2.1342 -0.7912 -0.0172
 6082SOL    HW229706   3.127   4.150   6.034 -0.4742  0.6644 -0.8571
 6083SOL     OW29707   0.939   1.536   6.738 -0.3483  0.2666  0.5340
 6083SOL    HW129708   0.910   1.622   6.765  0.0095  0.5714 -0.0453
 6083SOL    HW229709   1.034   1.549   6.736 -0.0939 -1.2210  2.5798
 6084SOL     OW29710   1.725   3.633   8.392 -0.1050  0.1963  0.1782
 6084SOL    HW129711   1.769   3.674   8.318  2.4713 -1.2539  0.9072
 6084SOL    HW229712   1.638   3.621   8.354 -0.2859  0.9091  0.3708
 6085SOL     OW29713   2.878   2.798   1.652  0.0634  0.2900 -0.3156
 6085SOL    HW129714   2.796   2.845   1.663 -1.2862 -1.6207 -2.1528
 6085SOL    HW229715   2.905   2.810   1.743 -3.1386 -0.5951  0.7661
 6086SOL     OW29716   4.400   2.020  16.519  0.0503 -0.5236 -0.6587
 6086SOL    HW129717   4.365   2.104  16.492  1.2382 -0.1163 -0.9503
 6086SOL    HW229718   4.350   1.955  16.469  0.1726 -1.0830 -0.0665
 6087SOL     OW29719   4.053   2.363   4.114  0.6646  0.1439 -0.4733
 6087SOL    HW129720   4.024   2.417   4.041 -2.7535 -0.3773  0.4722
 6087SOL    HW229721   3.967   2.352   4.155  0.8234  0.9681  0.0630
 6088SOL     OW29722   3.521   3.915   3.716  0.5848 -0.0142 -0.1119
 6088SOL    HW129723   3.487   3.960   3.638 -0.3646 -0.7306 -0.1060
 6088SOL    HW229724   3.525   3.985   3.781  0.1188 -1.4388  1.4609
 6089SOL     OW29725   1.523   3.710  16.120 -0.6717  0.4320  0.1596
 6089SOL    HW129726   1.581   3.645  16.160  2.0603  1.6658 -1.7853
 6089SOL    HW229727   1.554   3.798  16.143  0.5086 -0.1382  0.7559
 6090SOL     OW29728   2.114   0.303  15.921  0.1483  0.3237 -0.2985
 6090SOL    HW129729   2.112   0.208  15.932  2.9252  0.1393 -1.3519
 6090SOL    HW229730   2.152   0.310  15.834  0.0715  0.4864 -0.3194
 6091SOL     OW29731   2.411   4.676   9.245  0.0813  0.4680  0.6752
 6091SOL    HW129732   2.451   4.592   9.269  1.2359  1.3456  1.8731
 6091SOL    HW229733   2.318   4.656   9.253 -0.0903 -0.1953 -3.0698
 6092SOL     OW29734   4.050   0.614   7.653  0.8916  0.7583 -0.7544
 6092SOL    HW129735   4.085   0.640   7.739  1.2027 -0.8013 -0.3962
 6092SOL    HW229736   4.133   0.615   7.605  0.7360  0.2168 -1.0334
 6093SOL     OW29737   2.031   4.496   2.719  0.3397 -0.2538  0.3975
 6093SOL    HW129738   2.107   4.493   2.662 -0.6009 -1.6400 -0.7721
 6093SOL    HW229739   2.030   4.404   2.744  1.1673  0.2810  2.4196
 6094SOL     OW29740   3.721   2.766   1.473 -0.5815  0.5734 -0.2413
 6094SOL    HW129741   3.814   2.745   1.480 -0.5939  0.9883  1.2325
 6094SOL    HW229742   3.707   2.725   1.388  1.4136  2.2112 -1.3616
 6095SOL     OW29743   1.911   1.236   7.030 -0.4708 -0.5022  0.0425
 6095SOL    HW129744   1.853   1.312   7.036  0.9804  0.8251 -3.1858
 6095SOL    HW229745   1.878   1.194   7.110 -0.2318 -1.6826 -0.4782
 6096SOL     OW29746   4.407   0.670   6.998 -0.1688  0.5894  0.4407
 6096SOL    HW129747   4.336   0.668   7.062 -1.6864 -0.0560 -1.2792
 6096SOL    HW229748   4.380   0.590   6.954  0.2625  0.1064  1.0424
 6097SOL     OW29749   0.369   4.043   2.537  0.4950  0.3189  0.4627
 6097SOL    HW129750   0.427   4.117   2.557 -2.9050  3.6689 -2.0776
 6097SOL    HW229751   0.301   4.042   2.605 -0.0549  1.2845 -0.0684
 6098SOL     OW29752   1.842   1.040   7.745 -0.1304 -0.3324 -0.0041
 6098SOL    HW129753   1.851   1.135   7.752 -0.1670 -0.4990  2.5008
 6098SOL    HW229754   1.921   1.017   7.697 -0.2741  1.8045 -1.2894
 6099SOL     OW29755   1.845   2.225   1.452  0.1591  0.5367 -0.2612
 6099SOL    HW129756   1.809   2.141   1.480  0.1004  1.2523  1.8138
 6099SOL    HW229757   1.879   2.197   1.367 -0.1615  0.7220 -0.4492
 6100SOL     OW29758   3.321   3.063   3.564 -0.2764 -0.6163 -0.0454
 6100SOL    HW129759   3.306   2.997   3.632  1.6456  2.1642  3.0654
 6100SOL    HW229760   3.323   2.997   3.495  0.3350 -1.1413  0.4716
 6101SOL     OW29761   0.940   2.959   6.734  0.7112 -0.1904 -0.3944
 6101SOL    HW129762   0.944   3.007   6.817 -0.8405 -0.8524  0.0703
 6101SOL    HW229763   0.994   2.882   6.747  0.8338  0.0525  0.5372
 6102SOL     OW29764   4.714   2.290   4.540 -0.5452  0.6477  0.2685
 6102SOL    HW129765   4.636   2.235   4.537 -0.5072  0.5068  2.3070
 6102SOL    HW229766   0.011   2.271   4.630  0.2184 -0.8718 -0.2409
 6103SOL     OW29767   4.529   1.403   9.147  0.2969 -0.1356  0.1576
 6103SOL    HW129768   4.479   1.365   9.219  1.8907 -2.1888  0.1725
 6103SOL    HW229769   4.601   1.447   9.192 -0.0882  1.0865 -0.3994
 6104SOL     OW29770   0.478   0.005  11.038 -0.1881  0.0860  0.7421
 6104SOL    HW129771   0.404   4.682  11.073 -0.5837  0.3845  0.3310
 6104SOL    HW229772   0.470   4.703  10.947  0.2356  2.6453 -0.1025
 6105SOL     OW29773   4.048   4.449   0.584 -0.1119 -0.0493  0.1362
 6105SOL    HW129774   4.056   4.419   0.494  2.0625 -1.1058  0.6972
 6105SOL    HW229775   4.141   4.464   0.599 -0.5037  1.3775  1.1653
 6106SOL     OW29776   1.228   1.680  15.633 -0.1298  0.0219  0.0981
 6106SOL    HW129777   1.184   1.596  15.644  0.1326  0.0700  1.4870
 6106SOL    HW229778   1.292   1.681  15.705 -1.9115 -0.0449  1.6730
 6107SOL     OW29779   4.494   1.904   2.745 -0.2953  0.4965 -0.1385
 6107SOL    HW129780   4.527   1.834   2.800  0.1572  0.9355  0.1475
 6107SOL    HW229781   4.471   1.980   2.798 -0.7961  0.6066 -0.5114
 6108SOL     OW29782   0.942   1.334   7.072 -0.4625 -0.0962  0.3335
 6108SOL    HW129783   0.874   1.268   7.085  0.1898 -1.2282 -2.0501
 6108SOL    HW229784   0.921   1.347   6.979 -1.2900 -0.9996  0.3965
 6109SOL     OW29785   2.348   0.168   7.708  0.0624  0.5320 -0.3072
 6109SOL    HW129786   2.305   0.083   7.698 -1.4574  1.6557 -3.4446
 6109SOL    HW229787   2.381   0.162   7.798  0.9498  2.0762 -0.5304
 6110SOL     OW29788   2.493   3.071   8.992 -0.2385 -0.5310  0.1927
 6110SOL    HW129789   2.533   3.015   8.926 -0.0500  0.0628 -0.1983
 6110SOL    HW229790   2.414   3.025   9.020  0.4535 -1.6906  0.2223
 6111SOL     OW29791   1.234   4.246   9.199 -0.0498 -0.1580  0.5150
 6111SOL    HW129792   1.145   4.267   9.171 -0.2177 -0.9510  0.4484
 6111SOL    HW229793   1.249   4.317   9.261 -0.9614 -2.5841  3.5273
 6112SOL     OW29794   0.006   2.653   7.956 -0.0482 -0.3879  0.0871
 6112SOL    HW129795   0.090   2.613   7.932 -1.2091 -2.1413 -0.9739
 6112SOL    HW229796   4.670   2.582   7.955  2.4213 -2.5556 -2.6581
 6113SOL     OW29797   2.022   0.732   3.304  0.1114  0.6143  0.3532
 6113SOL    HW129798   1.944   0.705   3.256 -0.1061  0.4943  0.7733
 6113SOL    HW229799   2.095   0.710   3.246 -2.1979  0.1261 -2.4232
 6114SOL     OW29800   0.890   3.086  11.206 -0.7596 -0.2682  0.5278
 6114SOL    HW129801   0.972   3.103  11.252 -1.5044  1.8622  1.0971
 6114SOL    HW229802   0.921   3.055  11.121 -0.2578 -1.4080  1.1361
 6115SOL     OW29803   3.263   0.250   2.399  0.0912  0.5118 -0.2077
 6115SOL    HW129804   3.353   0.225   2.379 -0.0348  0.8709 -1.1923
 6115SOL    HW229805   3.226   0.271   2.313 -2.0507  0.0504  0.5913
 6116SOL     OW29806   0.983   2.860  12.578 -0.3362 -0.2979  0.0686
 6116SOL    HW129807   1.009   2.787  12.635 -0.4052 -2.0913 -2.2121
 6116SOL    HW229808   1.040   2.850  12.502 -0.6388  1.1401 -0.3447
 6117SOL     OW29809   2.474   2.501   1.960  0.1867 -0.3494 -0.4940
 6117SOL    HW129810   2.549   2.520   2.018  0.4348 -1.4030 -0.4670
 6117SOL    HW229811   2.497   2.562   1.890 -0.7391 -0.2423 -0.6975
 6118SOL     OW29812   1.015   3.903   5.554  0.1226  0.5761  0.0739
 6118SOL    HW129813   0.933   3.903   5.602  0.3795  1.1208  0.5132
 6118SOL    HW229814   1.025   3.997   5.537 -2.1086  0.5831 -1.2109
 6119SOL     OW29815   1.830   3.655   0.422 -0.0072 -0.6335 -0.1246
 6119SOL    HW129816   1.842   3.706   0.342 -1.9950 -1.7699 -1.1378
 6119SOL    HW229817   1.895   3.585   0.412  1.2252  0.3894  0.7602
 6120SOL     OW29818   3.345   4.127  10.321 -0.1667 -0.4333 -0.2974
 6120SOL    HW129819   3.301   4.210  10.303 -1.5118 -1.0220  0.3218
 6120SOL    HW229820   3.362   4.147  10.413  0.9331 -0.4089 -0.5049
 6121SOL     OW29821   4.249   1.520  14.929  0.1401 -0.8628  0.1314
 6121SOL    HW129822   4.260   1.606  14.890 -1.9251 -2.4083 -3.9025
 6121SOL    HW229823   4.170   1.494  14.881  0.8117 -0.6303 -1.0938
 6122SOL     OW29824   4.464   4.215   6.985  0.0901  0.1407  0.2696
 6122SOL    HW129825   4.497   4.297   7.021  0.9679 -0.4342  0.7835
 6122SOL    HW229826   4.541   4.157   6.979  1.1715  1.4923  1.1193
 6123SOL     OW29827   1.536   1.819   1.669  0.6840  0.5299  0.5313
 6123SOL    HW129828   1.478   1.894   1.684  1.4160  1.4280 -1.0788
 6123SOL    HW229829   1.523   1.802   1.576  1.3569  0.1855  0.5022
 6124SOL     OW29830   1.393   4.251   5.230 -0.1607 -0.2682  0.5249
 6124SOL    HW129831   1.381   4.165   5.269  1.5642 -0.7649 -0.0366
 6124SOL    HW229832   1.367   4.312   5.299 -0.9627  1.7364 -1.5628
 6125SOL     OW29833   0.992   2.471  10.676  0.1636  0.6949  0.3800
 6125SOL    HW129834   1.075   2.425  10.676 -0.0985  0.2145  1.4414
 6125SOL    HW229835   0.930   2.398  10.674 -1.8616  2.3457  1.8445
 6126SOL     OW29836   2.297   4.261  14.528  0.9512 -0.3672 -0.8779
 6126SOL    HW129837   2.297   4.187  14.468 -0.6671 -0.0066 -1.3174
 6126SOL    HW229838   2.226   4.227  14.583 -0.6865  1.5103 -1.8557
 6127SOL     OW29839   2.399   1.615   2.389 -0.3489 -0.1090  0.9084
 6127SOL    HW129840   2.320   1.591   2.341 -0.2221 -0.6476  0.9779
 6127SOL    HW229841   2.455   1.585   2.317 -0.3653  1.9369  0.0274
 6128SOL     OW29842   1.788   1.764  17.418  0.3619  0.5230 -0.6282
 6128SOL    HW129843   1.792   1.858  17.436  0.5200  0.2704  0.6956
 6128SOL    HW229844   1.779   1.723  17.504 -1.5072  3.7045  0.6871
 6129SOL     OW29845   0.126   0.355   5.670 -0.6727 -0.1796  0.1216
 6129SOL    HW129846   0.198   0.375   5.730 -0.0992 -1.1994 -0.2317
 6129SOL    HW229847   0.061   0.330   5.736  1.0666 -0.4679  1.7368
 6130SOL     OW29848   0.482   4.011   8.277 -0.1283  0.4392  0.0701
 6130SOL    HW129849   0.435   3.972   8.350  0.7924 -0.6088  0.0905
 6130SOL    HW229850   0.455   3.947   8.211  2.4065  1.2467 -1.7372
 6131SOL     OW29851   3.830   4.664   3.151  0.1345  0.1796 -0.2325
 6131SOL    HW129852   3.907   4.608   3.163  0.3594  0.5779  0.1811
 6131SOL    HW229853   3.809   4.647   3.059  2.6386 -0.1659 -0.7521
 6132SOL     OW29854   1.592   0.526  13.309 -0.6349 -0.1992  0.3006
 6132SOL    HW129855   1.600   0.622  13.310  0.4023 -0.2782 -0.9470
 6132SOL    HW229856   1.666   0.515  13.368  0.3883  0.4637 -0.8715
 6133SOL     OW29857   1.511   0.374   9.151  0.2377  0.3326 -0.0654
 6133SOL    HW129858   1.606   0.383   9.139  0.4253 -0.5081  0.8523
 6133SOL    HW229859   1.496   0.288   9.190  4.2540 -0.6568 -0.6334
 6134SOL     OW29860   0.637   2.231   2.111  0.3409  1.1518 -0.7022
 6134SOL    HW129861   0.648   2.137   2.125 -0.5456  0.9431 -1.3772
 6134SOL    HW229862   0.560   2.241   2.055 -0.4760 -2.7288 -0.2846
 6135SOL     OW29863   1.981   1.952   5.719 -0.1167 -0.0034  0.2251
 6135SOL    HW129864   1.989   2.037   5.677  1.7697  0.6972  2.0417
 6135SOL    HW229865   2.032   1.890   5.666  1.0039  1.3740 -0.2900
 6136SOL     OW29866   1.997   4.489   0.271  0.0845  0.0044  0.4652
 6136SOL    HW129867   1.926   4.443   0.314 -0.3354  0.0990 -0.1280
 6136SOL    HW229868   1.968   4.459   0.185  2.7062 -0.4639 -0.2469
 6137SOL     OW29869   0.538   1.395   0.359  0.1657 -0.3126  0.4807
 6137SOL    HW129870   0.599   1.321   0.353  0.0188 -0.4559  0.7387
 6137SOL    HW229871   0.596   1.467   0.337  1.2017 -1.0918  0.6932
 6138SOL     OW29872   3.837   1.474  16.849 -0.0466  0.2481  0.0996
 6138SOL    HW129873   3.761   1.529  16.833 -3.4287 -5.1282 -2.1785
 6138SOL    HW229874   3.905   1.523  16.803 -0.5902  1.6660  0.8155
 6139SOL     OW29875   2.105   2.008  15.407 -0.2357  0.4533 -0.0155
 6139SOL    HW129876   2.052   2.085  15.387 -1.8609 -0.3952  1.0508
 6139SOL    HW229877   2.184   2.054  15.435 -0.2607  0.5846 -0.1567
 6140SOL     OW29878   3.266   3.852   1.517 -0.4539  0.6721  0.1976
 6140SOL    HW129879   3.213   3.781   1.482 -0.1425  0.3193  0.4430
 6140SOL    HW229880   3.288   3.891   1.433 -2.3909 -0.4068 -0.8104
 6141SOL     OW29881   2.203   4.567  10.285  0.1659 -0.3837  0.5472
 6141SOL    HW129882   2.282   4.608  10.321  0.7319  0.1715 -1.3449
 6141SOL    HW229883   2.223   4.476  10.264 -0.4612 -0.2216 -0.7203
 6142SOL     OW29884   4.125   3.697   7.156 -0.5228 -0.2611  0.3126
 6142SOL    HW129885   4.135   3.784   7.119 -2.1503  0.2585  1.0960
 6142SOL    HW229886   4.158   3.652   7.079 -1.1853 -1.1329  0.5406
 6143SOL     OW29887   2.555   4.471   9.358  0.0500 -0.8620  0.5079
 6143SOL    HW129888   2.636   4.422   9.345 -0.0188 -0.4304 -1.4816
 6143SOL    HW229889   2.575   4.520   9.438  2.1552 -0.6161 -0.1706
 6144SOL     OW29890   3.452   1.930   2.416  0.6950 -0.2437  0.1104
 6144SOL    HW129891   3.481   1.986   2.488  0.6444 -1.1162  0.8032
 6144SOL    HW229892   3.381   1.879   2.453  0.4424 -0.1211 -0.2086
 6145SOL     OW29893   1.712   1.118   8.786  0.4023 -0.4593  0.2333
 6145SOL    HW129894   1.722   1.037   8.737  0.0488 -0.9883  1.0326
 6145SOL    HW229895   1.787   1.127   8.844 -0.3489 -1.4281  1.3801
 6146SOL     OW29896   0.335   4.127  11.708 -0.4983  0.7585  0.0807
 6146SOL    HW129897   0.409   4.185  11.725  0.1653  0.2771 -1.2438
 6146SOL    HW229898   0.375   4.041  11.718 -1.9957  0.0772  0.3165
 6147SOL     OW29899   2.225   2.765  15.604  0.8306  0.4222  0.0330
 6147SOL    HW129900   2.205   2.784  15.512 -1.0945  0.0960  0.3766
 6147SOL    HW229901   2.215   2.854  15.637 -0.6768 -0.4941  2.0496
 6148SOL     OW29902   1.918   4.652   1.356 -0.2227 -0.0826  0.5961
 6148SOL    HW129903   1.963   4.723   1.311 -2.0138  0.5355 -0.2194
 6148SOL    HW229904   1.889   4.588   1.291  0.9377 -1.7829  1.7600
 6149SOL     OW29905   3.171   0.349  15.809 -0.5504 -0.0958  0.6737
 6149SOL    HW129906   3.194   0.267  15.766 -0.9188  0.4104 -0.5044
 6149SOL    HW229907   3.160   0.406  15.733  0.0507 -2.9905 -1.5923
 6150SOL     OW29908   2.455   2.887   6.605 -0.1113  0.4633  0.0021
 6150SOL    HW129909   2.475   2.970   6.562  1.2728  0.0722 -0.1044
 6150SOL    HW229910   2.443   2.827   6.531 -1.4324  1.1417 -0.3301
 6151SOL     OW29911   2.016   4.576   5.960  0.4277  0.1433 -0.7821
 6151SOL    HW129912   1.950   4.615   6.017  0.5970 -1.5545  0.5586
 6151SOL    HW229913   2.072   4.651   5.942  0.9166  0.1079  0.5766
 6152SOL     OW29914   2.201   3.280  14.034  0.1997  0.0049 -0.0872
 6152SOL    HW129915   2.178   3.371  14.013 -1.8298 -0.3437  0.6561
 6152SOL    HW229916   2.118   3.234  14.021  0.3222 -0.9642  2.6283
 6153SOL     OW29917   0.117   0.452   0.512  0.1781  0.1194 -0.1152
 6153SOL    HW129918   0.188   0.392   0.535  0.0496 -0.0784 -0.2290
 6153SOL    HW229919   0.051   0.382   0.507  0.9339 -0.7615  2.0008
 6154SOL     OW29920   3.327   0.979  14.675 -0.2560 -0.3679 -0.0120
 6154SOL    HW129921   3.378   0.945  14.749  1.2855  0.8234 -0.5235
 6154SOL    HW229922   3.371   1.061  14.651 -0.0424 -1.0023 -1.7853
 6155SOL     OW29923   2.254   4.021   5.737  0.3319 -0.0778  0.2159
 6155SOL    HW129924   2.227   4.069   5.658 -2.6434 -2.6367 -0.3047
 6155SOL    HW229925   2.289   4.090   5.793  0.2529  0.7462 -0.7500
 6156SOL     OW29926   1.621   0.708  12.680 -0.4800  0.5160  0.4237
 6156SOL    HW129927   1.632   0.663  12.764 -0.7805  0.8132  0.6176
 6156SOL    HW229928   1.578   0.783  12.720 -2.1309  0.2523 -0.8506
 6157SOL     OW29929   2.933   4.070   3.592  1.0328  0.1897 -0.2854
 6157SOL    HW129930   3.004   4.064   3.657 -1.0010  0.1512  1.9227
 6157SOL    HW229931   2.879   3.997   3.622  0.8059  0.7934  0.7930
 6158SOL     OW29932   0.728   0.904   3.244  0.1372 -0.1447 -0.4869
 6158SOL    HW129933   0.693   0.992   3.257 -1.9218 -0.9591 -0.3902
 6158SOL    HW229934   0.656   0.857   3.287  1.6209 -0.0507  2.0473
 6159SOL     OW29935   2.858   0.554  14.160 -0.0602  0.2668  0.4532
 6159SOL    HW129936   2.816   0.639  14.160 -0.8051 -0.1181 -1.2272
 6159SOL    HW229937   2.937   0.563  14.106 -0.3213 -1.3533 -0.1855
 6160SOL     OW29938   4.534   0.845   9.208 -0.5723 -0.3087  0.1566
 6160SOL    HW129939   4.579   0.877   9.130  0.8970  0.5267  1.3478
 6160SOL    HW229940   4.501   0.923   9.252  0.6460 -0.5777  1.5635
 6161SOL     OW29941   4.023   4.015  11.544  0.4747 -0.0318 -0.0382
 6161SOL    HW129942   3.947   4.068  11.567  1.9287  0.9613  2.4476
 6161SOL    HW229943   4.089   4.083  11.528  0.9838 -0.0290  2.1649
 6162SOL     OW29944   0.143   4.349   5.775 -0.4674 -0.1124  0.0982
 6162SOL    HW129945   0.226   4.377   5.739 -0.1300  1.7844  2.3069
 6162SOL    HW229946   0.141   4.259   5.745 -0.3702 -1.0171  2.7925
 6163SOL     OW29947   3.814   2.057   7.984  0.1139 -0.0472 -0.3284
 6163SOL    HW129948   3.738   2.059   8.042  0.6283  0.6860  0.3175
 6163SOL    HW229949   3.803   1.972   7.941 -2.6886 -0.0013  0.3250
 6164SOL     OW29950   0.553   0.409   2.034 -0.2931  0.3747  0.0630
 6164SOL    HW129951   0.540   0.409   1.939 -0.8709 -4.2234  0.1299
 6164SOL    HW229952   0.645   0.435   2.035 -0.2969  0.4689 -1.8131
 6165SOL     OW29953   0.263   0.580   7.813  0.1230 -0.0424  0.5090
 6165SOL    HW129954   0.233   0.615   7.897  0.4243  2.7803 -0.5349
 6165SOL    HW229955   0.342   0.633   7.802 -1.6193  1.9520 -2.5772
 6166SOL     OW29956   4.633   3.206   7.919  0.2131  0.2473 -0.0939
 6166SOL    HW129957   4.624   3.178   8.010 -0.8478  3.5040  0.8108
 6166SOL    HW229958   4.684   3.134   7.883 -1.2530 -0.9860  0.2801
 6167SOL     OW29959   0.531   3.410   0.307 -0.6023  0.4443 -0.0788
 6167SOL    HW129960   0.511   3.387   0.398 -0.1372  1.0285  0.1692
 6167SOL    HW229961   0.447   3.407   0.261 -1.9227  1.0351  2.2437
 6168SOL     OW29962   3.561   0.648   6.875 -0.1286  0.5892 -0.3757
 6168SOL    HW129963   3.527   0.736   6.855  0.0174  0.9819  1.1045
 6168SOL    HW229964   3.601   0.620   6.793  1.5800  0.8034  0.3887
 6169SOL     OW29965   1.445   2.652   3.140 -0.5632 -0.5930  0.3611
 6169SOL    HW129966   1.444   2.640   3.045 -1.3418 -1.0225  0.4319
 6169SOL    HW229967   1.467   2.745   3.149  0.4925 -0.6435 -1.7147
 6170SOL     OW29968   0.530   4.174   1.919  0.2517  0.1196 -0.0529
 6170SOL    HW129969   0.567   4.104   1.972  0.7266  1.3497  1.2193
 6170SOL    HW229970   0.438   4.168   1.946 -0.2053 -1.1029 -1.8449
 6171SOL     OW29971   0.307   4.230  14.076 -0.0084  0.2234  0.3272
 6171SOL    HW129972   0.273   4.319  14.086  2.6736  1.1763  0.8396
 6171SOL    HW229973   0.324   4.228  13.982 -0.0436 -0.2395  0.3303
 6172SOL     OW29974   0.137   1.078   6.843 -0.3462 -0.4858  0.0042
 6172SOL    HW129975   0.211   1.019   6.833  0.4367  0.7759 -1.6233
 6172SOL    HW229976   0.066   1.037   6.794  1.2140 -2.0433 -0.9670
 6173SOL     OW29977   2.904   2.513   0.557 -0.5053  0.7537  0.5242
 6173SOL    HW129978   2.862   2.596   0.580 -2.5425 -0.1167 -0.0535
 6173SOL    HW229979   2.839   2.454   0.595 -0.8885 -0.2550 -1.7069
 6174SOL     OW29980   2.469   0.415  12.561  0.6629  0.1904 -0.0229
 6174SOL    HW129981   2.430   0.501  12.542  0.0879  0.2491  1.3597
 6174SOL    HW229982   2.483   0.422  12.656  3.7812 -2.1965 -0.3357
 6175SOL     OW29983   1.129   2.484   0.789 -0.5833  0.3139 -0.6163
 6175SOL    HW129984   1.120   2.554   0.725  0.7914 -0.5419 -1.7678
 6175SOL    HW229985   1.055   2.506   0.846  0.4163 -0.5405  1.0297
 6176SOL     OW29986   1.181   4.408   3.523  0.1331 -0.0525  0.6526
 6176SOL    HW129987   1.254   4.468   3.538 -0.6483  0.4070  2.5370
 6176SOL    HW229988   1.155   4.438   3.436  0.3509  1.5958  1.1555
 6177SOL     OW29989   1.127   4.001  15.848  0.3807  0.5365  0.2373
 6177SOL    HW129990   1.074   4.079  15.837  0.2606  0.4571  0.2601
 6177SOL    HW229991   1.060   3.937  15.871  0.9703 -0.0900  0.2104
 6178SOL     OW29992   0.448   4.199   6.577  0.8951  0.2198  0.7616
 6178SOL    HW129993   0.541   4.195   6.598  1.1748  1.1914 -0.3037
 6178SOL    HW229994   0.416   4.222   6.664 -2.2036 -3.0866  0.5024
 6179SOL     OW29995   3.305   0.302  13.025 -0.3705 -0.0324 -0.0327
 6179SOL    HW129996   3.337   0.385  13.059  0.7259 -1.1513  1.6127
 6179SOL    HW229997   3.263   0.339  12.947 -1.0317  1.8373  1.2006
 6180SOL     OW29998   3.947   0.000   7.561  0.0758  0.1547 -0.1794
 6180SOL    HW129999   3.954   0.033   7.650 -1.5264 -0.6378  0.2394
 6180SOL    HW230000   4.034   4.706   7.528 -0.3641 -0.7933 -0.7366
 6181SOL     OW30001   3.007   0.308   3.767 -0.4536 -0.5876 -0.2102
 6181SOL    HW130002   2.990   0.352   3.684  0.0746 -2.4082 -1.2648
 6181SOL    HW230003   3.032   0.220   3.739  0.3450 -0.1303 -0.9501
 6182SOL     OW30004   1.660   0.236  15.278  0.2226 -0.6053  0.5587
 6182SOL    HW130005   1.739   0.183  15.289 -0.0889 -0.9471  1.1955
 6182SOL    HW230006   1.627   0.215  15.365  2.4819 -1.6272  1.1725
 6183SOL     OW30007   4.676   0.189  10.474 -0.2475  0.0424 -0.2822
 6183SOL    HW130008   4.684   0.118  10.410  1.6298  0.7654 -0.8283
 6183SOL    HW230009   0.027   0.238  10.448 -0.9868  0.6974 -1.2751
 6184SOL     OW30010   1.318   4.648  16.280 -0.4505  0.1781 -0.0890
 6184SOL    HW130011   1.384   4.680  16.218 -0.5302 -1.1725 -0.8665
 6184SOL    HW230012   1.353   4.678  16.364  1.3369  0.5828 -0.9623
 6185SOL     OW30013   3.778   2.501   6.443  0.1126 -0.2801 -0.1436
 6185SOL    HW130014   3.708   2.466   6.498  0.5751 -0.3452  0.4019
 6185SOL    HW230015   3.729   2.514   6.362  1.2031  2.4782 -0.3538
 6186SOL     OW30016   2.305   2.314   2.155 -0.3918  0.4163 -0.2395
 6186SOL    HW130017   2.397   2.302   2.180 -0.5958 -0.3699  0.1269
 6186SOL    HW230018   2.263   2.242   2.201 -2.2935  2.8378  1.8262
 6187SOL     OW30019   0.892   4.642   6.598  0.3729  0.5223 -0.0326
 6187SOL    HW130020   0.942   4.724   6.602  0.8877  0.2946 -1.8088
 6187SOL    HW230021   0.867   4.635   6.506  0.1581  0.5461  0.0243
 6188SOL     OW30022   0.594   0.325   4.672  0.8311 -0.1686  0.3664
 6188SOL    HW130023   0.499   0.317   4.686  0.4760 -0.2328 -2.0901
 6188SOL    HW230024   0.601   0.419   4.656  1.0062 -0.4029 -0.9552
 6189SOL     OW30025   4.417   1.652   2.224 -0.1293  0.4040 -0.0024
 6189SOL    HW130026   4.428   1.742   2.255 -2.9085  0.8148 -0.2079
 6189SOL    HW230027   4.438   1.651   2.131 -0.6847  0.9457 -0.1241
 6190SOL     OW30028   0.440   4.490   7.923  0.2684  0.0428 -0.1174
 6190SOL    HW130029   0.464   4.582   7.918 -1.3249  0.4911  0.6761
 6190SOL    HW230030   0.372   4.490   7.990  1.1517  0.1327  0.7773
 6191SOL     OW30031   0.463   3.831   8.075  0.0262  0.5756 -0.4220
 6191SOL    HW130032   0.459   3.738   8.099 -2.3745 -0.0270 -3.2205
 6191SOL    HW230033   0.409   3.842   7.997 -0.9104  1.4499  0.3576
 6192SOL     OW30034   1.872   0.138  12.464 -0.3624  0.0350  0.2896
 6192SOL    HW130035   1.849   0.106  12.377  3.3841  0.3365 -0.8426
 6192SOL    HW230036   1.933   0.068  12.487 -0.1489  0.6712  1.6553
 6193SOL     OW30037   0.680   1.248   3.488  0.4648  0.1849  0.4793
 6193SOL    HW130038   0.733   1.283   3.416  0.2149  0.8345  0.6142
 6193SOL    HW230039   0.684   1.321   3.549 -1.0570 -1.8748  3.0677
 6194SOL     OW30040   2.037   3.170   2.088 -0.1370 -0.8032 -0.0864
 6194SOL    HW130041   1.984   3.237   2.045 -0.4876 -2.4099 -2.1673
 6194SOL    HW230042   2.038   3.095   2.028  2.4734 -0.6826 -0.1943
 6195SOL     OW30043   4.680   0.315   5.863  0.4095 -1.1550 -0.2526
 6195SOL    HW130044   0.001   0.279   5.937  1.1903  0.0822 -0.1542
 6195SOL    HW230045   4.610   0.364   5.907  1.2056 -0.4933  0.3013
 6196SOL     OW30046   2.779   2.298   4.201 -0.2933 -0.0617  0.2042
 6196SOL    HW130047   2.720   2.241   4.250 -2.4199 -0.8557 -3.2960
 6196SOL    HW230048   2.732   2.290   4.118  2.5100 -0.2359 -1.3523
 6197SOL     OW30049   1.025   3.601   2.275  0.6980 -0.4889  0.7596
 6197SOL    HW130050   0.936   3.624   2.302  0.2074  0.5489 -1.7316
 6197SOL    HW230051   1.032   3.626   2.183  2.7183 -0.8854  0.8179
 6198SOL     OW30052   3.586   1.958   8.133  0.3194 -0.3031 -0.4526
 6198SOL    HW130053   3.584   1.865   8.113 -1.1644 -0.4305  0.3450
 6198SOL    HW230054   3.565   1.964   8.226 -0.3915  1.3646 -0.7133
 6199SOL     OW30055   0.693   0.645  10.100  0.2025  0.1792  0.5850
 6199SOL    HW130056   0.610   0.610  10.132 -0.4541 -0.1453 -1.4967
 6199SOL    HW230057   0.650   0.697  10.032  0.5216 -2.1758 -1.3752
 6200SOL     OW30058   1.381   4.138  10.640  0.2697 -0.1651  0.7550
 6200SOL    HW130059   1.460   4.107  10.684  0.6723 -0.6051 -0.2869
 6200SOL    HW230060   1.318   4.115  10.708  1.6338  1.7978  2.6960
 6201SOL     OW30061   3.737   0.245  15.786 -0.0685  0.0997 -0.1528
 6201SOL    HW130062   3.667   0.300  15.751 -0.1737 -0.5815 -1.0081
 6201SOL    HW230063   3.697   0.159  15.791  1.7607 -0.8849 -2.4513
 6202SOL     OW30064   0.783   0.362   7.286 -0.3942  0.5877 -0.4540
 6202SOL    HW130065   0.727   0.321   7.351  2.3023 -0.7247  1.0580
 6202SOL    HW230066   0.784   0.454   7.312 -0.8464 -0.3946  2.9732
 6203SOL     OW30067   3.898   3.617   5.780  0.3856 -0.4570 -0.3955
 6203SOL    HW130068   3.966   3.555   5.807  0.2908 -0.9611 -1.3003
 6203SOL    HW230069   3.834   3.555   5.745  0.3752 -2.1224  2.5666
 6204SOL     OW30070   4.398   1.514   5.024 -0.2014  0.3748  0.1772
 6204SOL    HW130071   4.371   1.437   5.075 -0.1276 -0.7460 -1.4687
 6204SOL    HW230072   4.487   1.486   5.002 -0.2592 -0.8071  1.4436
 6205SOL     OW30073   2.596   3.227  17.248  0.1458  0.1924 -0.1021
 6205SOL    HW130074   2.594   3.307  17.300  0.6476 -0.8133  1.4518
 6205SOL    HW230075   2.690   3.219  17.232 -0.0194 -1.4979 -0.2512
 6206SOL     OW30076   1.538   4.151   1.071  0.1724 -0.6310  0.4520
 6206SOL    HW130077   1.527   4.237   1.030 -0.7132 -1.5322 -1.2429
 6206SOL    HW230078   1.633   4.140   1.076  0.0527 -1.5895  0.7091
 6207SOL     OW30079   1.024   0.926   1.670  0.3392  0.3402 -0.1677
 6207SOL    HW130080   1.009   0.969   1.586 -3.5611  0.0351  0.3853
 6207SOL    HW230081   1.104   0.879   1.644 -0.4461  0.6388 -3.1596
 6208SOL     OW30082   1.401   3.610   3.601  0.5592 -0.4027 -0.3157
 6208SOL    HW130083   1.345   3.654   3.665  0.1030  0.3616 -1.2405
 6208SOL    HW230084   1.444   3.549   3.662  1.0345 -0.4949 -0.7475
 6209SOL     OW30085   4.379   2.755  16.432 -0.0701  0.1059  0.1911
 6209SOL    HW130086   4.328   2.834  16.410 -0.1102  0.1402  0.4124
 6209SOL    HW230087   4.454   2.796  16.474  0.7446 -1.7656  0.5544
 6210SOL     OW30088   0.640   1.104   4.032  0.0387 -0.0082 -0.5167
 6210SOL    HW130089   0.730   1.085   4.058 -0.9091 -0.4250  2.4430
 6210SOL    HW230090   0.642   1.062   3.946 -2.9696 -3.5182  1.1479
 6211SOL     OW30091   3.269   1.088   8.470 -0.5756 -0.1649 -0.0479
 6211SOL    HW130092   3.316   1.042   8.540 -1.3627  0.9453  1.1900
 6211SOL    HW230093   3.179   1.079   8.500 -0.6343 -0.5860 -0.3509
 6212SOL     OW30094   4.332   4.181   9.105 -0.3434 -0.1145 -0.2846
 6212SOL    HW130095   4.355   4.092   9.077 -0.3439 -0.9849  2.4822
 6212SOL    HW230096   4.237   4.181   9.114 -0.3159 -0.1646  0.0345
 6213SOL     OW30097   3.254   3.636   3.530 -0.1932 -0.1602 -0.1177
 6213SOL    HW130098   3.286   3.574   3.596 -0.7410  0.6150  0.8834
 6213SOL    HW230099   3.326   3.637   3.467 -2.6171  1.3681 -2.8673
 6214SOL     OW30100   1.283   0.087   3.801 -0.4841  0.2929 -0.2430
 6214SOL    HW130101   1.372   0.105   3.771  0.3078 -1.1127  1.2902
 6214SOL    HW230102   1.227   0.082   3.724 -0.9033  1.8612 -0.0632
 6215SOL     OW30103   3.471   3.957   0.706 -0.0006 -0.0291  0.1669
 6215SOL    HW130104   3.544   3.945   0.766  0.6051  2.2350 -0.1485
 6215SOL    HW230105   3.497   3.907   0.628  1.2547  2.7721 -1.1768
 6216SOL     OW30106   2.071   1.010   1.705 -0.1921 -0.0426 -0.9602
 6216SOL    HW130107   2.104   0.981   1.620 -0.0617 -2.0277 -0.2424
 6216SOL    HW230108   2.129   0.957   1.760 -0.9912  0.4830  0.4063
 6217SOL     OW30109   0.741   1.156   9.682 -0.5754  0.2732 -0.6509
 6217SOL    HW130110   0.828   1.180   9.715 -0.6136  0.7035 -0.8623
 6217SOL    HW230111   0.716   1.109   9.762  1.1466 -1.7009 -1.2652
 6218SOL     OW30112   3.561   2.836   8.365  0.5778  0.7002  0.4421
 6218SOL    HW130113   3.480   2.862   8.408 -0.7170 -2.9840  0.2025
 6218SOL    HW230114   3.631   2.848   8.430  1.4105  1.0739 -0.5177
 6219SOL     OW30115   0.799   2.747   6.566  0.1638  0.5098  0.8998
 6219SOL    HW130116   0.835   2.798   6.639  2.1576  2.1621 -1.2331
 6219SOL    HW230117   0.848   2.779   6.490  0.6982  1.9380  1.8497
 6220SOL     OW30118   2.634   1.728   5.099  0.0388  0.4035 -0.1504
 6220SOL    HW130119   2.688   1.724   5.178 -0.1814 -2.3190 -0.1488
 6220SOL    HW230120   2.700   1.721   5.030 -1.5723 -1.9759 -1.4440
 6221SOL     OW30121   0.557   2.958   7.250  0.4960  0.6358  0.1391
 6221SOL    HW130122   0.551   2.863   7.264  0.5192  0.4327 -1.2347
 6221SOL    HW230123   0.639   2.955   7.201  0.6256  3.2158  0.2154
 6222SOL     OW30124   2.173   0.812   0.064  0.3939 -0.3017 -0.0637
 6222SOL    HW130125   2.253   0.785   0.110  0.8625 -1.2509 -1.4564
 6222SOL    HW230126   2.131   0.860   0.135 -0.7404  0.7138 -1.4363
 6223SOL     OW30127   1.443   0.016  15.751  0.4920  0.1325 -0.0580
 6223SOL    HW130128   1.512   4.712  15.811 -0.4880 -0.4855  0.7586
 6223SOL    HW230129   1.427   4.655  15.715  0.3109  0.2528 -0.2666
 6224SOL     OW30130   4.473   1.806   5.607 -0.0324  0.1166 -0.2717
 6224SOL    HW130131   4.386   1.775   5.582 -0.0408  0.8183 -1.1107
 6224SOL    HW230132   4.492   1.728   5.659 -3.1532 -0.7333 -0.3667
 6225SOL     OW30133   3.754   4.086   6.183 -0.2059  0.5005 -0.1553
 6225SOL    HW130134   3.798   4.065   6.100  0.4229 -0.2928  0.3850
 6225SOL    HW230135   3.731   3.998   6.212 -0.8574  1.2869  1.7029
 6226SOL     OW30136   2.194   3.087   5.413 -0.6682 -0.0802 -0.4936
 6226SOL    HW130137   2.171   3.177   5.390 -0.5583 -0.0606 -0.5265
 6226SOL    HW230138   2.178   3.090   5.507  1.4860  1.1299 -0.1535
 6227SOL     OW30139   4.362   3.228   4.841 -0.0180  0.0047  0.4842
 6227SOL    HW130140   4.394   3.224   4.751 -0.2882  1.4538  0.3208
 6227SOL    HW230141   4.361   3.137   4.870  2.2395 -0.5361 -1.0632
 6228SOL     OW30142   2.325   4.240   1.690 -0.0864 -0.4837 -0.4030
 6228SOL    HW130143   2.339   4.153   1.726 -1.1757 -0.4266  0.1852
 6228SOL    HW230144   2.385   4.232   1.616 -0.5949  0.9342 -0.9735
 6229SOL     OW30145   3.931   0.616   8.052  0.4154 -0.3681  0.1373
 6229SOL    HW130146   3.922   0.695   8.104 -0.2426 -0.3696  0.0283
 6229SOL    HW230147   4.010   0.633   8.000 -0.7156 -1.5114 -1.9500
 6230SOL     OW30148   4.291   3.206  16.137 -0.6280  0.2000  0.0268
 6230SOL    HW130149   4.198   3.205  16.159 -0.5023 -1.0817  0.5320
 6230SOL    HW230150   4.303   3.111  16.135  0.0171  0.2014  2.8549
 6231SOL     OW30151   3.578   0.140   8.410 -0.0249 -0.0279 -0.8443
 6231SOL    HW130152   3.614   0.130   8.498 -1.5955 -0.9279 -0.2989
 6231SOL    HW230153   3.561   0.234   8.403  0.8460 -0.0714 -3.6896
 6232SOL     OW30154   2.031   0.649  12.526  0.0948  0.5224 -0.0565
 6232SOL    HW130155   2.037   0.563  12.568 -1.8098  0.5657  0.3138
 6232SOL    HW230156   2.123   0.669  12.510  0.3595 -0.0840  0.7215
 6233SOL     OW30157   0.607   2.155  10.455 -0.6178 -0.1991 -0.1374
 6233SOL    HW130158   0.520   2.185  10.430 -0.5782 -1.2389 -1.5087
 6233SOL    HW230159   0.637   2.128  10.369  1.1969 -0.0759  0.4664
 6234SOL     OW30160   2.694   3.283   2.154  0.4674  0.2660 -0.2949
 6234SOL    HW130161   2.693   3.192   2.182 -1.4969  0.4660  0.3147
 6234SOL    HW230162   2.763   3.319   2.208 -1.0843  0.8846  1.2839
 6235SOL     OW30163   1.760   2.286   2.793  0.4999 -0.4895  0.2469
 6235SOL    HW130164   1.844   2.276   2.747 -0.9354 -0.3711 -2.4399
 6235SOL    HW230165   1.735   2.197   2.817  1.3085 -2.0988 -4.7336
 6236SOL     OW30166   2.921   1.496   3.135 -0.9077  0.1030 -0.3708
 6236SOL    HW130167   2.856   1.435   3.101 -0.3036 -0.2295 -0.9277
 6236SOL    HW230168   2.999   1.444   3.156 -0.9743 -0.1204 -0.6932
 6237SOL     OW30169   3.818   0.452   7.682 -0.3885 -0.6038  0.5881
 6237SOL    HW130170   3.774   0.484   7.760 -0.5803  0.4446  0.0486
 6237SOL    HW230171   3.893   0.512   7.678  0.4199 -1.6707 -0.3441
 6238SOL     OW30172   3.610   0.145   6.930  0.2070 -0.1074  0.1153
 6238SOL    HW130173   3.661   0.080   6.980 -0.5366 -0.5939  0.2438
 6238SOL    HW230174   3.687   0.195   6.902  0.2303  0.7501  1.7173
 6239SOL     OW30175   3.809   3.045   8.257  0.5356 -0.4940  0.2072
 6239SOL    HW130176   3.846   3.082   8.177 -1.6132 -0.1851 -0.6614
 6239SOL    HW230177   3.735   3.105   8.268 -0.5177 -1.7493  0.0108
 6240SOL     OW30178   1.713   1.249  12.760  0.2352 -0.3298  0.0516
 6240SOL    HW130179   1.799   1.245  12.718 -0.0608  2.2123 -0.7794
 6240SOL    HW230180   1.754   1.280  12.841 -1.6275 -1.4379  1.4065
 6241SOL     OW30181   1.956   1.821  15.031 -0.1013 -0.3397  0.0887
 6241SOL    HW130182   1.988   1.874  15.104  1.2063  1.0087 -1.4496
 6241SOL    HW230183   1.882   1.778  15.072 -0.7233  1.0897  0.4604
 6242SOL     OW30184   3.002   1.088  12.605 -0.4717  0.0726 -0.3569
 6242SOL    HW130185   2.947   1.155  12.646  0.8551  0.6555  0.4874
 6242SOL    HW230186   3.082   1.108  12.654  0.2049 -2.8483 -0.2753
 6243SOL     OW30187   4.171   1.550   2.170 -0.2949  0.5147  0.4764
 6243SOL    HW130188   4.126   1.509   2.244  0.8023 -1.9799 -0.2307
 6243SOL    HW230189   4.257   1.567   2.208  1.2709 -1.7207 -2.0709
 6244SOL     OW30190   0.075   0.094   2.805 -0.2245 -0.1413 -0.0824
 6244SOL    HW130191   0.168   0.103   2.787 -0.4037  1.8587 -0.0574
 6244SOL    HW230192   0.070   0.103   2.900  0.1691  0.7266 -0.1425
 6245SOL     OW30193   4.289   2.571   9.148  0.3850  0.4811  0.5127
 6245SOL    HW130194   4.256   2.493   9.104 -2.0378 -0.5003  4.1067
 6245SOL    HW230195   4.375   2.562   9.107  0.9256 -1.9491  2.1633
 6246SOL     OW30196   1.033   1.647   9.001  0.6268  0.2677  0.9584
 6246SOL    HW130197   1.084   1.567   8.987  1.3311  0.6395  1.3699
 6246SOL    HW230198   1.070   1.699   8.929  0.6580  0.2760  0.9802
 6247SOL     OW30199   3.106   3.856   5.954  0.2782 -0.0492 -0.2105
 6247SOL    HW130200   3.101   3.949   5.978  1.0250 -0.4800  1.5763
 6247SOL    HW230201   3.068   3.812   6.030  0.6026 -2.2033 -1.3030
 6248SOL     OW30202   0.786   0.342   6.971 -0.1523 -0.3203  0.6568
 6248SOL    HW130203   0.868   0.298   6.950 -0.1287  0.6190 -1.2160
 6248SOL    HW230204   0.789   0.361   7.064  1.3809  0.6497  0.4090
 6249SOL     OW30205   1.708   3.554  16.755  0.6661  0.3766  0.2098
 6249SOL    HW130206   1.738   3.569  16.844  2.4878 -2.7842  0.1268
 6249SOL    HW230207   1.711   3.458  16.750 -0.0490  0.3799 -0.2967
 6250SOL     OW30208   1.004   1.137  11.860  0.0712 -0.2182  0.1014
 6250SOL    HW130209   1.033   1.201  11.925  0.6755 -0.1899 -0.1957
 6250SOL    HW230210   1.059   1.060  11.878 -0.4219 -0.4288  0.7430
 6251SOL     OW30211   4.385   1.181   6.348  0.5781 -0.3417  0.1498
 6251SOL    HW130212   4.297   1.208   6.320  1.6280  0.8785 -1.9493
 6251SOL    HW230213   4.370   1.196   6.441  0.0965  0.5851 -0.0783
 6252SOL     OW30214   1.364   4.307   2.609 -0.0765  0.3241 -0.0547
 6252SOL    HW130215   1.343   4.382   2.666  0.1082 -0.4136  0.9904
 6252SOL    HW230216   1.441   4.336   2.562 -0.1984 -1.2446 -1.2088
 6253SOL     OW30217   2.094   4.609   5.091 -0.4937 -0.9045  0.1047
 6253SOL    HW130218   2.117   4.658   5.013  0.9690 -0.1501  1.0094
 6253SOL    HW230219   2.163   4.646   5.146  0.1158 -0.7935 -0.7524
 6254SOL     OW30220   2.679   3.735  12.790 -0.1173 -0.6717  0.0929
 6254SOL    HW130221   2.714   3.796  12.725 -0.4367  0.5305  1.0524
 6254SOL    HW230222   2.584   3.744  12.782 -0.0920 -0.1305  0.4680
 6255SOL     OW30223   3.106   1.603  13.020 -0.2324 -0.3591  0.0196
 6255SOL    HW130224   3.200   1.585  13.027 -0.2192 -1.1706 -2.3334
 6255SOL    HW230225   3.114   1.693  12.990  0.7391 -0.3131  0.4126
 6256SOL     OW30226   0.298   2.588   5.584 -0.1317  0.4069 -0.3751
 6256SOL    HW130227   0.309   2.502   5.544 -0.3218  0.7743 -1.2409
 6256SOL    HW230228   0.205   2.587   5.607 -0.7764 -1.3825 -2.9725
 6257SOL     OW30229   0.967   4.664   7.634 -0.4913  0.1672  0.1266
 6257SOL    HW130230   1.060   4.644   7.637 -0.1072  2.1252  1.8133
 6257SOL    HW230231   0.970   0.023   7.677  0.4142  0.9524 -1.5304
 6258SOL     OW30232   2.055   2.687   4.366 -0.4160  0.3554 -0.7640
 6258SOL    HW130233   2.055   2.637   4.284  0.9037 -0.9388  0.0131
 6258SOL    HW230234   1.974   2.661   4.410 -0.1572  5.3470  2.6228
 6259SOL     OW30235   2.473   3.597   5.120  0.4568  0.1409 -0.4092
 6259SOL    HW130236   2.425   3.667   5.164  0.4052 -0.6650  0.8141
 6259SOL    HW230237   2.447   3.515   5.161  1.6676 -0.3640 -0.6502
 6260SOL     OW30238   1.485   3.380   6.329  0.7922  0.1217 -0.1869
 6260SOL    HW130239   1.443   3.437   6.393 -0.6198 -0.4339 -0.6256
 6260SOL    HW230240   1.576   3.379   6.361  0.7971 -0.3625 -0.2145
 6261SOL     OW30241   1.491   1.688   3.228 -0.1064 -0.7497 -0.7123
 6261SOL    HW130242   1.470   1.701   3.135  0.9594 -0.4657 -0.9112
 6261SOL    HW230243   1.408   1.655   3.261 -1.4756  1.9550 -1.4862
 6262SOL     OW30244   1.277   2.772  17.337  0.3356  0.0626  0.0181
 6262SOL    HW130245   1.239   2.690  17.370  1.5049 -0.8737 -0.9337
 6262SOL    HW230246   1.281   2.828  17.414  3.4491  2.3738 -1.8370
 6263SOL     OW30247   4.109   2.766   4.316 -0.0667  0.7066 -0.4308
 6263SOL    HW130248   4.042   2.820   4.273  0.7055  0.7532 -1.5742
 6263SOL    HW230249   4.077   2.760   4.406  1.3971 -1.6524 -0.0783
 6264SOL     OW30250   1.447   1.728  15.850  0.1260 -0.2511  0.0098
 6264SOL    HW130251   1.357   1.744  15.879  0.3187 -0.1189  0.5325
 6264SOL    HW230252   1.503   1.764  15.919  0.1845 -4.2704  2.0399
 6265SOL     OW30253   2.909   3.397   6.966  0.0662  0.3119 -0.3596
 6265SOL    HW130254   2.913   3.393   6.870 -0.5099  0.7128 -0.3976
 6265SOL    HW230255   2.825   3.442   6.971 -1.9052 -3.4094  0.1269
 6266SOL     OW30256   2.443   2.843  17.492 -0.0684 -0.0578  0.2082
 6266SOL    HW130257   2.515   2.892  17.452 -0.7988  0.4800 -0.4357
 6266SOL    HW230258   2.416   2.895  17.568 -1.0156  0.9058 -0.7999
 6267SOL     OW30259   1.653   4.107   7.049  0.3830  0.1140 -0.5037
 6267SOL    HW130260   1.679   4.023   7.013 -0.6411 -0.7345  0.7523
 6267SOL    HW230261   1.713   4.116   7.124  2.5991 -0.7668 -2.1795
 6268SOL     OW30262   3.011   0.126   1.597  0.3884  0.1147 -0.4752
 6268SOL    HW130263   3.038   0.075   1.521  2.1649  0.1019  0.1635
 6268SOL    HW230264   3.072   0.200   1.593  0.0769  0.5339  2.4169
 6269SOL     OW30265   1.717   1.692  15.117 -0.1424 -0.0711  0.2078
 6269SOL    HW130266   1.732   1.650  15.202 -0.0507 -0.0538  0.2005
 6269SOL    HW230267   1.663   1.626  15.072  0.2321 -0.8239  0.8544
 6270SOL     OW30268   4.666   2.764   7.676  0.4303  0.3370  0.6938
 6270SOL    HW130269   4.638   2.691   7.730  0.8150 -0.5449 -0.2887
 6270SOL    HW230270   4.590   2.777   7.620  0.1346 -0.8859  0.8288
 6271SOL     OW30271   4.628   2.924   0.240 -0.6365 -0.2261 -0.0756
 6271SOL    HW130272   4.549   2.887   0.280 -0.5465 -1.9786 -1.5083
 6271SOL    HW230273   4.604   2.934   0.148  2.3336 -0.1279 -0.8300
 6272SOL     OW30274   0.991   2.398   1.133 -0.0583  0.1555 -0.6151
 6272SOL    HW130275   0.925   2.430   1.071  0.3853  1.0046 -0.6448
 6272SOL    HW230276   1.007   2.309   1.103 -3.3401 -0.9205  0.7986
 6273SOL     OW30277   3.137   0.760   7.838 -0.2492 -0.6347  0.0948
 6273SOL    HW130278   3.092   0.676   7.825 -1.7940  0.0692  0.8391
 6273SOL    HW230279   3.110   0.784   7.927  0.6238  0.6902 -0.0078
 6274SOL     OW30280   4.159   0.618   9.017 -0.1544  0.2218 -0.0162
 6274SOL    HW130281   4.223   0.579   9.076 -0.5849  0.5813  0.6870
 6274SOL    HW230282   4.125   0.539   8.975  1.6889 -0.7065  0.2711
 6275SOL     OW30283   1.247   1.553  16.702  0.0454  0.5651 -0.0280
 6275SOL    HW130284   1.242   1.485  16.634  2.2347 -1.4960  1.8736
 6275SOL    HW230285   1.163   1.598  16.688 -0.1130  0.0795 -0.6664
 6276SOL     OW30286   4.312   3.505   9.086 -0.5843 -0.1322 -0.1681
 6276SOL    HW130287   4.378   3.539   9.146 -0.8550  1.1276 -0.5883
 6276SOL    HW230288   4.336   3.557   9.010  0.7726 -1.9815 -1.0038
 6277SOL     OW30289   3.760   4.304   6.374  0.2338  0.5443  0.0841
 6277SOL    HW130290   3.731   4.248   6.301  2.2325  1.0226 -1.0978
 6277SOL    HW230291   3.690   4.368   6.382 -1.4739 -1.3648  0.3520
 6278SOL     OW30292   4.491   3.149   2.698  0.6121  0.0233  0.2553
 6278SOL    HW130293   4.460   3.071   2.744 -2.2716  1.2140  0.3523
 6278SOL    HW230294   4.449   3.226   2.737  0.4331 -0.4555  1.0104
 6279SOL     OW30295   4.428   1.269   5.294  0.0069  0.0607  0.2842
 6279SOL    HW130296   4.481   1.220   5.230  0.7630  0.1698  0.8274
 6279SOL    HW230297   4.435   1.202   5.362  2.5298 -0.6581 -0.6563
 6280SOL     OW30298   4.360   2.690   0.219  0.0275  0.4035  0.3133
 6280SOL    HW130299   4.400   2.606   0.195  1.1177  1.4456 -1.5351
 6280SOL    HW230300   4.371   2.701   0.313  1.8157  1.0072  0.0314
 6281SOL     OW30301   3.932   1.476   9.035  0.9464  0.4449 -0.1719
 6281SOL    HW130302   3.848   1.491   9.078  0.8419 -0.9016  0.0836
 6281SOL    HW230303   3.988   1.440   9.103 -1.5723  1.4440  2.4241
 6282SOL     OW30304   2.112   3.630   6.519 -0.0368 -0.5270  0.4674
 6282SOL    HW130305   2.051   3.689   6.475  0.8900 -1.0428 -1.5054
 6282SOL    HW230306   2.146   3.697   6.578  1.4280 -1.8209  1.1234
 6283SOL     OW30307   1.274   1.917  16.965 -0.5662 -0.2506  0.1579
 6283SOL    HW130308   1.356   1.952  17.001 -0.0720  1.2607 -2.4595
 6283SOL    HW230309   1.252   1.992  16.911 -0.3010 -1.6263 -1.8544
 6284SOL     OW30310   3.613   2.180   8.385 -0.1094 -0.1362 -0.1817
 6284SOL    HW130311   3.561   2.101   8.400  0.3949 -0.4881 -0.2850
 6284SOL    HW230312   3.553   2.242   8.428 -1.2388  0.1731 -2.2044
 6285SOL     OW30313   3.015   2.570   7.006  0.1227 -0.0747  0.3387
 6285SOL    HW130314   3.018   2.483   6.966  1.1981  0.9442 -1.7696
 6285SOL    HW230315   3.101   2.613   7.002  0.3044 -0.4319  0.4066
 6286SOL     OW30316   3.495   0.798   8.167  0.3720 -0.2819  0.3919
 6286SOL    HW130317   3.451   0.787   8.082  2.5179 -2.0245 -0.5090
 6286SOL    HW230318   3.513   0.705   8.185  1.3362 -0.1886 -0.0917
 6287SOL     OW30319   0.844   2.687   4.311  0.2640 -0.0254 -0.2333
 6287SOL    HW130320   0.765   2.682   4.365  1.5008  0.7881  1.6319
 6287SOL    HW230321   0.917   2.688   4.373  1.1089 -1.1811 -1.1793
 6288SOL     OW30322   3.647   1.206   8.242  0.1971  0.1039  0.3634
 6288SOL    HW130323   3.552   1.188   8.241  0.0028  1.0220  2.7413
 6288SOL    HW230324   3.667   1.176   8.330  0.8711 -0.5229 -0.0046
 6289SOL     OW30325   2.216   0.947  12.806 -0.1630 -0.3933  0.0389
 6289SOL    HW130326   2.276   0.925  12.734 -0.2678  1.3226 -0.5716
 6289SOL    HW230327   2.165   1.020  12.771 -0.0818 -1.3218 -2.0191
 6290SOL     OW30328   0.380   0.549  14.207 -0.3258 -0.0759  0.3544
 6290SOL    HW130329   0.370   0.539  14.113 -1.3727  0.1260  0.4453
 6290SOL    HW230330   0.474   0.557  14.223 -0.0582  0.1339 -1.3176
 6291SOL     OW30331   2.842   1.389   3.740  0.2111  0.6894 -0.5195
 6291SOL    HW130332   2.920   1.337   3.722 -0.7871 -0.8330 -0.5200
 6291SOL    HW230333   2.864   1.414   3.830 -2.6302 -0.5523  0.5483
 6292SOL     OW30334   1.347   3.553   6.859 -0.0698 -0.2005  0.1550
 6292SOL    HW130335   1.349   3.553   6.763  3.1516  1.3997  0.2164
 6292SOL    HW230336   1.284   3.484   6.879  2.3787 -2.9051 -1.3363
 6293SOL     OW30337   1.270   1.947   0.696  0.5226 -0.0313 -0.3251
 6293SOL    HW130338   1.239   2.032   0.664 -0.0462 -0.6325 -1.3805
 6293SOL    HW230339   1.187   1.910   0.729  1.2343 -0.8293  0.5675
 6294SOL     OW30340   2.298   0.807   7.540 -0.3123 -0.1491  0.4232
 6294SOL    HW130341   2.364   0.876   7.527 -0.3352 -0.0190  0.9944
 6294SOL    HW230342   2.333   0.753   7.611  4.3055  0.7922 -1.1163
 6295SOL     OW30343   0.291   0.666   9.574 -0.4450  0.0334 -0.9700
 6295SOL    HW130344   0.296   0.629   9.663 -1.9083 -0.7443 -1.2049
 6295SOL    HW230345   0.308   0.589   9.520  0.1677  1.3021 -2.5763
 6296SOL     OW30346   2.206   4.107   8.386 -0.0297 -0.1701  0.2124
 6296SOL    HW130347   2.135   4.172   8.385 -0.3590 -0.4955  1.9783
 6296SOL    HW230348   2.225   4.117   8.479  1.0201 -2.2849  0.2273
 6297SOL     OW30349   1.579   3.951   2.403  0.5971  0.1886  0.4359
 6297SOL    HW130350   1.635   3.905   2.466 -1.1041 -0.0835  1.7538
 6297SOL    HW230351   1.587   4.045   2.422 -1.1994  0.6981 -1.3249
 6298SOL     OW30352   3.152   2.143  13.306 -0.3203  0.1852 -0.3718
 6298SOL    HW130353   3.122   2.060  13.342 -0.4935 -0.4239 -1.9196
 6298SOL    HW230354   3.211   2.103  13.242 -0.2617 -1.6889  0.8764
 6299SOL     OW30355   3.511   0.323  12.389  0.1112 -0.1686 -0.2499
 6299SOL    HW130356   3.416   0.319  12.375  0.2396  1.2899 -1.4864
 6299SOL    HW230357   3.533   0.392  12.327  1.0814 -0.2135  0.0519
 6300SOL     OW30358   0.367   0.122   8.389 -0.4765 -0.1949 -0.0339
 6300SOL    HW130359   0.369   0.111   8.484 -0.2117  2.6186  0.2810
 6300SOL    HW230360   0.459   0.146   8.377 -1.0811  1.0686 -1.9933
 6301SOL     OW30361   3.265   4.459   7.940 -0.0261  0.0369 -0.5418
 6301SOL    HW130362   3.195   4.508   7.983 -0.3874 -0.4192 -0.6067
 6301SOL    HW230363   3.254   4.494   7.851 -0.7039  0.7643 -0.1794
 6302SOL     OW30364   1.016   1.838   5.229  0.1811 -0.4342  0.7320
 6302SOL    HW130365   0.984   1.890   5.302 -2.0729 -1.5783  0.5517
 6302SOL    HW230366   1.082   1.786   5.276  1.8058  1.0282  0.0760
 6303SOL     OW30367   0.020   4.474  12.092 -0.1990 -0.5131 -0.5958
 6303SOL    HW130368   4.696   4.493  12.171  0.8091  0.9979 -0.3173
 6303SOL    HW230369   0.102   4.438  12.125 -0.3423 -0.3280 -0.0447
 6304SOL     OW30370   0.244   2.987   0.614 -0.1678 -0.4719  0.2823
 6304SOL    HW130371   0.282   3.010   0.699 -2.5540 -0.4220  1.3199
 6304SOL    HW230372   0.318   3.005   0.556 -0.4126 -0.3866 -0.0021
 6305SOL     OW30373   1.054   4.254  10.525  0.1267 -0.3366  0.1464
 6305SOL    HW130374   0.995   4.289  10.459  0.7480 -0.1623 -0.3170
 6305SOL    HW230375   1.075   4.337  10.568 -2.8328 -0.9262  2.7629
 6306SOL     OW30376   4.400   3.294   0.221 -0.3018 -0.0267 -0.0710
 6306SOL    HW130377   4.414   3.226   0.155 -1.3775 -1.8681  1.5852
 6306SOL    HW230378   4.412   3.245   0.302  0.3597 -1.2313 -0.9007
 6307SOL     OW30379   0.350   0.862   2.049  0.0604  0.8284 -0.2845
 6307SOL    HW130380   0.315   0.921   2.116 -1.7629 -2.3501  1.5801
 6307SOL    HW230381   0.368   0.786   2.104  2.6179  0.5616 -1.5141
 6308SOL     OW30382   2.532   3.747   2.573 -0.0967  0.3623 -0.2299
 6308SOL    HW130383   2.556   3.659   2.600  0.7896  0.3413 -1.0842
 6308SOL    HW230384   2.605   3.800   2.603 -1.2621  0.9626  1.5243
 6309SOL     OW30385   3.939   4.185   7.655  0.2222 -0.5197 -0.2408
 6309SOL    HW130386   3.980   4.271   7.654  0.5462 -0.6742 -0.3933
 6309SOL    HW230387   3.847   4.205   7.638  0.2394  0.3030  0.6132
 6310SOL     OW30388   2.145   3.097  14.257  0.1034  0.1979 -0.4102
 6310SOL    HW130389   2.193   3.021  14.223  0.5865 -0.9446  2.8320
 6310SOL    HW230390   2.075   3.107  14.192 -0.4931 -0.3533  0.1449
 6311SOL     OW30391   1.739   2.969   1.743 -0.6859 -0.7114  0.2934
 6311SOL    HW130392   1.732   3.025   1.820  1.8977  0.1883 -0.1120
 6311SOL    HW230393   1.831   2.970   1.716 -0.6965 -0.6529  0.2607
 6312SOL     OW30394   3.685   3.579   1.147 -0.3897 -0.3030  0.1611
 6312SOL    HW130395   3.601   3.570   1.191 -0.8537  0.3689 -0.5744
 6312SOL    HW230396   3.684   3.500   1.093 -0.4599 -0.0696 -0.1768
 6313SOL     OW30397   0.241   2.918   8.772 -0.5215  0.1612  0.2579
 6313SOL    HW130398   0.219   3.005   8.806 -1.4162 -0.6267  1.7297
 6313SOL    HW230399   0.156   2.875   8.759 -0.4842 -0.3260  1.6058
 6314SOL     OW30400   3.005   0.853   0.851 -1.1672  0.1270 -0.0764
 6314SOL    HW130401   3.078   0.867   0.911 -0.3768 -0.3221 -0.9312
 6314SOL    HW230402   2.979   0.943   0.832  1.2491  1.0985  1.2934
 6315SOL     OW30403   1.292   0.737  14.491 -0.0103  0.1905 -0.0868
 6315SOL    HW130404   1.340   0.783  14.422  1.1563 -0.6086  0.1956
 6315SOL    HW230405   1.346   0.755  14.567  0.2100  0.3261 -0.2772
 6316SOL     OW30406   4.087   0.445   4.878 -0.3663 -0.2735  0.3864
 6316SOL    HW130407   4.127   0.385   4.941 -1.6576 -1.6718 -0.0985
 6316SOL    HW230408   4.162   0.464   4.823 -1.3361 -2.5904 -1.7371
 6317SOL     OW30409   4.146   0.164   9.284 -0.1094  0.2503 -0.2502
 6317SOL    HW130410   4.123   0.125   9.199 -1.6911  0.5251  0.0553
 6317SOL    HW230411   4.214   0.099   9.301  0.5428  0.1625 -3.0739
 6318SOL     OW30412   1.333   4.698  15.044  0.0006 -0.0035 -0.7589
 6318SOL    HW130413   1.317   0.052  15.093 -1.5320 -2.6597  3.1236
 6318SOL    HW230414   1.425   4.709  15.023  0.1971 -1.4472 -0.6175
 6319SOL     OW30415   1.764   0.136   6.324 -0.0455  0.1776  0.2880
 6319SOL    HW130416   1.691   0.192   6.352  0.0265  0.2080  0.4146
 6319SOL    HW230417   1.786   0.179   6.242 -0.8432  0.6710  0.3297
 6320SOL     OW30418   0.840   0.241  17.237 -0.3526 -0.3005 -0.2304
 6320SOL    HW130419   0.781   0.171  17.268  0.2827  0.2036  2.1269
 6320SOL    HW230420   0.805   0.313  17.290  0.2838 -2.1723  2.7031
 6321SOL     OW30421   1.920   3.513   6.699  0.4422  0.3528 -0.4579
 6321SOL    HW130422   1.932   3.437   6.641  0.3951 -0.7295  0.9551
 6321SOL    HW230423   1.926   3.583   6.634 -1.0087  0.5489 -0.3803
 6322SOL     OW30424   0.930   3.323  17.433  0.6929  0.1659  0.1793
 6322SOL    HW130425   0.839   3.295  17.435  0.0545  2.0292 -2.3740
 6322SOL    HW230426   0.981   3.251  17.470 -0.5839 -0.1978  1.2060
 6323SOL     OW30427   3.686   1.428   3.133 -0.2237 -0.3723  0.2445
 6323SOL    HW130428   3.773   1.465   3.148 -0.9772  1.6857 -0.5198
 6323SOL    HW230429   3.710   1.344   3.094  0.4973 -1.6081  3.3355
 6324SOL     OW30430   1.681   1.310   5.959 -0.3245  0.2297  0.3738
 6324SOL    HW130431   1.692   1.308   5.863 -0.1490 -2.9709  0.4812
 6324SOL    HW230432   1.760   1.261   5.983 -1.2456 -0.3016  2.2977
 6325SOL     OW30433   0.845   1.217   6.832  0.2814  0.1122  0.0635
 6325SOL    HW130434   0.777   1.152   6.848  1.8676 -1.7299 -0.7009
 6325SOL    HW230435   0.818   1.270   6.757  0.1082 -0.5343 -0.3252
 6326SOL     OW30436   1.247   1.946   6.147 -0.5297  0.1347  0.4168
 6326SOL    HW130437   1.183   1.901   6.202  0.0630 -0.8286  0.3255
 6326SOL    HW230438   1.286   1.866   6.111  0.6388  0.0294  1.8852
 6327SOL     OW30439   0.862   3.027   6.112 -0.1187  0.1292  0.4696
 6327SOL    HW130440   0.937   3.082   6.091  1.4199 -1.3688  1.9635
 6327SOL    HW230441   0.891   2.958   6.172 -1.4807  0.7814  1.8891
 6328SOL     OW30442   3.723   1.491   8.164  0.4351 -0.0781 -0.1684
 6328SOL    HW130443   3.803   1.476   8.215  0.5106 -2.8682 -1.1078
 6328SOL    HW230444   3.670   1.413   8.178  0.2837  0.4021  1.8562
 6329SOL     OW30445   4.447   4.087  12.082 -0.4615 -1.0735  0.0766
 6329SOL    HW130446   4.540   4.108  12.086 -0.7674  0.2413  0.5852
 6329SOL    HW230447   4.420   4.108  12.171 -1.7855 -0.8746 -0.3699
 6330SOL     OW30448   2.755   1.040   8.439  0.3762  0.0462  0.2748
 6330SOL    HW130449   2.780   0.948   8.444 -1.6562 -0.5740 -1.0402
 6330SOL    HW230450   2.691   1.035   8.368 -1.8713 -0.8916  2.3912
 6331SOL     OW30451   3.004   3.745   1.123  0.4226 -0.1459 -0.2482
 6331SOL    HW130452   2.925   3.697   1.097  0.5270 -0.6340  0.3490
 6331SOL    HW230453   3.072   3.688   1.085  1.7683 -0.5345  2.7068
 6332SOL     OW30454   4.476   0.138   8.133  0.1391 -0.0125  0.5551
 6332SOL    HW130455   4.468   0.095   8.217 -1.3763  2.0601  1.4884
 6332SOL    HW230456   4.411   0.208   8.147  0.1714  0.4043 -1.2894
 6333SOL     OW30457   4.695   1.057  10.524 -0.1959 -0.4077 -0.0300
 6333SOL    HW130458   4.618   1.026  10.477 -2.5108  1.1491  2.7751
 6333SOL    HW230459   4.694   0.995  10.597  0.0494  0.2871  0.5645
 6334SOL     OW30460   1.579   1.471   0.115 -0.1841 -0.1381 -0.5258
 6334SOL    HW130461   1.522   1.476   0.038  0.9731 -0.9239 -1.4350
 6334SOL    HW230462   1.513   1.460   0.183 -0.8327 -1.4730 -1.3559
 6335SOL     OW30463   3.537   3.055   6.730 -0.1047 -0.1757 -0.1946
 6335SOL    HW130464   3.518   3.079   6.640  0.6684 -0.4418 -0.4286
 6335SOL    HW230465   3.457   3.072   6.780 -0.0767  0.7168 -0.4557
 6336SOL     OW30466   4.074   0.072   0.792  0.1262 -0.1534  0.2930
 6336SOL    HW130467   4.052   0.165   0.791 -0.0849 -0.1849  1.4481
 6336SOL    HW230468   4.169   0.061   0.793  0.3713  1.8487 -1.0422
 6337SOL     OW30469   3.686   1.536   2.708 -0.2353 -0.1318  0.7368
 6337SOL    HW130470   3.601   1.500   2.734 -0.3137 -0.5540 -0.0798
 6337SOL    HW230471   3.671   1.531   2.613  2.3401 -0.4440  0.3522
 6338SOL     OW30472   2.807   3.951  11.202  0.1737  0.4700  0.2648
 6338SOL    HW130473   2.747   4.025  11.204  1.9543  1.9055 -0.3426
 6338SOL    HW230474   2.807   3.925  11.294  1.7133 -1.5910 -0.3293
 6339SOL     OW30475   1.127   0.299   9.324 -0.0934 -0.1051 -0.2794
 6339SOL    HW130476   1.037   0.327   9.344  0.1392  0.1175  0.4567
 6339SOL    HW230477   1.119   0.264   9.235  1.2319  1.0965 -0.8868
 6340SOL     OW30478   0.132   3.908   3.170  0.3851 -0.0215 -0.0546
 6340SOL    HW130479   0.123   3.984   3.227 -0.9296 -0.2350  0.0117
 6340SOL    HW230480   0.164   3.936   3.084  0.2904 -3.4382 -1.2213
 6341SOL     OW30481   2.164   3.832  10.469  0.3410 -0.1950 -0.6383
 6341SOL    HW130482   2.096   3.899  10.467 -0.5380 -1.1813 -3.7251
 6341SOL    HW230483   2.123   3.756  10.428  1.2802 -1.9739  1.6805
 6342SOL     OW30484   2.270   1.692  13.428  1.0456  0.4594 -0.2515
 6342SOL    HW130485   2.243   1.778  13.460  1.0304  0.7964 -1.1763
 6342SOL    HW230486   2.326   1.718  13.356 -0.9569 -1.0586 -2.3542
 6343SOL     OW30487   1.604   3.775   2.190 -0.0516 -0.4554  0.4474
 6343SOL    HW130488   1.677   3.826   2.155 -1.9604  0.9908 -1.4284
 6343SOL    HW230489   1.598   3.828   2.269  0.0238 -0.4538  0.4521
 6344SOL     OW30490   4.325   1.775   7.074 -0.1815  0.4991 -0.6853
 6344SOL    HW130491   4.311   1.867   7.097  0.2721 -0.3684  2.9243
 6344SOL    HW230492   4.420   1.776   7.060 -0.0183  0.2045  0.4075
 6345SOL     OW30493   2.420   0.637   4.021  0.3033  0.3883 -0.0279
 6345SOL    HW130494   2.463   0.659   4.103 -0.4965  0.7369  0.3027
 6345SOL    HW230495   2.388   0.551   4.048  0.7698 -0.2209 -1.3873
 6346SOL     OW30496   2.755   2.673   8.313  0.2500  0.4233 -0.1108
 6346SOL    HW130497   2.774   2.603   8.251 -0.5679 -1.2853  1.5914
 6346SOL    HW230498   2.762   2.624   8.395  0.4781 -0.6819 -0.7875
 6347SOL     OW30499   3.378   2.281   3.349  0.1464 -0.3802  0.5534
 6347SOL    HW130500   3.411   2.244   3.267  1.0974  1.3957  0.1268
 6347SOL    HW230501   3.311   2.341   3.316  0.8082  0.4275  0.6884
 6348SOL     OW30502   0.667   4.374   4.169 -0.0511  0.2002 -0.2609
 6348SOL    HW130503   0.701   4.288   4.140 -0.0816 -0.5027  1.7815
 6348SOL    HW230504   0.677   4.366   4.264  0.2470  0.9338 -0.2324
 6349SOL     OW30505   0.043   1.239  10.870  0.5358 -0.1165 -0.3897
 6349SOL    HW130506   0.135   1.242  10.896  0.3625  0.4989  0.1622
 6349SOL    HW230507   0.051   1.245  10.775  0.4552  2.1465 -0.2735
 6350SOL     OW30508   3.313   2.057  16.889  0.3142 -0.5759  0.2167
 6350SOL    HW130509   3.251   1.986  16.878 -0.5985  0.4481 -1.2013
 6350SOL    HW230510   3.325   2.059  16.984  1.1920 -3.0417  0.1552
 6351SOL     OW30511   2.628   0.045   4.424  0.1773  0.2458 -0.3152
 6351SOL    HW130512   2.572   0.052   4.501  0.5749  0.9465 -0.0923
 6351SOL    HW230513   2.699   0.095   4.464 -0.8624  2.2852 -1.0261
 6352SOL     OW30514   1.536   0.115   3.329  0.3735  0.8824 -0.2983
 6352SOL    HW130515   1.605   0.050   3.342  0.0876  0.3360 -1.5139
 6352SOL    HW230516   1.588   0.195   3.333  0.9625  0.4402  1.0135
 6353SOL     OW30517   0.544   2.128   8.279 -0.1184 -0.2971 -0.1620
 6353SOL    HW130518   0.629   2.099   8.314 -0.1482  0.2820  0.4031
 6353SOL    HW230519   0.551   2.222   8.299  0.5411 -0.0700 -1.4415
 6354SOL     OW30520   4.103   0.053   9.039  0.6573  0.0721  0.6391
 6354SOL    HW130521   4.153   4.717   8.988 -0.3101  1.8361 -2.4555
 6354SOL    HW230522   4.025   0.000   9.056  0.6160  0.1189  0.5946
 6355SOL     OW30523   0.251   4.660   6.548 -0.2390 -0.2985  0.1464
 6355SOL    HW130524   0.312   0.003   6.571  0.8266 -1.0376 -0.4708
 6355SOL    HW230525   0.241   4.610   6.629 -0.7643 -0.2688  0.1044
 6356SOL     OW30526   1.021   1.875  16.559  0.4995 -0.3049  0.4272
 6356SOL    HW130527   1.025   1.819  16.637 -0.4682 -0.5951  0.2631
 6356SOL    HW230528   1.115   1.893  16.552  0.5035 -0.7064 -0.4617
 6357SOL     OW30529   4.541   0.331  16.474 -0.3927  0.1665  0.0764
 6357SOL    HW130530   4.536   0.237  16.459  0.2250 -0.0590  1.2643
 6357SOL    HW230531   4.510   0.371  16.393  0.2064  2.6324  1.0346
 6358SOL     OW30532   1.762   2.600   4.306 -0.4148  0.0332  0.3251
 6358SOL    HW130533   1.761   2.515   4.348  0.3639 -1.7183 -3.2151
 6358SOL    HW230534   1.687   2.642   4.348 -0.8067  2.6987 -2.9810
 6359SOL     OW30535   0.024   2.255   3.008  0.4138 -0.3709  0.0328
 6359SOL    HW130536   4.724   2.170   3.043 -2.1883  0.9842  1.2915
 6359SOL    HW230537   4.681   2.270   2.944 -1.6735 -2.8188  1.7237
 6360SOL     OW30538   0.383   1.273  13.769  0.1107 -0.4957 -0.3084
 6360SOL    HW130539   0.308   1.224  13.803 -0.0209 -0.5903 -0.7443
 6360SOL    HW230540   0.373   1.349  13.828 -0.4265 -0.0163 -1.0215
 6361SOL     OW30541   1.225   0.642   5.177 -0.6233 -0.1330 -0.0682
 6361SOL    HW130542   1.298   0.670   5.232 -0.1118 -1.5604 -0.0370
 6361SOL    HW230543   1.197   0.733   5.165 -1.3229 -0.2378  0.8192
 6362SOL     OW30544   0.301   4.240   9.164 -0.9002  0.1346 -0.1897
 6362SOL    HW130545   0.370   4.240   9.230 -0.4791  2.0626 -0.6313
 6362SOL    HW230546   0.223   4.270   9.211 -0.4682  1.5670 -0.3891
 6363SOL     OW30547   4.451   3.410  14.159  0.0391 -0.0512  0.3894
 6363SOL    HW130548   4.500   3.445  14.233  0.8656 -0.9833  0.2797
 6363SOL    HW230549   4.461   3.315  14.169 -3.8422 -0.4280  0.5899
 6364SOL     OW30550   3.109   1.425   4.318  0.4424  0.0140  0.1767
 6364SOL    HW130551   3.016   1.436   4.298  0.0640 -1.0102  1.3860
 6364SOL    HW230552   3.108   1.359   4.388 -0.2752 -0.7061 -0.5074
 6365SOL     OW30553   1.681   4.670   8.893 -0.5279  0.5426  0.1581
 6365SOL    HW130554   1.637   4.614   8.829 -1.3465  0.0684  1.1444
 6365SOL    HW230555   1.774   4.674   8.872 -0.8184 -0.1324 -1.2382
 6366SOL     OW30556   4.613   3.815   9.271 -0.0886 -0.1746  0.2135
 6366SOL    HW130557   4.581   3.863   9.194 -0.6261 -0.3971  0.2995
 6366SOL    HW230558   4.630   3.732   9.226  1.2342  0.1144  0.1868
 6367SOL     OW30559   0.015   3.827  11.917 -0.1004 -0.0654 -0.5793
 6367SOL    HW130560   4.677   3.819  11.987  1.9879 -1.2054  1.2249
 6367SOL    HW230561   0.041   3.738  11.893 -1.2562 -1.0125  1.6966
 6368SOL     OW30562   1.222   0.080  11.804 -0.2638  0.2184  0.5954
 6368SOL    HW130563   1.197   0.170  11.825 -3.3404 -0.5971  0.3607
 6368SOL    HW230564   1.308   0.066  11.844  0.6602  0.5733 -1.2354
 6369SOL     OW30565   1.941   1.017  14.850  0.9364  0.1117  0.3715
 6369SOL    HW130566   1.889   1.022  14.930 -0.4710  2.0963 -0.6766
 6369SOL    HW230567   1.871   0.978  14.798  0.5456 -0.5330  1.3801
 6370SOL     OW30568   2.433   1.274   2.284  0.5475 -0.0403 -0.4829
 6370SOL    HW130569   2.342   1.297   2.305  0.4538 -0.5125 -0.3729
 6370SOL    HW230570   2.467   1.342   2.225 -2.7816  2.3970  0.3831
 6371SOL     OW30571   2.950   2.851   3.932  0.2191  0.0481  0.2338
 6371SOL    HW130572   2.988   2.873   4.017  0.9596 -0.2571 -0.0221
 6371SOL    HW230573   2.930   2.940   3.903  2.6311  0.8126  0.9635
 6372SOL     OW30574   2.596   3.513   2.692  0.4172  0.3507 -0.0658
 6372SOL    HW130575   2.591   3.452   2.618  0.9307  0.4297 -0.1697
 6372SOL    HW230576   2.560   3.460   2.763 -1.3477 -0.1424 -1.3112
 6373SOL     OW30577   1.453   2.251   7.819 -0.1504  0.0403  0.5338
 6373SOL    HW130578   1.372   2.223   7.862  0.3906 -1.1647  0.7657
 6373SOL    HW230579   1.455   2.189   7.746 -0.5182 -2.5041  2.6994
 6374SOL     OW30580   0.099   3.274  17.213  0.0780 -0.5004  0.0369
 6374SOL    HW130581   0.030   3.314  17.160 -0.8741 -1.8604  0.2645
 6374SOL    HW230582   0.166   3.271  17.144 -0.4173  0.9246 -0.5141
 6375SOL     OW30583   2.156   2.666   2.395  0.2957 -0.3934  0.2590
 6375SOL    HW130584   2.177   2.757   2.415  1.9953 -0.6142 -0.5324
 6375SOL    HW230585   2.220   2.635   2.331  0.3398  1.5004 -0.6250
 6376SOL     OW30586   2.991   4.545  11.568  0.1662 -0.5814 -0.2248
 6376SOL    HW130587   2.924   4.593  11.519 -0.7595 -0.1642  1.4625
 6376SOL    HW230588   3.029   4.608  11.628 -0.6559  0.6020 -0.9368
 6377SOL     OW30589   4.028   1.170   3.484  0.3179 -0.1760 -0.6101
 6377SOL    HW130590   3.954   1.126   3.525 -0.0636  1.8767  0.8699
 6377SOL    HW230591   4.053   1.115   3.409  0.8593  0.7865 -1.1358
 6378SOL     OW30592   3.356   2.547   8.115  0.3578 -0.7915 -0.5012
 6378SOL    HW130593   3.372   2.639   8.096  0.4359 -0.5406  0.7616
 6378SOL    HW230594   3.336   2.515   8.027 -2.7289  0.0678 -0.1225
 6379SOL     OW30595   0.963   1.007   7.321  0.3710  0.2602 -0.5165
 6379SOL    HW130596   0.877   1.050   7.325 -0.2062 -1.0318  1.0733
 6379SOL    HW230597   1.022   1.073   7.355 -1.2295  0.8361  1.1540
 6380SOL     OW30598   0.212   4.148  13.365  0.3357  0.0983  0.1142
 6380SOL    HW130599   0.140   4.209  13.382  1.2036  1.0709  0.2818
 6380SOL    HW230600   0.228   4.113  13.453  1.2081 -0.5811 -0.3199
 6381SOL     OW30601   1.354   4.280   6.636  0.5095  0.2875 -0.7322
 6381SOL    HW130602   1.360   4.334   6.715  0.1337  0.6316 -0.9384
 6381SOL    HW230603   1.397   4.332   6.569 -0.6879 -0.8832 -2.3916
 6382SOL     OW30604   1.298   2.446   7.440  0.1754  0.5653  0.2706
 6382SOL    HW130605   1.309   2.470   7.532  1.5767  1.1096 -0.0419
 6382SOL    HW230606   1.369   2.385   7.418  0.2130  0.5175  0.5233
 6383SOL     OW30607   3.618   0.970   3.842  0.0361 -0.1527  0.1378
 6383SOL    HW130608   3.648   0.918   3.917  0.3195  0.5782  0.5428
 6383SOL    HW230609   3.598   1.051   3.890 -0.6579  0.0110 -0.4389
 6384SOL     OW30610   1.673   1.758  17.133 -0.0717 -0.3404  0.6764
 6384SOL    HW130611   1.687   1.669  17.101 -0.6043 -0.0668 -0.3058
 6384SOL    HW230612   1.722   1.752  17.215  1.2595 -0.4125 -0.1255
 6385SOL     OW30613   3.103   1.720   9.996  0.1455 -0.0286  0.1324
 6385SOL    HW130614   3.132   1.811   9.983 -0.2410  0.5601  3.5889
 6385SOL    HW230615   3.180   1.675   9.961 -0.1267 -0.2391 -0.1999
 6386SOL     OW30616   2.806   2.254   9.542  0.3041  0.1551  0.4568
 6386SOL    HW130617   2.716   2.261   9.511  0.6757  0.3043 -0.5898
 6386SOL    HW230618   2.812   2.161   9.563 -0.9500  0.0431  0.3328
 6387SOL     OW30619   2.706   3.164   0.996 -0.1920  0.5504  0.0489
 6387SOL    HW130620   2.680   3.246   1.039  1.0913  1.1543 -0.3162
 6387SOL    HW230621   2.718   3.112   1.075  1.5720  0.2537 -0.4040
 6388SOL     OW30622   4.373   3.246  15.244 -0.0158  0.4210 -0.0865
 6388SOL    HW130623   4.467   3.229  15.236  0.0381  1.4474 -1.8068
 6388SOL    HW230624   4.364   3.321  15.303 -0.2917  1.2647 -1.1923
 6389SOL     OW30625   1.699   4.140   5.755  0.4098  0.0864 -0.2173
 6389SOL    HW130626   1.720   4.061   5.704  0.9533  1.6432 -2.4012
 6389SOL    HW230627   1.658   4.192   5.686 -1.5669 -2.1980 -0.7697
 6390SOL     OW30628   4.721   1.554   1.734 -0.3480  0.3619  0.0260
 6390SOL    HW130629   0.057   1.622   1.707 -1.0757  0.1116 -2.3444
 6390SOL    HW230630   0.003   1.553   1.829 -2.3078 -0.6865  0.1923
 6391SOL     OW30631   1.675   3.849   6.915 -0.1344 -0.3428 -0.5458
 6391SOL    HW130632   1.750   3.791   6.901 -0.2162 -0.5885  0.0201
 6391SOL    HW230633   1.648   3.883   6.830  2.2834  0.1541 -1.1155
 6392SOL     OW30634   0.213   0.051   4.332  0.2856  0.1402 -0.0261
 6392SOL    HW130635   0.303   0.085   4.333  0.1298  0.5458  0.1741
 6392SOL    HW230636   0.176   0.092   4.254  0.4204  0.3401  0.0142
 6393SOL     OW30637   0.805   2.419   0.285 -0.1412  0.6988 -0.1896
 6393SOL    HW130638   0.735   2.359   0.260  0.7744  0.0138 -1.1379
 6393SOL    HW230639   0.804   2.390   0.377 -0.1598 -0.9702 -0.7103
 6394SOL     OW30640   0.374   0.936   6.814  0.3862 -0.2033 -0.1497
 6394SOL    HW130641   0.335   0.891   6.739  1.9179 -1.6572 -0.0541
 6394SOL    HW230642   0.460   0.961   6.779 -0.4301  1.1693 -1.1737
 6395SOL     OW30643   2.261   1.736   7.758  0.5116 -0.2573 -0.0372
 6395SOL    HW130644   2.268   1.677   7.683 -1.9265 -0.8346  0.1951
 6395SOL    HW230645   2.354   1.740   7.782  1.6389  0.0769 -4.4835
 6396SOL     OW30646   3.911   2.539   3.377 -0.1522  0.6799  0.2110
 6396SOL    HW130647   3.970   2.546   3.302 -0.8588  2.4090 -0.1772
 6396SOL    HW230648   3.835   2.497   3.337  0.2866 -0.1664  0.2547
 6397SOL     OW30649   2.114   1.273   7.918  0.2076  0.0451 -0.2396
 6397SOL    HW130650   2.089   1.188   7.954  0.9613  0.1743  0.5876
 6397SOL    HW230651   2.096   1.328   7.995  0.9575  1.8993 -1.3786
 6398SOL     OW30652   0.961   4.208  15.835 -0.1915  0.1752  0.3112
 6398SOL    HW130653   0.944   4.293  15.796  0.7498  0.2028 -0.0374
 6398SOL    HW230654   0.878   4.193  15.880 -1.2534  1.6431 -1.1470
 6399SOL     OW30655   0.406   2.672   5.807  0.5541  0.1593  0.2659
 6399SOL    HW130656   0.358   2.638   5.732 -1.2565 -0.4210  1.6844
 6399SOL    HW230657   0.466   2.598   5.812  1.2534  0.5344 -2.8309
 6400SOL     OW30658   2.149   3.908   7.224 -0.0379 -0.5355  0.2455
 6400SOL    HW130659   2.218   3.931   7.161 -0.9624 -0.1121 -0.6156
 6400SOL    HW230660   2.184   3.824   7.253  1.2813  0.2684  1.0470
 6401SOL     OW30661   0.046   0.081   4.525 -0.0307 -0.0197 -0.0404
 6401SOL    HW130662   0.107   0.071   4.452 -0.3036 -0.7367 -0.1733
 6401SOL    HW230663   0.092   0.118   4.600 -0.5639 -0.1603  0.3560
 6402SOL     OW30664   3.352   0.135  13.400 -0.4589  1.1456  0.3461
 6402SOL    HW130665   3.307   0.106  13.321  0.3406  1.4600 -0.2242
 6402SOL    HW230666   3.358   0.053  13.449 -0.7836  1.1207  0.3431
 6403SOL     OW30667   2.680   2.132  10.830 -0.3472 -0.1135 -0.0576
 6403SOL    HW130668   2.731   2.135  10.911 -1.8767  0.2829  0.8867
 6403SOL    HW230669   2.728   2.069  10.776 -0.5756 -0.3334 -0.0017
 6404SOL     OW30670   0.738   3.211   2.861 -0.0985 -0.4460 -0.2755
 6404SOL    HW130671   0.696   3.249   2.784  0.8887 -0.4952 -0.8307
 6404SOL    HW230672   0.831   3.205   2.839  0.0065  0.5118 -0.0918
 6405SOL     OW30673   4.586   2.034  11.018  0.2720 -0.0044 -0.1929
 6405SOL    HW130674   4.629   1.956  11.053 -1.1794 -1.2524 -1.1859
 6405SOL    HW230675   4.632   2.046  10.934  1.3747 -0.9398  0.2801
 6406SOL     OW30676   0.876   1.154   7.591 -0.6055 -0.3622 -0.2802
 6406SOL    HW130677   0.832   1.227   7.547 -1.3269 -1.2479 -1.0316
 6406SOL    HW230678   0.924   1.193   7.664  1.2595 -0.4780 -1.4553
 6407SOL     OW30679   3.561   1.750  14.084  0.0805  0.0467 -0.0015
 6407SOL    HW130680   3.615   1.741  14.162  0.2844  1.3246  0.0011
 6407SOL    HW230681   3.503   1.818  14.115 -0.1741 -0.4785  0.6745
 6408SOL     OW30682   0.407   4.117  13.672 -0.5970 -0.0919  0.0457
 6408SOL    HW130683   0.402   4.176  13.747  1.2953  1.4704 -1.0416
 6408SOL    HW230684   0.420   4.183  13.604  3.5713 -0.4405  0.4582
 6409SOL     OW30685   2.214   0.736   5.076  0.1207  0.1248 -0.1291
 6409SOL    HW130686   2.197   0.828   5.098  1.0642  0.1689  0.3971
 6409SOL    HW230687   2.266   0.760   4.999  0.0734 -1.6690 -0.7269
 6410SOL     OW30688   1.264   1.461   1.870 -0.5664  0.0223 -0.3570
 6410SOL    HW130689   1.172   1.485   1.858 -0.2649  0.1041 -2.4754
 6410SOL    HW230690   1.275   1.464   1.965  0.2513  0.8185 -0.4800
 6411SOL     OW30691   3.946   4.331  13.053  0.4010  0.2425 -0.1208
 6411SOL    HW130692   3.898   4.323  12.972 -1.9308 -0.2966  1.3198
 6411SOL    HW230693   4.023   4.377  13.020  1.1091 -1.7319 -1.2062
 6412SOL     OW30694   0.845   4.684   8.365 -0.4751 -1.0502  0.4389
 6412SOL    HW130695   0.933   4.664   8.399  0.2425  1.8627  0.2473
 6412SOL    HW230696   0.804   4.598   8.374 -0.7454 -1.1686 -2.0989
 6413SOL     OW30697   4.640   4.459   6.838  0.8578  0.7762  0.3805
 6413SOL    HW130698   4.608   4.544   6.867 -4.2078 -1.0272  0.0059
 6413SOL    HW230699   4.641   4.413   6.922 -0.2889  0.5806  0.2845
 6414SOL     OW30700   3.713   0.971   9.354 -0.3872 -0.1879 -0.3974
 6414SOL    HW130701   3.695   0.885   9.317  0.4715 -1.2006  1.5321
 6414SOL    HW230702   3.668   0.966   9.438  2.0105  0.0166  0.8782
 6415SOL     OW30703   2.917   2.022   5.969 -0.0388 -0.2658  0.6874
 6415SOL    HW130704   2.909   1.938   5.923 -0.8100 -0.5214  1.2745
 6415SOL    HW230705   2.965   2.070   5.901 -0.9156  0.7945  0.8167
 6416SOL     OW30706   1.426   2.491   7.676  0.1233  0.0775  0.2263
 6416SOL    HW130707   1.424   2.407   7.723  2.4313 -0.5763 -0.8865
 6416SOL    HW230708   1.355   2.535   7.724  0.9213  0.0279  1.4524
 6417SOL     OW30709   2.210   2.643   4.661  1.0728 -0.4066  0.4345
 6417SOL    HW130710   2.144   2.701   4.622  0.4460  0.0926  2.2373
 6417SOL    HW230711   2.165   2.589   4.726 -0.5734  0.7941  0.2957
 6418SOL     OW30712   1.489   3.413  10.556 -0.8230 -0.1656  0.3373
 6418SOL    HW130713   1.440   3.422  10.638 -0.1167  0.1168  0.7248
 6418SOL    HW230714   1.561   3.371  10.603  1.6435  3.0862 -0.5838
 6419SOL     OW30715   3.617   2.027   5.878  0.5116 -0.4684  0.1075
 6419SOL    HW130716   3.576   1.940   5.876 -0.9416  0.1588  3.0633
 6419SOL    HW230717   3.539   2.074   5.908 -0.4521 -2.0945  0.1422
 6420SOL     OW30718   0.792   2.326   4.921 -0.3055  0.7181 -0.0347
 6420SOL    HW130719   0.754   2.411   4.944  0.7680  0.8554  1.2177
 6420SOL    HW230720   0.788   2.283   5.006  2.6503  0.0799 -0.2116
 6421SOL     OW30721   1.044   3.693  12.246  0.2935 -0.3742  0.3169
 6421SOL    HW130722   1.085   3.779  12.257 -0.4426  0.0156  0.0137
 6421SOL    HW230723   1.104   3.661  12.178 -0.5944  0.1077 -0.6868
 6422SOL     OW30724   3.450   2.173   5.523 -0.1139  0.0951 -0.3293
 6422SOL    HW130725   3.372   2.130   5.559  0.5949 -0.0382  1.0228
 6422SOL    HW230726   3.509   2.099   5.537  0.0323  0.0103 -1.3545
 6423SOL     OW30727   2.546   1.088   3.213 -0.1209 -0.2337  0.1409
 6423SOL    HW130728   2.483   1.034   3.260  1.5698 -1.2884  1.1537
 6423SOL    HW230729   2.490   1.165   3.202 -0.7056 -0.5435  0.9619
 6424SOL     OW30730   0.797   1.404   3.265  0.3458  0.1866 -0.1078
 6424SOL    HW130731   0.788   1.495   3.291  2.6722  0.1091  0.9489
 6424SOL    HW230732   0.720   1.394   3.208 -0.5205  0.5458  1.0157
 6425SOL     OW30733   4.308   4.309  16.638  0.0948 -0.8177  0.8290
 6425SOL    HW130734   4.286   4.218  16.618 -1.5258 -0.3056  0.2475
 6425SOL    HW230735   4.258   4.357  16.571  0.0186 -0.7962  0.9008
 6426SOL     OW30736   4.718   0.187   8.012 -0.0726 -0.5816 -0.5255
 6426SOL    HW130737   4.688   0.183   7.921  0.6655  0.2082 -0.7985
 6426SOL    HW230738   4.634   0.188   8.058 -0.1772  0.8322 -0.7334
 6427SOL     OW30739   4.107   4.431   4.909  0.1223 -0.2061 -0.5606
 6427SOL    HW130740   4.080   4.480   4.831 -3.8930  1.1193  1.6908
 6427SOL    HW230741   4.190   4.475   4.927 -0.2760  1.1744 -2.0715
 6428SOL     OW30742   3.781   4.017   8.624 -0.1983 -0.2460  0.1137
 6428SOL    HW130743   3.748   4.106   8.609 -1.7396 -0.4311  2.3791
 6428SOL    HW230744   3.854   4.035   8.682  0.6804  0.6950 -1.2791
 6429SOL     OW30745   0.962   4.367  10.258  0.4209  0.1227  0.0726
 6429SOL    HW130746   1.041   4.322  10.228  2.0687  2.5015  0.8852
 6429SOL    HW230747   0.980   4.447  10.209 -2.5992  1.3088  0.9322
 6430SOL     OW30748   0.446   3.812   3.840 -0.4284  0.3197 -0.0305
 6430SOL    HW130749   0.370   3.795   3.785 -0.5498 -1.8099  0.8345
 6430SOL    HW230750   0.407   3.842   3.922 -0.0285  0.9368 -0.0601
 6431SOL     OW30751   3.028   1.888   1.564 -0.3567  0.1778 -0.0468
 6431SOL    HW130752   2.975   1.815   1.594 -0.8412  0.5556  0.0322
 6431SOL    HW230753   3.112   1.850   1.586 -0.3112  0.3359  0.0568
 6432SOL     OW30754   0.729   1.717   6.726  0.2973  0.0332  0.1705
 6432SOL    HW130755   0.735   1.813   6.730  0.1962  0.0161  0.7905
 6432SOL    HW230756   0.673   1.690   6.799  0.6894 -0.1156  0.4168
 6433SOL     OW30757   4.471   2.741   9.924 -0.2899  0.6959  0.2054
 6433SOL    HW130758   4.486   2.786  10.007  0.5847 -0.4112  0.6443
 6433SOL    HW230759   4.545   2.762   9.866 -0.1056  1.4698  0.7225
 6434SOL     OW30760   3.823   3.140   5.509  0.2105 -0.4090 -0.2774
 6434SOL    HW130761   3.770   3.076   5.462  2.2826 -2.2051 -0.1309
 6434SOL    HW230762   3.866   3.192   5.442  0.6337 -0.3961  0.0013
 6435SOL     OW30763   1.368   3.066  17.600  0.5066 -0.0191  0.3020
 6435SOL    HW130764   1.422   3.141  17.624 -1.3608  0.7466  2.0337
 6435SOL    HW230765   1.411   3.030  17.522  0.4189  2.1125 -0.7229
 6436SOL     OW30766   2.432   3.793   1.949 -0.5478  0.6928  0.0707
 6436SOL    HW130767   2.432   3.707   1.906 -0.6714  1.3659 -1.2595
 6436SOL    HW230768   2.523   3.802   1.977 -0.2319  0.6575 -0.9413
 6437SOL     OW30769   3.758   0.975   0.822  0.2678 -0.0980  0.3376
 6437SOL    HW130770   3.819   0.939   0.886 -1.3249 -1.3058  1.1654
 6437SOL    HW230771   3.679   0.945   0.867  1.4517 -1.8918  1.2117
 6438SOL     OW30772   2.656   3.535   7.005  0.2030  0.1448 -0.1324
 6438SOL    HW130773   2.574   3.530   6.956 -0.0108 -1.0282  0.3520
 6438SOL    HW230774   2.634   3.486   7.084  1.6465  0.1644  0.2879
 6439SOL     OW30775   3.169   3.521   2.589 -0.1820 -0.4907  0.1958
 6439SOL    HW130776   3.134   3.605   2.557  0.0159  0.1698  1.7323
 6439SOL    HW230777   3.261   3.533   2.610 -0.1974 -0.7136  0.3869
 6440SOL     OW30778   3.875   0.222  11.092  0.6492 -0.0876  0.2204
 6440SOL    HW130779   3.822   0.238  11.171  0.7011  2.3856 -0.2271
 6440SOL    HW230780   3.834   0.151  11.042  1.8328 -0.8405  0.3268
 6441SOL     OW30781   1.951   0.461   2.485  0.1946 -0.3383  0.0625
 6441SOL    HW130782   2.012   0.482   2.556 -0.2638 -0.1969  0.4115
 6441SOL    HW230783   2.004   0.401   2.432  1.0750  0.0856  0.4539
 6442SOL     OW30784   3.211   0.763   3.025 -0.2687  0.4631  0.6483
 6442SOL    HW130785   3.201   0.685   2.971 -1.0170 -0.3833  2.0325
 6442SOL    HW230786   3.161   0.745   3.104 -1.7215 -1.0309 -0.6160
 6443SOL     OW30787   0.416   0.853   3.898  0.0315  0.0744  0.0960
 6443SOL    HW130788   0.438   0.930   3.845 -1.9366  0.6591  0.1019
 6443SOL    HW230789   0.507   0.838   3.921  0.2961 -1.6816 -2.0304
 6444SOL     OW30790   1.032   1.212   3.107 -0.1326 -0.2238 -0.1698
 6444SOL    HW130791   1.061   1.229   3.196  0.2541  0.7826 -0.4921
 6444SOL    HW230792   1.060   1.120   3.106  1.0972  0.1547 -0.4617
 6445SOL     OW30793   1.802   4.176   9.290 -0.3307 -0.2690 -0.2010
 6445SOL    HW130794   1.804   4.090   9.249  0.6432 -0.1839 -0.3470
 6445SOL    HW230795   1.806   4.239   9.218 -0.1675 -0.5214 -0.4120
 6446SOL     OW30796   2.587   3.451  11.363  0.2496 -0.1962  0.3937
 6446SOL    HW130797   2.501   3.414  11.383 -0.6581  1.7064 -0.0147
 6446SOL    HW230798   2.650   3.407  11.420  1.7542  1.9588  0.4114
 6447SOL     OW30799   3.154   2.416  15.039  0.0930  0.1791  0.4193
 6447SOL    HW130800   3.106   2.450  14.963  1.3069 -1.5954 -1.1184
 6447SOL    HW230801   3.222   2.483  15.047  0.6223 -0.6344  2.7603
 6448SOL     OW30802   2.680   1.000   5.053  0.0073  0.4278 -0.3077
 6448SOL    HW130803   2.713   1.087   5.033  2.0977 -0.6876 -1.7357
 6448SOL    HW230804   2.603   1.029   5.102 -0.3382  0.7495 -1.0526
 6449SOL     OW30805   4.448   3.951   9.000  1.2603 -0.2090 -0.9652
 6449SOL    HW130806   4.504   3.874   8.996 -2.5642 -3.0708  1.0981
 6449SOL    HW230807   4.366   3.906   8.978 -0.2960  2.2126 -0.1200
 6450SOL     OW30808   3.584   3.579   7.020 -0.7285 -0.4790 -0.3295
 6450SOL    HW130809   3.635   3.507   7.056  0.2380 -1.1514 -3.0608
 6450SOL    HW230810   3.496   3.542   7.030 -1.0775  0.4975  0.2867
 6451SOL     OW30811   1.439   4.574   8.087 -0.2074 -0.2139 -0.0359
 6451SOL    HW130812   1.461   4.638   8.019 -0.6210 -0.1519 -0.1118
 6451SOL    HW230813   1.428   4.493   8.038  1.1443  0.1608 -0.9534
 6452SOL     OW30814   0.679   3.642   6.221 -0.3563 -0.1547  0.5037
 6452SOL    HW130815   0.646   3.728   6.246  0.4124  0.9187 -2.1118
 6452SOL    HW230816   0.622   3.595   6.281 -1.1015 -0.3433 -0.3463
 6453SOL     OW30817   0.506   1.660   8.002 -0.0205 -0.3414  0.0149
 6453SOL    HW130818   0.527   1.617   8.084 -0.4467 -0.8233 -0.1309
 6453SOL    HW230819   0.483   1.745   8.039 -0.3005  0.0375 -1.0165
 6454SOL     OW30820   0.112   0.205   4.774  0.0252 -0.6661 -0.2882
 6454SOL    HW130821   0.196   0.240   4.802 -0.1317 -0.7082  0.2355
 6454SOL    HW230822   0.080   0.163   4.855 -0.5798  0.2548 -0.0477
 6455SOL     OW30823   2.651   0.988   6.497  0.0556 -0.4009 -0.5196
 6455SOL    HW130824   2.727   0.951   6.543 -0.6457 -0.7475  0.3512
 6455SOL    HW230825   2.668   1.079   6.522 -2.1889 -0.1015 -0.1211
 6456SOL     OW30826   2.234   4.199   7.051 -0.2689  0.3963  0.4651
 6456SOL    HW130827   2.303   4.134   7.061  0.2846  0.9171 -0.0616
 6456SOL    HW230828   2.224   4.231   7.141 -0.2592 -1.7253  1.2097
 6457SOL     OW30829   2.184   4.379   6.006 -0.7453 -0.1845 -0.3758
 6457SOL    HW130830   2.130   4.458   6.015  1.9563  1.5814  0.4480
 6457SOL    HW230831   2.134   4.343   5.934 -0.9112  1.7022 -1.2093
 6458SOL     OW30832   0.373   1.466   0.571  0.6243  0.1307  0.1964
 6458SOL    HW130833   0.344   1.540   0.517 -1.3913 -0.8751 -0.1135
 6458SOL    HW230834   0.443   1.433   0.516 -0.0100 -1.0134  0.0722
 6459SOL     OW30835   3.571   0.803   6.080  0.1458 -0.5583  0.2316
 6459SOL    HW130836   3.651   0.751   6.088  2.2558  2.7002  0.8056
 6459SOL    HW230837   3.513   0.774   6.150 -1.2251  1.4287 -0.0875
 6460SOL     OW30838   3.608   1.817  12.325 -0.3413  0.4797  0.4946
 6460SOL    HW130839   3.577   1.746  12.269 -0.4457  0.0185  1.1354
 6460SOL    HW230840   3.701   1.797  12.317 -0.3235  0.4914  0.6873
 6461SOL     OW30841   3.297   2.017  14.770 -0.7831  0.2647  0.4024
 6461SOL    HW130842   3.207   2.049  14.765 -0.1201  2.5319  3.3436
 6461SOL    HW230843   3.284   1.970  14.853 -0.8491  0.6191  0.5909
 6462SOL     OW30844   3.810   4.347  10.781 -0.0844 -0.1073 -0.2558
 6462SOL    HW130845   3.817   4.275  10.845  2.2951  1.1451  0.8817
 6462SOL    HW230846   3.728   4.334  10.734 -1.1644  1.8551  1.0950
 6463SOL     OW30847   1.279   0.502   9.113 -0.3840  0.5948 -0.5435
 6463SOL    HW130848   1.226   0.423   9.125  1.2455 -0.8139 -2.6397
 6463SOL    HW230849   1.368   0.470   9.105 -0.9073 -0.7231 -1.1386
 6464SOL     OW30850   0.766   2.614  10.674  0.2491  0.3383 -0.3025
 6464SOL    HW130851   0.844   2.567  10.645 -1.1813 -1.4438 -1.2442
 6464SOL    HW230852   0.712   2.538  10.695  2.3328 -0.0026  3.6815
 6465SOL     OW30853   1.107   1.466   4.524  0.1692 -0.4008  0.2092
 6465SOL    HW130854   1.085   1.375   4.541 -2.5441 -0.1126 -1.6757
 6465SOL    HW230855   1.026   1.512   4.547  0.2744  0.2354 -0.6897
 6466SOL     OW30856   0.172   2.872   3.990 -0.4226 -0.7444  0.6879
 6466SOL    HW130857   0.100   2.835   3.940 -1.7084  0.1989  1.8538
 6466SOL    HW230858   0.184   2.808   4.061 -0.3425 -0.3199  1.0597
 6467SOL     OW30859   0.039   1.069   1.613 -0.2933  0.2617 -0.2541
 6467SOL    HW130860   0.098   1.053   1.687  1.1716  0.4774 -1.4044
 6467SOL    HW230861   4.698   1.003   1.630  0.5272 -0.2316  1.1325
 6468SOL     OW30862   1.402   0.879   9.180  0.0789  0.0862  0.8996
 6468SOL    HW130863   1.398   0.825   9.259 -1.1944 -1.2959 -0.1155
 6468SOL    HW230864   1.461   0.830   9.123 -0.4940  0.3921  0.0492
 6469SOL     OW30865   1.439   0.912   8.646 -0.1649 -0.4269 -0.0515
 6469SOL    HW130866   1.533   0.930   8.638 -0.1872 -1.3666 -2.4111
 6469SOL    HW230867   1.444   0.832   8.698 -0.1011 -0.6950 -0.4727
 6470SOL     OW30868   4.188   0.407  10.791  0.2141 -0.3695  0.7321
 6470SOL    HW130869   4.277   0.430  10.819  0.0048  1.0214  0.2512
 6470SOL    HW230870   4.151   0.479  10.741 -0.6171 -1.0360  0.4028
 6471SOL     OW30871   2.971   1.011  15.491  0.6254  0.2106 -0.0820
 6471SOL    HW130872   3.015   1.096  15.482  0.2081  0.5484  1.0418
 6471SOL    HW230873   3.041   0.947  15.474  0.0870 -1.0580  2.4447
 6472SOL     OW30874   1.572   0.607   8.501  0.2527  0.7203 -0.3271
 6472SOL    HW130875   1.538   0.523   8.470 -0.8743  0.3015  2.0399
 6472SOL    HW230876   1.519   0.634   8.576  0.2772 -0.5824  0.1546
 6473SOL     OW30877   2.055   0.435  11.781 -0.0733 -0.4532 -0.0699
 6473SOL    HW130878   2.032   0.528  11.788  1.4609  0.0639 -1.9597
 6473SOL    HW230879   2.124   0.431  11.715  0.8893  2.4255  0.7740
 6474SOL     OW30880   2.383   2.386  15.936 -0.2295 -0.1300  0.0101
 6474SOL    HW130881   2.378   2.459  15.874 -2.0450  1.8157  2.4596
 6474SOL    HW230882   2.459   2.331  15.916  0.7504  1.0306  0.4974
 6475SOL     OW30883   1.058   2.147   1.412  0.7132  0.1818  0.0515
 6475SOL    HW130884   1.104   2.230   1.428  2.2210 -0.2459 -1.9063
 6475SOL    HW230885   0.970   2.175   1.436 -1.5348 -3.7163 -3.6940
 6476SOL     OW30886   1.056   4.174   5.553 -0.1480  0.0143  0.3818
 6476SOL    HW130887   1.065   4.210   5.642  0.2985  0.8283  0.0159
 6476SOL    HW230888   0.970   4.201   5.521 -1.9821 -2.8086  2.9909
 6477SOL     OW30889   4.259   0.844   8.526 -0.1005 -0.0869  0.1190
 6477SOL    HW130890   4.288   0.934   8.537 -2.1492  0.8311 -1.7976
 6477SOL    HW230891   4.286   0.834   8.435 -0.1565 -0.2252  0.1181
 6478SOL     OW30892   4.391   3.915   2.330 -0.0155 -0.3466  0.6553
 6478SOL    HW130893   4.426   3.835   2.369 -0.0971 -0.6299  0.1314
 6478SOL    HW230894   4.326   3.933   2.398  0.8496  0.7869  1.1982
 6479SOL     OW30895   1.100   3.355   3.902 -0.4715 -0.0927 -0.0751
 6479SOL    HW130896   1.178   3.340   3.848  1.0621  0.4185  1.9888
 6479SOL    HW230897   1.089   3.261   3.918 -0.3708 -0.4183 -1.8630
 6480SOL     OW30898   2.659   4.031   1.308  0.6666 -0.2833 -0.8345
 6480SOL    HW130899   2.682   4.011   1.217 -1.0987 -0.0720 -1.3388
 6480SOL    HW230900   2.673   4.125   1.318  0.2602 -0.1421 -1.5974
 6481SOL     OW30901   3.476   4.556  16.389 -0.1184 -0.5490  0.1434
 6481SOL    HW130902   3.505   4.623  16.450 -0.0111 -1.9883  1.6729
 6481SOL    HW230903   3.437   4.491  16.447 -1.6598 -0.5644 -0.9134
 6482SOL     OW30904   4.661   0.944   2.129 -0.7068  0.3227  0.4752
 6482SOL    HW130905   4.659   1.010   2.198 -0.8455  0.2772  0.5151
 6482SOL    HW230906   4.646   1.000   2.053 -1.0589 -1.0192 -0.4303
 6483SOL     OW30907   2.010   1.048  14.241 -0.0510  0.0566  0.5605
 6483SOL    HW130908   2.001   0.957  14.210  0.0710  0.0577  0.5238
 6483SOL    HW230909   1.920   1.076  14.223  0.6683  1.7107 -0.4117
 6484SOL     OW30910   4.663   2.154   7.589  0.0690  0.6824  0.3739
 6484SOL    HW130911   0.019   2.197   7.613  1.4807 -0.5479 -2.2673
 6484SOL    HW230912   4.621   2.225   7.541 -0.4319  0.8080  0.9957
 6485SOL     OW30913   0.579   4.465   2.449 -0.0873 -0.5479 -0.5159
 6485SOL    HW130914   0.634   4.533   2.410  0.2423 -0.1340  0.6755
 6485SOL    HW230915   0.505   4.470   2.388  0.4254  1.5782 -0.9667
 6486SOL     OW30916   2.991   4.194   1.973  0.4407 -0.5436 -0.2461
 6486SOL    HW130917   3.018   4.280   1.940 -0.5740  0.2222  0.9479
 6486SOL    HW230918   3.068   4.161   2.018  1.7425  1.3947 -1.0062
 6487SOL     OW30919   1.773   2.558   6.200  0.2894  0.0736  0.4602
 6487SOL    HW130920   1.785   2.512   6.283  0.9572 -0.3164  0.1520
 6487SOL    HW230921   1.766   2.481   6.143  2.0850 -1.1628  1.9186
 6488SOL     OW30922   0.241   1.611   6.550 -1.0396 -0.1888 -0.5819
 6488SOL    HW130923   0.227   1.686   6.608  1.4537  1.8717 -2.6049
 6488SOL    HW230924   0.294   1.643   6.477 -2.2854  0.4140 -1.2094
 6489SOL     OW30925   1.477   2.031   3.573  0.2547 -0.2497  0.1935
 6489SOL    HW130926   1.454   2.023   3.666  1.2330  0.2931  0.4871
 6489SOL    HW230927   1.461   2.125   3.564 -0.2404 -0.2247  1.3746
 6490SOL     OW30928   3.198   3.336   2.121 -0.1014 -0.5798  0.2988
 6490SOL    HW130929   3.284   3.369   2.146 -1.5801  1.6324  2.4116
 6490SOL    HW230930   3.189   3.367   2.031  2.1612  0.2121  0.3302
 6491SOL     OW30931   0.088   3.370   4.277 -0.0328  0.0228 -0.2039
 6491SOL    HW130932   0.029   3.294   4.277 -1.5271  1.1566  1.8644
 6491SOL    HW230933   0.020   3.437   4.289 -0.9527 -0.9547  0.0563
 6492SOL     OW30934   0.736   1.771   9.292  0.1283  0.0631 -0.2939
 6492SOL    HW130935   0.742   1.860   9.327  0.4717  0.6887 -1.9522
 6492SOL    HW230936   0.824   1.742   9.316  0.1444 -1.6504 -2.4263
 6493SOL     OW30937   3.338   2.347  10.105 -0.1445  0.4730 -0.7859
 6493SOL    HW130938   3.316   2.278  10.167  1.4715 -0.1336 -0.8906
 6493SOL    HW230939   3.415   2.382  10.148  1.4332 -1.1268 -2.2816
 6494SOL     OW30940   0.323   3.309   2.302 -0.2073  0.3532  0.5073
 6494SOL    HW130941   0.237   3.311   2.344  1.2507  1.8404  3.4952
 6494SOL    HW230942   0.288   3.322   2.215 -0.6124  1.3906  0.8320
 6495SOL     OW30943   2.340   3.333   5.202  1.1193  0.4175 -0.2446
 6495SOL    HW130944   2.255   3.345   5.244  1.1020  0.9011 -0.4249
 6495SOL    HW230945   2.323   3.292   5.118  2.0651 -0.8145  0.1563
 6496SOL     OW30946   4.195   0.213   8.321  0.2323 -0.2499  0.2739
 6496SOL    HW130947   4.212   0.306   8.305 -0.9387 -0.0068  0.4152
 6496SOL    HW230948   4.222   0.203   8.412  0.1439  2.5525  0.6123
 6497SOL     OW30949   0.470   0.413   6.401  0.0972  0.2222 -0.0454
 6497SOL    HW130950   0.431   0.476   6.461 -0.2484  1.0431 -1.1245
 6497SOL    HW230951   0.391   0.398   6.349  0.1909  1.7610 -0.6472
 6498SOL     OW30952   2.076   0.269   6.826  0.3990 -0.0963  0.2374
 6498SOL    HW130953   2.034   0.190   6.791 -1.8009  1.9993 -1.8140
 6498SOL    HW230954   2.097   0.242   6.916 -0.4900  0.4772  0.6160
 6499SOL     OW30955   0.896   1.695  15.698  0.3743  0.3049  0.0168
 6499SOL    HW130956   0.811   1.654  15.683 -0.8310  1.8367  2.6641
 6499SOL    HW230957   0.951   1.617  15.691  1.1898  1.0264 -1.6396
 6500SOL     OW30958   0.507   4.106   4.452 -0.2667 -0.9873  0.0168
 6500SOL    HW130959   0.432   4.119   4.394 -0.7924 -0.7234  0.7697
 6500SOL    HW230960   0.466   4.057   4.523 -1.4152 -0.8531 -0.5599
 6501SOL     OW30961   0.155   3.288   4.578 -0.0923 -0.4203 -0.1649
 6501SOL    HW130962   0.131   3.375   4.549  0.8854 -0.2915 -0.5799
 6501SOL    HW230963   0.176   3.242   4.497 -2.2131 -2.6042  0.5161
 6502SOL     OW30964   2.682   4.651   6.816 -0.1706 -0.2936  0.1563
 6502SOL    HW130965   2.617   4.591   6.853  0.9882 -1.4639  0.2555
 6502SOL    HW230966   2.729   4.677   6.895  0.1906 -1.3495  0.2852
 6503SOL     OW30967   2.054   3.310   5.611  0.5865  0.3973 -0.0827
 6503SOL    HW130968   2.017   3.293   5.698 -1.7806 -2.9929 -1.7377
 6503SOL    HW230969   2.147   3.320   5.634  0.5424  0.9646 -0.1584
 6504SOL     OW30970   1.833   3.910  16.587  0.4126  0.2467 -0.0102
 6504SOL    HW130971   1.846   3.937  16.678 -2.0451  0.3141  0.3029
 6504SOL    HW230972   1.749   3.950  16.566 -0.7539 -2.5873 -0.6788
 6505SOL     OW30973   2.452   4.475   4.922 -0.1580 -0.6425 -0.2278
 6505SOL    HW130974   2.461   4.449   5.014  1.8927  1.2658  0.1070
 6505SOL    HW230975   2.543   4.488   4.895 -0.4098  1.8376  0.0984
 6506SOL     OW30976   4.185   3.778   1.906 -0.1407 -0.1223  0.1139
 6506SOL    HW130977   4.210   3.728   1.984  3.2451  2.9298  1.0341
 6506SOL    HW230978   4.186   3.714   1.835  1.8343 -0.6076  0.5719
 6507SOL     OW30979   0.387   3.655   5.358  0.4951  0.4568 -0.0261
 6507SOL    HW130980   0.475   3.619   5.362  1.0663  1.4975 -3.8014
 6507SOL    HW230981   0.335   3.580   5.387  1.1686 -0.2696 -0.7217
 6508SOL     OW30982   3.955   1.335   6.217 -0.3139  0.3596  0.4862
 6508SOL    HW130983   3.996   1.300   6.297 -1.1802  0.1780  0.8578
 6508SOL    HW230984   4.015   1.403   6.189  0.7299 -0.6487  0.2633
 6509SOL     OW30985   1.184   3.029   6.504  0.7634  0.0260 -0.3272
 6509SOL    HW130986   1.167   3.104   6.561 -0.3909  1.0125 -1.9464
 6509SOL    HW230987   1.235   3.076   6.438 -0.0862  0.6941 -0.5170
 6510SOL     OW30988   4.596   0.449  15.234  0.0138 -0.1270 -0.0926
 6510SOL    HW130989   4.578   0.540  15.257 -1.2650 -0.2257 -0.6794
 6510SOL    HW230990   4.676   0.442  15.287 -1.2300  0.8509  1.9052
 6511SOL     OW30991   2.617   4.495  13.023  0.7791 -0.1772  0.1133
 6511SOL    HW130992   2.577   4.450  13.098  0.0349 -0.5898 -0.5302
 6511SOL    HW230993   2.692   4.534  13.066  2.4623 -1.7562 -1.3703
 6512SOL     OW30994   2.269   0.169   3.594  0.7223 -0.6731 -0.5437
 6512SOL    HW130995   2.268   0.085   3.639  1.4690 -1.3207 -1.7344
 6512SOL    HW230996   2.336   0.155   3.526  1.6264 -1.2837  0.4821
 6513SOL     OW30997   0.620   1.063   8.377 -0.0776  0.1036  0.7358
 6513SOL    HW130998   0.640   0.971   8.358  0.2084  0.2931  0.1203
 6513SOL    HW230999   0.702   1.085   8.421  0.0896  1.4399 -0.2607
 6514SOL     OW31000   0.507   4.707   2.878 -0.1195 -0.4614 -0.0034
 6514SOL    HW131001   0.450   0.055   2.892  0.0348 -0.1586 -1.0118
 6514SOL    HW231002   0.587   4.726   2.928 -0.1950  0.1010 -0.0984
 6515SOL     OW31003   1.642   2.030  12.391 -0.4667  0.0070  0.3053
 6515SOL    HW131004   1.687   2.060  12.311 -0.4459  1.9206  1.0355
 6515SOL    HW231005   1.581   1.963  12.359 -1.3787  1.6632 -1.4273
 6516SOL     OW31006   0.608   1.410   5.674  0.6101 -0.0123 -0.2537
 6516SOL    HW131007   0.527   1.455   5.651 -0.5901 -1.4322  1.1194
 6516SOL    HW231008   0.611   1.426   5.768 -0.8670 -2.6614  0.2565
 6517SOL     OW31009   3.134   1.825   8.802 -0.2154  0.0093  0.5551
 6517SOL    HW131010   3.155   1.911   8.838  2.1326 -1.3658  2.4987
 6517SOL    HW231011   3.053   1.803   8.846 -0.0874 -2.1720 -0.2982
 6518SOL     OW31012   2.801   3.750   6.877  0.3401  0.5607  0.6784
 6518SOL    HW131013   2.727   3.695   6.904 -1.3796  1.6316 -1.8864
 6518SOL    HW231014   2.844   3.771   6.959 -0.6418  2.2807  0.7512
 6519SOL     OW31015   2.054   2.315   4.670 -0.1521  0.4771  0.3155
 6519SOL    HW131016   2.003   2.340   4.747 -0.3959 -0.7581  0.5514
 6519SOL    HW231017   2.142   2.316   4.710 -0.3516 -0.4980  0.7859
 6520SOL     OW31018   1.812   2.154   6.679  0.4870 -0.6749 -0.0112
 6520SOL    HW131019   1.780   2.117   6.596  3.0023 -2.4300 -0.1891
 6520SOL    HW231020   1.877   2.086   6.692 -0.2861 -1.5853 -0.9224
 6521SOL     OW31021   2.393   2.215   6.456 -0.0530  0.7213 -0.0044
 6521SOL    HW131022   2.326   2.157   6.421  1.6748 -2.5060  2.0008
 6521SOL    HW231023   2.474   2.164   6.457 -1.7433 -1.9105  0.0626
 6522SOL     OW31024   2.494   0.703   3.209  0.0203  0.4601  0.0980
 6522SOL    HW131025   2.488   0.720   3.115  2.0234  2.5027  0.3578
 6522SOL    HW231026   2.556   0.772   3.229  0.5302 -0.2442  0.9262
 6523SOL     OW31027   0.373   3.109   8.611  0.3711 -0.2312  0.1263
 6523SOL    HW131028   0.322   3.047   8.663 -0.2860  0.3617  0.1711
 6523SOL    HW231029   0.375   3.172   8.684  1.1662  1.3908 -1.3059
 6524SOL     OW31030   2.490   1.344   0.689  0.2127 -0.3270  0.6123
 6524SOL    HW131031   2.395   1.344   0.694  0.1849 -0.2215  0.0715
 6524SOL    HW231032   2.508   1.438   0.682  1.1695 -0.4989  0.6889
 6525SOL     OW31033   2.505   1.232   7.569 -0.8406 -0.1906 -0.0178
 6525SOL    HW131034   2.575   1.287   7.606 -0.4991  0.8739 -2.2709
 6525SOL    HW231035   2.428   1.247   7.625 -1.2431  1.3256 -0.9670
 6526SOL     OW31036   0.355   2.161   2.696  0.0233 -0.5209 -0.6638
 6526SOL    HW131037   0.425   2.200   2.644 -0.4669  1.0144 -0.1586
 6526SOL    HW231038   0.299   2.123   2.628 -2.2613  0.9203  0.4049
 6527SOL     OW31039   4.685   1.936   3.362  0.0962  0.1848 -1.0005
 6527SOL    HW131040   4.660   1.846   3.379  0.8044  0.0996 -0.4490
 6527SOL    HW231041   0.053   1.936   3.378  0.3612  0.4934 -2.5631
 6528SOL     OW31042   4.286   3.606  11.231 -0.5035  0.1140  0.3543
 6528SOL    HW131043   4.227   3.568  11.296 -0.8109  0.7628  0.4559
 6528SOL    HW231044   4.368   3.625  11.277  0.0804 -0.1963 -0.5666
 6529SOL     OW31045   2.581   4.687   1.843  0.2930 -0.0544  0.1828
 6529SOL    HW131046   2.668   4.708   1.809 -0.5723  0.9169 -1.3984
 6529SOL    HW231047   2.522   4.712   1.772 -0.3462  2.6055  1.6702
 6530SOL     OW31048   0.321   0.121   5.107  0.0522 -0.6058 -0.0239
 6530SOL    HW131049   0.387   0.106   5.040  0.6352 -0.9892  0.6342
 6530SOL    HW231050   0.237   0.112   5.062 -0.1762  1.3652 -0.0005
 6531SOL     OW31051   1.315   4.059   0.562  0.5098 -0.6440 -0.2032
 6531SOL    HW131052   1.274   4.008   0.632  0.1544 -0.3451 -0.1923
 6531SOL    HW231053   1.269   4.038   0.480 -0.1284  1.3269 -0.3509
 6532SOL     OW31054   3.073   4.212  13.828  0.5759  0.1006  0.4354
 6532SOL    HW131055   2.993   4.238  13.781  0.1555  0.2318  1.2181
 6532SOL    HW231056   3.033   4.183  13.911 -1.1853 -0.8770 -0.7510
 6533SOL     OW31057   2.388   3.483  11.606 -0.7050  0.0489 -0.0294
 6533SOL    HW131058   2.326   3.511  11.673  0.2356 -0.1075  0.8979
 6533SOL    HW231059   2.459   3.543  11.624  0.0582 -0.2884 -1.8995
 6534SOL     OW31060   1.327   1.880   7.387  0.3052 -0.4661 -0.5722
 6534SOL    HW131061   1.397   1.843   7.441 -1.7075 -1.2149  1.5482
 6534SOL    HW231062   1.248   1.837   7.422  0.2196  1.4847  1.5867
 6535SOL     OW31063   1.060   3.235   7.279 -0.0381 -0.8420 -0.2333
 6535SOL    HW131064   1.052   3.285   7.360 -1.2366 -0.0267 -0.8767
 6535SOL    HW231065   1.028   3.156   7.323 -0.4806  0.0551  1.0371
 6536SOL     OW31066   2.707   0.730  12.255  0.1081 -0.4149 -0.4462
 6536SOL    HW131067   2.703   0.825  12.248 -1.8408 -0.5347 -0.9338
 6536SOL    HW231068   2.772   0.715  12.324  0.7956 -0.4620 -1.1027
 6537SOL     OW31069   0.248   1.773  17.287  0.1113 -0.2020  0.6496
 6537SOL    HW131070   0.320   1.815  17.240 -1.5908  2.3415  0.3082
 6537SOL    HW231071   0.263   1.680  17.269 -0.2820  0.6911 -4.1935
 6538SOL     OW31072   1.563   2.130   5.506 -0.0545 -0.7226 -0.2016
 6538SOL    HW131073   1.471   2.156   5.505 -0.3440 -1.7296 -0.3784
 6538SOL    HW231074   1.602   2.213   5.533 -0.8096  0.1621 -1.7737
 6539SOL     OW31075   2.672   2.172   3.416 -0.1003  0.3843  0.1317
 6539SOL    HW131076   2.638   2.131   3.336 -1.8797 -2.3296  2.2752
 6539SOL    HW231077   2.597   2.214   3.457  1.4102  1.4574  1.7866
 6540SOL     OW31078   3.806   1.155   9.580  0.0451  0.8192 -0.4029
 6540SOL    HW131079   3.742   1.086   9.600  0.7637  0.4816  0.7334
 6540SOL    HW231080   3.872   1.143   9.648 -1.9442 -2.1428  1.0275
 6541SOL     OW31081   0.971   4.665   3.443  0.2341 -0.0176  0.2289
 6541SOL    HW131082   0.899   4.603   3.450  0.2071  0.0494  0.5139
 6541SOL    HW231083   1.015   4.628   3.366  0.5393  1.7587 -0.4660
 6542SOL     OW31084   0.063   0.104   6.429 -0.4850 -0.2174 -0.0474
 6542SOL    HW131085   0.003   0.042   6.470 -0.7413 -1.6264 -2.5265
 6542SOL    HW231086   0.141   0.089   6.483  0.4205  1.0684 -0.9916
 6543SOL     OW31087   2.229   4.283   3.283  0.4530  0.2003  0.4427
 6543SOL    HW131088   2.293   4.231   3.234  0.5691 -0.2657  1.0963
 6543SOL    HW231089   2.240   4.245   3.370 -0.9893  0.5361  0.7731
 6544SOL     OW31090   2.342   4.283  10.600  0.3478  0.3096 -0.0012
 6544SOL    HW131091   2.263   4.260  10.552 -0.0242 -1.5456  1.4823
 6544SOL    HW231092   2.313   4.358  10.652 -0.4975  0.8717 -1.3162
 6545SOL     OW31093   0.026   1.592   3.084 -0.0086 -0.1588  0.1735
 6545SOL    HW131094   0.067   1.535   3.148  1.3872 -1.2097 -1.6564
 6545SOL    HW231095   4.699   1.651   3.136  1.5584  1.6311 -0.2823
 6546SOL     OW31096   3.180   0.576  11.040 -0.2866  0.2536  0.5795
 6546SOL    HW131097   3.134   0.644  10.991  0.2052 -0.3287 -0.6819
 6546SOL    HW231098   3.096   0.544  11.073 -0.1009 -2.5052 -1.6440
 6547SOL     OW31099   4.462   1.513   7.657  0.0522 -0.4560 -0.5486
 6547SOL    HW131100   4.517   1.548   7.727 -2.8946 -1.3693  2.2495
 6547SOL    HW231101   4.514   1.530   7.579 -0.7033  0.9148 -0.7619
 6548SOL     OW31102   0.895   1.175   8.372  0.0034 -0.3197  0.1596
 6548SOL    HW131103   0.948   1.184   8.452 -0.2184 -0.0220  0.2734
 6548SOL    HW231104   0.895   1.270   8.358 -0.2952 -0.2091  0.9134
 6549SOL     OW31105   2.067   0.739   2.906 -0.0733  0.1658  0.0679
 6549SOL    HW131106   2.123   0.743   2.829 -2.4691  0.1848 -1.7030
 6549SOL    HW231107   1.979   0.717   2.875  1.0910 -1.3171 -2.2053
 6550SOL     OW31108   0.033   3.942  17.211  0.0148 -0.0238  0.7926
 6550SOL    HW131109   4.668   3.914  17.212 -0.5915  2.0237  1.1897
 6550SOL    HW231110   0.017   4.032  17.184  1.3019 -0.6800 -2.1759
 6551SOL     OW31111   1.957   2.688   2.094 -0.0444 -0.1288  0.2003
 6551SOL    HW131112   1.920   2.759   2.147 -1.7468  0.4865 -1.8066
 6551SOL    HW231113   1.993   2.751   2.031 -2.2693  0.9389  0.0035
 6552SOL     OW31114   3.500   1.218   5.928 -0.1586  0.2034  0.2411
 6552SOL    HW131115   3.551   1.297   5.946  0.4312 -0.0429 -0.2919
 6552SOL    HW231116   3.409   1.241   5.942 -0.5391 -2.6901  2.3384
 6553SOL     OW31117   0.180   4.193  11.957  0.5997 -0.0249  0.2729
 6553SOL    HW131118   0.138   4.273  11.926  1.3401  0.1523 -0.2765
 6553SOL    HW231119   0.200   4.157  11.871  0.8841  1.0859 -0.1273
 6554SOL     OW31120   3.871   4.670   2.400  0.1171  0.2075 -0.1233
 6554SOL    HW131121   3.940   4.624   2.353  2.1133  2.2466  0.8168
 6554SOL    HW231122   3.819   4.702   2.326 -1.3149 -1.7865  0.0202
 6555SOL     OW31123   0.089   2.228   5.830  0.3093  0.2121 -0.0424
 6555SOL    HW131124   0.136   2.243   5.748 -0.6193  1.5576 -0.3392
 6555SOL    HW231125   0.004   2.266   5.806 -0.2500 -0.5239  0.7917
 6556SOL     OW31126   0.144   0.566   6.542 -0.2930 -0.2148 -1.0135
 6556SOL    HW131127   0.068   0.515   6.571  1.8257 -2.8800 -0.0753
 6556SOL    HW231128   0.135   0.562   6.447  0.0359 -1.4952 -0.9964
 6557SOL     OW31129   3.440   0.650   1.937 -0.0919  0.2340  0.0495
 6557SOL    HW131130   3.362   0.654   1.881 -1.6465 -2.4893  2.0442
 6557SOL    HW231131   3.407   0.624   2.023 -1.2934  1.1584 -0.1361
 6558SOL     OW31132   0.053   3.583   8.921 -0.3997  0.2818 -0.1902
 6558SOL    HW131133   0.134   3.572   8.870 -0.8479 -1.0972 -0.5969
 6558SOL    HW231134   0.068   3.662   8.973  1.4227  0.3328 -0.7868
 6559SOL     OW31135   0.672   3.885   3.707 -0.4788  0.1712 -0.0090
 6559SOL    HW131136   0.609   3.957   3.697 -3.1301 -1.9263  1.5915
 6559SOL    HW231137   0.640   3.840   3.785  0.0853  0.6264  0.4911
 6560SOL     OW31138   2.568   1.883  13.911  0.0945 -0.2546  0.0309
 6560SOL    HW131139   2.559   1.974  13.938 -0.8019 -0.7551  1.4122
 6560SOL    HW231140   2.501   1.841  13.965  1.6146 -0.0910  2.0515
 6561SOL     OW31141   3.044   0.628   7.339 -0.2949 -0.4078  0.0003
 6561SOL    HW131142   3.074   0.577   7.415  1.4582  2.5760  1.3212
 6561SOL    HW231143   3.096   0.708   7.345 -0.3236 -0.3079 -1.0864
 6562SOL     OW31144   3.456   4.608   7.123 -0.1148 -0.0202 -0.2038
 6562SOL    HW131145   3.546   4.640   7.117 -0.1085 -0.2161 -1.1577
 6562SOL    HW231146   3.464   4.573   7.212 -0.0122 -0.8629 -0.5519
 6563SOL     OW31147   3.989   2.910   2.823 -0.2494 -0.2697  0.1905
 6563SOL    HW131148   4.004   2.963   2.902  0.5137 -0.0738 -0.0875
 6563SOL    HW231149   3.909   2.876   2.862  0.4150 -0.8040  1.0986
 6564SOL     OW31150   0.046   4.461   6.408  0.1349 -0.1755  0.3091
 6564SOL    HW131151   4.692   4.492   6.368 -0.8485 -2.1189  0.8184
 6564SOL    HW231152   0.020   4.388   6.463  1.3725 -1.0134 -0.2130
 6565SOL     OW31153   3.843   1.435  10.323 -0.1422  0.1152  0.3591
 6565SOL    HW131154   3.795   1.498  10.269 -2.0398 -0.8258  0.9537
 6565SOL    HW231155   3.769   1.382  10.353  0.4101 -0.2318  1.0949
 6566SOL     OW31156   3.656   1.388   0.589  0.2273 -0.4545 -0.3935
 6566SOL    HW131157   3.617   1.456   0.644  1.8050 -0.5057  0.7869
 6566SOL    HW231158   3.651   1.314   0.649 -0.1276 -0.6258 -0.6422
 6567SOL     OW31159   4.068   3.888   6.098 -0.2914  0.4711 -0.1558
 6567SOL    HW131160   4.086   3.982   6.096 -0.7696  0.5747  0.8743
 6567SOL    HW231161   3.987   3.897   6.047  0.2557  0.2669 -1.0697
 6568SOL     OW31162   0.821   3.890   6.684  0.0899 -0.2957  0.1727
 6568SOL    HW131163   0.895   3.850   6.731 -0.2573 -1.5288 -0.3391
 6568SOL    HW231164   0.757   3.820   6.683  1.3200 -1.4113 -0.2373
 6569SOL     OW31165   0.819   2.211   3.453  0.4276 -0.0337 -0.0093
 6569SOL    HW131166   0.728   2.218   3.426  0.8059  1.5807 -0.8638
 6569SOL    HW231167   0.863   2.257   3.382 -0.5161 -1.9945 -1.8473
 6570SOL     OW31168   0.847   0.585   6.417 -0.4230 -0.1390  0.1956
 6570SOL    HW131169   0.854   0.566   6.511  0.2262 -0.6083  0.0483
 6570SOL    HW231170   0.932   0.627   6.403 -0.0803 -0.1274  2.2110
 6571SOL     OW31171   1.561   1.754   6.429 -0.0526 -0.0179 -0.0807
 6571SOL    HW131172   1.547   1.808   6.351 -1.8001 -0.9859 -0.4339
 6571SOL    HW231173   1.473   1.718   6.437 -0.0715 -0.0987 -0.5936
 6572SOL     OW31174   1.778   0.328   6.890 -0.6734  0.6993  0.0866
 6572SOL    HW131175   1.758   0.234   6.885 -0.6511  0.7634 -1.1718
 6572SOL    HW231176   1.771   0.350   6.797 -1.7579 -0.8555 -0.2081
 6573SOL     OW31177   0.603   3.583  13.849 -0.3695  0.2650  0.0674
 6573SOL    HW131178   0.602   3.503  13.900  1.0124  0.0067 -0.3289
 6573SOL    HW231179   0.515   3.618  13.863 -1.4534 -1.2185 -2.8447
 6574SOL     OW31180   0.286   1.048  12.137 -0.4431  0.3608 -0.3924
 6574SOL    HW131181   0.227   1.108  12.091 -0.1800  1.4429  0.6777
 6574SOL    HW231182   0.349   1.111  12.172  0.4763  0.0756 -1.5442
 6575SOL     OW31183   0.017   3.127   5.282  0.7643  0.2754 -0.1517
 6575SOL    HW131184   0.108   3.151   5.265  1.0814 -0.9519 -0.1824
 6575SOL    HW231185   4.696   3.134   5.199 -1.3234 -1.6224  0.9144
 6576SOL     OW31186   4.138   0.264   5.573  0.7270  0.6197 -0.4658
 6576SOL    HW131187   4.187   0.265   5.491 -0.5104 -0.0669 -1.2192
 6576SOL    HW231188   4.180   0.189   5.615 -0.8256  0.2036  0.3337
 6577SOL     OW31189   3.352   1.670   0.432  0.7328 -0.3602 -0.4080
 6577SOL    HW131190   3.293   1.636   0.499  2.4153  1.4057  1.9981
 6577SOL    HW231191   3.400   1.740   0.476  0.9176 -0.6110 -0.2080
 6578SOL     OW31192   0.790   0.614   4.904 -0.5447  0.5953 -0.4931
 6578SOL    HW131193   0.810   0.637   4.994  2.2417  1.7982 -1.4117
 6578SOL    HW231194   0.858   0.548   4.896 -0.8746  0.4070 -1.8927
 6579SOL     OW31195   3.009   4.631   2.899 -0.8081  0.4812  0.0427
 6579SOL    HW131196   2.921   4.668   2.903  0.1273  2.7846 -0.7348
 6579SOL    HW231197   3.040   4.657   2.986 -3.2526 -0.0616  1.0599
 6580SOL     OW31198   1.287   3.082  17.102  0.3316 -0.3994 -0.4295
 6580SOL    HW131199   1.274   3.177  17.105  0.0537 -0.4387 -0.4658
 6580SOL    HW231200   1.198   3.051  17.115 -0.3360  0.9677 -1.7700
 6581SOL     OW31201   3.578   3.042   5.321 -0.4752  0.9067  0.1307
 6581SOL    HW131202   3.554   2.957   5.358 -1.7555  0.7221 -1.1418
 6581SOL    HW231203   3.528   3.039   5.240 -0.8738 -0.7109  0.4332
 6582SOL     OW31204   4.611   2.103   8.042  0.1893 -0.4655  0.1397
 6582SOL    HW131205   4.602   2.014   8.076  0.2586 -0.5753 -0.1292
 6582SOL    HW231206   4.571   2.089   7.956  1.0954 -1.7780 -0.0753
 6583SOL     OW31207   2.727   2.272   7.588  0.2620 -0.2680  0.2086
 6583SOL    HW131208   2.653   2.326   7.559  0.0331 -1.9103 -2.2005
 6583SOL    HW231209   2.738   2.221   7.508 -0.1456  1.8208 -1.1885
 6584SOL     OW31210   3.254   2.517   5.748  0.0602  0.1845 -0.5954
 6584SOL    HW131211   3.184   2.482   5.804  1.0941 -1.5741 -0.3947
 6584SOL    HW231212   3.226   2.607   5.766 -0.2485  0.1023 -0.6683
 6585SOL     OW31213   1.394   2.309  10.484 -0.0180  0.0180  0.2190
 6585SOL    HW131214   1.482   2.336  10.456 -0.7590 -0.1480 -2.2398
 6585SOL    HW231215   1.339   2.360  10.425  1.0684  0.1133 -0.7042
 6586SOL     OW31216   1.629   1.870   9.663 -0.6341 -0.0069 -0.5652
 6586SOL    HW131217   1.695   1.813   9.702 -1.5044 -1.8806 -1.8336
 6586SOL    HW231218   1.681   1.943   9.630 -0.9925 -0.0707 -1.2735
 6587SOL     OW31219   3.776   4.606   9.571 -0.5327 -0.0534 -0.1561
 6587SOL    HW131220   3.820   4.646   9.645 -2.6519  1.2711  0.3741
 6587SOL    HW231221   3.831   4.630   9.496 -1.6392 -3.0714 -1.9711
 6588SOL     OW31222   4.559   0.012  13.015  0.6770 -0.1221 -0.0553
 6588SOL    HW131223   4.508   0.000  13.095  0.3693  0.3577 -0.1744
 6588SOL    HW231224   4.567   0.107  13.006  1.0385 -0.1822 -0.3355
 6589SOL     OW31225   1.384   0.725   4.522  0.0950  0.2313 -0.5554
 6589SOL    HW131226   1.433   0.717   4.440 -1.6611 -0.6780 -1.4966
 6589SOL    HW231227   1.406   0.814   4.550 -0.6448  0.7513 -1.6588
 6590SOL     OW31228   0.234   3.076   9.965  0.0865 -0.1075  0.0534
 6590SOL    HW131229   0.231   3.108  10.055 -0.2616  1.2947 -0.4561
 6590SOL    HW231230   0.287   3.148   9.932  2.5657 -1.5751  0.7898
 6591SOL     OW31231   0.079   4.329   5.185  0.5155 -0.8500  0.8374
 6591SOL    HW131232   0.074   4.422   5.164 -2.3639 -1.7162 -2.1972
 6591SOL    HW231233   0.161   4.306   5.141  0.8258  0.3469  0.7908
 6592SOL     OW31234   4.237   0.475  17.204  0.1309 -0.7048  0.2144
 6592SOL    HW131235   4.284   0.428  17.135 -0.7384 -1.0431 -0.1498
 6592SOL    HW231236   4.250   0.408  17.272 -1.3709 -1.1585  0.0571
 6593SOL     OW31237   2.612   3.708  10.740 -0.1967 -0.5769  0.0863
 6593SOL    HW131238   2.615   3.742  10.829 -0.1799  0.9541 -0.5088
 6593SOL    HW231239   2.519   3.705  10.717 -0.2906  0.8008  0.3085
 6594SOL     OW31240   4.484   1.977  16.773  0.3224  0.3795  0.3257
 6594SOL    HW131241   4.419   1.907  16.779 -1.6186  2.0613 -0.9667
 6594SOL    HW231242   4.455   2.025  16.695  0.1683 -1.0877 -0.5138
 6595SOL     OW31243   1.802   2.452   6.467  0.6841 -0.3422 -0.1567
 6595SOL    HW131244   1.854   2.387   6.514 -0.4163  0.1128  1.6968
 6595SOL    HW231245   1.794   2.502   6.548 -0.7224 -1.0971  0.1697
 6596SOL     OW31246   2.947   2.943   8.880 -0.0218  0.3575  0.7188
 6596SOL    HW131247   2.909   2.900   8.955  1.4416 -1.5148  0.3943
 6596SOL    HW231248   3.015   2.884   8.846 -1.2639 -0.5331 -0.2271
 6597SOL     OW31249   1.488   3.524   1.410 -0.3265 -0.1236 -0.2014
 6597SOL    HW131250   1.446   3.574   1.340  1.5231  0.8061 -0.6574
 6597SOL    HW231251   1.415   3.481   1.455  0.7496 -1.6738  0.0649
 6598SOL     OW31252   1.170   2.923   1.666 -0.8704 -0.1516 -0.0231
 6598SOL    HW131253   1.162   2.836   1.706  0.1648  0.5597  1.7012
 6598SOL    HW231254   1.081   2.948   1.641 -0.8718 -1.4744 -1.3595
 6599SOL     OW31255   4.644   0.280  16.925  0.2189 -0.2571  0.2620
 6599SOL    HW131256   4.586   0.329  16.866  1.8823 -0.3834 -1.4861
 6599SOL    HW231257   4.672   0.207  16.869  0.3784 -0.1112  0.1514
 6600SOL     OW31258   1.613   0.885   5.382 -0.5749 -0.1450  0.8355
 6600SOL    HW131259   1.660   0.814   5.424 -0.6529  0.5077  2.0064
 6600SOL    HW231260   1.604   0.941   5.459 -1.6070  1.0923 -0.1727
 6601SOL     OW31261   0.614   3.253  13.148 -1.0738  0.1568  0.4307
 6601SOL    HW131262   0.688   3.229  13.092  0.8372  0.4620  2.8329
 6601SOL    HW231263   0.654   3.306  13.216 -0.1267 -0.2924  0.2234
 6602SOL     OW31264   4.070   2.200   5.082  0.0637  0.0688 -0.3402
 6602SOL    HW131265   3.989   2.178   5.037  0.6798  1.3068 -2.0613
 6602SOL    HW231266   4.132   2.171   5.015 -1.8236 -2.9058 -0.8350
 6603SOL     OW31267   4.250   2.422   6.189  0.1954 -0.0016  0.0504
 6603SOL    HW131268   4.227   2.332   6.213 -0.3286 -0.8281 -3.5162
 6603SOL    HW231269   4.172   2.475   6.204  0.8545  1.1561 -0.5584
 6604SOL     OW31270   0.146   3.340   9.014  0.4058  0.0818  0.1916
 6604SOL    HW131271   0.199   3.378   9.083 -0.1707  1.0160  0.1210
 6604SOL    HW231272   0.090   3.415   8.995  0.0807 -0.1415  0.2661
 6605SOL     OW31273   4.705   0.701   2.258 -0.1712 -0.1146 -0.2138
 6605SOL    HW131274   0.041   0.707   2.331  0.4483 -0.7061 -0.6994
 6605SOL    HW231275   4.707   0.792   2.227  3.3175 -0.1283 -0.0785
 6606SOL     OW31276   2.019   0.072   2.630 -0.0355 -0.0856  0.1093
 6606SOL    HW131277   2.033   4.724   2.687  0.5251 -0.7378 -0.8818
 6606SOL    HW231278   1.951   0.027   2.580 -0.2551 -2.8177  2.8427
 6607SOL     OW31279   1.011   0.952   7.710  0.7315  0.7933  0.3219
 6607SOL    HW131280   1.053   1.026   7.754  1.3600 -0.3863  1.7082
 6607SOL    HW231281   0.946   0.996   7.655  1.5679  1.4462 -0.1497
 6608SOL     OW31282   3.252   1.186   6.686 -0.1348  0.1192 -0.0687
 6608SOL    HW131283   3.328   1.226   6.729 -0.7005  0.8519  0.2376
 6608SOL    HW231284   3.182   1.208   6.747 -1.9189 -0.6842 -1.8506
 6609SOL     OW31285   2.570   2.820   2.417 -0.3119 -0.5932 -0.1813
 6609SOL    HW131286   2.489   2.859   2.385  0.8074  2.3137  0.4559
 6609SOL    HW231287   2.623   2.823   2.337  1.2778 -0.1409  0.8870
 6610SOL     OW31288   1.065   1.530   2.842 -0.0918  0.1613  0.3174
 6610SOL    HW131289   1.097   1.607   2.796 -2.4166  1.9177  1.6471
 6610SOL    HW231290   1.143   1.475   2.846 -0.1224 -0.0560 -2.1477
 6611SOL     OW31291   1.095   2.729  13.886  0.0199  0.0715  0.2107
 6611SOL    HW131292   1.105   2.645  13.841  3.9120  0.1473  0.8923
 6611SOL    HW231293   1.071   2.691  13.971 -0.0169 -0.7400 -0.1651
 6612SOL     OW31294   2.839   0.034   4.183 -0.2060  0.5512  0.0274
 6612SOL    HW131295   2.767   0.080   4.226 -1.4469 -2.8119  1.5432
 6612SOL    HW231296   2.794   4.695   4.130  1.2014 -0.2948 -0.1404
 6613SOL     OW31297   0.337   2.533  10.463 -0.2570  0.4692 -0.1994
 6613SOL    HW131298   0.304   2.622  10.469 -0.7932  0.1027  2.0931
 6613SOL    HW231299   0.356   2.528  10.369  0.5788 -0.4591  0.0125
 6614SOL     OW31300   1.752   1.459   6.629 -0.3781 -0.2836 -0.0446
 6614SOL    HW131301   1.707   1.439   6.711 -0.3951  1.5490  0.3922
 6614SOL    HW231302   1.694   1.416   6.567 -1.9974  0.6614  0.8276
 6615SOL     OW31303   0.305   1.713   3.249 -0.0973  0.6926  0.0412
 6615SOL    HW131304   0.285   1.783   3.311 -1.6743  0.0815  0.2181
 6615SOL    HW231305   0.289   1.757   3.165 -0.4184 -2.0083 -1.3211
 6616SOL     OW31306   0.706   1.280  15.308 -0.2331  0.1786  0.0377
 6616SOL    HW131307   0.766   1.350  15.286  2.9532 -2.3181  0.8374
 6616SOL    HW231308   0.762   1.236  15.372  0.2832 -1.4654 -1.5314
 6617SOL     OW31309   3.193   0.096   6.034 -0.8071 -0.5429 -1.1027
 6617SOL    HW131310   3.281   0.066   6.058 -1.9893 -4.0711 -1.0762
 6617SOL    HW231311   3.201   0.102   5.939 -0.3934  0.7754 -0.9794
 6618SOL     OW31312   1.460   4.262   3.752  0.2623 -0.1646 -0.0693
 6618SOL    HW131313   1.527   4.196   3.770  0.2791 -0.4284 -1.1200
 6618SOL    HW231314   1.470   4.271   3.658  0.1140  3.5663  0.2484
 6619SOL     OW31315   0.489   0.407   1.165 -0.6010  0.0101 -0.3978
 6619SOL    HW131316   0.530   0.464   1.230  0.7904  0.1713 -1.4197
 6619SOL    HW231317   0.552   0.404   1.093  0.8835  1.2066  0.8545
 6620SOL     OW31318   3.994   0.653   1.953 -0.7363 -0.0978  0.3284
 6620SOL    HW131319   3.930   0.688   1.891 -0.7409  0.3963  0.6178
 6620SOL    HW231320   3.936   0.667   2.028 -2.3467 -0.8811 -0.7691
 6621SOL     OW31321   2.688   3.528   5.840 -0.4169  0.1663 -0.0589
 6621SOL    HW131322   2.616   3.466   5.836  0.4755 -0.8540 -0.3767
 6621SOL    HW231323   2.636   3.605   5.816 -0.4392  0.2381  0.2174
 6622SOL     OW31324   1.473   3.369   2.040  0.1886  0.3830 -0.4777
 6622SOL    HW131325   1.506   3.362   1.950 -0.1373 -1.7438 -0.4295
 6622SOL    HW231326   1.546   3.410   2.087  1.4891 -1.8229 -0.5839
 6623SOL     OW31327   4.157   3.863  10.388 -0.3100  0.5979 -0.3568
 6623SOL    HW131328   4.151   3.802  10.463 -1.3888  0.0280 -0.9051
 6623SOL    HW231329   4.076   3.845  10.342  0.9902 -0.8316 -2.0881
 6624SOL     OW31330   4.496   1.023  10.834  0.5411 -0.2996  0.0351
 6624SOL    HW131331   4.519   1.031  10.927 -1.7580 -2.4901  0.8078
 6624SOL    HW231332   4.484   1.113  10.803 -0.8458  0.3991  2.6092
 6625SOL     OW31333   1.974   4.362  16.810 -0.5094  0.3092  0.3866
 6625SOL    HW131334   1.968   4.311  16.729 -0.6083 -0.5038  0.8986
 6625SOL    HW231335   1.976   4.289  16.872  0.7329 -0.3553 -0.4430
 6626SOL     OW31336   0.697   1.764  15.944 -0.6434 -0.8001 -0.0775
 6626SOL    HW131337   0.629   1.752  15.878 -2.1112 -2.2696  1.7462
 6626SOL    HW231338   0.654   1.716  16.014  0.6458  0.5613  1.6704
 6627SOL     OW31339   4.472   4.649   7.216 -1.0115  0.1267  0.5536
 6627SOL    HW131340   4.521   0.004   7.227  2.8180 -2.3905  1.8723
 6627SOL    HW231341   4.388   4.695   7.214 -0.3723  1.2425 -0.4288
 6628SOL     OW31342   3.049   1.754   7.184 -0.2780 -0.1952  0.2422
 6628SOL    HW131343   3.089   1.823   7.133 -2.8619  0.8694 -0.3461
 6628SOL    HW231344   3.125   1.705   7.216 -1.0542 -1.9376 -0.5634
 6629SOL     OW31345   3.270   0.442  15.217 -0.0411  0.1216 -0.2950
 6629SOL    HW131346   3.332   0.467  15.285 -0.6496  0.7036  0.0451
 6629SOL    HW231347   3.266   0.517  15.158  1.1041  2.4353  2.5786
 6630SOL     OW31348   1.363   1.480   9.367  0.2251  0.3073 -0.3461
 6630SOL    HW131349   1.370   1.471   9.271 -2.8662  0.4934 -0.6099
 6630SOL    HW231350   1.337   1.392   9.393 -0.4824  0.6407  0.0850
 6631SOL     OW31351   1.501   3.327   4.890  0.3579  0.3229  0.0719
 6631SOL    HW131352   1.569   3.269   4.859 -0.4920  0.2289 -1.6441
 6631SOL    HW231353   1.431   3.312   4.826  0.6026  1.3982 -0.4506
 6632SOL     OW31354   2.971   2.922   5.973 -0.5589  0.2503  0.0305
 6632SOL    HW131355   3.013   2.849   5.928  0.2486  0.9369 -0.3312
 6632SOL    HW231356   3.017   2.932   6.056 -1.6410 -1.2422  0.7959
 6633SOL     OW31357   3.489   0.380  16.186 -0.7346  0.0148 -0.0284
 6633SOL    HW131358   3.427   0.333  16.130 -1.2663  1.8401 -0.9745
 6633SOL    HW231359   3.575   0.348  16.158 -1.3182 -0.6667 -1.0593
 6634SOL     OW31360   1.026   3.960   4.760  0.0728 -0.0834 -0.1971
 6634SOL    HW131361   0.970   3.886   4.738  0.0064 -0.2164  0.4307
 6634SOL    HW231362   1.111   3.921   4.737 -0.0691  1.1954 -2.8282
 6635SOL     OW31363   0.044   3.100  13.648  0.1965 -0.5948 -0.0287
 6635SOL    HW131364   0.014   3.140  13.730  1.2360  0.0109  0.0545
 6635SOL    HW231365   0.086   3.022  13.686  3.0270  0.6218 -0.6998
 6636SOL     OW31366   3.521   0.532   3.204  0.1984 -0.0576  0.3578
 6636SOL    HW131367   3.611   0.548   3.232 -0.6309 -0.1977  3.0717
 6636SOL    HW231368   3.526   0.439   3.182 -0.6333  0.1689 -0.8122
 6637SOL     OW31369   0.157   4.711   8.021 -0.1833  0.0886 -0.5127
 6637SOL    HW131370   0.088   0.049   8.012  0.0289  0.6342  1.9247
 6637SOL    HW231371   0.145   4.689   8.113  1.8034  2.1029  0.2362
 6638SOL     OW31372   1.568   2.392  16.252  0.1107  0.5720  0.4581
 6638SOL    HW131373   1.517   2.472  16.258 -0.7476  0.1544 -1.0418
 6638SOL    HW231374   1.624   2.377  16.328  1.0282  3.7916  0.4001
 6639SOL     OW31375   3.944   0.337  10.471 -0.7258  0.3842 -0.3570
 6639SOL    HW131376   3.943   0.412  10.530  0.6721  1.5550 -1.8083
 6639SOL    HW231377   3.889   0.273  10.516  0.4575 -1.0994 -1.0181
 6640SOL     OW31378   1.688   1.707   4.097  0.3513 -0.9591 -0.3258
 6640SOL    HW131379   1.701   1.742   4.008  0.1515 -0.7963 -0.2893
 6640SOL    HW231380   1.774   1.729   4.132  0.4058 -0.3983 -0.8096
 6641SOL     OW31381   1.674   3.238   6.784 -0.1345  0.2915  0.6314
 6641SOL    HW131382   1.693   3.144   6.783 -0.8091  0.1501  1.4814
 6641SOL    HW231383   1.633   3.252   6.869  2.5193  0.9813  1.8102
 6642SOL     OW31384   0.746   1.866   2.644 -0.3195  0.1521 -0.1776
 6642SOL    HW131385   0.742   1.770   2.649  2.1996 -0.0030 -1.2230
 6642SOL    HW231386   0.804   1.873   2.568 -0.7453  3.0540 -0.2231
 6643SOL     OW31387   3.040   0.372   4.571 -0.1926  0.4949  0.1980
 6643SOL    HW131388   3.006   0.458   4.594 -1.6564 -0.3488  1.2271
 6643SOL    HW231389   3.134   0.380   4.556 -0.4167 -0.1858 -1.6092
 6644SOL     OW31390   2.550   2.264  15.285 -0.3939 -0.2405 -0.4387
 6644SOL    HW131391   2.542   2.260  15.190 -0.3441 -0.0847 -0.4491
 6644SOL    HW231392   2.627   2.320  15.293 -1.1259  0.8786 -1.2496
 6645SOL     OW31393   0.541   0.853   8.834  0.1336 -0.2991  0.2271
 6645SOL    HW131394   0.542   0.802   8.915  2.3570 -0.9530 -0.2139
 6645SOL    HW231395   0.450   0.867   8.807  0.5037 -0.4827 -1.1130
 6646SOL     OW31396   1.120   4.581   1.962 -0.7136 -0.5842 -0.2408
 6646SOL    HW131397   1.035   4.590   1.918 -0.5302  1.6959 -0.1023
 6646SOL    HW231398   1.132   4.486   1.957  1.3377 -0.2702 -1.2333
 6647SOL     OW31399   4.418   3.331  11.805 -0.0631  0.1255 -0.0773
 6647SOL    HW131400   4.415   3.424  11.830  1.1761  0.6068 -1.7155
 6647SOL    HW231401   4.419   3.279  11.885  1.5616  2.7132  1.6009
 6648SOL     OW31402   1.664   3.244   9.882  0.1161 -0.2093 -0.5886
 6648SOL    HW131403   1.669   3.306   9.809 -0.5710  1.0289  0.4215
 6648SOL    HW231404   1.752   3.255   9.918  0.7846 -2.8060 -1.4472
 6649SOL     OW31405   3.054   0.902   8.739 -0.0394 -0.0378 -0.3064
 6649SOL    HW131406   3.059   0.983   8.688 -1.2429  0.5510  0.5088
 6649SOL    HW231407   3.017   0.935   8.821  1.9598 -1.3601  1.1178
 6650SOL     OW31408   4.224   2.135  16.780 -0.2711  0.2077 -0.3841
 6650SOL    HW131409   4.234   2.187  16.700 -1.1045  2.3671  0.9006
 6650SOL    HW231410   4.211   2.047  16.746  1.5293 -0.1369 -0.1976
 6651SOL     OW31411   0.690   0.980  16.136  0.2379 -0.4585  0.1147
 6651SOL    HW131412   0.632   0.909  16.110  1.7031 -2.4574  2.3293
 6651SOL    HW231413   0.658   1.007  16.222  0.5014 -0.5225  0.2329
 6652SOL     OW31414   4.673   3.267  17.432  0.1568 -0.1150 -0.0950
 6652SOL    HW131415   4.689   3.347  17.481  2.0507 -1.5161  1.5849
 6652SOL    HW231416   0.024   3.265  17.377  1.9603 -1.2737  2.5273
 6653SOL     OW31417   1.097   3.056   4.415 -0.4169 -0.2440  0.1496
 6653SOL    HW131418   1.029   3.104   4.461 -0.3920 -0.2870  0.2308
 6653SOL    HW231419   1.042   3.004   4.357  1.7493 -1.3260 -0.9465
 6654SOL     OW31420   4.094   0.005   2.695  0.3858 -0.3955 -0.0889
 6654SOL    HW131421   4.188   0.024   2.703 -0.0880  1.6825  0.4765
 6654SOL    HW231422   4.099   4.638   2.674  0.5145 -0.6214  0.9258
 6655SOL     OW31423   0.054   2.636   2.923  0.2770 -0.3092  0.2975
 6655SOL    HW131424   0.033   2.718   2.969  0.5053  0.5128 -1.0706
 6655SOL    HW231425   0.122   2.663   2.861 -0.1012  0.9328  0.4240
 6656SOL     OW31426   2.404   3.159  13.782  0.3343  0.6183 -0.3501
 6656SOL    HW131427   2.312   3.185  13.782  1.1306  3.5061 -0.9361
 6656SOL    HW231428   2.404   3.078  13.832  0.0281 -1.1714 -3.2229
 6657SOL     OW31429   1.507   4.660   9.099  0.4827 -0.3966 -0.3606
 6657SOL    HW131430   1.495   4.565   9.102  0.2073 -0.4085 -1.6827
 6657SOL    HW231431   1.571   4.656   9.028 -0.0410 -1.9854 -0.7360
 6658SOL     OW31432   0.159   0.678  17.546  0.2378 -0.1804  0.7245
 6658SOL    HW131433   0.088   0.640  17.599 -1.8747  1.1227 -1.1503
 6658SOL    HW231434   0.213   0.599  17.552 -1.5672 -1.2668  2.9351
 6659SOL     OW31435   0.496   2.881   6.660 -0.2976 -0.6600 -0.5171
 6659SOL    HW131436   0.411   2.840   6.641 -0.4800 -0.0685 -0.9818
 6659SOL    HW231437   0.529   2.893   6.571 -1.3376  1.7844 -0.5701
 6660SOL     OW31438   4.636   3.108  15.297  0.3281 -0.0146 -0.0814
 6660SOL    HW131439   4.650   3.101  15.391 -0.2163  0.8733  0.0624
 6660SOL    HW231440   4.676   3.029  15.260  0.7945  0.0993  0.1758
 6661SOL     OW31441   0.856   0.406   0.998 -0.4552 -0.1189  0.0336
 6661SOL    HW131442   0.881   0.469   1.066 -2.4217  1.8417 -1.0373
 6661SOL    HW231443   0.781   0.443   0.951  0.5428 -0.1196 -1.5618
 6662SOL     OW31444   3.980   2.740   4.561 -0.5323  0.2216 -0.3238
 6662SOL    HW131445   3.918   2.808   4.537 -0.3611  0.8059  0.8954
 6662SOL    HW231446   3.939   2.689   4.631 -0.5350 -1.4178 -1.5136
 6663SOL     OW31447   3.954   1.944   7.636  0.0161 -0.2535  0.4398
 6663SOL    HW131448   3.864   1.975   7.647 -0.6021 -1.0932 -2.1514
 6663SOL    HW231449   3.925   1.880   7.570 -0.8611  1.6877 -1.0517
 6664SOL     OW31450   4.288   0.461   6.856 -0.2917 -0.7846 -0.5399
 6664SOL    HW131451   4.196   0.486   6.866  0.1329  0.0367  1.3575
 6664SOL    HW231452   4.286   0.366   6.865 -0.7939 -0.7818 -0.6267
 6665SOL     OW31453   4.583   1.014   4.700  0.1872  0.1395  0.1793
 6665SOL    HW131454   4.519   0.950   4.731 -0.9813  0.7738 -0.9396
 6665SOL    HW231455   4.667   0.970   4.712  0.2495  0.2995  0.3379
 6666SOL     OW31456   1.135   2.373   2.505 -0.8093 -0.2865 -0.2271
 6666SOL    HW131457   1.120   2.461   2.470  0.7942  0.7835  1.8145
 6666SOL    HW231458   1.050   2.329   2.496 -0.7592 -0.1892 -1.1739
 6667SOL     OW31459   3.771   3.907  10.052  0.4704 -0.4071 -0.2210
 6667SOL    HW131460   3.697   3.962  10.077  0.0489 -0.8781 -0.4280
 6667SOL    HW231461   3.778   3.930   9.959 -0.3019  0.3953 -0.0817
 6668SOL     OW31462   3.569   1.691  11.359  0.2681  0.2902 -0.1791
 6668SOL    HW131463   3.627   1.620  11.385  0.3339  0.6870  0.7649
 6668SOL    HW231464   3.512   1.649  11.294  1.2965  0.5908 -1.2792
 6669SOL     OW31465   4.265   1.659   6.543 -0.3029 -0.7408 -0.4019
 6669SOL    HW131466   4.339   1.714   6.518 -2.3610  2.0118 -0.4527
 6669SOL    HW231467   4.290   1.628   6.630 -0.1715  1.7213  0.4172
 6670SOL     OW31468   1.591   1.997  16.744  0.3493 -0.3998  0.1935
 6670SOL    HW131469   1.526   2.059  16.779  1.5063  0.8979  0.0618
 6670SOL    HW231470   1.541   1.919  16.719 -2.8956  0.9552  2.4543
 6671SOL     OW31471   0.861   3.369   2.080 -0.0144  0.0607  0.0284
 6671SOL    HW131472   0.766   3.353   2.086 -0.6491  3.5492 -0.5772
 6671SOL    HW231473   0.866   3.465   2.072  1.8941 -0.1922 -1.7912
 6672SOL     OW31474   0.094   3.226   6.413 -0.1570  0.3740  0.6186
 6672SOL    HW131475   0.086   3.290   6.484  0.9488  0.6186  0.5196
 6672SOL    HW231476   0.188   3.226   6.399 -0.1444 -0.3853  0.7429
 6673SOL     OW31477   3.243   0.400   5.570  0.0925 -0.6168 -0.1322
 6673SOL    HW131478   3.287   0.335   5.515 -2.9202 -0.7174 -2.4005
 6673SOL    HW231479   3.173   0.429   5.511  1.9856  2.6348 -0.8246
 6674SOL     OW31480   1.415   1.820   4.069  0.2488 -0.5624 -0.2367
 6674SOL    HW131481   1.359   1.744   4.055 -1.1016  0.8348 -2.4927
 6674SOL    HW231482   1.499   1.782   4.096 -0.0306 -0.3375  0.9508
 6675SOL     OW31483   2.947   3.784  17.022 -0.2465  1.1271 -0.0906
 6675SOL    HW131484   2.916   3.836  16.948 -0.4185  0.6291 -0.3712
 6675SOL    HW231485   2.985   3.850  17.080 -0.0403  0.9826 -0.0610
 6676SOL     OW31486   2.179   0.786  14.656  0.6011 -0.9194 -0.2129
 6676SOL    HW131487   2.180   0.717  14.589  0.4467  0.5074 -1.6874
 6676SOL    HW231488   2.114   0.753  14.718  0.3906 -1.5000 -0.7435
 6677SOL     OW31489   3.264   4.105   7.646 -0.0551 -0.0271  0.1802
 6677SOL    HW131490   3.200   4.156   7.695 -0.5307 -1.2193  0.8073
 6677SOL    HW231491   3.200   4.045   7.606  0.1755  0.2125 -0.5607
 6678SOL     OW31492   2.776   2.538   9.516  0.7013  0.4076  0.2854
 6678SOL    HW131493   2.745   2.512   9.603 -0.0743  0.4096  0.0164
 6678SOL    HW231494   2.809   2.452   9.493  2.1498  1.2384 -0.7488
 6679SOL     OW31495   0.318   2.759   6.042  0.0690 -0.3914  0.3917
 6679SOL    HW131496   0.329   2.697   6.114  1.4549  0.2793  0.7506
 6679SOL    HW231497   0.340   2.701   5.969 -1.2234  0.0063 -0.3275
 6680SOL     OW31498   3.629   3.492   4.974 -0.8398  0.2461  0.1216
 6680SOL    HW131499   3.703   3.437   4.949  1.4456  3.2013  0.4435
 6680SOL    HW231500   3.597   3.447   5.053 -1.1317  1.4342  0.6776
 6681SOL     OW31501   2.002   3.435   0.451 -0.1502  0.2979  0.5558
 6681SOL    HW131502   1.924   3.424   0.505 -0.9193  1.7465 -0.2510
 6681SOL    HW231503   2.068   3.384   0.499 -0.3533 -1.7505 -1.3168
 6682SOL     OW31504   1.781   2.850  16.578 -0.1222 -0.0147 -0.5088
 6682SOL    HW131505   1.756   2.841  16.670 -0.8413  1.2750 -0.5916
 6682SOL    HW231506   1.876   2.839  16.584 -0.4237 -2.4957 -0.0624
 6683SOL     OW31507   2.824   3.489   6.081  0.3261 -0.3072  0.3005
 6683SOL    HW131508   2.784   3.557   6.136  2.3522  0.9114  0.2586
 6683SOL    HW231509   2.782   3.499   5.996  0.7275 -1.1741  0.0029
 6684SOL     OW31510   2.310   0.041  15.676  0.2872 -0.3895  0.7832
 6684SOL    HW131511   2.272   0.038  15.764 -3.8908 -1.7255 -1.0646
 6684SOL    HW231512   2.352   0.126  15.669 -1.3407  0.3793  0.2955
 6685SOL     OW31513   2.566   1.219   4.311 -0.2630  0.3489  0.0844
 6685SOL    HW131514   2.611   1.292   4.354  1.3496 -0.5240 -0.0972
 6685SOL    HW231515   2.563   1.246   4.219 -2.9746 -3.2973 -0.8844
 6686SOL     OW31516   1.825   4.157   0.058 -0.1600  0.2159 -0.3439
 6686SOL    HW131517   1.799   4.147  17.675  1.6872  0.5447 -0.9133
 6686SOL    HW231518   1.750   4.126   0.109 -0.4843 -0.9143 -1.5165
 6687SOL     OW31519   1.677   4.308   5.091  0.1082 -0.2568  0.6417
 6687SOL    HW131520   1.585   4.323   5.073 -0.1709 -2.0461  0.5469
 6687SOL    HW231521   1.705   4.251   5.019  0.8369  0.6018  0.2402
 6688SOL     OW31522   0.136   1.516   3.879 -0.3763 -0.0419 -0.0172
 6688SOL    HW131523   0.177   1.586   3.930 -1.0559 -2.5773  4.0354
 6688SOL    HW231524   0.212   1.471   3.842 -0.4206 -0.2127  0.0988
 6689SOL     OW31525   4.688   1.557   6.892 -0.2536 -0.8112  0.7130
 6689SOL    HW131526   4.706   1.512   6.810  2.7352 -0.9337  1.4617
 6689SOL    HW231527   4.676   1.484   6.952 -0.8118 -0.0259  1.5500
 6690SOL     OW31528   1.892   4.116   8.536 -0.0983  0.1831 -0.1692
 6690SOL    HW131529   1.937   4.200   8.528 -0.8906  0.5273 -0.9499
 6690SOL    HW231530   1.953   4.055   8.495  2.3996  1.3516  1.7291
 6691SOL     OW31531   3.922   1.084   7.735 -0.1021 -0.3029  0.0917
 6691SOL    HW131532   4.018   1.086   7.730 -0.1469  0.0137 -0.6234
 6691SOL    HW231533   3.899   1.146   7.665 -0.9957 -0.7953 -0.0438
 6692SOL     OW31534   0.581   2.093  17.030  0.0075  0.3346  0.1468
 6692SOL    HW131535   0.667   2.067  17.064 -1.0814 -1.3545  1.6140
 6692SOL    HW231536   0.595   2.187  17.023 -2.2383  0.6328 -0.2329
 6693SOL     OW31537   1.176   4.068   8.315 -0.3380 -0.1221 -0.3557
 6693SOL    HW131538   1.138   4.029   8.236 -0.6686  0.9314 -0.7154
 6693SOL    HW231539   1.258   4.018   8.316  0.6198  1.4663  0.2898
 6694SOL     OW31540   0.027   1.887  12.452 -0.7113 -0.2316  0.4572
 6694SOL    HW131541   4.664   1.858  12.438  0.5494 -3.7862 -0.2033
 6694SOL    HW231542   0.001   1.979  12.460  0.4289  0.2068 -0.9242
 6695SOL     OW31543   0.732   4.468  15.429  1.1737 -0.0475  0.3942
 6695SOL    HW131544   0.748   4.522  15.352  0.1860 -0.6968 -0.2755
 6695SOL    HW231545   0.705   4.541  15.485  0.6938  1.0393 -1.2628
 6696SOL     OW31546   0.818   1.369   3.802 -0.0931 -0.2032 -0.1527
 6696SOL    HW131547   0.874   1.446   3.813 -1.0802  0.2204  1.7484
 6696SOL    HW231548   0.760   1.415   3.741  1.5659  1.5908 -0.3831
 6697SOL     OW31549   3.676   3.182  13.544  0.3439  0.0920 -0.1544
 6697SOL    HW131550   3.739   3.186  13.615  1.3183 -1.7523 -0.9207
 6697SOL    HW231551   3.619   3.256  13.566 -2.0092 -1.7012 -0.1373
 6698SOL     OW31552   0.543   3.044   3.392  0.3304 -0.4828 -0.5279
 6698SOL    HW131553   0.487   3.035   3.470 -2.5641 -0.8698 -2.6283
 6698SOL    HW231554   0.571   3.135   3.403  2.3847 -1.3556  1.5275
 6699SOL     OW31555   2.113   4.361   8.902 -0.1969  0.5659  0.5884
 6699SOL    HW131556   2.196   4.361   8.854 -1.5903 -1.9291 -1.7849
 6699SOL    HW231557   2.055   4.314   8.843  0.1541 -2.6319  2.7484
 6700SOL     OW31558   1.300   2.413   1.985  0.2108 -0.2623  0.2499
 6700SOL    HW131559   1.309   2.502   2.020 -0.3187  0.1074 -0.5378
 6700SOL    HW231560   1.383   2.412   1.938  0.0904 -0.4706  0.0426
 6701SOL     OW31561   3.628   2.525   7.715  0.4993 -0.1690  0.1490
 6701SOL    HW131562   3.650   2.460   7.782  3.4488  1.5133  0.8174
 6701SOL    HW231563   3.553   2.480   7.677  1.1095 -1.6457  0.6757
 6702SOL     OW31564   4.056   1.130   8.697  0.0581 -0.5356 -0.2448
 6702SOL    HW131565   4.049   1.035   8.690  2.9778 -0.6754 -1.5826
 6702SOL    HW231566   4.021   1.147   8.784 -0.3076 -0.1144 -0.4724
 6703SOL     OW31567   4.511   3.610   3.701  0.6340  0.2664  0.0693
 6703SOL    HW131568   4.557   3.631   3.620 -1.5368 -2.1200 -1.7847
 6703SOL    HW231569   4.476   3.695   3.726  2.2334  1.5763 -2.2511
 6704SOL     OW31570   3.386   1.896   2.747 -0.6170  0.4920  0.0052
 6704SOL    HW131571   3.402   1.843   2.825 -0.8199 -0.6600 -0.7417
 6704SOL    HW231572   3.290   1.896   2.740 -0.6515  1.2110  0.4776
 6705SOL     OW31573   1.126   2.517  13.736 -0.0146 -0.1535 -0.2791
 6705SOL    HW131574   1.137   2.514  13.641  0.9742 -0.4142 -0.1598
 6705SOL    HW231575   1.047   2.466  13.753 -0.1908  0.6055  1.2384
 6706SOL     OW31576   0.736   2.645   9.058 -0.4338  0.1155 -0.0996
 6706SOL    HW131577   0.649   2.612   9.037 -0.4030  1.0093 -1.6284
 6706SOL    HW231578   0.787   2.566   9.042 -0.5865  0.1031 -0.5277
 6707SOL     OW31579   3.712   0.535   1.896 -0.1569  0.2646  1.0992
 6707SOL    HW131580   3.691   0.444   1.916  1.8147 -0.2522  0.8384
 6707SOL    HW231581   3.633   0.587   1.913 -0.7215 -0.8671  1.8880
 6708SOL     OW31582   3.135   2.778  10.541  0.5000  0.5292 -0.6427
 6708SOL    HW131583   3.131   2.690  10.503  0.4327  0.5450 -0.6742
 6708SOL    HW231584   3.218   2.770  10.587 -0.7762 -1.3429  1.3521
 6709SOL     OW31585   1.847   3.455   5.539 -0.1112  0.5189  0.3201
 6709SOL    HW131586   1.783   3.429   5.605 -0.0076 -1.3689 -0.3470
 6709SOL    HW231587   1.909   3.383   5.538 -1.7512 -0.8767 -1.2753
 6710SOL     OW31588   2.582   4.009  14.363 -0.4901  0.7182  0.3951
 6710SOL    HW131589   2.620   4.094  14.383 -1.2149  0.6572  1.9866
 6710SOL    HW231590   2.612   3.995  14.273 -2.9405 -0.2065 -0.2716
 6711SOL     OW31591   0.605   0.710   4.338 -0.0558  0.7037 -0.4442
 6711SOL    HW131592   0.538   0.737   4.400  0.0683  0.5262 -0.2315
 6711SOL    HW231593   0.637   0.623   4.362  0.2491  0.3992 -1.9603
 6712SOL     OW31594   0.164   1.713  11.307  0.0889  0.2876 -0.3288
 6712SOL    HW131595   0.152   1.626  11.269 -1.2586  0.3959 -0.1400
 6712SOL    HW231596   0.085   1.724  11.359  1.2458  1.6460  1.1623
 6713SOL     OW31597   2.872   0.037   3.851  0.0847 -0.3926 -0.4791
 6713SOL    HW131598   2.784   0.042   3.888  0.6809 -1.4690  1.0593
 6713SOL    HW231599   2.909   4.691   3.900  0.5421  1.2345  1.6020
 6714SOL     OW31600   4.472   0.653   7.876  0.0508  0.5158  0.1149
 6714SOL    HW131601   4.566   0.635   7.863  0.1021  0.2683  0.8760
 6714SOL    HW231602   4.446   0.562   7.882 -1.6773  1.1404  1.8098
 6715SOL     OW31603   4.116   2.024   5.387  0.1267  0.6133  0.2055
 6715SOL    HW131604   4.211   2.030   5.396 -0.0457  0.2398  2.2759
 6715SOL    HW231605   4.110   2.044   5.293 -2.8679  1.6495  0.5989
 6716SOL     OW31606   1.453   2.985   8.315 -0.7999 -0.3401  0.7250
 6716SOL    HW131607   1.360   2.976   8.336 -0.7714  1.4202  1.6244
 6716SOL    HW231608   1.460   3.041   8.238  1.0573 -0.4541  0.8074
 6717SOL     OW31609   0.696   1.936   0.118  0.4917  0.1216  0.0736
 6717SOL    HW131610   0.705   1.906   0.027 -1.2608  1.8517 -0.6730
 6717SOL    HW231611   0.785   1.968   0.129  1.0447 -0.7469 -1.8399
 6718SOL     OW31612   2.216   4.111   7.813  0.0596 -0.1081  0.2034
 6718SOL    HW131613   2.124   4.115   7.840  0.0351 -1.1392  0.2772
 6718SOL    HW231614   2.211   4.061   7.732 -1.4130 -1.1975  0.9545
 6719SOL     OW31615   3.198   2.587   2.784 -0.0866 -0.0050 -0.0307
 6719SOL    HW131616   3.237   2.517   2.731  2.6842 -0.0693  2.0991
 6719SOL    HW231617   3.110   2.592   2.747  0.9822  1.0640 -2.4103
 6720SOL     OW31618   0.225   1.955  16.504 -0.0564 -0.3354  0.2186
 6720SOL    HW131619   0.208   2.045  16.475  0.6039 -1.1980 -2.7561
 6720SOL    HW231620   0.154   1.950  16.569 -0.3903 -1.9494 -0.2806
 6721SOL     OW31621   3.139   3.576   6.272 -0.4316 -0.1151  0.1526
 6721SOL    HW131622   3.187   3.508   6.225  0.9412  1.1269 -0.2576
 6721SOL    HW231623   3.198   3.585   6.347  0.0228  1.4488 -0.4031
 6722SOL     OW31624   3.835   2.876   8.480  0.0867 -0.2982 -0.6323
 6722SOL    HW131625   3.827   2.941   8.411 -2.2472 -0.2839 -0.3661
 6722SOL    HW231626   3.930   2.865   8.486  0.2436  2.1257  1.6934
 6723SOL     OW31627   1.907   3.272   5.842 -0.2405 -0.4147 -0.1075
 6723SOL    HW131628   1.942   3.325   5.913  0.4367 -1.1513  0.1017
 6723SOL    HW231629   1.818   3.266   5.878 -0.0232  1.1571  0.6711
 6724SOL     OW31630   2.294   3.703  17.013 -0.4730 -0.2974  0.2239
 6724SOL    HW131631   2.298   3.631  16.950 -1.7917 -3.7779  4.1103
 6724SOL    HW231632   2.374   3.688  17.063 -1.6037  1.2634  2.5032
 6725SOL     OW31633   2.091   4.228   0.918 -0.1659 -0.0697 -0.1538
 6725SOL    HW131634   2.093   4.250   1.011  0.2982 -0.7881  0.0014
 6725SOL    HW231635   2.006   4.261   0.889  1.0492  2.1699 -1.1957
 6726SOL     OW31636   3.058   1.163   5.950 -0.1126  0.0346 -0.4192
 6726SOL    HW131637   2.968   1.140   5.972 -0.1338 -1.6906 -2.2619
 6726SOL    HW231638   3.092   1.075   5.932 -1.7157 -0.7346  0.2948
 6727SOL     OW31639   3.145   4.087   2.719  0.1601 -0.2050 -0.5640
 6727SOL    HW131640   3.127   4.079   2.812  3.7420  1.6482  0.3167
 6727SOL    HW231641   3.094   4.166   2.704 -0.3117 -0.5318 -0.6653
 6728SOL     OW31642   1.072   1.438   7.441 -0.5142 -0.6986  0.5906
 6728SOL    HW131643   1.002   1.495   7.409  2.2948  1.8318 -0.9882
 6728SOL    HW231644   1.152   1.491   7.444 -0.7270 -0.2034 -2.2078
 6729SOL     OW31645   0.152   3.334   3.596  0.2554 -0.3841  0.0500
 6729SOL    HW131646   0.128   3.411   3.648 -2.8942 -2.7524  2.0618
 6729SOL    HW231647   0.247   3.345   3.592  0.1313 -0.0040 -1.7054
 6730SOL     OW31648   0.291   4.085   3.673  0.4672 -0.6890 -0.7354
 6730SOL    HW131649   0.359   4.150   3.690 -0.8563  0.9311 -1.5482
 6730SOL    HW231650   0.347   4.024   3.626 -0.0856 -0.7618 -1.3097
 6731SOL     OW31651   1.686   4.165   4.838 -0.0105  0.2379  0.7919
 6731SOL    HW131652   1.735   4.179   4.757 -2.8785  0.3785 -0.9508
 6731SOL    HW231653   1.609   4.111   4.820  1.0935 -1.5961  1.6179
 6732SOL     OW31654   2.114   3.047   0.065  0.2906  0.3671 -0.0504
 6732SOL    HW131655   2.209   3.045   0.073  0.3260 -1.6147 -1.0238
 6732SOL    HW231656   2.086   3.113   0.129 -0.2901 -0.1684  0.2426
 6733SOL     OW31657   4.543   4.671   3.618 -0.0317  0.0102 -0.1293
 6733SOL    HW131658   4.558   4.715   3.534  0.3307 -0.1334 -0.1381
 6733SOL    HW231659   4.621   4.701   3.665  0.2181 -0.9138  0.0541
 6734SOL     OW31660   2.533   3.044   2.989 -0.3671 -0.3574  0.3032
 6734SOL    HW131661   2.513   3.008   3.076  1.5001 -1.0676  0.4366
 6734SOL    HW231662   2.469   3.007   2.928 -1.3083  3.2909 -0.9237
 6735SOL     OW31663   1.539   0.510   6.111 -0.2511  0.2702 -0.6803
 6735SOL    HW131664   1.500   0.573   6.051 -1.2666 -0.1268 -0.4479
 6735SOL    HW231665   1.530   0.434   6.053  0.2785 -1.3488  1.3139
 6736SOL     OW31666   3.702   1.942  11.367 -0.2857 -0.2679 -0.6611
 6736SOL    HW131667   3.611   1.917  11.387  0.7546 -2.8251  0.7585
 6736SOL    HW231668   3.744   1.868  11.410  0.2626 -0.9147 -2.2978
 6737SOL     OW31669   3.928   2.298   7.615 -0.0089  0.2981 -0.0235
 6737SOL    HW131670   3.889   2.303   7.702  0.6733 -0.6663  0.3442
 6737SOL    HW231671   3.849   2.286   7.562 -0.8079  0.0730  1.2315
 6738SOL     OW31672   2.277   1.215   7.234 -0.6400  0.1441 -0.1041
 6738SOL    HW131673   2.216   1.169   7.293 -1.1598 -0.3902 -1.0579
 6738SOL    HW231674   2.279   1.302   7.272 -3.8378  0.3638 -0.4737
 6739SOL     OW31675   0.330   2.026   8.652  0.1749 -0.2046 -0.3167
 6739SOL    HW131676   0.331   1.984   8.566  0.0839 -2.0393  0.5856
 6739SOL    HW231677   0.347   1.948   8.706  0.1544 -0.0861 -0.1391
 6740SOL     OW31678   2.529   0.672   5.954 -0.1609  0.7610 -0.5433
 6740SOL    HW131679   2.596   0.655   6.020  1.2659  3.3335 -1.3517
 6740SOL    HW231680   2.453   0.628   5.992  2.0476 -1.6484  1.0645
 6741SOL     OW31681   0.811   0.423   9.812 -0.4641 -0.1404 -0.9778
 6741SOL    HW131682   0.719   0.443   9.829  0.1377  1.7756 -0.1000
 6741SOL    HW231683   0.827   0.352   9.874  1.3042 -0.9076 -2.3092
 6742SOL     OW31684   2.799   2.242  11.563  0.2891  0.1084  0.0598
 6742SOL    HW131685   2.781   2.174  11.628 -0.7698  0.8381  0.5268
 6742SOL    HW231686   2.877   2.199  11.527  0.1354  0.6014 -0.8783
 6743SOL     OW31687   3.354   4.053   4.994 -0.6994  0.3176  1.1074
 6743SOL    HW131688   3.413   3.978   4.985 -0.7687  0.4139 -0.0691
 6743SOL    HW231689   3.414   4.128   5.001  1.5752 -1.1744 -2.1917
 6744SOL     OW31690   0.203   2.894   5.588 -0.0385  0.1575 -0.4222
 6744SOL    HW131691   0.178   2.893   5.680 -1.1487 -2.2065 -0.7473
 6744SOL    HW231692   0.247   2.810   5.580 -2.2669 -1.0359 -0.1784
 6745SOL     OW31693   0.364   2.828   3.350 -0.0655 -0.5175  0.1946
 6745SOL    HW131694   0.318   2.846   3.267 -3.2856 -2.2702  1.6039
 6745SOL    HW231695   0.400   2.744   3.324 -2.2223 -1.4277  0.1772
 6746SOL     OW31696   2.222   3.447   3.477  0.6340  0.1548 -0.4835
 6746SOL    HW131697   2.269   3.525   3.446 -0.2636  0.6608 -0.5772
 6746SOL    HW231698   2.162   3.426   3.406  0.0882  0.0961 -0.0027
 6747SOL     OW31699   3.164   1.443  17.322  0.3625  0.2187 -0.5738
 6747SOL    HW131700   3.137   1.500  17.394  0.8962 -0.1005 -0.1215
 6747SOL    HW231701   3.207   1.508  17.267 -0.2153  1.9971  1.0594
 6748SOL     OW31702   2.171   0.832   7.936 -0.6012 -0.0670  0.4932
 6748SOL    HW131703   2.101   0.827   7.870 -0.3163 -1.1242  0.2781
 6748SOL    HW231704   2.192   0.739   7.943  0.4285  0.2314  1.2827
 6749SOL     OW31705   0.075   3.716   4.846 -0.4063 -0.2294  0.0208
 6749SOL    HW131706   0.072   3.624   4.874 -0.2341  0.0269  0.8512
 6749SOL    HW231707   0.128   3.701   4.767 -1.9363 -0.8018 -0.9161
 6750SOL     OW31708   1.694   1.409   2.935 -0.1807  0.1291 -0.1688
 6750SOL    HW131709   1.732   1.321   2.931 -2.3779 -0.8713  0.5617
 6750SOL    HW231710   1.682   1.431   2.843  0.7277  0.6218 -0.1667
 6751SOL     OW31711   1.457   0.448   6.578 -0.1478 -0.3354 -0.1784
 6751SOL    HW131712   1.365   0.473   6.575  0.6494  2.5674 -0.4901
 6751SOL    HW231713   1.495   0.536   6.587 -0.6369 -0.0076 -1.3675
 6752SOL     OW31714   1.345   3.995  13.049 -0.0542  0.6486  0.0532
 6752SOL    HW131715   1.367   4.053  13.122 -0.2638  0.1206  0.5357
 6752SOL    HW231716   1.421   4.004  12.992 -0.2005 -2.1169 -0.5868
 6753SOL     OW31717   0.163   0.604   7.406 -0.4335 -0.2765 -1.2047
 6753SOL    HW131718   0.204   0.688   7.384 -0.0262  0.0897  0.9366
 6753SOL    HW231719   0.242   0.554   7.384  0.2120  0.3007 -0.2159
 6754SOL     OW31720   4.248   4.366   6.828  0.3224  0.2363 -0.1924
 6754SOL    HW131721   4.266   4.379   6.734 -0.1196 -1.1193 -0.4566
 6754SOL    HW231722   4.290   4.282   6.841 -0.5976 -0.3242 -0.8584
 6755SOL     OW31723   0.318   0.664   9.112 -0.3725 -0.8022  0.8817
 6755SOL    HW131724   0.284   0.586   9.156  1.2420 -2.2100 -0.3534
 6755SOL    HW231725   0.238   0.714   9.098  0.6627 -0.2452 -3.0216
 6756SOL     OW31726   0.235   2.666   3.602  0.3134  0.2612 -0.6368
 6756SOL    HW131727   0.309   2.726   3.586 -0.9698  1.4314 -2.2147
 6756SOL    HW231728   0.190   2.723   3.664 -0.4176 -0.6385 -0.3506
 6757SOL     OW31729   0.528   2.137   7.066 -0.0583  0.2076  0.7968
 6757SOL    HW131730   0.563   2.199   7.130 -0.5257  2.3128 -0.9615
 6757SOL    HW231731   0.479   2.079   7.124 -0.0391 -0.7777 -0.1734
 6758SOL     OW31732   0.351   2.747   7.097 -0.1976  0.3457 -0.0296
 6758SOL    HW131733   0.412   2.707   7.159  0.1178 -0.3788 -0.8023
 6758SOL    HW231734   0.289   2.782   7.160  2.0170  2.5400  0.9272
 6759SOL     OW31735   1.765   3.729   3.199  0.0142 -0.8234 -0.0963
 6759SOL    HW131736   1.736   3.818   3.221  1.5404 -0.3926  0.1474
 6759SOL    HW231737   1.714   3.710   3.121 -0.1497 -2.5979  0.4485
 6760SOL     OW31738   2.867   1.072   6.111 -0.3403  0.3146 -0.1906
 6760SOL    HW131739   2.812   1.142   6.146 -0.2017 -0.1198  0.9008
 6760SOL    HW231740   2.869   1.009   6.184  1.3485  0.9880  0.3403
 6761SOL     OW31741   2.083   0.540   4.353  0.4473 -0.4507 -0.3585
 6761SOL    HW131742   1.996   0.519   4.318 -1.1203  0.8955  2.7587
 6761SOL    HW231743   2.092   0.630   4.323 -0.3581  0.0667  1.0007
 6762SOL     OW31744   3.796   2.950   3.045  0.1920 -0.0118 -0.7991
 6762SOL    HW131745   3.828   2.871   3.089 -2.4157  0.4724  1.9647
 6762SOL    HW231746   3.703   2.931   3.036  0.3724 -1.3253  0.1187
 6763SOL     OW31747   3.761   1.021   5.101 -0.3488 -0.7028  0.4494
 6763SOL    HW131748   3.731   0.951   5.159 -0.5182  0.7895  2.1546
 6763SOL    HW231749   3.787   1.090   5.162 -2.4624 -1.1005  1.8148
 6764SOL     OW31750   2.875   1.809   2.311  0.3128 -0.1091 -0.3319
 6764SOL    HW131751   2.914   1.729   2.347  0.2026  0.1693  0.4057
 6764SOL    HW231752   2.952   1.861   2.292  0.5818 -1.2266 -2.3425
 6765SOL     OW31753   2.669   2.181  15.049  0.1742 -0.5242 -0.3955
 6765SOL    HW131754   2.736   2.191  15.117 -2.9949 -0.1803  2.7279
 6765SOL    HW231755   2.717   2.199  14.969 -0.7845  0.4706 -0.7427
 6766SOL     OW31756   3.105   3.470   3.786 -0.1805 -0.0907  0.8912
 6766SOL    HW131757   3.161   3.467   3.863  0.0099 -0.9509  0.7174
 6766SOL    HW231758   3.134   3.390   3.743 -2.1108  0.0353 -0.7175
 6767SOL     OW31759   3.164   1.917   4.065 -0.2170  0.4209  0.0443
 6767SOL    HW131760   3.245   1.906   4.114  1.3627  3.3198 -1.9268
 6767SOL    HW231761   3.200   1.914   3.977 -0.9157 -0.2720 -0.2222
 6768SOL     OW31762   1.033   0.004   5.325  0.0288 -0.2380  0.0634
 6768SOL    HW131763   1.085   0.052   5.388 -1.2319 -0.1383  1.0257
 6768SOL    HW231764   1.102   4.720   5.259 -0.4717  1.5572 -0.7290
 6769SOL     OW31765   4.661   4.162   3.120  0.3574  0.2475 -0.1520
 6769SOL    HW131766   4.714   4.194   3.047  0.4502 -1.0671 -0.6517
 6769SOL    HW231767   4.609   4.236   3.152  0.9918  0.4723  0.3548
 6770SOL     OW31768   2.139   0.092   7.994  0.1159 -0.0928  0.0623
 6770SOL    HW131769   2.189   0.152   8.049  1.6179 -0.7849 -0.5528
 6770SOL    HW231770   2.093   0.033   8.055 -0.4926  1.0487  0.7192
 6771SOL     OW31771   2.472   4.417  13.245 -0.3303  0.2563 -0.2062
 6771SOL    HW131772   2.386   4.391  13.280 -0.2662 -1.0919 -1.0340
 6771SOL    HW231773   2.493   4.490  13.303  3.2285 -0.7172 -0.3162
 6772SOL     OW31774   3.757   3.875   2.172  0.6518 -0.2752 -0.2632
 6772SOL    HW131775   3.834   3.895   2.120  2.0826 -2.7693  0.9069
 6772SOL    HW231776   3.691   3.917   2.116  0.1085  1.3719  1.5902
 6773SOL     OW31777   3.831   3.672   2.664 -0.3472  0.2052 -0.4309
 6773SOL    HW131778   3.876   3.754   2.647  1.2396 -0.2731  1.4892
 6773SOL    HW231779   3.790   3.657   2.579  0.7947 -0.1823 -0.9139
 6774SOL     OW31780   1.740   4.110  11.047 -0.0279  0.0735  0.2412
 6774SOL    HW131781   1.819   4.065  11.016  1.8646  1.5093  2.9255
 6774SOL    HW231782   1.761   4.203  11.052 -2.0911  0.5248  0.5904
 6775SOL     OW31783   0.989   3.250  12.404  0.3366 -0.3311 -0.0415
 6775SOL    HW131784   0.984   3.295  12.319 -0.1913  1.9019  1.1697
 6775SOL    HW231785   1.084   3.245  12.397  0.3550 -0.5508  0.4223
 6776SOL     OW31786   2.976   2.548   1.568  0.3491 -0.4117  0.9042
 6776SOL    HW131787   2.970   2.636   1.604 -0.7324 -0.4116  0.7059
 6776SOL    HW231788   2.942   2.558   1.480 -2.0920  1.7302  2.0951
 6777SOL     OW31789   4.000   1.643  16.718 -0.0526 -0.2945  0.3471
 6777SOL    HW131790   4.009   1.734  16.747 -1.0857 -0.8502  2.4049
 6777SOL    HW231791   4.027   1.652  16.626 -0.9328 -0.4837  0.0673
 6778SOL     OW31792   2.075   2.116   5.284 -0.2162  0.2616 -0.0644
 6778SOL    HW131793   2.069   2.195   5.230  1.2204 -1.3128 -2.4979
 6778SOL    HW231794   2.093   2.051   5.216  1.1322  0.0815  0.4823
 6779SOL     OW31795   3.668   2.842   2.657 -0.2604 -0.7420  0.4892
 6779SOL    HW131796   3.612   2.778   2.700 -0.7764  1.3336  2.9176
 6779SOL    HW231797   3.635   2.925   2.691  1.0464 -0.0231 -0.0172
 6780SOL     OW31798   3.988   2.737  13.205  0.2226  0.6132 -0.0129
 6780SOL    HW131799   4.056   2.681  13.242 -1.4130 -0.7918  0.8520
 6780SOL    HW231800   4.008   2.819  13.249 -0.2242  0.3515  0.6759
 6781SOL     OW31801   1.410   2.101  11.156 -0.2250 -0.3238  0.1601
 6781SOL    HW131802   1.424   2.016  11.116 -0.9017  0.7924 -2.4076
 6781SOL    HW231803   1.321   2.099  11.190 -0.5468 -1.1038 -0.7659
 6782SOL     OW31804   0.855   4.698   1.290 -0.3323  0.1202 -0.0266
 6782SOL    HW131805   0.885   4.649   1.213 -0.6680 -1.7447  1.0339
 6782SOL    HW231806   0.816   4.624   1.335  0.6914 -2.2269 -2.9610
 6783SOL     OW31807   0.222   3.493   5.474  0.3465 -0.8931 -0.5900
 6783SOL    HW131808   0.220   3.401   5.447  1.4076 -0.9872 -0.3319
 6783SOL    HW231809   0.236   3.488   5.568  1.2482 -2.7299 -0.8175
 6784SOL     OW31810   0.911   0.988   9.894  0.2422  0.1654 -0.5499
 6784SOL    HW131811   0.936   1.077   9.872 -1.0194  0.6767  0.0675
 6784SOL    HW231812   0.815   0.988   9.896  0.2308  1.7692 -2.0996
 6785SOL     OW31813   1.274   2.183   2.387 -0.0856  0.3452  0.5421
 6785SOL    HW131814   1.367   2.208   2.384 -0.5835  2.0968 -0.2450
 6785SOL    HW231815   1.229   2.255   2.431  0.6707  1.7552 -0.9728
 6786SOL     OW31816   4.125   4.651   3.076 -0.5278  0.1099  0.4446
 6786SOL    HW131817   4.134   4.619   2.987  0.1603 -1.2718  1.0001
 6786SOL    HW231818   4.189   4.596   3.122 -0.2822 -0.5959 -0.7547
 6787SOL     OW31819   0.422   0.871   2.509 -0.0190 -0.0674 -0.6528
 6787SOL    HW131820   0.447   0.959   2.482 -2.1404  0.6671 -0.1893
 6787SOL    HW231821   0.448   0.875   2.601  0.7549  0.4244 -0.8872
 6788SOL     OW31822   1.597   3.013  11.420  0.4361  0.0466 -0.4674
 6788SOL    HW131823   1.673   3.040  11.472  0.8637  0.9908 -1.5674
 6788SOL    HW231824   1.635   2.949  11.359 -1.6736  0.0071 -1.7469
 6789SOL     OW31825   1.833   2.896   4.491  0.4713 -0.8383 -1.0080
 6789SOL    HW131826   1.748   2.854   4.473  0.0527 -1.4330  2.3601
 6789SOL    HW231827   1.840   2.930   4.402 -1.7585  1.0681 -0.4654
 6790SOL     OW31828   2.123   2.486   1.950 -0.0856  0.0910 -0.2514
 6790SOL    HW131829   2.072   2.532   2.018  0.1294 -1.5293  0.9909
 6790SOL    HW231830   2.105   2.548   1.879 -1.0414  0.7206  0.5349
 6791SOL     OW31831   1.985   4.268   7.835  0.0203 -0.3598 -0.0309
 6791SOL    HW131832   1.928   4.207   7.788  1.8904 -0.5030 -2.1392
 6791SOL    HW231833   1.930   4.346   7.840  1.1747  0.1537  4.4217
 6792SOL     OW31834   0.839   1.850   4.278  0.4020  0.0465 -0.1275
 6792SOL    HW131835   0.879   1.911   4.216  0.8091 -0.2929 -0.1984
 6792SOL    HW231836   0.747   1.875   4.287  0.4418  1.0022 -2.3281
 6793SOL     OW31837   2.562   2.548  14.943  0.1252  0.0779 -0.1361
 6793SOL    HW131838   2.512   2.595  15.010 -1.3209 -0.1233 -1.0957
 6793SOL    HW231839   2.651   2.561  14.978  0.1358  0.2237 -0.2173
 6794SOL     OW31840   3.232   0.959   1.051  1.0252 -0.3486  0.5140
 6794SOL    HW131841   3.275   0.876   1.031 -2.9663 -2.3811  0.4644
 6794SOL    HW231842   3.295   1.017   1.007 -0.6138  1.3618  0.4128
 6795SOL     OW31843   1.736   3.589   5.907  0.4533  0.1610 -0.2563
 6795SOL    HW131844   1.792   3.577   5.983 -0.1682  0.9197  0.3260
 6795SOL    HW231845   1.659   3.541   5.937  0.4524 -0.9595 -2.0273
 6796SOL     OW31846   3.264   2.162  17.230 -0.2355 -0.5317 -0.5709
 6796SOL    HW131847   3.223   2.076  17.237  1.4979 -1.2563  0.6201
 6796SOL    HW231848   3.238   2.201  17.313  0.3574 -2.7954  0.6613
 6797SOL     OW31849   3.817   2.139  11.232  0.3389  0.5944  0.3455
 6797SOL    HW131850   3.794   2.202  11.301 -1.9373 -0.5845  0.6684
 6797SOL    HW231851   3.788   2.060  11.277 -3.0998  1.0905 -1.0528
 6798SOL     OW31852   1.319   0.454  14.481 -0.5609 -0.0564 -0.2227
 6798SOL    HW131853   1.227   0.448  14.507 -0.2459 -0.1433  0.8548
 6798SOL    HW231854   1.323   0.550  14.474  1.2668 -0.1844 -0.8887
 6799SOL     OW31855   2.562   1.762  13.664  0.0833  0.0127 -0.0768
 6799SOL    HW131856   2.641   1.801  13.627  1.0345 -0.8480  1.1000
 6799SOL    HW231857   2.573   1.798  13.752  0.6194  0.1161 -0.1868
 6800SOL     OW31858   1.638   1.874  14.901 -0.5528 -0.4460  0.2487
 6800SOL    HW131859   1.583   1.942  14.941  0.3595  0.3934  0.0819
 6800SOL    HW231860   1.653   1.811  14.971 -0.5641 -1.3355 -0.5412
 6801SOL     OW31861   2.755   2.995   3.559  0.0045 -0.2886  0.0352
 6801SOL    HW131862   2.710   2.914   3.535 -2.0221  1.1308 -0.9549
 6801SOL    HW231863   2.689   3.054   3.595 -0.3913  0.6152 -2.1349
 6802SOL     OW31864   3.462   4.327   5.890  0.0459  0.6421  0.1235
 6802SOL    HW131865   3.514   4.247   5.905 -2.4509 -1.2166 -1.1904
 6802SOL    HW231866   3.472   4.369   5.976 -1.2514  0.3799  0.4037
 6803SOL     OW31867   3.441   1.991  16.038  0.1595  0.6259 -0.0506
 6803SOL    HW131868   3.465   1.939  16.115  1.7198 -2.1318 -2.4404
 6803SOL    HW231869   3.385   2.064  16.065 -3.5718 -2.0305 -0.5631
 6804SOL     OW31870   4.220   0.720   3.972  0.2467  0.0231  0.5958
 6804SOL    HW131871   4.312   0.741   3.988  1.0161 -2.7718 -0.1512
 6804SOL    HW231872   4.224   0.644   3.914 -1.2398  0.6588 -0.3377
 6805SOL     OW31873   2.978   3.101  14.693  0.0133 -0.3062 -0.7299
 6805SOL    HW131874   2.976   3.182  14.744 -0.0630 -1.2532  0.7653
 6805SOL    HW231875   3.072   3.091  14.681 -0.0771 -1.4169 -0.4980
 6806SOL     OW31876   1.477   3.155  15.578  0.1838  0.1319  0.1641
 6806SOL    HW131877   1.477   3.075  15.525 -0.3994  1.4031 -1.7677
 6806SOL    HW231878   1.449   3.212  15.506  1.5117  1.8757  1.0437
 6807SOL     OW31879   3.131   4.098  16.830  0.1953 -0.3362 -0.3653
 6807SOL    HW131880   3.051   4.147  16.813  0.5181  0.7320  1.1660
 6807SOL    HW231881   3.157   4.080  16.740  1.4992 -0.5222  0.0515
 6808SOL     OW31882   0.651   3.235  17.556  0.0707  0.0152 -0.3046
 6808SOL    HW131883   0.648   3.325  17.590  0.7169 -0.4819  1.0759
 6808SOL    HW231884   0.657   3.192  17.642  1.2987 -2.2132 -1.5095
 6809SOL     OW31885   0.033   2.754   5.134 -0.1228  0.1046 -0.2158
 6809SOL    HW131886   4.705   2.689   5.177 -1.6369  0.6921 -1.2795
 6809SOL    HW231887   0.115   2.712   5.107 -0.3063 -0.4855  0.1458
 6810SOL     OW31888   0.288   3.463   7.719 -0.6385 -0.4973  0.0097
 6810SOL    HW131889   0.322   3.413   7.645  0.5939 -0.7630  0.7425
 6810SOL    HW231890   0.271   3.393   7.782 -1.3085 -0.8608 -0.5736
 6811SOL     OW31891   0.116   1.342   4.220  0.2380 -0.2188  0.1257
 6811SOL    HW131892   0.028   1.309   4.241  0.6760 -0.9388  0.8068
 6811SOL    HW231893   0.131   1.399   4.296 -0.3304  0.5486 -0.3380
 6812SOL     OW31894   3.862   0.047  17.172 -0.1222  0.1110 -0.1726
 6812SOL    HW131895   3.885   4.698  17.226  0.3278  0.0915 -0.3914
 6812SOL    HW231896   3.924   0.047  17.099  0.2302 -1.8113  0.1377
 6813SOL     OW31897   2.871   0.340   6.214 -0.4806 -0.0653 -0.1381
 6813SOL    HW131898   2.934   0.338   6.286 -0.6246  1.0131  0.0245
 6813SOL    HW231899   2.937   0.341   6.145  1.3555  0.6206  1.6147
 6814SOL     OW31900   2.050   1.680   8.344  0.6986 -0.1383 -0.2901
 6814SOL    HW131901   1.963   1.644   8.327  0.9870 -1.0865  0.2229
 6814SOL    HW231902   2.082   1.716   8.261 -0.0013  1.7328  0.2707
 6815SOL     OW31903   4.688   0.086  16.760 -0.2394 -0.0271 -0.0080
 6815SOL    HW131904   4.613   0.082  16.700  0.4771  1.7095 -1.0277
 6815SOL    HW231905   4.701   4.723  16.789 -2.1662  0.0160  0.9942
 6816SOL     OW31906   1.749   1.188   2.579 -0.2517 -0.2770 -0.5771
 6816SOL    HW131907   1.817   1.140   2.625 -0.8533 -0.2394  0.3622
 6816SOL    HW231908   1.678   1.125   2.575 -1.0252  0.4610  1.3351
 6817SOL     OW31909   1.854   2.513   1.769  0.0847 -0.1131 -0.3868
 6817SOL    HW131910   1.805   2.577   1.718  0.1363 -0.7205 -1.1973
 6817SOL    HW231911   1.933   2.565   1.781  0.8302 -1.2716 -0.3134
 6818SOL     OW31912   3.318   3.752   7.533  0.2948 -0.1942 -0.1917
 6818SOL    HW131913   3.333   3.704   7.451  0.5645 -0.0370 -0.2347
 6818SOL    HW231914   3.253   3.818   7.511  1.2777  0.9763  0.4019
 6819SOL     OW31915   0.185   1.620   8.922 -0.0656  0.3872 -0.5384
 6819SOL    HW131916   0.091   1.632   8.907 -0.1042 -0.2939 -0.8569
 6819SOL    HW231917   0.210   1.711   8.907 -0.0295  0.3104 -0.9458
 6820SOL     OW31918   3.073   0.093   0.658 -0.6542  0.3603  0.4819
 6820SOL    HW131919   3.148   0.094   0.599  0.3788 -0.0249  1.7833
 6820SOL    HW231920   3.051   0.000   0.667  2.1643 -0.5655 -2.1359
 6821SOL     OW31921   2.123   2.264   6.230 -0.8349 -0.4545  0.1106
 6821SOL    HW131922   2.074   2.229   6.155  0.9829  2.5584 -2.4617
 6821SOL    HW231923   2.136   2.354   6.200  1.7648 -0.6244  0.7796
 6822SOL     OW31924   3.436   0.813   0.253 -0.5982  0.4544 -0.2565
 6822SOL    HW131925   3.343   0.794   0.237 -0.8026 -0.2298  1.8411
 6822SOL    HW231926   3.429   0.899   0.295  0.6163  1.5093 -2.2146
 6823SOL     OW31927   1.913   1.839  15.539  0.5847 -0.0571 -0.3255
 6823SOL    HW131928   1.838   1.889  15.570  1.1433  0.0415  0.8633
 6823SOL    HW231929   1.967   1.900  15.489  1.9390 -1.1643 -0.2327
 6824SOL     OW31930   4.108   3.309  10.104 -0.6655  0.0389 -0.2325
 6824SOL    HW131931   4.110   3.309  10.008 -3.0402 -1.5093 -0.2812
 6824SOL    HW231932   4.087   3.401  10.120  1.8867  0.9307 -1.9239
 6825SOL     OW31933   0.038   4.708   3.738 -0.0974 -0.1563 -0.5522
 6825SOL    HW131934   0.090   4.628   3.746  2.4674  1.2914 -2.8048
 6825SOL    HW231935   0.104   0.047   3.761  2.0088 -3.0109  1.5120
 6826SOL     OW31936   0.625   3.252   9.789  0.2043  0.1638  0.4521
 6826SOL    HW131937   0.542   3.221   9.752 -0.4782 -0.3453  2.4091
 6826SOL    HW231938   0.593   3.299   9.866  1.1205 -1.4481  1.7990
 6827SOL     OW31939   1.687   3.255   7.988 -0.3253 -0.0036  0.2929
 6827SOL    HW131940   1.761   3.260   8.049 -1.9683  2.9483  2.0531
 6827SOL    HW231941   1.735   3.221   7.912  1.7694  1.7321  0.8265
 6828SOL     OW31942   2.066   2.456   7.734  0.5403 -0.5983  0.1115
 6828SOL    HW131943   1.998   2.459   7.801 -0.6223 -1.6420 -1.0368
 6828SOL    HW231944   2.103   2.545   7.731 -0.3174 -0.2079  1.1449
 6829SOL     OW31945   0.682   4.714   4.033 -0.6813  0.2760  0.5440
 6829SOL    HW131946   0.747   0.051   4.004 -0.3704 -0.6480 -0.7795
 6829SOL    HW231947   0.614   4.725   3.967 -0.4997 -1.3868  0.0659
 6830SOL     OW31948   3.406   1.507   2.565 -0.0561  0.1412 -0.1225
 6830SOL    HW131949   3.492   1.490   2.527 -1.2228 -0.9626 -2.2675
 6830SOL    HW231950   3.371   1.420   2.584 -1.4276  0.7840  0.3568
 6831SOL     OW31951   1.586   0.035  14.966 -0.0639 -0.2148  0.3095
 6831SOL    HW131952   1.584   0.078  14.880  0.8877 -1.4095 -0.3088
 6831SOL    HW231953   1.645   0.088  15.020 -1.1558 -0.5792  1.8374
 6832SOL     OW31954   0.568   2.314  15.060  0.4248 -0.9177 -0.2123
 6832SOL    HW131955   0.621   2.383  15.099  0.9599 -0.5348 -1.6208
 6832SOL    HW231956   0.618   2.235  15.082  1.9123 -0.4680 -1.9903
 6833SOL     OW31957   1.922   2.204   3.682 -0.2557 -0.0932 -0.4851
 6833SOL    HW131958   1.840   2.181   3.725  0.1987  0.3649  0.6482
 6833SOL    HW231959   1.903   2.296   3.663 -0.6634 -0.0351  0.2007
 6834SOL     OW31960   0.883   3.065   6.456 -1.0221  0.2280 -0.3923
 6834SOL    HW131961   0.901   3.073   6.550  0.9423  1.1086 -0.8556
 6834SOL    HW231962   0.934   2.986   6.443 -3.2558 -1.3903  0.6581
 6835SOL     OW31963   4.046   3.743   2.266 -0.4972  0.5456  0.4106
 6835SOL    HW131964   3.978   3.729   2.200 -0.8825 -2.9804  1.5567
 6835SOL    HW231965   4.126   3.753   2.213 -0.6233 -1.2896 -0.1088
 6836SOL     OW31966   0.018   0.897  12.535  0.1817 -0.2960 -0.0082
 6836SOL    HW131967   4.671   0.947  12.571  0.3575  0.9841 -1.4364
 6836SOL    HW231968   0.074   0.894  12.612  0.4941  0.5965 -0.2101
 6837SOL     OW31969   3.188   0.798   4.053  0.2406 -0.4676  0.3189
 6837SOL    HW131970   3.164   0.874   4.106 -0.8350  0.8064 -2.0379
 6837SOL    HW231971   3.109   0.786   4.000 -0.8237  1.6470  1.4105
 6838SOL     OW31972   2.720   3.928   2.504  0.0782  0.0423 -0.3757
 6838SOL    HW131973   2.750   3.920   2.413  0.1125 -1.7971 -0.2056
 6838SOL    HW231974   2.710   4.023   2.507 -1.5163 -0.1504 -0.1386
 6839SOL     OW31975   3.275   2.402   5.478 -0.4416 -0.0400  0.2078
 6839SOL    HW131976   3.320   2.327   5.517 -0.1094  0.6314  1.1065
 6839SOL    HW231977   3.272   2.457   5.557  0.6240  0.8829 -0.4009
 6840SOL     OW31978   4.637   1.277   4.682  0.2314  0.2982 -0.4658
 6840SOL    HW131979   4.605   1.303   4.595 -2.3794  1.5272  0.8765
 6840SOL    HW231980   4.609   1.185   4.687  1.4256 -0.1446 -1.8836
 6841SOL     OW31981   3.085   4.328   7.151 -0.9805 -0.4840  0.0797
 6841SOL    HW131982   3.154   4.302   7.212  1.0035 -1.8076 -2.7237
 6841SOL    HW231983   3.056   4.402   7.204  0.4217  0.6219 -0.7074
 6842SOL     OW31984   2.434   1.719  17.652 -0.2843  0.3782 -0.3926
 6842SOL    HW131985   2.460   1.784   0.009 -2.4254  1.9367 -1.1075
 6842SOL    HW231986   2.396   1.653   0.002  1.3169 -1.2287 -1.1718
 6843SOL     OW31987   1.735   2.273  14.723 -0.1779  0.0035 -0.3264
 6843SOL    HW131988   1.819   2.317  14.712 -0.3542  0.0590 -1.5118
 6843SOL    HW231989   1.737   2.232  14.636  2.3270  2.3104 -1.3361
 6844SOL     OW31990   4.221   0.819   0.233 -0.4394 -0.0374  0.0007
 6844SOL    HW131991   4.267   0.889   0.278 -0.6613  0.4073 -0.4671
 6844SOL    HW231992   4.203   0.764   0.309  1.1383 -3.1939 -1.8975
 6845SOL     OW31993   4.083   4.094   9.151 -0.3458  0.5120  0.6295
 6845SOL    HW131994   4.005   4.054   9.111 -0.5056  2.2383 -0.7760
 6845SOL    HW231995   4.078   4.060   9.240  3.1515  0.7633  0.9119
 6846SOL     OW31996   0.664   4.187  12.703  0.6052  0.1088  0.3329
 6846SOL    HW131997   0.737   4.125  12.707  1.1497  0.7298  0.0481
 6846SOL    HW231998   0.703   4.274  12.698 -1.8186  1.1661 -0.3669
 6847SOL     OW31999   0.411   0.193  11.853 -0.5457  0.2067 -0.1055
 6847SOL    HW132000   0.446   0.121  11.906 -2.8990  0.3484  1.6677
 6847SOL    HW232001   0.475   0.233  11.795 -1.0698 -1.1592 -1.6332
 6848SOL     OW32002   4.599   2.458   7.512  0.1163 -0.0700 -0.2623
 6848SOL    HW132003   4.642   2.543   7.500 -1.5151  1.0198  1.4971
 6848SOL    HW232004   4.535   2.478   7.580 -0.4994  0.9826 -1.1614
 6849SOL     OW32005   1.726   0.550   3.300  0.3556 -0.1300  0.1962
 6849SOL    HW132006   1.684   0.478   3.253  0.6254  0.7244 -1.3412
 6849SOL    HW232007   1.785   0.506   3.361 -1.2204  0.3668  2.0870
 6850SOL     OW32008   2.390   3.921  11.599  0.1069  0.0211 -0.0301
 6850SOL    HW132009   2.389   4.005  11.553 -2.6067 -1.5977 -2.9478
 6850SOL    HW232010   2.373   3.861  11.527 -0.6688 -0.3205  0.4317
 6851SOL     OW32011   3.955   0.632   9.380  0.0880  0.0846 -0.0945
 6851SOL    HW132012   3.882   0.571   9.373  1.3666 -1.0620 -3.4233
 6851SOL    HW232013   4.031   0.583   9.348 -0.3380  0.8596 -2.3308
 6852SOL     OW32014   4.722   2.576   0.645 -0.0230  0.1358 -0.2053
 6852SOL    HW132015   0.058   2.638   0.608 -0.1690  1.4544  1.7634
 6852SOL    HW232016   4.654   2.575   0.578 -0.9202  2.1599  0.6636
 6853SOL     OW32017   0.572   0.526   6.140  0.2262 -0.3121  0.7616
 6853SOL    HW132018   0.636   0.554   6.075  0.2873 -0.3132  0.8221
 6853SOL    HW232019   0.617   0.551   6.220  0.3795 -0.3395  0.6845
 6854SOL     OW32020   0.964   1.975   5.504  0.6548 -0.2005  0.0432
 6854SOL    HW132021   0.912   1.937   5.575  1.5897 -0.4089  0.6176
 6854SOL    HW232022   1.042   1.998   5.555  0.9177 -1.7621  0.3424
 6855SOL     OW32023   1.759   3.291   0.576 -0.6531  0.3929  0.0069
 6855SOL    HW132024   1.728   3.366   0.627 -2.6321 -0.5978  0.2524
 6855SOL    HW232025   1.753   3.224   0.644 -1.0798  0.7287  0.2977
 6856SOL     OW32026   2.584   2.475   5.623 -0.1928  0.5237 -0.3435
 6856SOL    HW132027   2.588   2.553   5.567 -0.1364 -0.1452 -1.2650
 6856SOL    HW232028   2.544   2.513   5.701  0.7520 -0.7766  0.7921
 6857SOL     OW32029   0.234   0.505   4.104 -0.2526  0.2077 -0.0350
 6857SOL    HW132030   0.199   0.514   4.015 -2.5981  0.6181  0.9288
 6857SOL    HW232031   0.325   0.494   4.076  0.5758  1.7926  2.1042
 6858SOL     OW32032   2.999   1.673   5.693 -0.3649  0.5881  0.3131
 6858SOL    HW132033   2.981   1.714   5.778  1.0371  1.6262  0.1151
 6858SOL    HW232034   2.946   1.593   5.687  1.3868 -0.4723 -0.9812
 6859SOL     OW32035   0.167   0.264  14.468  0.3703 -0.0611  0.4513
 6859SOL    HW132036   0.203   0.347  14.501  0.2875  1.7445 -4.0029
 6859SOL    HW232037   0.208   0.205  14.531  1.2306  0.5606  0.4714
 6860SOL     OW32038   0.561   0.146   8.053  0.3695  0.1080  0.0399
 6860SOL    HW132039   0.651   0.157   8.022  0.8841  1.1381  1.9131
 6860SOL    HW232040   0.523   0.097   7.980 -1.8189  0.3026  1.0322
 6861SOL     OW32041   4.293   2.145   3.920 -0.3889  0.2335  0.0327
 6861SOL    HW132042   4.358   2.119   3.986  0.3730 -1.0579 -1.2257
 6861SOL    HW232043   4.276   2.236   3.942  3.2789  0.4676  1.8247
 6862SOL     OW32044   0.859   0.858   7.106 -0.0174  0.4882 -0.2926
 6862SOL    HW132045   0.906   0.923   7.158 -0.9042  1.2032 -0.3776
 6862SOL    HW232046   0.896   0.877   7.020  0.3951  0.4991 -0.1139
 6863SOL     OW32047   3.627   0.702  14.938  0.6187  0.2940  0.8919
 6863SOL    HW132048   3.540   0.661  14.932  0.4296  0.8807 -0.3408
 6863SOL    HW232049   3.605   0.786  14.977  0.2581  0.1813  0.9342
 6864SOL     OW32050   4.540   1.055   8.278  0.1158 -0.1800 -0.3077
 6864SOL    HW132051   4.584   1.015   8.353  0.7069  1.6699  0.3281
 6864SOL    HW232052   4.472   0.994   8.248 -1.1707  1.3513 -0.4936
 6865SOL     OW32053   4.260   2.021  15.885  0.5327  0.4291 -0.0885
 6865SOL    HW132054   4.329   2.064  15.834  2.7435 -0.8470  1.8081
 6865SOL    HW232055   4.196   2.092  15.889 -1.1577 -1.0935 -0.1952
 6866SOL     OW32056   0.626   1.834   3.960  0.1224 -0.6412 -0.6781
 6866SOL    HW132057   0.609   1.893   4.034  1.5043 -0.7509 -0.2711
 6866SOL    HW232058   0.633   1.749   4.004 -3.7532 -0.4000  0.3807
 6867SOL     OW32059   0.987   0.177   6.877  0.1516  0.3750 -0.1670
 6867SOL    HW132060   0.988   0.087   6.909 -0.6576 -0.5752 -2.7419
 6867SOL    HW232061   1.067   0.217   6.909  0.0317 -0.5553  1.2698
 6868SOL     OW32062   3.958   3.097   2.186  0.3309  0.0342  0.4250
 6868SOL    HW132063   3.872   3.104   2.226 -0.1625 -3.0400 -0.0859
 6868SOL    HW232064   3.953   3.002   2.171  1.1443  0.0633 -0.0356
 6869SOL     OW32065   1.804   3.096   8.224  0.8319 -0.0493  0.0477
 6869SOL    HW132066   1.815   3.028   8.291  0.0283 -3.4096 -3.2589
 6869SOL    HW232067   1.816   3.046   8.143 -2.1044 -1.8129  0.7051
 6870SOL     OW32068   2.322   3.687   2.814 -0.1551  0.1216 -0.0848
 6870SOL    HW132069   2.285   3.772   2.838  1.4256  1.0010 -0.7579
 6870SOL    HW232070   2.409   3.718   2.792  0.2756 -1.5873 -0.7568
 6871SOL     OW32071   0.170   2.644   7.554 -0.2505 -0.5857  0.2821
 6871SOL    HW132072   0.101   2.693   7.600 -0.9476 -2.9840  1.8127
 6871SOL    HW232073   0.133   2.626   7.468  1.2164 -0.2433 -0.4136
 6872SOL     OW32074   2.064   3.358   1.448  0.4010 -0.2080  0.6588
 6872SOL    HW132075   2.028   3.446   1.460 -1.0431 -0.6343 -0.5220
 6872SOL    HW232076   2.034   3.314   1.527  1.6391 -0.0231  1.2374
 6873SOL     OW32077   3.794   2.193  16.207 -0.0587  0.3569 -0.3027
 6873SOL    HW132078   3.855   2.207  16.279  0.7100 -1.1077 -0.6649
 6873SOL    HW232079   3.773   2.100  16.222 -1.7467  0.7036 -0.5449
 6874SOL     OW32080   3.711   3.081  11.056  0.3055 -0.2949  0.3421
 6874SOL    HW132081   3.643   3.149  11.050 -0.5515 -1.0930  1.1710
 6874SOL    HW232082   3.655   3.005  11.040  0.7166 -0.1686 -1.7581
 6875SOL     OW32083   4.110   4.379   5.509 -0.0480 -0.6241  0.4815
 6875SOL    HW132084   4.028   4.359   5.555  0.2584  1.9560  2.1105
 6875SOL    HW232085   4.081   4.381   5.418  0.4812  1.8897  0.3742
 6876SOL     OW32086   0.964   4.648   6.968 -0.4396 -0.2998  0.1323
 6876SOL    HW132087   0.915   4.566   6.968  0.7734 -1.0351  1.4997
 6876SOL    HW232088   1.052   4.622   6.997  0.5272 -1.1435 -3.4209
 6877SOL     OW32089   0.133   2.479   9.709  0.0130  0.1427  0.1592
 6877SOL    HW132090   0.116   2.453   9.618  2.2775 -2.1587  0.3913
 6877SOL    HW232091   0.096   2.567   9.703 -1.5194 -0.7300 -3.3379
 6878SOL     OW32092   4.514   2.029   7.795 -0.0882  0.0686 -0.3344
 6878SOL    HW132093   4.560   2.100   7.750 -0.5317 -0.6837 -1.9451
 6878SOL    HW232094   4.470   1.983   7.724 -0.3564 -1.0145  0.5307
 6879SOL     OW32095   1.724   2.569   5.754  0.0799 -0.3846 -0.5694
 6879SOL    HW132096   1.709   2.640   5.817 -1.5917 -1.7151  0.5657
 6879SOL    HW232097   1.761   2.622   5.684  0.7824  1.8223  1.5076
 6880SOL     OW32098   0.827   1.663   3.305 -0.2011 -0.1666  0.8682
 6880SOL    HW132099   0.861   1.678   3.394  0.3292  2.5170  0.2273
 6880SOL    HW232100   0.776   1.744   3.303 -0.6497 -0.5018 -0.9411
 6881SOL     OW32101   1.996   4.471   3.555 -0.1747  0.1403 -0.1074
 6881SOL    HW132102   2.039   4.492   3.472 -0.7527 -0.7424 -0.6313
 6881SOL    HW232103   1.924   4.418   3.520 -0.7205  0.1575  0.9908
 6882SOL     OW32104   1.120   0.287   0.628 -0.1028 -0.1468 -0.7142
 6882SOL    HW132105   1.141   0.287   0.722 -0.4152  1.1558 -0.6513
 6882SOL    HW232106   1.201   0.327   0.597 -0.4973  1.4256  0.2560
 6883SOL     OW32107   1.137   2.711   4.889  0.8330 -0.0576 -0.1954
 6883SOL    HW132108   1.079   2.769   4.939  0.8637  2.0769 -2.6273
 6883SOL    HW232109   1.071   2.653   4.852 -0.8244  2.8905 -1.9078
 6884SOL     OW32110   3.672   3.939   3.030  0.3244  1.0998 -0.5724
 6884SOL    HW132111   3.677   3.849   3.063  0.4228  1.7636  1.2081
 6884SOL    HW232112   3.747   3.977   3.076 -0.0017  2.3713 -1.0931
 6885SOL     OW32113   2.756   0.984  14.684  0.1587  0.6764 -0.4131
 6885SOL    HW132114   2.671   0.943  14.703 -0.1458  1.1684 -0.7031
 6885SOL    HW232115   2.720   1.046  14.620 -1.3298 -0.4105 -0.6206
 6886SOL     OW32116   0.881   1.620   5.664  0.2799  0.3714  0.7541
 6886SOL    HW132117   0.859   1.588   5.577 -0.1152 -1.9631  1.7215
 6886SOL    HW232118   0.876   1.539   5.714 -1.2863 -0.4109 -0.6558
 6887SOL     OW32119   2.260   2.667   0.378 -0.0313 -0.2025 -0.4127
 6887SOL    HW132120   2.295   2.733   0.318 -1.0484  0.3693 -0.3816
 6887SOL    HW232121   2.344   2.638   0.414 -0.1973  1.5720  1.4540
 6888SOL     OW32122   1.438   1.453  15.913  0.2266  0.6286 -0.1593
 6888SOL    HW132123   1.345   1.471  15.922 -0.1690 -2.4062  1.6246
 6888SOL    HW232124   1.479   1.523  15.963  0.0687 -0.1538  1.0663
 6889SOL     OW32125   0.841   3.152   1.868  0.7713 -0.3799 -0.3057
 6889SOL    HW132126   0.853   3.228   1.924 -0.9315 -0.0075 -0.4318
 6889SOL    HW232127   0.867   3.077   1.921 -0.3939 -0.9803 -0.5888
 6890SOL     OW32128   0.273   2.306   2.911 -0.2803 -0.6652 -0.0460
 6890SOL    HW132129   0.288   2.243   2.840 -0.5361  0.0497 -0.7418
 6890SOL    HW232130   0.182   2.295   2.937 -0.0924  0.9058  1.3030
 6891SOL     OW32131   1.202   4.523   7.591 -0.3752 -0.1067  0.1998
 6891SOL    HW132132   1.245   4.447   7.551  0.0264  0.8414 -1.1478
 6891SOL    HW232133   1.214   4.508   7.685 -2.2579 -0.5384  0.3738
 6892SOL     OW32134   3.680   2.554   6.181 -0.2113 -0.6509  0.2419
 6892SOL    HW132135   3.589   2.556   6.153  0.3895 -0.8606 -1.7353
 6892SOL    HW232136   3.723   2.636   6.155  0.9018 -0.4568  2.7055
 6893SOL     OW32137   0.962   2.781   9.569  0.4632  0.0981 -0.5451
 6893SOL    HW132138   0.948   2.691   9.541 -0.1174  0.2299 -0.6842
 6893SOL    HW232139   0.889   2.797   9.629  2.6616  2.9751  1.3304
 6894SOL     OW32140   2.957   0.376   8.030  0.0526 -0.5082  0.0615
 6894SOL    HW132141   3.023   0.306   8.025  1.7968  1.3491 -2.9304
 6894SOL    HW232142   2.932   0.361   8.121  2.3461  2.8221  1.2223
 6895SOL     OW32143   3.658   1.200   0.382  0.8815  0.6434 -0.9048
 6895SOL    HW132144   3.649   1.279   0.435  0.0856 -0.9193  1.2906
 6895SOL    HW232145   3.705   1.141   0.441 -1.0568  0.1494  0.1593
 6896SOL     OW32146   1.119   3.134  16.817 -0.3637 -0.1625 -0.2006
 6896SOL    HW132147   1.183   3.205  16.820 -1.5628  0.8404  1.5666
 6896SOL    HW232148   1.169   3.053  16.830  0.6752  0.7572  1.5232
 6897SOL     OW32149   3.592   3.746   0.967  0.1425 -0.2626 -0.0315
 6897SOL    HW132150   3.655   3.768   0.899 -1.3610  0.7654 -1.1019
 6897SOL    HW232151   3.643   3.691   1.026 -0.5109 -0.2274  0.5682
 6898SOL     OW32152   2.094   2.778   3.089 -0.4974  0.0417 -0.0628
 6898SOL    HW132153   2.162   2.724   3.130  0.2023 -1.2709 -2.8876
 6898SOL    HW232154   2.032   2.715   3.053 -0.0857  0.8173 -2.1550
 6899SOL     OW32155   2.202   1.851  17.142  0.6220  0.1486 -0.5958
 6899SOL    HW132156   2.230   1.890  17.225 -0.3203 -0.9888  0.2601
 6899SOL    HW232157   2.111   1.828  17.161  1.2963 -1.9727  0.0184
 6900SOL     OW32158   0.157   0.588  14.621  0.2704 -0.0546 -0.0671
 6900SOL    HW132159   0.164   0.530  14.697  2.5165  0.3679  0.0352
 6900SOL    HW232160   0.093   0.654  14.646  0.1318 -0.4204  0.5406
 6901SOL     OW32161   2.603   1.605   3.112  0.2028  0.4690  0.2468
 6901SOL    HW132162   2.653   1.582   3.034 -0.8852  4.2755 -1.6167
 6901SOL    HW232163   2.664   1.586   3.183  0.2419 -2.1561 -0.4902
 6902SOL     OW32164   3.033   2.356   7.997 -0.1049  0.9259  0.0499
 6902SOL    HW132165   3.105   2.417   7.982  0.5332  0.3142  0.5896
 6902SOL    HW232166   2.983   2.371   7.917  0.4728  3.1251  0.1112
 6903SOL     OW32167   3.470   0.644   9.011  0.3799 -0.3932  0.0310
 6903SOL    HW132168   3.473   0.564   8.958  2.3029  0.8172 -1.6681
 6903SOL    HW232169   3.390   0.679   8.972  0.6043 -1.3733 -1.2817
 6904SOL     OW32170   2.599   2.736  13.936  0.2813 -0.0336  0.2579
 6904SOL    HW132171   2.533   2.698  13.995  0.2873 -1.2067 -0.4863
 6904SOL    HW232172   2.557   2.745  13.850 -1.9690  2.3327  1.5937
 6905SOL     OW32173   2.028   1.465   6.704 -0.4434 -0.0331  0.0175
 6905SOL    HW132174   1.938   1.467   6.674  0.1570  3.8395 -1.4692
 6905SOL    HW232175   2.069   1.525   6.642 -3.9340  1.7914 -0.5191
 6906SOL     OW32176   0.489   3.113   4.485 -0.3378 -0.2632  0.6527
 6906SOL    HW132177   0.407   3.106   4.435  0.7471  1.6657 -1.3680
 6906SOL    HW232178   0.533   3.177   4.429  1.3985 -1.6014  0.5069
 6907SOL     OW32179   1.920   2.717  14.619  0.1006  0.3415  0.3098
 6907SOL    HW132180   1.861   2.789  14.598 -0.3608 -0.0029  0.4359
 6907SOL    HW232181   2.002   2.746  14.580  0.4900 -0.7205  0.3288
 6908SOL     OW32182   4.133   1.648   3.892 -0.0091 -0.0595 -0.1996
 6908SOL    HW132183   4.210   1.703   3.904  0.3784 -0.6294 -0.0559
 6908SOL    HW232184   4.179   1.569   3.863  0.1199 -0.0160 -0.1098
 6909SOL     OW32185   4.053   3.621   6.799 -0.5208 -0.5406  0.7772
 6909SOL    HW132186   3.981   3.665   6.844 -0.4817 -0.6455  0.9393
 6909SOL    HW232187   4.029   3.529   6.811  2.5744 -1.4097  0.3884
 6910SOL     OW32188   4.510   3.851  10.184  0.9203  0.1460 -0.0688
 6910SOL    HW132189   4.507   3.908  10.260 -0.7658 -1.0798  0.7961
 6910SOL    HW232190   4.466   3.772  10.215  0.5599 -0.1847 -1.3944
 6911SOL     OW32191   0.543   4.353   6.963  0.4833 -0.4950  0.2740
 6911SOL    HW132192   0.556   4.425   6.902 -0.1393 -1.7577 -1.3520
 6911SOL    HW232193   0.634   4.325   6.970  0.8295  0.2665 -1.2632
 6912SOL     OW32194   0.606   4.537   5.214  0.4483  0.4887 -0.2975
 6912SOL    HW132195   0.578   4.500   5.130  3.2463  0.5042 -1.2271
 6912SOL    HW232196   0.697   4.556   5.193  1.5155 -3.9087  0.2714
 6913SOL     OW32197   0.018   2.897   3.069 -0.6235 -0.2300 -0.1820
 6913SOL    HW132198   4.653   2.919   3.052 -0.5679 -0.0678 -0.2682
 6913SOL    HW232199   0.034   2.939   3.153  1.5118  1.5494 -1.4663
 6914SOL     OW32200   0.613   0.891   5.896  0.1437  0.4657 -0.2035
 6914SOL    HW132201   0.640   0.913   5.985 -1.7881  0.6895  0.3333
 6914SOL    HW232202   0.527   0.853   5.918 -0.9189  2.4175 -1.0114
 6915SOL     OW32203   3.133   4.707   3.218  0.2609  0.6919 -0.3435
 6915SOL    HW132204   3.158   0.073   3.225  2.4756 -0.2420  3.7114
 6915SOL    HW232205   3.077   4.689   3.294  0.0602  0.0599 -0.6428
 6916SOL     OW32206   2.984   1.363   2.602  0.6372 -0.5045 -0.5590
 6916SOL    HW132207   3.040   1.383   2.676  0.8460 -2.8716 -0.0547
 6916SOL    HW232208   2.982   1.267   2.603 -0.1533 -0.5103 -1.9185
 6917SOL     OW32209   3.735   0.357  16.052 -0.7836 -0.0411  0.0456
 6917SOL    HW132210   3.715   0.351  15.958 -2.8981  0.7219  0.4344
 6917SOL    HW232211   3.821   0.316  16.050  0.2649  2.1118  1.1899
 6918SOL     OW32212   4.485   4.131   2.693 -0.5611  0.5212  0.2349
 6918SOL    HW132213   4.414   4.071   2.716  0.4127 -0.6447  0.1933
 6918SOL    HW232214   4.462   4.205   2.749 -0.6198 -0.1153  1.0437
 6919SOL     OW32215   4.718   1.983   6.680  0.2992 -0.4908  0.2993
 6919SOL    HW132216   4.697   2.071   6.651 -0.4313  0.3863  3.5984
 6919SOL    HW232217   0.031   1.964   6.594 -0.6346 -2.4487  0.3056
 6920SOL     OW32218   2.698   2.691   8.637 -0.4637 -0.1350  0.0229
 6920SOL    HW132219   2.671   2.725   8.722  1.3559 -1.1317  1.0188
 6920SOL    HW232220   2.637   2.738   8.580  0.3210  0.0833 -0.6379
 6921SOL     OW32221   3.311   0.160   0.159  0.5404 -0.2341  0.0286
 6921SOL    HW132222   3.261   0.239   0.139  1.0657 -0.0687 -0.6385
 6921SOL    HW232223   3.350   0.193   0.240 -1.4102 -0.9906  1.2876
 6922SOL     OW32224   0.116   0.106   1.632  0.0039  0.3380 -0.0090
 6922SOL    HW132225   0.168   0.116   1.713 -0.8165  0.8503  0.4491
 6922SOL    HW232226   0.044   0.161   1.662  0.9199  0.6543  1.6253
 6923SOL     OW32227   1.072   2.728   6.703  0.5585 -0.0888  0.0226
 6923SOL    HW132228   1.134   2.687   6.763  0.9980 -1.3315 -1.2981
 6923SOL    HW232229   1.045   2.657   6.645 -0.6435 -0.7192  1.3491
 6924SOL     OW32230   4.629   4.053   4.596  0.0829 -0.2673  0.2430
 6924SOL    HW132231   4.642   4.118   4.527 -2.1837 -1.0962 -0.9471
 6924SOL    HW232232   4.704   4.071   4.653 -0.6296  0.1771  1.0405
 6925SOL     OW32233   1.618   1.425   6.895 -0.1988 -0.1559 -0.0041
 6925SOL    HW132234   1.652   1.416   6.984  1.0246  0.9731 -0.3462
 6925SOL    HW232235   1.591   1.334   6.889 -0.7306  0.1119 -1.5922
 6926SOL     OW32236   2.783   4.489   4.420  0.4279 -0.4850 -0.0581
 6926SOL    HW132237   2.724   4.561   4.444 -1.9536 -3.5082  3.1418
 6926SOL    HW232238   2.783   4.436   4.500  0.9300  2.3732  1.8510
 6927SOL     OW32239   1.843   4.641   2.872  0.0799 -0.0732  0.2117
 6927SOL    HW132240   1.788   4.571   2.906  0.7373 -1.7344 -2.2030
 6927SOL    HW232241   1.912   4.590   2.830  0.2391  1.8117 -1.8257
 6928SOL     OW32242   4.094   0.904   3.815  0.7597  0.5735 -0.0888
 6928SOL    HW132243   4.135   0.892   3.729  0.5652 -1.6168  0.1193
 6928SOL    HW232244   4.120   0.826   3.864  0.9065  1.1498  0.7452
 6929SOL     OW32245   1.645   0.274   4.687 -0.5680 -0.0089 -0.1883
 6929SOL    HW132246   1.672   0.366   4.691 -1.2770  0.1976 -0.0673
 6929SOL    HW232247   1.550   0.280   4.672 -0.2906 -0.4903 -2.1490
 6930SOL     OW32248   3.938   3.501   1.194 -0.4511  0.2447  0.0544
 6930SOL    HW132249   3.856   3.548   1.181 -0.4835  0.6254  1.6653
 6930SOL    HW232250   3.942   3.496   1.289 -1.3682 -1.5487  0.0157
 6931SOL     OW32251   0.831   0.503   2.021  0.1899 -0.1903 -0.0835
 6931SOL    HW132252   0.813   0.593   2.046  0.6119 -0.3381  0.7523
 6931SOL    HW232253   0.921   0.507   1.990 -0.1703  0.3659 -1.0501
 6932SOL     OW32254   0.401   4.312  10.208 -0.4922 -0.1157  0.7853
 6932SOL    HW132255   0.334   4.318  10.276 -1.0637  0.0118  0.2166
 6932SOL    HW232256   0.470   4.252  10.238 -0.1060  0.3164  0.7594
 6933SOL     OW32257   4.033   1.630   0.302  0.2211 -0.1993  0.3062
 6933SOL    HW132258   4.008   1.609   0.392 -0.5953 -4.0641 -0.8188
 6933SOL    HW232259   3.949   1.616   0.258  0.6035 -0.9732 -0.1657
 6934SOL     OW32260   1.392   2.337   4.862  0.1994  0.3855  0.1049
 6934SOL    HW132261   1.405   2.253   4.904 -0.0726 -0.2837 -1.1411
 6934SOL    HW232262   1.332   2.380   4.923 -1.3973 -1.2650 -0.3061
 6935SOL     OW32263   1.067   0.239   0.948 -0.6353  0.0871 -0.0298
 6935SOL    HW132264   0.991   0.296   0.942 -3.1067 -3.1544  0.1831
 6935SOL    HW232265   1.055   0.188   1.028  0.2433  1.8981  1.2411
 6936SOL     OW32266   0.323   1.036   2.243  0.5751  0.1775  0.6202
 6936SOL    HW132267   0.278   1.113   2.278 -0.5619 -0.4289  0.4747
 6936SOL    HW232268   0.413   1.069   2.241  0.6058  0.0347 -0.6330
 6937SOL     OW32269   2.863   2.062   7.121 -0.0263 -0.0248 -0.7189
 6937SOL    HW132270   2.859   1.970   7.146 -2.0514  0.2382 -0.1162
 6937SOL    HW232271   2.947   2.063   7.076  0.3815 -2.2364 -0.0113
 6938SOL     OW32272   0.682   4.121   6.714  0.5902  0.3949 -0.1051
 6938SOL    HW132273   0.708   4.110   6.805 -0.9662  1.5193  0.4807
 6938SOL    HW232274   0.738   4.051   6.679  0.0356 -0.5164  0.8220
 6939SOL     OW32275   4.677   0.146   1.391 -0.2039 -0.3027  0.0581
 6939SOL    HW132276   4.713   0.104   1.469  1.9522  1.8106  0.1945
 6939SOL    HW232277   0.015   0.123   1.325 -0.5406 -3.4507  0.8348
 6940SOL     OW32278   2.185   3.613   5.697 -0.4237  0.6959  0.2552
 6940SOL    HW132279   2.100   3.630   5.657 -0.7631 -0.5284  0.4395
 6940SOL    HW232280   2.206   3.529   5.656 -3.2727  0.1346 -0.0125
 6941SOL     OW32281   3.137   1.611   6.332  0.4733 -0.2810  0.1713
 6941SOL    HW132282   3.191   1.532   6.333 -0.7276 -1.1057 -0.5102
 6941SOL    HW232283   3.067   1.583   6.392  0.0421  1.0079  0.2652
 6942SOL     OW32284   0.217   1.732   4.207 -0.0325  0.2234 -0.6716
 6942SOL    HW132285   0.149   1.739   4.274 -0.2668 -1.1226 -0.7674
 6942SOL    HW232286   0.290   1.695   4.255 -0.1385  1.1969  0.2262
 6943SOL     OW32287   2.939   4.705  12.031  0.3511 -0.2023  0.2964
 6943SOL    HW132288   3.030   4.696  12.000 -0.4584 -2.0260 -1.5733
 6943SOL    HW232289   2.929   4.612  12.050 -0.5161 -0.3098 -0.6871
 6944SOL     OW32290   3.637   0.769   4.834  0.2169 -0.2952  0.0608
 6944SOL    HW132291   3.582   0.745   4.909 -1.5247  1.7414 -0.5764
 6944SOL    HW232292   3.728   0.773   4.866  0.1363  2.3855 -0.0297
 6945SOL     OW32293   0.866   0.126   2.434 -0.2855 -0.0729 -0.8281
 6945SOL    HW132294   0.902   0.125   2.523 -2.6093  0.2665  0.1190
 6945SOL    HW232295   0.927   0.184   2.389  0.5289  0.0127  0.3778
 6946SOL     OW32296   0.854   3.797  15.543  0.1972 -0.1367 -0.1832
 6946SOL    HW132297   0.895   3.878  15.573 -0.6824  1.0312 -2.0742
 6946SOL    HW232298   0.819   3.826  15.458 -0.1208 -0.0427 -0.0234
 6947SOL     OW32299   1.782   1.445   2.463  0.1474 -0.5888 -0.2718
 6947SOL    HW132300   1.824   1.447   2.377 -1.4095 -1.6072 -1.0769
 6947SOL    HW232301   1.773   1.352   2.484  1.5103 -0.6110  0.2061
 6948SOL     OW32302   1.574   1.229   3.234  0.0162  0.0525 -0.3462
 6948SOL    HW132303   1.497   1.278   3.260 -0.8434 -0.7941 -1.3151
 6948SOL    HW232304   1.535   1.165   3.174  1.6489 -0.6374 -0.6776
 6949SOL     OW32305   2.106   4.053   3.601  0.2043 -0.3760 -0.2404
 6949SOL    HW132306   2.123   3.978   3.658 -1.4004  1.7966  3.1243
 6949SOL    HW232307   2.119   4.127   3.661 -3.1165 -1.4053  1.7361
 6950SOL     OW32308   3.426   0.321   5.907 -0.4145  0.1014 -0.2059
 6950SOL    HW132309   3.430   0.242   5.854  0.7521  0.5466 -0.7819
 6950SOL    HW232310   3.341   0.359   5.882 -0.8273  0.8723  2.3887
 6951SOL     OW32311   4.237   4.325  16.336  0.0792 -0.5127 -0.0298
 6951SOL    HW132312   4.161   4.333  16.393  2.0795  1.1258  2.4027
 6951SOL    HW232313   4.194   4.343  16.252  0.1371  0.7123  0.2065
 6952SOL     OW32314   3.362   3.348   8.852  0.3250 -0.1160 -0.0771
 6952SOL    HW132315   3.401   3.275   8.805  1.5020  0.4887 -0.0285
 6952SOL    HW232316   3.396   3.419   8.797 -0.0158 -0.0780 -0.2388
 6953SOL     OW32317   2.084   1.231   8.393 -0.0773  0.5345  0.1661
 6953SOL    HW132318   2.108   1.275   8.474 -2.0282 -1.6076  1.9058
 6953SOL    HW232319   2.143   1.156   8.388 -0.6409  0.1063 -0.1024
 6954SOL     OW32320   0.539   2.529  14.015  0.5409 -0.2122  0.2743
 6954SOL    HW132321   0.527   2.612  13.968  0.0045 -0.0584  0.6794
 6954SOL    HW232322   0.502   2.455  13.966  0.9028  0.5916 -1.1891
 6955SOL     OW32323   2.449   0.303   5.931 -0.2303 -0.2889  0.6761
 6955SOL    HW132324   2.415   0.303   6.020 -0.5636 -2.6006  0.5400
 6955SOL    HW232325   2.490   0.217   5.940 -2.3913 -1.6185 -2.0185
 6956SOL     OW32326   3.138   2.188   4.585 -0.0178  0.3292  0.2105
 6956SOL    HW132327   3.154   2.130   4.659  2.4847  0.3011 -0.3798
 6956SOL    HW232328   3.187   2.138   4.520  0.1696  1.4473 -0.5194
 6957SOL     OW32329   4.101   2.347  16.113 -0.3313  0.4483 -0.3086
 6957SOL    HW132330   4.184   2.373  16.073  0.7901 -2.4229  0.1850
 6957SOL    HW232331   4.058   2.318  16.033 -0.3975  1.1518 -0.5345
 6958SOL     OW32332   1.298   1.014   6.830 -0.5926  0.4129 -0.4673
 6958SOL    HW132333   1.256   0.980   6.751  0.7117 -0.1039 -0.9437
 6958SOL    HW232334   1.344   0.936   6.861 -0.3571  0.9986  0.6693
 6959SOL     OW32335   2.664   1.511   2.251  0.9536  0.2149  0.2049
 6959SOL    HW132336   2.700   1.444   2.309  0.5500 -0.5346 -0.4024
 6959SOL    HW232337   2.729   1.512   2.181 -0.4113 -0.4058 -1.0619
 6960SOL     OW32338   1.714   1.457   1.389  0.1357 -0.3404  0.0318
 6960SOL    HW132339   1.771   1.434   1.463 -1.5011  0.1550  1.4594
 6960SOL    HW232340   1.775   1.521   1.353  0.1529 -0.6561 -0.4931
 6961SOL     OW32341   1.057   1.452  15.670 -0.3763  0.0246 -0.0914
 6961SOL    HW132342   1.038   1.403  15.750  1.2358 -0.2939  0.1034
 6961SOL    HW232343   1.139   1.414  15.637 -0.9563 -2.2362  1.0525
 6962SOL     OW32344   2.062   4.141   7.318  0.1005 -0.0344  0.7047
 6962SOL    HW132345   2.097   4.061   7.279 -0.6563 -0.6531  1.3008
 6962SOL    HW232346   2.058   4.108   7.408  1.0874 -0.3902  0.6194
 6963SOL     OW32347   3.876   2.569   5.308 -0.1513 -1.1798  0.2287
 6963SOL    HW132348   3.909   2.653   5.340 -2.3345  0.2564 -1.2346
 6963SOL    HW232349   3.797   2.604   5.266  2.0541  2.1054 -1.1046
 6964SOL     OW32350   0.362   1.737  11.677  0.4202  0.3387  0.7125
 6964SOL    HW132351   0.359   1.779  11.591  0.5125 -1.1167  0.0038
 6964SOL    HW232352   0.444   1.687  11.671 -0.3744 -0.8858  0.0822
 6965SOL     OW32353   0.009   3.057  13.393  0.2749 -0.0000 -0.2175
 6965SOL    HW132354   0.028   3.095  13.479  0.0845  3.0482 -1.5454
 6965SOL    HW232355   4.643   3.035  13.405  0.0177  1.2998  0.1397
 6966SOL     OW32356   1.832   0.474   4.294  0.1023 -0.1358 -0.0223
 6966SOL    HW132357   1.866   0.406   4.236 -1.4020 -1.2779  0.4235
 6966SOL    HW232358   1.739   0.450   4.288  0.4913 -2.5512  3.7535
 6967SOL     OW32359   0.596   1.969   4.260  0.4028 -0.4669 -0.1093
 6967SOL    HW132360   0.657   2.043   4.258 -0.6893  0.4468  0.8882
 6967SOL    HW232361   0.520   2.020   4.285  1.9027  0.9286  1.6259
 6968SOL     OW32362   3.330   2.301   4.113  0.3262  0.2972  0.0466
 6968SOL    HW132363   3.251   2.292   4.166  1.0796  0.4939  1.2196
 6968SOL    HW232364   3.294   2.296   4.025  1.4749  0.9639 -0.4614
 6969SOL     OW32365   3.984   2.648  15.785  0.4217  0.3239  0.4303
 6969SOL    HW132366   3.962   2.741  15.793 -0.7512  0.0380  0.6431
 6969SOL    HW232367   4.042   2.659  15.710  0.7487 -1.2494  0.4471
 6970SOL     OW32368   1.476   0.391   8.358 -0.2282  0.5480  0.2086
 6970SOL    HW132369   1.397   0.406   8.411 -0.3674  0.4315  0.0329
 6970SOL    HW232370   1.428   0.403   8.277 -0.3877 -1.6810 -0.0326
 6971SOL     OW32371   2.154   3.281   0.612 -0.0932  0.3525 -0.1842
 6971SOL    HW132372   2.219   3.214   0.632 -0.4154 -0.2282 -1.0736
 6971SOL    HW232373   2.112   3.292   0.697  0.6228 -0.2477  0.2498
 6972SOL     OW32374   0.911   0.411   8.443 -0.0549 -0.0706 -0.2493
 6972SOL    HW132375   0.824   0.429   8.406  1.2537  4.0973 -1.3072
 6972SOL    HW232376   0.912   0.448   8.531 -0.4689 -0.4782 -0.0732
 6973SOL     OW32377   1.938   1.493  10.511  0.4089  1.0034  0.3862
 6973SOL    HW132378   1.871   1.433  10.543  1.0892 -0.4941 -0.9876
 6973SOL    HW232379   1.956   1.455  10.424  0.4978  1.0182  0.3983
 6974SOL     OW32380   3.953   2.155   6.941  0.2881 -0.0906  0.5020
 6974SOL    HW132381   4.020   2.134   6.876  0.9255 -1.4069  1.5642
 6974SOL    HW232382   3.904   2.073   6.935 -1.5211  0.9555  1.0346
 6975SOL     OW32383   4.393   3.188   7.165  0.4511  0.1743  0.0381
 6975SOL    HW132384   4.373   3.240   7.087 -0.6739 -0.9292 -0.4020
 6975SOL    HW232385   4.472   3.230   7.200  1.7810 -0.3235 -2.3372
 6976SOL     OW32386   1.116   3.292   4.804 -0.0792  0.5898 -0.6105
 6976SOL    HW132387   1.025   3.262   4.802 -0.3714  1.3311  0.9231
 6976SOL    HW232388   1.159   3.210   4.783  0.6556  0.3771  1.7033
 6977SOL     OW32389   3.854   1.234   6.885  0.0626  0.1251  0.1069
 6977SOL    HW132390   3.831   1.244   6.977  2.1710  0.3742  0.6266
 6977SOL    HW232391   3.921   1.302   6.872 -0.2294  0.6192  1.2192
 6978SOL     OW32392   2.780   1.424  14.384 -0.2246 -0.4294 -0.1348
 6978SOL    HW132393   2.820   1.376  14.456 -1.9430 -3.4703 -1.2114
 6978SOL    HW232394   2.851   1.475  14.344 -0.4926  0.2460  0.2462
 6979SOL     OW32395   3.681   1.036   0.106  0.0593 -0.2072  0.4858
 6979SOL    HW132396   3.771   1.026   0.076 -0.9502 -3.4684 -1.4785
 6979SOL    HW232397   3.630   0.976   0.051 -0.4173  1.1027 -0.5121
 6980SOL     OW32398   2.686   1.575  15.486  0.7480  0.3077 -0.0350
 6980SOL    HW132399   2.593   1.552  15.479  0.5174  1.3172 -0.3037
 6980SOL    HW232400   2.700   1.538  15.400 -0.0356 -0.1287  0.0232
 6981SOL     OW32401   2.250   3.889   3.319  0.0955 -0.0450 -0.2593
 6981SOL    HW132402   2.155   3.882   3.323  0.1130 -0.3636 -0.3327
 6981SOL    HW232403   2.271   3.795   3.325  1.2058  0.2692  0.8772
 6982SOL     OW32404   3.926   3.470   1.468 -0.1468  0.2621  0.0396
 6982SOL    HW132405   3.845   3.493   1.513 -0.0170 -0.4479  0.6246
 6982SOL    HW232406   3.976   3.475   1.550  1.5067 -0.6074 -0.9153
 6983SOL     OW32407   2.568   4.158  10.412  0.1988 -0.2337  0.0849
 6983SOL    HW132408   2.527   4.233  10.455  0.4843  0.5287 -0.9641
 6983SOL    HW232409   2.499   4.092  10.408  2.1316 -2.2501  0.3405
 6984SOL     OW32410   4.329   2.062   5.936  0.7156  0.1535 -0.1324
 6984SOL    HW132411   4.342   2.146   5.891  1.5241  0.4694  0.6987
 6984SOL    HW232412   4.407   2.022   5.900  1.1246  1.5102 -0.7721
 6985SOL     OW32413   3.215   0.239   8.879  0.4309 -0.4569  0.2647
 6985SOL    HW132414   3.133   0.286   8.896  1.2654  0.4727  1.6473
 6985SOL    HW232415   3.251   0.228   8.967  0.3504 -3.0250 -0.0340
 6986SOL     OW32416   1.336   2.716   3.927 -0.3914  0.3949 -0.0501
 6986SOL    HW132417   1.302   2.648   3.869 -0.3492 -0.5013  0.9769
 6986SOL    HW232418   1.413   2.677   3.968 -1.2300  0.0877  1.2185
 6987SOL     OW32419   1.015   3.503  13.755  0.0151  0.3786 -0.5810
 6987SOL    HW132420   1.004   3.409  13.773 -1.1329  0.3374 -1.4724
 6987SOL    HW232421   1.076   3.531  13.823 -0.5348 -1.3406  0.6109
 6988SOL     OW32422   0.746   1.269   4.901 -0.6592  0.3894 -0.3808
 6988SOL    HW132423   0.829   1.222   4.914 -1.5382 -0.9057  0.5642
 6988SOL    HW232424   0.689   1.192   4.897  0.7950 -0.6333 -1.8953
 6989SOL     OW32425   4.011   4.521   6.634 -0.6541 -0.2566  0.4310
 6989SOL    HW132426   3.999   4.536   6.728 -0.1643  0.0506  0.4450
 6989SOL    HW232427   3.950   4.588   6.603  0.8072  0.1087 -1.6223
 6990SOL     OW32428   0.285   4.440   3.058 -0.3759 -0.4514  0.1653
 6990SOL    HW132429   0.271   4.401   3.144 -1.3332  2.2840  1.2315
 6990SOL    HW232430   0.267   4.529   3.088 -0.9505  0.4477 -2.8569
 6991SOL     OW32431   3.041   3.085  12.910  0.3423 -0.1010 -0.1383
 6991SOL    HW132432   3.019   3.082  12.817 -0.4189 -1.3755  0.0766
 6991SOL    HW232433   3.028   3.179  12.918 -0.5825 -0.0359 -2.2617
 6992SOL     OW32434   1.234   0.386   2.290 -0.0319  0.1955 -0.1587
 6992SOL    HW132435   1.318   0.360   2.328 -1.0565 -0.0434  1.9567
 6992SOL    HW232436   1.252   0.340   2.208 -0.5241 -0.6083  0.1745
 6993SOL     OW32437   0.370   3.469   4.430  0.1995 -0.2350  0.3336
 6993SOL    HW132438   0.310   3.449   4.358 -1.3011 -0.3752  1.6341
 6993SOL    HW232439   0.451   3.429   4.398  0.4398 -0.5641  1.3845
 6994SOL     OW32440   3.922   1.280   7.527 -0.6339  0.7032 -1.0417
 6994SOL    HW132441   3.854   1.327   7.480 -0.4265  0.1118 -1.9348
 6994SOL    HW232442   3.955   1.348   7.586  0.1678  0.3164 -1.0449
 6995SOL     OW32443   3.626   3.850   7.407 -0.1098  0.4040 -0.2604
 6995SOL    HW132444   3.717   3.833   7.431 -0.1915 -2.4845 -2.1012
 6995SOL    HW232445   3.582   3.856   7.492  0.7260  0.7909  0.1425
 6996SOL     OW32446   2.436   0.060  12.813 -0.2729 -0.0480  0.3191
 6996SOL    HW132447   2.355   0.107  12.831  0.8521  1.7793  0.5918
 6996SOL    HW232448   2.424   0.053  12.718  1.0865 -0.9327  0.2140
 6997SOL     OW32449   3.255   1.178   5.535 -0.5599  0.4355 -0.0393
 6997SOL    HW132450   3.228   1.262   5.572  1.6186  1.9715 -1.9506
 6997SOL    HW232451   3.329   1.157   5.592 -0.3305  0.4306 -0.3428
 6998SOL     OW32452   2.228   0.242   2.825  0.7408 -0.3619  0.5640
 6998SOL    HW132453   2.192   0.248   2.914  1.0050 -1.2896  0.7399
 6998SOL    HW232454   2.253   0.334   2.818 -0.4232 -0.0922 -0.0360
 6999SOL     OW32455   3.845   1.687  14.322  0.0434 -0.0771  0.0264
 6999SOL    HW132456   3.845   1.773  14.280  2.3964 -0.7567 -1.3572
 6999SOL    HW232457   3.933   1.653  14.306 -0.3008  0.2978 -2.6381
 7000SOL     OW32458   1.300   0.022   5.205 -0.0135 -0.5159  0.7125
 7000SOL    HW132459   1.293   0.104   5.157 -1.7248 -0.2684  1.3670
 7000SOL    HW232460   1.319   4.685   5.137  0.3060  0.3677 -0.0249
 7001SOL     OW32461   2.238   4.566  15.481  0.4488  0.2299 -0.3600
 7001SOL    HW132462   2.266   4.606  15.564  1.9728 -0.3057 -0.6271
 7001SOL    HW232463   2.203   4.484  15.514  0.0752  1.0068  1.1887
 7002SOL     OW32464   0.296   1.141   4.438  0.5373  0.8477  0.1203
 7002SOL    HW132465   0.271   1.101   4.355 -0.0017 -0.5143  0.9379
 7002SOL    HW232466   0.375   1.092   4.462  0.1876 -0.6973 -1.9460
 7003SOL     OW32467   3.732   4.248   9.181  0.4945  0.2108 -0.0499
 7003SOL    HW132468   3.703   4.248   9.273 -0.5330  1.9315 -0.3582
 7003SOL    HW232469   3.730   4.154   9.164 -0.5821  0.2113  0.0745
 7004SOL     OW32470   3.971   3.050   4.701 -0.2262  0.5645  0.4602
 7004SOL    HW132471   4.017   3.130   4.725  0.8903 -0.2498  1.0321
 7004SOL    HW232472   4.043   2.988   4.688  1.3411  2.8055 -1.5794
 7005SOL     OW32473   0.662   0.138  17.672 -0.1095  0.1066  0.3143
 7005SOL    HW132474   0.687   0.067  17.613  0.1305 -0.1229  0.6889
 7005SOL    HW232475   0.724   0.134   0.037 -1.0331  1.4445  1.1685
 7006SOL     OW32476   1.201   2.889   6.224  0.1099  0.2351  0.3255
 7006SOL    HW132477   1.229   2.968   6.177 -0.6842  0.9688  1.0914
 7006SOL    HW232478   1.193   2.834   6.146 -0.5858  0.0504  0.5264
 7007SOL     OW32479   0.460   4.722   4.852 -0.3305  0.2651 -0.3806
 7007SOL    HW132480   0.553   4.717   4.834 -0.3670 -1.3147 -0.1300
 7007SOL    HW232481   0.456   0.091   4.846 -0.1493  0.2923 -0.0501
 7008SOL     OW32482   2.429   4.119   5.332  0.0780 -0.1748  0.4768
 7008SOL    HW132483   2.426   4.024   5.335  1.9216 -0.2496 -0.1843
 7008SOL    HW232484   2.525   4.120   5.327 -0.0606 -0.0746 -2.1428
 7009SOL     OW32485   1.138   2.905   2.100 -0.5971 -0.0062  0.2305
 7009SOL    HW132486   1.105   2.908   2.190 -0.8631  1.0895  0.0994
 7009SOL    HW232487   1.209   2.840   2.100 -0.0206  0.6200 -0.4900
 7010SOL     OW32488   4.717   0.218   3.958  0.4516 -0.0916  0.5722
 7010SOL    HW132489   4.704   0.313   3.949 -1.9509 -0.4965 -0.0386
 7010SOL    HW232490   0.067   0.199   3.904 -1.0588 -2.2153 -0.8203
 7011SOL     OW32491   3.330   3.597  11.779  0.0662 -0.0386  0.0240
 7011SOL    HW132492   3.319   3.674  11.835 -0.1050  1.6791 -2.3642
 7011SOL    HW232493   3.346   3.630  11.691  0.0842  1.4957  0.5971
 7012SOL     OW32494   2.315   1.841   5.769  0.1453 -0.1777  0.1593
 7012SOL    HW132495   2.269   1.896   5.706 -1.3427  0.2834  1.6269
 7012SOL    HW232496   2.349   1.903   5.834  0.9237 -1.1611  0.6853
 7013SOL     OW32497   1.855   2.992   8.470  0.5565  0.5132 -0.1893
 7013SOL    HW132498   1.834   3.081   8.498 -0.0938  0.7091 -1.3231
 7013SOL    HW232499   1.912   2.977   8.545 -0.3005  2.2570  0.8057
 7014SOL     OW32500   3.043   2.073   1.746  0.1956  0.2233  0.9139
 7014SOL    HW132501   3.124   2.118   1.724 -0.8884  1.6189 -0.1818
 7014SOL    HW232502   3.039   1.996   1.690  1.6943  0.7473  0.0927
 7015SOL     OW32503   4.203   4.705   7.205 -0.4678  0.2866  0.0546
 7015SOL    HW132504   4.198   4.638   7.136  2.3918 -0.4009  0.5303
 7015SOL    HW232505   4.149   0.043   7.159 -1.6088 -1.5524 -1.2315
 7016SOL     OW32506   0.814   1.878   9.621  0.0188  0.6963  0.0879
 7016SOL    HW132507   0.827   1.816   9.693  2.1737  0.5128 -0.4480
 7016SOL    HW232508   0.757   1.944   9.660 -1.3784 -1.6672  2.0492
 7017SOL     OW32509   1.963   3.811   2.204  0.3639 -0.0777 -0.4431
 7017SOL    HW132510   2.040   3.823   2.148  2.2039  0.8807  2.2938
 7017SOL    HW232511   1.903   3.874   2.164 -0.4804 -0.0467  0.8912
 7018SOL     OW32512   0.195   3.665   2.288  0.2758  0.0125  0.5369
 7018SOL    HW132513   0.240   3.729   2.232  1.4331  0.6256  2.1781
 7018SOL    HW232514   0.186   3.729   2.358  1.5610 -0.2497  0.9475
 7019SOL     OW32515   3.792   4.291   2.957  0.3841  0.2835 -0.4301
 7019SOL    HW132516   3.821   4.382   2.960  0.5910  0.2703 -1.9901
 7019SOL    HW232517   3.698   4.308   2.950  0.4101  0.2069 -0.9444
 7020SOL     OW32518   3.197   2.689   4.161  0.0389  0.2436 -0.2472
 7020SOL    HW132519   3.257   2.716   4.091 -1.3440 -2.0227 -2.2706
 7020SOL    HW232520   3.132   2.760   4.155  0.1864  0.1280 -3.1163
 7021SOL     OW32521   1.264   4.168   3.537  0.0579  0.5166  0.3421
 7021SOL    HW132522   1.249   4.261   3.554  0.4611  0.2274  2.2939
 7021SOL    HW232523   1.219   4.150   3.619 -1.3412 -0.1048 -0.5648
 7022SOL     OW32524   1.685   1.977   3.161 -0.0792  0.4574  0.0443
 7022SOL    HW132525   1.713   1.995   3.250  1.1828 -1.3353  0.0140
 7022SOL    HW232526   1.596   1.949   3.181  1.3942 -1.9880  3.0974
 7023SOL     OW32527   4.448   1.304  14.980  0.3528  0.9003 -0.0171
 7023SOL    HW132528   4.393   1.382  14.985 -2.8410 -1.3677  0.3854
 7023SOL    HW232529   4.459   1.287  14.886  0.3625  0.5066  0.0549
 7024SOL     OW32530   4.671   1.242   7.774  0.6085  0.0254  0.6458
 7024SOL    HW132531   0.009   1.308   7.800  0.5497  0.5412 -0.5376
 7024SOL    HW232532   4.653   1.268   7.684  1.2492  2.6675  1.2766
 7025SOL     OW32533   4.225   2.262  16.511 -0.3815 -0.3442  0.1777
 7025SOL    HW132534   4.213   2.353  16.539 -1.4579  0.0081 -1.4211
 7025SOL    HW232535   4.149   2.248  16.454  0.7070  0.0434 -1.3607
 7026SOL     OW32536   0.880   1.989   8.752  0.0665  0.6340  0.3364
 7026SOL    HW132537   0.837   1.907   8.774 -1.8276  1.3738 -0.6692
 7026SOL    HW232538   0.848   2.042   8.825 -0.1214  0.0314  0.6902
 7027SOL     OW32539   4.452   0.988   3.635 -0.3391  0.3337 -0.4032
 7027SOL    HW132540   4.459   1.079   3.606  1.8155 -0.0540 -1.1528
 7027SOL    HW232541   4.368   0.962   3.599 -1.6858 -1.7880  4.2944
 7028SOL     OW32542   4.480   1.952  10.412 -0.4756  0.0499  0.1205
 7028SOL    HW132543   4.512   1.945  10.502  0.5692 -0.0695 -0.2561
 7028SOL    HW232544   4.562   1.928  10.368 -0.9549  0.5171 -1.0064
 7029SOL     OW32545   0.336   2.669  13.761 -0.4222  0.6926  0.4195
 7029SOL    HW132546   0.423   2.691  13.794 -0.3179 -1.1597  1.3226
 7029SOL    HW232547   0.364   2.614  13.688 -1.5194 -0.8741  1.1757
 7030SOL     OW32548   3.884   3.278   1.917 -0.0910  0.0790 -0.2572
 7030SOL    HW132549   3.942   3.286   1.993 -0.7884  0.6610  0.2089
 7030SOL    HW232550   3.932   3.218   1.860  0.0995  0.2712 -0.2992
 7031SOL     OW32551   1.188   2.359   6.490  0.1611 -0.2933  0.4218
 7031SOL    HW132552   1.120   2.416   6.526 -0.1547  0.3874 -1.2364
 7031SOL    HW232553   1.227   2.322   6.569 -2.3324 -0.5042  1.5624
 7032SOL     OW32554   0.824   1.561   2.991  0.2946 -0.2360 -0.5098
 7032SOL    HW132555   0.901   1.551   2.935  2.5072 -3.7586  3.1633
 7032SOL    HW232556   0.848   1.535   3.080  0.2939 -0.3536 -0.5443
 7033SOL     OW32557   0.273   1.707   6.963  0.9883 -0.0022 -0.1171
 7033SOL    HW132558   0.244   1.727   6.874 -2.3437  0.0447  0.9708
 7033SOL    HW232559   0.205   1.642   6.984 -0.0711  0.7628 -1.2057
 7034SOL     OW32560   2.276   0.019   6.524  0.5715 -0.1580  0.0598
 7034SOL    HW132561   2.221   0.082   6.478  0.1158 -0.2254  0.5117
 7034SOL    HW232562   2.348   0.068   6.565  0.4422  0.7112 -0.7615
 7035SOL     OW32563   1.110   1.879  15.499  0.5010 -0.8392 -0.2693
 7035SOL    HW132564   1.071   1.931  15.570 -0.3468 -2.1891  0.2401
 7035SOL    HW232565   1.165   1.813  15.540  1.8638  0.4826  0.0353
 7036SOL     OW32566   3.938   4.515   8.766  0.4085 -0.3660  0.5367
 7036SOL    HW132567   3.972   4.473   8.687  3.6017 -1.7258  2.6016
 7036SOL    HW232568   3.960   4.444   8.827  1.5872 -0.2593  0.2343
 7037SOL     OW32569   1.506   2.617   5.970  0.5278  0.0238  0.4484
 7037SOL    HW132570   1.564   2.686   6.002  0.0479 -0.0726  1.5122
 7037SOL    HW232571   1.421   2.661   5.971  0.9691  0.9536 -2.0661
 7038SOL     OW32572   1.202   0.970  12.828  0.4434 -0.1100  0.3321
 7038SOL    HW132573   1.193   0.915  12.906  0.1140  1.3711  1.3413
 7038SOL    HW232574   1.108   0.971  12.807  0.7594 -1.0344 -1.1722
 7039SOL     OW32575   4.588   2.427   4.266 -0.0530 -0.5831  0.4095
 7039SOL    HW132576   4.636   2.344   4.267  0.1788 -0.4525 -0.0291
 7039SOL    HW232577   4.614   2.464   4.181 -4.0603  1.6790  0.1753
 7040SOL     OW32578   2.167   1.336   2.002 -0.5026 -0.0210  0.1527
 7040SOL    HW132579   2.197   1.246   2.005 -0.2649  0.0097 -1.7172
 7040SOL    HW232580   2.199   1.372   2.085  2.5010 -1.4947 -0.3631
 7041SOL     OW32581   0.153   0.486   5.435  0.7580  0.2745  0.1878
 7041SOL    HW132582   0.220   0.425   5.402 -0.5053 -1.8345  1.5285
 7041SOL    HW232583   0.131   0.447   5.520 -0.1803  2.5968  1.0086
 7042SOL     OW32584   4.561   0.185   2.249 -0.1047 -0.5531 -0.3352
 7042SOL    HW132585   4.593   0.193   2.159 -1.8154 -1.2261 -1.0172
 7042SOL    HW232586   4.647   0.186   2.290 -0.3253 -1.7633  0.1552
 7043SOL     OW32587   1.909   0.572   7.324 -0.1189 -0.1958  0.3026
 7043SOL    HW132588   1.947   0.637   7.265 -1.0347  0.1517  0.0898
 7043SOL    HW232589   1.911   0.492   7.272 -3.6740  0.2531 -0.5554
 7044SOL     OW32590   2.610   1.266   6.535 -0.4997  0.1388 -0.1279
 7044SOL    HW132591   2.519   1.294   6.541 -0.3609  0.4573  0.4337
 7044SOL    HW232592   2.656   1.339   6.576  0.3345 -0.9079  0.8073
 7045SOL     OW32593   1.235   0.967   2.828  0.4357  0.1928 -0.0697
 7045SOL    HW132594   1.308   0.908   2.847  0.1737 -0.4788 -1.1084
 7045SOL    HW232595   1.221   0.998   2.917  1.3895  2.4081 -0.6967
 7046SOL     OW32596   1.290   0.517   9.766 -0.1216 -0.4569  0.5181
 7046SOL    HW132597   1.249   0.463   9.833 -1.9642 -0.2647 -0.4728
 7046SOL    HW232598   1.276   0.452   9.697  1.6471 -0.4956  0.1984
 7047SOL     OW32599   0.515   1.228   6.997  0.1622 -0.3562 -0.3490
 7047SOL    HW132600   0.438   1.223   6.940 -0.6128 -1.3900  0.7785
 7047SOL    HW232601   0.522   1.323   7.004 -0.8598 -0.3591  0.7129
 7048SOL     OW32602   2.438   1.663   3.771 -0.2840 -0.1685 -0.8406
 7048SOL    HW132603   2.464   1.579   3.732 -1.1222  0.2456 -2.2833
 7048SOL    HW232604   2.508   1.714   3.733  0.8914 -0.0029  1.5753
 7049SOL     OW32605   2.882   1.866   2.721 -0.2289  0.3221 -0.4658
 7049SOL    HW132606   2.853   1.923   2.651 -0.8525 -0.8410 -1.1545
 7049SOL    HW232607   2.828   1.898   2.794 -0.6406 -0.2039 -0.5352
 7050SOL     OW32608   2.147   4.157   5.519  0.0657  0.3479  0.7623
 7050SOL    HW132609   2.086   4.231   5.509  2.1280  2.0539  0.8697
 7050SOL    HW232610   2.129   4.117   5.433  0.3806  0.5062  0.6251
 7051SOL     OW32611   0.024   4.618   2.171  0.4240 -0.3343  0.9608
 7051SOL    HW132612   0.056   4.528   2.165  3.8714  0.8488  1.9674
 7051SOL    HW232613   4.657   4.601   2.184 -0.0950  1.5563 -0.3868
 7052SOL     OW32614   3.399   1.719  10.322  0.2232  0.1529  0.5728
 7052SOL    HW132615   3.371   1.637  10.362  2.1234 -0.6554  0.2322
 7052SOL    HW232616   3.328   1.731  10.259  0.5344 -0.2081  0.1596
 7053SOL     OW32617   2.708   0.306  13.526  0.5277 -0.3994 -0.2131
 7053SOL    HW132618   2.775   0.316  13.458  1.3610 -2.5006  0.2852
 7053SOL    HW232619   2.639   0.326  13.463  0.8126  2.2033  0.3056
 7054SOL     OW32620   0.727   0.813  11.176  0.0684 -0.2236  0.9059
 7054SOL    HW132621   0.692   0.875  11.238 -4.0175 -2.0515  0.4118
 7054SOL    HW232622   0.784   0.875  11.130  0.0388  0.4695  1.8256
 7055SOL     OW32623   3.213   0.196   2.094  0.4883  0.1781 -0.2967
 7055SOL    HW132624   3.293   0.222   2.049  0.6264  1.7761  0.9090
 7055SOL    HW232625   3.223   0.100   2.090 -0.6396  0.0951 -1.3117
 7056SOL     OW32626   2.518   2.114   6.779  0.0800 -0.3747  0.1066
 7056SOL    HW132627   2.594   2.121   6.837 -0.0909  0.9896  0.1698
 7056SOL    HW232628   2.495   2.024   6.800  0.6412  0.1464  3.0518
 7057SOL     OW32629   0.048   4.000   3.793  0.0521 -0.2111 -0.4396
 7057SOL    HW132630   0.139   4.005   3.764  0.6330 -0.3952  1.3577
 7057SOL    HW232631   0.009   4.004   3.706 -0.0653 -0.8109 -0.4126
 7058SOL     OW32632   4.111   0.016  11.104  0.4621  0.6260 -0.0701
 7058SOL    HW132633   4.072   0.024  11.191  0.4945  3.4733 -0.3152
 7058SOL    HW232634   4.100   0.098  11.055 -0.3313  0.1348 -0.7404
 7059SOL     OW32635   3.303   0.422   4.560 -0.5992 -0.0631  0.5490
 7059SOL    HW132636   3.353   0.494   4.521  1.2086 -1.2324  0.6721
 7059SOL    HW232637   3.350   0.409   4.643 -1.4831 -0.4620  0.9816
 7060SOL     OW32638   3.447   1.349   6.825 -0.3270  0.3215 -0.7811
 7060SOL    HW132639   3.518   1.344   6.761 -0.5919 -0.0289 -1.0436
 7060SOL    HW232640   3.483   1.282   6.882 -1.4096  1.8108  1.6155
 7061SOL     OW32641   3.273   0.190   3.392  0.6008 -0.3565  0.1833
 7061SOL    HW132642   3.321   0.248   3.452 -1.0011  2.4684 -1.2376
 7061SOL    HW232643   3.192   0.239   3.376  1.4081  1.7038  2.3964
 7062SOL     OW32644   1.136   0.117   3.561 -0.5277  0.1580 -0.5149
 7062SOL    HW132645   1.193   0.123   3.484 -0.8121 -1.0792 -0.8254
 7062SOL    HW232646   1.057   0.074   3.528 -0.0015  1.0395 -2.9588
 7063SOL     OW32647   3.543   3.167   5.630  0.3275 -0.5989 -0.1771
 7063SOL    HW132648   3.633   3.134   5.632 -0.3007 -2.2383  1.6235
 7063SOL    HW232649   3.528   3.184   5.537 -1.2743  0.3615  0.2760
 7064SOL     OW32650   1.805   2.773   5.395 -0.0387 -0.7027 -0.1063
 7064SOL    HW132651   1.857   2.800   5.471  1.1578 -0.6398 -0.9479
 7064SOL    HW232652   1.869   2.800   5.329  0.1873  1.1402  0.8537
 7065SOL     OW32653   2.553   1.766   2.557 -0.4579  0.1502  0.3922
 7065SOL    HW132654   2.501   1.735   2.483 -0.1659 -0.4257  0.4358
 7065SOL    HW232655   2.483   1.817   2.598 -0.3371  0.9645 -0.3952
 7066SOL     OW32656   3.085   0.323   6.701  0.0649  0.2281  0.2651
 7066SOL    HW132657   2.993   0.334   6.726  0.0679  0.3906  0.2050
 7066SOL    HW232658   3.099   0.234   6.732 -0.7163 -0.4685 -1.3619
 7067SOL     OW32659   2.157   0.559   8.197 -0.0906  0.0491 -0.1118
 7067SOL    HW132660   2.164   0.556   8.101  1.0398  0.6440 -0.0409
 7067SOL    HW232661   2.192   0.473   8.217 -2.9978 -0.8013  1.3136
 7068SOL     OW32662   2.108   1.567   8.606  0.0702 -0.1408  0.0039
 7068SOL    HW132663   2.202   1.563   8.621  0.0501 -1.9514 -0.3274
 7068SOL    HW232664   2.114   1.576   8.511  2.2899  1.1510  0.2782
 7069SOL     OW32665   2.163   2.673   5.781 -0.7912  0.1389  0.2258
 7069SOL    HW132666   2.209   2.698   5.861  2.5216 -0.5191 -1.4658
 7069SOL    HW232667   2.089   2.734   5.782  0.1819  1.3099  0.3945
 7070SOL     OW32668   1.659   2.359   5.608  0.3807 -0.1464 -0.3740
 7070SOL    HW132669   1.678   2.432   5.667 -0.8079 -1.4443  1.6024
 7070SOL    HW232670   1.747   2.350   5.570 -0.3464 -0.9028 -1.8619
 7071SOL     OW32671   1.337   4.133   5.805  0.2573 -0.5620  0.8133
 7071SOL    HW132672   1.388   4.140   5.724  0.1032 -1.8485  0.6198
 7071SOL    HW232673   1.301   4.221   5.816  2.8348  0.2763  2.5788
 7072SOL     OW32674   1.573   3.529  10.188  0.4806 -0.1861 -0.2219
 7072SOL    HW132675   1.571   3.444  10.232  0.8571  0.4937  1.1200
 7072SOL    HW232676   1.658   3.557  10.223  1.3823 -2.9368 -0.1869
 7073SOL     OW32677   3.992   4.461   7.173  0.3417 -0.8676  0.0564
 7073SOL    HW132678   4.021   4.417   7.253  1.1136  0.1862  0.3567
 7073SOL    HW232679   3.901   4.434   7.184  0.2031 -1.2695 -2.1672
 7074SOL     OW32680   3.628   1.977   4.586  0.5267 -0.0288 -0.1709
 7074SOL    HW132681   3.548   1.924   4.597 -0.0495  1.1035  1.0280
 7074SOL    HW232682   3.698   1.917   4.611  1.7750  1.0620 -1.1106
 7075SOL     OW32683   0.015   2.012   4.481  0.2886 -0.2523  0.3862
 7075SOL    HW132684   0.005   2.107   4.477 -1.1510 -0.4328 -0.3837
 7075SOL    HW232685   0.104   2.009   4.515  0.9034 -0.7472 -1.2728
 7076SOL     OW32686   3.347   4.359   3.321  0.0494  0.3244 -0.0479
 7076SOL    HW132687   3.370   4.439   3.272 -2.3686  0.3778 -1.1344
 7076SOL    HW232688   3.428   4.314   3.343 -1.2240 -0.6753  2.4788
 7077SOL     OW32689   3.831   3.819   5.929 -0.7336 -0.0384  0.0525
 7077SOL    HW132690   3.861   3.744   5.877 -0.1422  1.0677 -1.2129
 7077SOL    HW232691   3.746   3.790   5.961 -0.0814 -0.2206  1.5900
 7078SOL     OW32692   1.887   1.988  10.792  0.1395  0.2785 -0.1626
 7078SOL    HW132693   1.831   2.045  10.739 -0.9144 -0.2490  0.3663
 7078SOL    HW232694   1.870   2.030  10.877 -2.4267  1.8723 -1.4663
 7079SOL     OW32695   1.508   1.392  14.341  0.1963  0.3825  0.1961
 7079SOL    HW132696   1.489   1.426  14.428 -1.7774 -0.8547  0.2667
 7079SOL    HW232697   1.500   1.480  14.306 -0.7469 -0.4520 -1.7448
 7080SOL     OW32698   3.362   2.556   7.445  0.2683 -0.0115  0.0134
 7080SOL    HW132699   3.410   2.537   7.365  0.3811  1.6063 -0.2982
 7080SOL    HW232700   3.347   2.648   7.425  2.6327  0.2441 -0.4958
 7081SOL     OW32701   2.964   2.102  14.473 -0.5961 -0.6265  0.0389
 7081SOL    HW132702   2.942   2.162  14.544  2.3031 -0.6025  0.9077
 7081SOL    HW232703   2.887   2.046  14.480 -0.7365 -0.1313  2.3920
 7082SOL     OW32704   3.286   4.153   6.084  0.1180  0.4022  0.0059
 7082SOL    HW132705   3.380   4.135   6.081 -0.3292 -1.8539 -1.2551
 7082SOL    HW232706   3.255   4.090   6.149 -2.5677  1.1584 -0.5540
 7083SOL     OW32707   3.059   1.238   3.676  0.1112  0.2194 -0.4712
 7083SOL    HW132708   3.062   1.164   3.737 -1.6769  0.2859 -0.2944
 7083SOL    HW232709   3.145   1.238   3.634  0.9878  2.4378  1.3223
 7084SOL     OW32710   1.035   3.504  17.236  0.1301 -0.2277  0.3388
 7084SOL    HW132711   1.085   3.542  17.309  0.1805 -0.8810  0.6442
 7084SOL    HW232712   0.986   3.440  17.288  3.0169 -1.7067  1.2460
 7085SOL     OW32713   1.532   3.344   4.080 -0.2249  0.3724  0.4675
 7085SOL    HW132714   1.608   3.347   4.022 -1.1665 -0.6548 -0.8336
 7085SOL    HW232715   1.501   3.257   4.057  0.0517 -0.3717  2.9654
 7086SOL     OW32716   4.321   1.901   2.370  0.2017 -0.4094  0.2700
 7086SOL    HW132717   4.258   1.839   2.407  1.3353 -1.2857  0.7477
 7086SOL    HW232718   4.283   1.924   2.285  1.1078  2.2007  0.5888
 7087SOL     OW32719   2.489   0.133   0.744  0.3619 -0.6040 -0.2518
 7087SOL    HW132720   2.530   0.087   0.817 -0.7477 -0.1083  0.6862
 7087SOL    HW232721   2.406   0.162   0.782  1.4665  1.0365  0.9287
 7088SOL     OW32722   1.925   0.478   6.368  0.3732  0.1500 -0.4440
 7088SOL    HW132723   1.920   0.560   6.416 -1.4061 -0.0415 -0.3084
 7088SOL    HW232724   1.877   0.503   6.289 -2.1118 -1.0438  0.6747
 7089SOL     OW32725   0.546   2.675   8.203  0.1298  0.3401  0.2899
 7089SOL    HW132726   0.639   2.657   8.186 -0.4252 -1.5044 -0.7114
 7089SOL    HW232727   0.553   2.768   8.226 -1.2694 -0.0840  2.4281
 7090SOL     OW32728   2.325   0.850   5.833 -0.5548  0.2088 -0.5278
 7090SOL    HW132729   2.372   0.888   5.907 -0.7262  0.8991 -0.7747
 7090SOL    HW232730   2.377   0.771   5.817  1.6192  1.4152  0.5432
 7091SOL     OW32731   4.725   4.531   5.418  0.3416 -0.4452  0.2789
 7091SOL    HW132732   0.039   4.447   5.436 -0.2979 -0.3289  2.2913
 7091SOL    HW232733   4.635   4.510   5.443 -0.0259  0.4419 -0.2804
 7092SOL     OW32734   4.295   1.905   3.485 -0.3318  0.3047  1.0838
 7092SOL    HW132735   4.276   1.922   3.577 -2.4940 -0.9386  0.8658
 7092SOL    HW232736   4.267   1.990   3.451 -0.8358  0.2340  1.3319
 7093SOL     OW32737   0.940   2.140   0.642 -0.2559 -0.5607  0.0528
 7093SOL    HW132738   0.916   2.114   0.553 -2.8894 -2.5956  1.3559
 7093SOL    HW232739   0.965   2.055   0.678  1.1926 -0.5700 -0.9888
 7094SOL     OW32740   1.559   4.100   2.707  0.2530 -0.7840 -0.7093
 7094SOL    HW132741   1.589   4.162   2.641  1.2356 -2.2888 -1.6763
 7094SOL    HW232742   1.482   4.144   2.744  1.8189  2.2521 -1.0824
 7095SOL     OW32743   3.857   4.489   8.335 -0.2670  0.1758 -0.1530
 7095SOL    HW132744   3.845   4.553   8.264 -1.2785  0.9334  0.6912
 7095SOL    HW232745   3.779   4.513   8.385 -1.4167 -1.3432 -1.2008
 7096SOL     OW32746   4.158   3.544  17.603 -0.3589 -0.1411  0.2199
 7096SOL    HW132747   4.101   3.597  17.660 -1.0396 -0.1790 -0.4281
 7096SOL    HW232748   4.197   3.616  17.554  0.4987 -0.4563  0.4345
 7097SOL     OW32749   0.149   4.488   8.984  0.4354  0.0268  0.1134
 7097SOL    HW132750   0.102   4.477   9.067  1.4398  1.2197  0.8497
 7097SOL    HW232751   0.159   4.583   8.982 -1.3289  0.1944 -1.2054
 7098SOL     OW32752   2.845   0.876   6.664  0.0356 -0.0651 -0.4803
 7098SOL    HW132753   2.935   0.900   6.690  0.7572 -0.6001 -2.4981
 7098SOL    HW232754   2.868   0.805   6.604  1.3463  1.7784 -2.1911
 7099SOL     OW32755   4.669   4.134   8.899 -0.1424 -0.2765 -0.0635
 7099SOL    HW132756   4.589   4.081   8.896 -0.5261  0.1591  2.3837
 7099SOL    HW232757   0.007   4.063   8.899 -1.5210 -1.5383  1.3747
 7100SOL     OW32758   4.493   3.386  13.027  0.1365  0.3810 -0.4084
 7100SOL    HW132759   4.580   3.410  13.060  0.5938  0.2467 -1.5037
 7100SOL    HW232760   4.515   3.331  12.952  0.9060  1.0220 -0.6517
 7101SOL     OW32761   1.701   2.553  16.854  0.1127  0.1521  0.4867
 7101SOL    HW132762   1.697   2.532  16.761  2.2391  0.9031  0.2227
 7101SOL    HW232763   1.659   2.478  16.897  0.6058 -1.4294 -1.7779
 7102SOL     OW32764   1.375   3.299   4.614 -0.0104 -0.1332  0.2058
 7102SOL    HW132765   1.304   3.240   4.639  0.2219 -0.5210 -0.0509
 7102SOL    HW232766   1.380   3.288   4.519  0.1931  3.9412 -0.2533
 7103SOL     OW32767   1.868   2.737   8.393 -0.4347 -0.5071  0.4532
 7103SOL    HW132768   1.804   2.734   8.322 -2.3405  0.3521  2.1401
 7103SOL    HW232769   1.862   2.831   8.407 -0.0033 -0.4210  0.0980
 7104SOL     OW32770   1.043   0.949   4.334  0.2037  0.4010 -0.7170
 7104SOL    HW132771   1.127   0.923   4.295 -0.7495 -1.2357 -1.6726
 7104SOL    HW232772   0.986   0.882   4.297  1.2111 -0.1028 -1.3786
 7105SOL     OW32773   0.439   3.352   3.587  0.3115  0.0147  0.7886
 7105SOL    HW132774   0.464   3.356   3.494 -3.1115  0.3347 -0.0967
 7105SOL    HW232775   0.514   3.312   3.631  0.5531 -0.5514 -0.1297
 7106SOL     OW32776   2.382   1.833   4.503  0.2297 -0.4062 -0.6319
 7106SOL    HW132777   2.356   1.803   4.590 -0.5281  2.1383  0.0264
 7106SOL    HW232778   2.471   1.869   4.506 -0.0138 -0.1227  2.4410
 7107SOL     OW32779   1.994   3.367  11.517 -0.3327  0.5827 -0.0176
 7107SOL    HW132780   2.023   3.291  11.568 -1.4055  0.7035  0.7857
 7107SOL    HW232781   1.994   3.332  11.428  1.0111 -1.9205  0.9436
 7108SOL     OW32782   2.440   0.483   1.951 -0.0330  0.1688 -0.4707
 7108SOL    HW132783   2.418   0.576   1.944 -2.4326 -0.4001 -0.5834
 7108SOL    HW232784   2.503   0.474   1.880  0.8350 -1.8519  0.5548
 7109SOL     OW32785   0.625   2.509   6.598 -0.6215  0.0619  0.3792
 7109SOL    HW132786   0.659   2.493   6.686 -3.0469 -1.1487  1.0789
 7109SOL    HW232787   0.672   2.590   6.575 -0.0457  0.3785  2.6927
 7110SOL     OW32788   3.468   0.141   0.631 -0.3590 -0.7081 -0.1308
 7110SOL    HW132789   3.393   0.093   0.596 -0.5557 -0.7085  0.2897
 7110SOL    HW232790   3.518   0.070   0.672 -0.0163  0.7275  1.9841
 7111SOL     OW32791   0.651   3.734   0.368 -0.1059 -0.5806 -0.0765
 7111SOL    HW132792   0.677   3.663   0.308  1.9438 -0.9175  1.2007
 7111SOL    HW232793   0.565   3.705   0.396 -1.3799  4.5098  1.2381
 7112SOL     OW32794   1.730   1.962  12.114  0.3250 -0.3873 -0.0813
 7112SOL    HW132795   1.674   1.900  12.068  1.5870 -1.6982  0.1620
 7112SOL    HW232796   1.804   1.905  12.130 -0.5460 -1.4193  0.2691
 7113SOL     OW32797   2.537   1.400   5.791  0.1816 -0.3617 -0.3320
 7113SOL    HW132798   2.442   1.395   5.800  0.3288 -3.8728 -0.6301
 7113SOL    HW232799   2.579   1.331   5.842 -0.6882  1.1580  2.3918
 7114SOL     OW32800   0.535   0.449   7.876 -0.4256 -0.2546 -0.1230
 7114SOL    HW132801   0.485   0.383   7.828 -0.2646  0.7048 -1.6127
 7114SOL    HW232802   0.580   0.492   7.803  1.3029 -2.7759 -0.5691
 7115SOL     OW32803   2.811   2.019   4.151  0.1225 -0.0567 -0.0903
 7115SOL    HW132804   2.724   2.049   4.178 -0.4967 -1.4082 -0.6160
 7115SOL    HW232805   2.842   2.095   4.101 -0.6978  0.2836 -0.0840
 7116SOL     OW32806   4.115   1.538   6.152  0.0023 -0.3792  0.4962
 7116SOL    HW132807   4.199   1.525   6.108  0.1234  0.1011  0.5794
 7116SOL    HW232808   4.074   1.608   6.101  0.3968  0.0314  0.7397
 7117SOL     OW32809   2.021   1.041   6.371  0.7949 -0.3899 -0.4089
 7117SOL    HW132810   2.044   0.968   6.430 -0.7250  2.2812  3.4534
 7117SOL    HW232811   2.031   1.109   6.437  1.2524 -0.9858  0.1429
 7118SOL     OW32812   3.984   4.333   1.757  0.1489 -0.0398  0.4611
 7118SOL    HW132813   4.026   4.306   1.676  0.8586  0.4489  0.6596
 7118SOL    HW232814   3.996   4.259   1.816  0.2291 -0.3463  0.0569
 7119SOL     OW32815   1.673   1.747   8.026  0.0516  0.2229  0.0710
 7119SOL    HW132816   1.592   1.794   8.006  0.7428  0.8188 -1.2944
 7119SOL    HW232817   1.733   1.795   7.969  1.1977 -3.7996 -2.1113
 7120SOL     OW32818   1.852   4.536   8.519  0.3063  0.5694 -0.3369
 7120SOL    HW132819   1.799   4.549   8.598 -1.8387  0.6638 -1.7903
 7120SOL    HW232820   1.901   4.615   8.500 -1.3373  1.4710 -0.8625
 7121SOL     OW32821   2.478   2.342  17.659  0.8444 -0.5828 -0.0318
 7121SOL    HW132822   2.557   2.307  17.701  2.4555  0.7189 -1.9662
 7121SOL    HW232823   2.419   2.336   0.026  2.1970  0.1339  1.0916
 7122SOL     OW32824   1.142   4.188   1.632 -0.3170  0.2074 -0.4188
 7122SOL    HW132825   1.048   4.205   1.618 -0.8683 -1.7502  0.8801
 7122SOL    HW232826   1.146   4.098   1.600  1.5690 -0.5179  1.8231
 7123SOL     OW32827   3.580   1.957   3.174  0.4793  0.1551  0.0307
 7123SOL    HW132828   3.601   1.940   3.266  1.5901  1.8633  0.0901
 7123SOL    HW232829   3.669   1.969   3.140  0.1026  2.7580 -0.0489
 7124SOL     OW32830   1.208   1.885   2.792  0.1048  0.5154 -0.5018
 7124SOL    HW132831   1.233   1.893   2.700 -0.8428  0.4301 -0.7660
 7124SOL    HW232832   1.112   1.886   2.789  0.1077  1.8300 -0.3921
 7125SOL     OW32833   2.286   4.408   8.358  0.1323 -0.0035  0.2805
 7125SOL    HW132834   2.355   4.463   8.394  0.1931  0.2995 -0.3051
 7125SOL    HW232835   2.331   4.330   8.324  1.7549  1.1317 -0.1639
 7126SOL     OW32836   3.345   3.951   5.813  0.7742  0.0749  0.4693
 7126SOL    HW132837   3.304   3.888   5.872  0.7767  2.0398  2.5661
 7126SOL    HW232838   3.358   3.897   5.735  3.2705  1.1586  0.1214
 7127SOL     OW32839   0.444   3.437  15.766 -0.6812 -0.2282  0.0734
 7127SOL    HW132840   0.522   3.490  15.747 -0.3899 -0.9032 -0.5888
 7127SOL    HW232841   0.381   3.509  15.760 -0.2157  0.3385  1.9054
 7128SOL     OW32842   0.052   4.293   3.904 -0.2361  0.3648  0.2064
 7128SOL    HW132843   0.096   4.219   3.945  0.8326  0.1619 -1.2967
 7128SOL    HW232844   4.722   4.325   3.974 -0.7997  0.1489 -0.1575
 7129SOL     OW32845   3.463   1.970  10.456  0.3581  0.0540  0.2617
 7129SOL    HW132846   3.427   1.938  10.538  1.8066 -0.5890  0.6362
 7129SOL    HW232847   3.443   1.895  10.400  2.5042  0.7008 -1.3834
 7130SOL     OW32848   0.413   1.192   5.114 -0.5688  0.0181 -0.0051
 7130SOL    HW132849   0.469   1.249   5.166  1.0900 -0.6600 -1.0468
 7130SOL    HW232850   0.437   1.111   5.158  3.1944  0.8432 -0.5346
 7131SOL     OW32851   2.109   1.756  15.296  0.1441  0.1972 -0.0364
 7131SOL    HW132852   2.052   1.701  15.350 -1.6912 -0.4369 -2.5667
 7131SOL    HW232853   2.099   1.841  15.340 -2.3239  0.3264 -0.8229
 7132SOL     OW32854   2.003   2.321   3.272 -0.4956 -0.4032  0.1094
 7132SOL    HW132855   2.044   2.238   3.248 -1.5289 -1.0081  0.4533
 7132SOL    HW232856   2.082   2.372   3.289 -0.9424  0.3034  0.0686
 7133SOL     OW32857   3.002   0.012  15.005 -0.0770  0.0847 -0.5901
 7133SOL    HW132858   2.968   4.723  14.917 -0.5549 -1.5780 -0.1209
 7133SOL    HW232859   3.095   0.015  14.983  0.1350 -0.4334  0.2145
 7134SOL     OW32860   2.428   0.721   2.351  0.2432 -0.0082  0.1178
 7134SOL    HW132861   2.383   0.645   2.388  0.0567 -0.3232 -0.7614
 7134SOL    HW232862   2.520   0.701   2.365  0.3044 -0.3222 -0.7187
 7135SOL     OW32863   1.918   3.544   2.279 -0.0918  0.0228 -0.5825
 7135SOL    HW132864   1.936   3.586   2.363  2.0577  3.9886 -3.0216
 7135SOL    HW232865   1.916   3.618   2.218  0.2811  1.1334  0.7503
 7136SOL     OW32866   1.967   3.549   2.999 -0.1746 -1.0146 -0.7398
 7136SOL    HW132867   1.891   3.494   3.015 -1.6701  0.9755 -0.9131
 7136SOL    HW232868   1.921   3.613   2.945  1.8857 -0.0754 -1.3796
 7137SOL     OW32869   0.084   3.002  14.450  0.1403  0.1332 -0.0923
 7137SOL    HW132870   0.111   2.921  14.492  2.6102  0.5663 -0.8613
 7137SOL    HW232871   4.717   3.016  14.466  0.8855  3.3109  1.4405
 7138SOL     OW32872   1.107   4.215   7.149 -0.0794  0.4292 -0.4993
 7138SOL    HW132873   1.193   4.217   7.107 -0.7293  1.3485 -1.8078
 7138SOL    HW232874   1.140   4.253   7.230 -1.0322  3.5968 -1.5792
 7139SOL     OW32875   0.440   4.010   7.709 -0.2135  0.6634  0.1751
 7139SOL    HW132876   0.380   3.955   7.758 -0.0363 -1.1722 -1.6475
 7139SOL    HW232877   0.506   4.042   7.771 -1.2314  2.3251  0.4218
 7140SOL     OW32878   1.646   2.914  13.209 -0.4140  0.0311  0.0308
 7140SOL    HW132879   1.663   2.878  13.296  2.7559  1.3800 -0.0149
 7140SOL    HW232880   1.550   2.913  13.210 -0.3775 -1.6201  1.7143
 7141SOL     OW32881   2.492   0.195   7.455  0.2162 -0.4992 -0.4461
 7141SOL    HW132882   2.585   0.215   7.462  0.3348 -0.6433 -1.5063
 7141SOL    HW232883   2.467   0.159   7.540  0.9223  0.1969  0.0542
 7142SOL     OW32884   4.545   3.654   2.145 -0.1154 -0.9076 -0.1995
 7142SOL    HW132885   4.600   3.690   2.214  0.3755 -3.5075  0.7510
 7142SOL    HW232886   4.578   3.565   2.138  0.6363 -0.5285 -1.6405
 7143SOL     OW32887   4.162   0.561   7.158  0.3106  0.2068  0.1619
 7143SOL    HW132888   4.100   0.617   7.205  4.1511  4.4428  0.1817
 7143SOL    HW232889   4.123   0.575   7.072  0.2202 -1.6003 -0.0901
 7144SOL     OW32890   4.419   2.327   5.473  0.3055  0.3347 -0.0205
 7144SOL    HW132891   4.400   2.333   5.379 -2.3936 -0.5225  0.4605
 7144SOL    HW232892   4.403   2.234   5.490  1.3462  0.2590  0.5447
 7145SOL     OW32893   2.441   1.444   8.376 -0.1743  0.0939  0.1744
 7145SOL    HW132894   2.435   1.352   8.400  0.0574 -0.1921 -0.8961
 7145SOL    HW232895   2.390   1.486   8.446 -1.7014  1.3601 -1.6856
 7146SOL     OW32896   4.359   3.412   3.268  0.2165  0.2670 -0.8079
 7146SOL    HW132897   4.283   3.361   3.241  1.1266 -2.0509  1.0254
 7146SOL    HW232898   4.431   3.349   3.260 -0.3611 -0.6355  1.3943
 7147SOL     OW32899   2.458   2.478   4.343  0.0586  0.5743 -0.0895
 7147SOL    HW132900   2.448   2.464   4.437 -0.6876 -0.8500 -0.3911
 7147SOL    HW232901   2.391   2.428   4.297  0.0499  0.5662 -0.0674
 7148SOL     OW32902   2.405   2.832   8.727  0.1406 -0.4620  0.3656
 7148SOL    HW132903   2.485   2.853   8.776  0.1747  0.8336 -0.2497
 7148SOL    HW232904   2.337   2.879   8.776 -1.0384 -2.3739  0.5582
 7149SOL     OW32905   3.273   3.592   6.522  0.0003  0.7114 -0.0055
 7149SOL    HW132906   3.313   3.609   6.607  0.8131 -0.2861 -0.1760
 7149SOL    HW232907   3.188   3.632   6.539 -0.5797 -0.3978 -0.2402
 7150SOL     OW32908   0.420   2.869   9.965 -0.2454  0.2335 -0.0686
 7150SOL    HW132909   0.350   2.933   9.946  0.2470  1.5229  2.4721
 7150SOL    HW232910   0.472   2.919  10.028 -0.8941 -0.0093  0.6590
 7151SOL     OW32911   2.795   1.193   3.079  0.4342  0.3053  0.1140
 7151SOL    HW132912   2.740   1.208   3.002  1.8200  1.7787 -0.6031
 7151SOL    HW232913   2.732   1.174   3.149  0.4932 -1.0913 -0.2152
 7152SOL     OW32914   1.230   4.687   4.559  0.0519  0.3700 -0.5166
 7152SOL    HW132915   1.183   0.039   4.530  1.7238  1.8575  0.7577
 7152SOL    HW232916   1.181   4.614   4.523 -0.9234  0.2588  1.0258
 7153SOL     OW32917   4.537   1.825  15.300 -0.3398  0.0138 -0.1761
 7153SOL    HW132918   4.570   1.740  15.271  1.1549  0.6976 -0.4614
 7153SOL    HW232919   4.618   1.872  15.280 -0.8119  0.2157 -1.6420
 7154SOL     OW32920   0.389   0.064   0.902  0.2434  0.5480  0.7039
 7154SOL    HW132921   0.446   0.140   0.892  0.1841  0.5019  0.0091
 7154SOL    HW232922   0.415   0.024   0.985  0.6651  2.0894  1.3177
 7155SOL     OW32923   1.559   4.557   5.693 -0.3052 -0.1891  0.3775
 7155SOL    HW132924   1.536   4.617   5.623 -1.1104 -0.1422  0.6860
 7155SOL    HW232925   1.655   4.554   5.689 -0.3989 -1.8596 -0.4903
 7156SOL     OW32926   2.126   0.447   9.098  0.4954 -0.6889  0.3354
 7156SOL    HW132927   2.121   0.352   9.085  0.0025 -0.8357  1.6234
 7156SOL    HW232928   2.067   0.468   9.025 -0.3127  1.5923  1.6176
 7157SOL     OW32929   4.182   2.381   8.286  0.2663  0.3971 -0.1986
 7157SOL    HW132930   4.151   2.456   8.338 -0.1422 -0.5051  0.8630
 7157SOL    HW232931   4.202   2.321   8.357 -0.1956 -0.3037 -0.6619
 7158SOL     OW32932   4.381   0.354   0.003 -0.0067 -0.9085  0.4978
 7158SOL    HW132933   4.360   0.295  17.639 -0.3445  0.2886 -0.3910
 7158SOL    HW232934   4.468   0.381  17.680 -0.9623  0.8679 -0.6276
 7159SOL     OW32935   2.403   4.436   2.627  0.4798  0.5169 -0.1639
 7159SOL    HW132936   2.333   4.453   2.564  0.3969  0.7593 -0.0071
 7159SOL    HW232937   2.466   4.506   2.608  1.0639  0.2255  0.7109
 7160SOL     OW32938   3.829   4.602   7.821  0.6457 -0.0998 -0.0517
 7160SOL    HW132939   3.782   4.595   7.904 -0.3423  0.0182 -0.6016
 7160SOL    HW232940   3.917   4.586   7.856  0.3471 -3.7476 -0.9082
 7161SOL     OW32941   3.928   3.888   7.192  0.3143 -0.3282 -0.0399
 7161SOL    HW132942   3.933   3.957   7.258 -1.6139 -0.1582 -0.0761
 7161SOL    HW232943   3.987   3.820   7.224 -2.0188 -1.8558  1.0483
 7162SOL     OW32944   2.195   2.919   6.306 -0.0019 -0.6588 -0.2097
 7162SOL    HW132945   2.112   2.880   6.333 -1.6389  1.6316 -1.9734
 7162SOL    HW232946   2.261   2.860   6.343  0.8779  1.3876  1.4802
 7163SOL     OW32947   0.684   0.297   3.291 -0.5003 -0.0118 -0.0798
 7163SOL    HW132948   0.771   0.268   3.263 -0.9986 -0.8768 -0.7156
 7163SOL    HW232949   0.700   0.377   3.240  1.4228  0.0892  0.6818
 7164SOL     OW32950   4.156   0.405   0.175 -0.3023  0.0369 -0.1909
 7164SOL    HW132951   4.098   0.341   0.134  0.2191 -0.1900 -0.5686
 7164SOL    HW232952   4.229   0.390   0.115 -0.8559 -0.1864 -0.7992
 7165SOL     OW32953   2.254   0.372   2.106 -0.0334 -0.0641  0.1411
 7165SOL    HW132954   2.319   0.411   2.049 -0.2829 -0.1362 -0.1924
 7165SOL    HW232955   2.179   0.429   2.086 -0.2709 -0.3617  0.1767
 7166SOL     OW32956   0.530   2.081   9.341  0.2455 -0.1760 -0.1030
 7166SOL    HW132957   0.602   2.144   9.340 -0.3675  0.5529  2.4312
 7166SOL    HW232958   0.459   2.144   9.349 -0.4421 -1.0014  0.3345
 7167SOL     OW32959   3.211   0.107  15.317 -0.3793 -0.2751 -0.4357
 7167SOL    HW132960   3.166   0.093  15.400  0.9186 -1.2476  0.1105
 7167SOL    HW232961   3.276   0.037  15.315 -0.7698 -0.6650  0.3859
 7168SOL     OW32962   1.905   3.347   6.350  0.5531  0.6653  0.2325
 7168SOL    HW132963   1.876   3.261   6.379  2.2381  0.3922  1.1042
 7168SOL    HW232964   1.827   3.401   6.363 -0.0112  0.0729 -0.6984
 7169SOL     OW32965   0.128   3.125   5.883 -0.4615 -0.0810 -0.3773
 7169SOL    HW132966   0.209   3.091   5.920 -1.3730 -0.9296  0.8529
 7169SOL    HW232967   0.076   3.045   5.885  1.4911 -1.2521  2.5433
 7170SOL     OW32968   4.399   3.838   7.489 -0.2211  0.1217 -0.3233
 7170SOL    HW132969   4.391   3.745   7.508  1.9100  0.2500  1.1322
 7170SOL    HW232970   4.427   3.879   7.571 -1.8642 -0.3293  0.4693
 7171SOL     OW32971   4.608   2.341   5.682 -0.0317 -0.0273  0.4994
 7171SOL    HW132972   4.600   2.339   5.586  2.7200 -0.2607  0.2764
 7171SOL    HW232973   4.514   2.348   5.701 -0.0203  1.4079  0.0641
 7172SOL     OW32974   1.604   1.214   1.243  0.2254  0.2073 -0.2153
 7172SOL    HW132975   1.615   1.293   1.296 -1.0348 -0.5773  1.2092
 7172SOL    HW232976   1.599   1.254   1.156 -1.8002  0.2499 -0.0837
 7173SOL     OW32977   1.786   0.805  16.642 -0.3756 -0.1173 -0.2028
 7173SOL    HW132978   1.732   0.796  16.721  0.9525  0.3239  0.7562
 7173SOL    HW232979   1.807   0.712  16.634 -0.4101 -0.1302 -0.1434
 7174SOL     OW32980   0.399   3.016   5.154  0.3166  0.3120  0.1602
 7174SOL    HW132981   0.449   2.945   5.195 -0.2110  0.7288  1.5602
 7174SOL    HW232982   0.398   2.997   5.061 -0.4649 -2.1872  0.6856
 7175SOL     OW32983   1.521   4.275   8.819  0.0324  0.0257 -0.8565
 7175SOL    HW132984   1.519   4.180   8.816 -1.1095  0.0200  0.1287
 7175SOL    HW232985   1.557   4.296   8.733  1.7114  4.1507  0.8428
 7176SOL     OW32986   1.137   2.142   3.564  0.0011  0.5326 -0.1971
 7176SOL    HW132987   1.162   2.222   3.610 -0.5970 -0.2343  1.4578
 7176SOL    HW232988   1.195   2.141   3.487  1.0015 -2.4892  0.6045
 7177SOL     OW32989   0.073   3.384   8.154  0.1853 -0.1171 -0.3656
 7177SOL    HW132990   4.704   3.388   8.156  0.1753 -0.6066  0.0195
 7177SOL    HW232991   0.098   3.387   8.247 -1.9229  0.0966  0.1915
 7178SOL     OW32992   3.372   0.807   7.134  0.0885 -0.7174 -0.0768
 7178SOL    HW132993   3.403   0.728   7.180 -2.6646 -1.7955 -0.0853
 7178SOL    HW232994   3.449   0.862   7.152 -0.7304  1.1144 -2.3274
 7179SOL     OW32995   0.398   4.360  12.111  0.3901 -0.2080  0.2514
 7179SOL    HW132996   0.317   4.326  12.149  0.6565 -2.3533 -1.1223
 7179SOL    HW232997   0.473   4.324  12.158 -0.3707  0.0753  1.6750
 7180SOL     OW32998   3.659   1.628   9.892  0.4998 -0.0624 -0.4313
 7180SOL    HW132999   3.630   1.561   9.953  1.6703 -1.0768 -0.9873
 7180SOL    HW233000   3.725   1.680   9.939 -0.0484  0.0634  0.2029
 7181SOL     OW33001   4.096   1.371   0.601  0.3002 -0.4923 -0.1819
 7181SOL    HW133002   4.015   1.393   0.554  1.7075  0.2627 -2.2638
 7181SOL    HW233003   4.077   1.412   0.686 -0.7627  0.9347 -1.0942
 7182SOL     OW33004   2.486   0.915  14.737  0.0775  0.1982 -0.5921
 7182SOL    HW133005   2.399   0.926  14.775  0.2808  0.6559 -0.2596
 7182SOL    HW233006   2.462   0.858  14.664  0.9091 -0.3811 -0.4106
 7183SOL     OW33007   1.852   2.265   1.972  0.1238 -0.9268  0.1575
 7183SOL    HW133008   1.887   2.323   1.905 -1.1002  0.1176  0.4288
 7183SOL    HW233009   1.841   2.185   1.920 -0.4939  0.7731 -2.3424
 7184SOL     OW33010   2.829   2.593   3.299 -0.0742  0.2165 -0.6721
 7184SOL    HW133011   2.920   2.616   3.280 -0.2384  0.5078 -1.1146
 7184SOL    HW233012   2.833   2.518   3.358  0.5335  0.2906 -0.6202
 7185SOL     OW33013   0.066   4.176   9.394 -0.0862  0.0993  0.5356
 7185SOL    HW133014   0.000   4.126   9.442 -0.7978 -0.7278 -1.3043
 7185SOL    HW233015   0.027   4.155   9.309  0.1019  1.1396  0.1857
 7186SOL     OW33016   3.369   2.342  12.765  0.1053  0.7242  0.5766
 7186SOL    HW133017   3.439   2.399  12.733  0.5549  0.0229  0.3084
 7186SOL    HW233018   3.296   2.403  12.775  1.2093  2.0544  0.4682
 7187SOL     OW33019   1.468   2.292  10.980  0.5254  0.3993  0.3035
 7187SOL    HW133020   1.541   2.264  10.925 -1.8748 -0.5342 -2.4084
 7187SOL    HW233021   1.427   2.208  10.998  0.0882 -0.2542 -3.6794
 7188SOL     OW33022   4.164   2.229  14.261 -0.1461  0.7006 -0.1338
 7188SOL    HW133023   4.173   2.195  14.172  2.5757  1.6507 -0.2166
 7188SOL    HW233024   4.244   2.281  14.269 -0.5406  1.0805  1.5299
 7189SOL     OW33025   1.601   1.779   5.863 -0.1916  0.1223 -0.0889
 7189SOL    HW133026   1.684   1.804   5.904 -0.0784 -1.2833  0.5143
 7189SOL    HW233027   1.612   1.798   5.770 -0.7916 -0.7964 -0.3408
 7190SOL     OW33028   1.245   1.549  14.978 -0.4536  0.7136 -0.3546
 7190SOL    HW133029   1.215   1.458  14.967 -3.0120  1.5207  0.1054
 7190SOL    HW233030   1.315   1.521  15.037 -0.4543 -0.6191 -0.9651
 7191SOL     OW33031   3.776   1.689   4.682  0.3840  0.6117 -0.1310
 7191SOL    HW133032   3.782   1.622   4.750 -1.2075  1.0441  0.4373
 7191SOL    HW233033   3.868   1.714   4.677  0.3195  0.7666 -0.5635
 7192SOL     OW33034   1.679   2.201  10.843 -0.1200  0.6479  0.4664
 7192SOL    HW133035   1.697   2.221  10.751 -0.0402 -4.4112 -0.6060
 7192SOL    HW233036   1.770   2.199  10.873  0.4104 -1.1534 -1.2631
 7193SOL     OW33037   1.520   3.142   3.508 -0.5440 -0.1475  0.8353
 7193SOL    HW133038   1.442   3.198   3.509 -0.5203 -0.0881 -0.1891
 7193SOL    HW233039   1.590   3.207   3.505 -0.8810  0.2683  2.1270
 7194SOL     OW33040   3.206   4.640   5.656  0.1442 -0.1991 -0.2207
 7194SOL    HW133041   3.276   4.575   5.664 -0.8493 -1.4076 -1.4894
 7194SOL    HW233042   3.132   4.592   5.619  1.6075 -2.1211 -0.6053
 7195SOL     OW33043   0.595   3.755   0.031  0.4786  0.4062  0.2015
 7195SOL    HW133044   0.529   3.804   0.080 -0.6895  0.2139 -1.1701
 7195SOL    HW233045   0.586   3.670   0.073 -2.8548  0.6642 -0.0185
 7196SOL     OW33046   3.667   1.723  10.444 -0.4460  0.5431 -0.1056
 7196SOL    HW133047   3.576   1.744  10.420 -1.0766 -3.0094 -0.8822
 7196SOL    HW233048   3.655   1.643  10.496 -0.7435  0.8576  0.3139
 7197SOL     OW33049   0.909   4.272   8.763 -0.5535  0.6725 -0.3758
 7197SOL    HW133050   0.999   4.276   8.731 -0.3239  0.5332  0.2532
 7197SOL    HW233051   0.864   4.325   8.698 -0.3122  0.1315 -0.9818
 7198SOL     OW33052   1.691   1.908   6.639  0.4500 -0.1227  0.0685
 7198SOL    HW133053   1.674   1.873   6.726  2.4675  0.1539  0.5943
 7198SOL    HW233054   1.689   1.834   6.579  0.8120 -0.3379  0.3207
 7199SOL     OW33055   0.683   3.307  14.954 -0.1882  0.2480 -0.0449
 7199SOL    HW133056   0.682   3.382  14.894  2.5667  1.2218  1.0943
 7199SOL    HW233057   0.730   3.345  15.028 -1.2671 -0.0149  0.7617
 7200SOL     OW33058   0.008   2.630  16.901 -0.3151  0.1831  0.3069
 7200SOL    HW133059   4.710   2.551  16.947 -0.6419 -0.4211 -0.9050
 7200SOL    HW233060   4.715   2.699  16.965  1.1032 -0.2630  1.2111
 7201SOL     OW33061   1.550   0.560   9.409 -0.3435  0.4000 -0.0320
 7201SOL    HW133062   1.460   0.592   9.402  1.1181  4.8276  1.5823
 7201SOL    HW233063   1.557   0.508   9.328 -1.6977 -0.2468  0.2632
 7202SOL     OW33064   2.269   1.827  14.369  0.4025  0.1607 -0.5480
 7202SOL    HW133065   2.329   1.822  14.444  0.3515 -3.2870 -0.7208
 7202SOL    HW233066   2.235   1.737  14.377 -0.2234  0.4422 -0.0006
 7203SOL     OW33067   0.235   1.065   9.223 -0.9334  0.2174  0.1962
 7203SOL    HW133068   0.233   1.139   9.284 -3.5456  1.3663 -1.2856
 7203SOL    HW233069   0.143   1.040   9.212 -0.0899 -2.9605  0.5031
 7204SOL     OW33070   0.014   2.723   3.350  0.5320  0.2713 -0.2868
 7204SOL    HW133071   0.060   2.671   3.416 -0.5309 -1.2256 -0.7527
 7204SOL    HW233072   0.061   2.709   3.268  1.4714 -2.7962  0.7902
 7205SOL     OW33073   0.552   1.317  14.038  0.2300  0.1838 -0.0848
 7205SOL    HW133074   0.547   1.376  14.113  0.7583 -1.4730  1.2752
 7205SOL    HW233075   0.526   1.358  13.956 -0.1255  2.1955  1.0248
 7206SOL     OW33076   1.508   2.095   8.435 -0.6417  0.2717 -0.0678
 7206SOL    HW133077   1.580   2.158   8.435 -1.6840  1.4653  1.2148
 7206SOL    HW233078   1.556   2.023   8.477  0.6528  0.7172 -0.7892
 7207SOL     OW33079   0.876   2.658   1.889  0.1197  0.7379  0.3321
 7207SOL    HW133080   0.923   2.597   1.832  0.1985 -0.1036  1.3139
 7207SOL    HW233081   0.786   2.644   1.859 -0.1069  0.7707  1.0024
 7208SOL     OW33082   3.536   0.336   5.102 -0.1760  0.0671 -0.0838
 7208SOL    HW133083   3.555   0.248   5.134 -0.5836  0.1297  0.3245
 7208SOL    HW233084   3.560   0.320   5.010  3.7394  2.4105  0.5221
 7209SOL     OW33085   2.325   0.361   5.697 -0.3475  0.8672 -0.4849
 7209SOL    HW133086   2.378   0.321   5.766 -1.1960 -1.2379 -1.0388
 7209SOL    HW233087   2.378   0.340   5.620  0.3203 -0.4035  0.3140
 7210SOL     OW33088   2.287   2.583   3.922  0.0805 -0.1105 -0.2465
 7210SOL    HW133089   2.368   2.556   3.965  1.3275  0.6352 -2.0892
 7210SOL    HW233090   2.309   2.667   3.883  0.9615 -0.2565 -0.0656
 7211SOL     OW33091   4.015   4.143   2.326  0.5659  0.8591  0.9571
 7211SOL    HW133092   4.065   4.102   2.256 -1.2912  3.1223 -1.6928
 7211SOL    HW233093   4.013   4.236   2.302  0.6142  0.0225 -2.2060
 7212SOL     OW33094   1.391   0.109  13.520 -0.5074 -0.4201 -0.4014
 7212SOL    HW133095   1.370   0.191  13.564  0.5725  0.6730 -1.9139
 7212SOL    HW233096   1.384   0.046  13.591 -1.9374 -0.8297 -0.9126
 7213SOL     OW33097   3.791   4.543   1.233 -0.0962 -0.0317 -0.2781
 7213SOL    HW133098   3.849   4.486   1.182 -1.7752 -0.1378 -2.0838
 7213SOL    HW233099   3.837   4.548   1.316 -0.8292  2.2033 -0.0179
 7214SOL     OW33100   2.388   4.459  15.265  0.4118  0.3197 -0.0295
 7214SOL    HW133101   2.454   4.528  15.273  0.8900 -0.2298  0.7868
 7214SOL    HW233102   2.322   4.492  15.327 -0.5954  0.6312 -1.2737
 7215SOL     OW33103   1.706   1.796   0.038 -0.0465 -0.3596  0.0720
 7215SOL    HW133104   1.702   1.810   0.133 -0.9201  1.6803 -0.2755
 7215SOL    HW233105   1.801   1.787   0.035 -0.1363 -1.0572 -0.6180
 7216SOL     OW33106   1.397   1.472   7.324 -0.0646 -0.8150  0.5086
 7216SOL    HW133107   1.419   1.379   7.332 -1.0543 -1.0447  0.5694
 7216SOL    HW233108   1.326   1.466   7.260  1.3862 -0.6600 -1.1153
 7217SOL     OW33109   1.523   2.591   0.121  0.0043 -0.3123  0.1143
 7217SOL    HW133110   1.468   2.595   0.043 -2.4181  1.9841  1.9477
 7217SOL    HW233111   1.605   2.597   0.071 -0.5059 -1.1668 -0.8313
 7218SOL     OW33112   2.343   3.525   2.070  0.1891 -0.1707 -0.6152
 7218SOL    HW133113   2.312   3.443   2.107  0.6731 -0.6138 -1.1978
 7218SOL    HW233114   2.338   3.578   2.150  2.1681  1.1060 -1.3414
 7219SOL     OW33115   2.620   2.478  14.692  0.5390 -0.9329 -0.3607
 7219SOL    HW133116   2.620   2.382  14.695 -0.8763 -1.0343 -3.2951
 7219SOL    HW233117   2.572   2.492  14.773 -2.1742  0.2539 -2.1425
 7220SOL     OW33118   2.674   2.567   0.301  0.6336 -0.0726  0.0436
 7220SOL    HW133119   2.640   2.645   0.344  1.6352 -1.0097  2.5398
 7220SOL    HW233120   2.591   2.519   0.301  2.0557 -2.5395 -3.3064
 7221SOL     OW33121   0.326   3.835  14.358  0.1697  0.1206 -0.1562
 7221SOL    HW133122   0.242   3.823  14.402  0.5372 -0.7621  0.3035
 7221SOL    HW233123   0.318   3.903  14.291  0.6286  2.6517  2.3619
 7222SOL     OW33124   3.073   0.078  17.676 -0.3779  0.3678 -0.3275
 7222SOL    HW133125   3.000   0.119   0.015  1.0890  1.5085  0.9367
 7222SOL    HW233126   3.153   0.094   0.017 -0.5380 -3.7430  1.2825
 7223SOL     OW33127   3.510   4.341   7.818 -0.0034 -0.0402 -0.9865
 7223SOL    HW133128   3.534   4.257   7.858  3.5106 -0.0225 -3.0328
 7223SOL    HW233129   3.423   4.366   7.849  0.3413  1.5762 -1.3466
 7224SOL     OW33130   2.379   3.982   7.104  0.6342  0.5495  0.0919
 7224SOL    HW133131   2.398   3.912   7.041  2.1327  0.3808  0.7252
 7224SOL    HW233132   2.435   3.955   7.177  1.5863 -0.0509 -0.8481
 7225SOL     OW33133   3.043   1.312  11.852 -0.0117  0.2631  0.3844
 7225SOL    HW133134   3.077   1.242  11.797  1.4176  0.6823  0.7320
 7225SOL    HW233135   3.124   1.357  11.879  1.0331 -0.3719 -1.7551
 7226SOL     OW33136   3.412   0.091   5.710  0.3678 -0.2951  0.2604
 7226SOL    HW133137   3.409   0.133   5.624  0.6471 -1.3371 -0.2615
 7226SOL    HW233138   3.328   0.047   5.704 -0.6605  1.7370 -0.1417
 7227SOL     OW33139   0.708   0.569   9.511 -0.2195 -0.5324  0.1449
 7227SOL    HW133140   0.786   0.596   9.560 -0.0095  1.1363 -1.1118
 7227SOL    HW233141   0.636   0.616   9.552 -0.2466  0.1136 -0.6524
 7228SOL     OW33142   2.798   3.208  13.403 -0.6195 -0.0631  0.3978
 7228SOL    HW133143   2.750   3.173  13.478 -0.8507  1.0255  0.7551
 7228SOL    HW233144   2.804   3.301  13.425 -0.7846 -0.2891  1.4039
 7229SOL     OW33145   2.897   3.137   3.356 -0.3745  0.2386  0.0808
 7229SOL    HW133146   2.877   3.063   3.414 -1.1649  0.8446  0.5745
 7229SOL    HW233147   2.814   3.185   3.358 -0.9987 -0.8325  0.1481
 7230SOL     OW33148   3.679   4.097   4.666 -0.6096 -0.6127 -0.0795
 7230SOL    HW133149   3.692   4.047   4.746  1.9823  0.4375  0.1378
 7230SOL    HW233150   3.589   4.074   4.642 -1.8614  1.9208  2.1057
 7231SOL     OW33151   0.011   4.473   8.278 -0.4390  0.1323  0.1701
 7231SOL    HW133152   0.029   4.565   8.258 -0.2630  0.3890  1.4582
 7231SOL    HW233153   0.064   4.431   8.210  2.1092 -0.0892  2.2493
 7232SOL     OW33154   2.656   0.028  12.566 -0.0907 -0.2682  0.1404
 7232SOL    HW133155   2.660   4.687  12.498 -0.7125 -0.1654 -0.0033
 7232SOL    HW233156   2.586   0.073  12.519 -0.6525 -0.3322  0.9124
 7233SOL     OW33157   2.350   4.012   6.815 -0.1296  0.0571 -0.2638
 7233SOL    HW133158   2.301   4.062   6.880 -0.7595 -0.4989 -0.3128
 7233SOL    HW233159   2.434   4.059   6.816  0.2535 -0.6840  1.8221
 7234SOL     OW33160   3.774   3.102   5.807  0.5733 -0.2969 -0.0543
 7234SOL    HW133161   3.846   3.137   5.754 -0.6323 -0.5076 -1.8620
 7234SOL    HW233162   3.815   3.079   5.890  1.8326  0.4883 -0.4716
 7235SOL     OW33163   2.002   2.131  11.612  0.5205  0.0130  0.4573
 7235SOL    HW133164   2.050   2.056  11.648  1.0556  0.2176  0.1747
 7235SOL    HW233165   1.948   2.142  11.690  1.3136 -1.2412  1.1846
 7236SOL     OW33166   0.636   0.776  10.342 -0.0344  0.0841  0.0966
 7236SOL    HW133167   0.674   0.722  10.412 -1.0005 -1.2020 -0.3645
 7236SOL    HW233168   0.698   0.757  10.271 -0.1508 -3.0436  0.8047
 7237SOL     OW33169   4.483   3.537   6.216 -0.1339 -0.0650  0.2045
 7237SOL    HW133170   4.533   3.543   6.297 -1.6224 -0.3354  1.1381
 7237SOL    HW233171   4.397   3.533   6.258 -0.2162 -1.4020 -0.1030
 7238SOL     OW33172   2.988   1.552   5.444 -0.0217  0.1915 -0.1764
 7238SOL    HW133173   2.939   1.473   5.465 -0.6248  0.3447 -0.9832
 7238SOL    HW233174   2.989   1.594   5.530  2.7009 -0.9293  0.3276
 7239SOL     OW33175   1.042   2.602   3.832  0.0086  0.1831  0.0211
 7239SOL    HW133176   0.986   2.538   3.788  0.2883 -1.3133  1.8346
 7239SOL    HW233177   1.012   2.603   3.922 -1.0331 -0.7157 -0.3183
 7240SOL     OW33178   1.744   1.353   7.439  0.6481 -0.5398  0.0066
 7240SOL    HW133179   1.666   1.325   7.488  1.2921 -2.0934  0.1496
 7240SOL    HW233180   1.779   1.425   7.492 -2.2889  0.8123  0.1420
 7241SOL     OW33181   0.834   2.175  15.643  0.0945 -0.0391  0.4985
 7241SOL    HW133182   0.906   2.238  15.647 -0.1918  0.1980  2.2518
 7241SOL    HW233183   0.894   2.101  15.648  0.3618  0.2292  1.2282
 7242SOL     OW33184   0.652   3.816   7.128  0.0823 -0.2293 -0.1888
 7242SOL    HW133185   0.676   3.729   7.159 -0.9032 -0.2527  0.5043
 7242SOL    HW233186   0.606   3.804   7.045 -0.1350 -0.4937 -0.0309
 7243SOL     OW33187   3.532   1.593   6.216  0.0164  0.3938 -0.0085
 7243SOL    HW133188   3.615   1.590   6.264  0.2563  1.3438 -0.3653
 7243SOL    HW233189   3.502   1.683   6.222  0.4339  0.5558 -0.3297
 7244SOL     OW33190   2.112   3.315  10.600 -0.0882  0.0086 -0.2614
 7244SOL    HW133191   2.071   3.289  10.683 -1.3021  0.5752 -0.6809
 7244SOL    HW233192   2.196   3.271  10.613  0.7861  2.1719  1.3190
 7245SOL     OW33193   1.868   4.263   1.347 -0.2585  0.7263  0.0586
 7245SOL    HW133194   1.846   4.349   1.309 -0.0746  0.4219 -0.7393
 7245SOL    HW233195   1.891   4.283   1.437 -0.5430  0.1534  0.2556
 7246SOL     OW33196   1.972   4.274   1.845  0.2268  0.2381  0.3706
 7246SOL    HW133197   2.015   4.193   1.816  3.6176  2.1929 -0.0643
 7246SOL    HW233198   1.927   4.249   1.925 -1.4543  0.2828 -0.5587
 7247SOL     OW33199   2.217   4.438   7.848  0.3601  0.3040 -0.1520
 7247SOL    HW133200   2.142   4.379   7.847 -0.4871  1.4040 -3.5787
 7247SOL    HW233201   2.286   4.379   7.818 -1.7779 -0.1187 -4.2364
 7248SOL     OW33202   1.314   4.208   4.961  0.0163  0.3448 -0.3704
 7248SOL    HW133203   1.359   4.124   4.970 -2.1721 -0.4772  2.7710
 7248SOL    HW233204   1.347   4.249   5.041 -0.3841 -2.9037  1.4341
 7249SOL     OW33205   3.909   1.666   6.895 -0.2583  0.0686 -0.2567
 7249SOL    HW133206   3.996   1.701   6.878 -0.4905  0.0917 -1.3916
 7249SOL    HW233207   3.926   1.624   6.980 -0.3872  1.4784  0.4560
 7250SOL     OW33208   4.346   1.579  13.545 -0.5259 -0.0284  0.7937
 7250SOL    HW133209   4.256   1.612  13.547 -0.4707  0.1869 -0.2555
 7250SOL    HW233210   4.334   1.509  13.482 -0.4370  1.5716 -1.0065
 7251SOL     OW33211   0.235   4.688   5.601 -0.4822  0.4811  0.7512
 7251SOL    HW133212   0.298   4.659   5.536 -0.4711 -1.5015  1.6397
 7251SOL    HW233213   0.178   0.015   5.546  1.5866  1.1719 -0.7071
 7252SOL     OW33214   3.000   1.522   9.280 -0.4728 -0.0368  0.1650
 7252SOL    HW133215   3.059   1.547   9.208 -1.1603 -1.4871 -0.9119
 7252SOL    HW233216   2.945   1.471   9.221  0.9059 -0.7588 -0.5126
 7253SOL     OW33217   0.083   0.038   9.054 -0.3641  0.2349  0.2895
 7253SOL    HW133218   0.110   0.073   8.970 -0.8246 -0.8812 -0.3295
 7253SOL    HW233219   0.070   0.121   9.099  0.1676  1.0759 -1.1332
 7254SOL     OW33220   0.265   1.298   9.428 -0.4344 -0.4336 -0.3326
 7254SOL    HW133221   0.349   1.256   9.413  0.2679  1.0035 -0.4027
 7254SOL    HW233222   0.290   1.369   9.488 -0.0396 -0.9583  0.1250
 7255SOL     OW33223   3.274   2.667  14.237 -0.2919 -0.1831  0.1885
 7255SOL    HW133224   3.243   2.721  14.165  1.1480  0.6446  0.1935
 7255SOL    HW233225   3.340   2.609  14.199  0.7193  0.9554  0.2249
 7256SOL     OW33226   2.515   2.523   7.911  0.0212  0.0083 -0.4888
 7256SOL    HW133227   2.449   2.465   7.873  0.4666 -0.9876  0.2649
 7256SOL    HW233228   2.471   2.554   7.990  0.4845  0.2955 -0.3396
 7257SOL     OW33229   2.251   2.932  17.070 -0.7565 -0.0898  0.7631
 7257SOL    HW133230   2.216   2.947  17.158 -1.1568  1.5061  0.3394
 7257SOL    HW233231   2.295   2.855  17.106 -2.4611 -1.4643 -0.1383
 7258SOL     OW33232   0.843   1.484   9.109  0.1061  0.2074  0.1725
 7258SOL    HW133233   0.892   1.539   9.049 -1.1997  0.2565 -0.8358
 7258SOL    HW233234   0.824   1.404   9.060 -0.3401 -0.1206  0.8661
 7259SOL     OW33235   4.358   3.774   1.604 -0.3793  0.5537  0.0708
 7259SOL    HW133236   4.417   3.847   1.623  0.3786 -0.1702  0.4993
 7259SOL    HW233237   4.422   3.704   1.594 -1.6407 -0.8104  1.4720
 7260SOL     OW33238   3.573   4.318  10.103 -0.0590 -0.2110  0.4387
 7260SOL    HW133239   3.592   4.390  10.043  1.0517  1.1889  2.5041
 7260SOL    HW233240   3.520   4.362  10.170  0.3435  0.9056  0.0289
 7261SOL     OW33241   1.081   0.042   0.533  0.3299  0.3684 -0.2589
 7261SOL    HW133242   1.139   0.048   0.457  1.4441  0.5195  0.6015
 7261SOL    HW233243   1.084   0.133   0.563 -1.7575  0.1495  0.5836
 7262SOL     OW33244   2.600   3.532   3.132  0.4053  0.0392  0.1569
 7262SOL    HW133245   2.579   3.456   3.078 -1.0938  1.0994 -0.7397
 7262SOL    HW233246   2.616   3.592   3.059  1.1714 -1.6922 -1.1125
 7263SOL     OW33247   1.858   2.261   5.470 -0.1200 -0.8585 -0.0364
 7263SOL    HW133248   1.792   2.276   5.403  0.2789 -0.4466 -0.3373
 7263SOL    HW233249   1.837   2.168   5.485  0.4471 -1.0349 -0.3102
 7264SOL     OW33250   0.061   3.450   4.873 -0.4058 -0.7527 -0.1796
 7264SOL    HW133251   0.134   3.421   4.927  0.6344  0.3805 -0.9614
 7264SOL    HW233252   0.043   3.365   4.833 -0.9780 -0.5710 -0.3080
 7265SOL     OW33253   3.593   1.363   5.570 -0.2540 -0.1155 -0.4303
 7265SOL    HW133254   3.616   1.322   5.487  0.1880 -0.0981 -0.3140
 7265SOL    HW233255   3.545   1.292   5.614 -0.0914 -1.7234 -2.8827
 7266SOL     OW33256   1.289   2.241   5.550 -0.3105 -0.3162  0.0682
 7266SOL    HW133257   1.278   2.153   5.586  1.9932 -1.0663 -1.0453
 7266SOL    HW233258   1.199   2.269   5.566 -0.9631 -1.2395 -2.0214
 7267SOL     OW33259   2.025   1.272   2.792  0.2032 -0.3299  0.2133
 7267SOL    HW133260   2.053   1.303   2.878 -2.0840 -0.1954  0.8955
 7267SOL    HW233261   2.000   1.182   2.815  0.6693 -0.0613  1.7498
 7268SOL     OW33262   0.628   0.822   7.634 -0.3310  0.0949  0.4617
 7268SOL    HW133263   0.676   0.743   7.661  0.4758  0.5976  0.4982
 7268SOL    HW233264   0.589   0.844   7.719  0.0133 -2.2182  1.2240
 7269SOL     OW33265   3.904   4.504  15.241  0.2457  0.0633  0.0863
 7269SOL    HW133266   3.983   4.537  15.285 -2.2304  1.7406  3.3350
 7269SOL    HW233267   3.844   4.526  15.313  0.6576 -0.1023  0.4819
 7270SOL     OW33268   1.149   3.958   0.762  0.4006 -0.2491 -0.5853
 7270SOL    HW133269   1.138   3.864   0.778  1.6853 -0.2209  0.4401
 7270SOL    HW233270   1.219   3.982   0.823 -1.7168  0.1532  1.7159
 7271SOL     OW33271   4.409   1.522  13.791 -0.2143 -0.1674 -0.7603
 7271SOL    HW133272   4.477   1.589  13.788 -0.0711 -0.2085  1.4644
 7271SOL    HW233273   4.376   1.536  13.702  0.8096 -0.1122 -1.1318
 7272SOL     OW33274   3.596   4.652   0.759  0.7818  0.0524  0.2522
 7272SOL    HW133275   3.536   4.583   0.732 -0.6416  1.0057  0.9688
 7272SOL    HW233276   3.681   4.616   0.732  1.4719 -0.4213  3.0549
 7273SOL     OW33277   3.010   0.254   1.918  0.2811 -0.3042  0.4808
 7273SOL    HW133278   2.996   0.331   1.972  0.5084 -0.5908  0.9519
 7273SOL    HW233279   3.080   0.203   1.959  1.9110 -0.5003 -2.5156
 7274SOL     OW33280   2.419   4.572  14.212  0.3267 -0.2890 -0.0492
 7274SOL    HW133281   2.440   4.637  14.144 -1.4878  0.6884  0.3159
 7274SOL    HW233282   2.466   4.495  14.182 -0.4115  0.1279 -2.2815
 7275SOL     OW33283   1.700   3.953   6.168 -0.3383  0.1686  0.5270
 7275SOL    HW133284   1.642   4.007   6.115  0.4167 -0.3583 -0.8418
 7275SOL    HW233285   1.656   3.868   6.179  2.5886 -1.5865 -1.2650
 7276SOL     OW33286   0.549   0.045   1.794 -0.0083  0.2418  0.8699
 7276SOL    HW133287   0.541   0.088   1.879  0.9018  2.1525 -0.0122
 7276SOL    HW233288   0.635   0.077   1.766 -0.3700 -2.1945 -3.0675
 7277SOL     OW33289   2.040   1.595   5.457  0.0556  0.3068 -0.7332
 7277SOL    HW133290   1.976   1.639   5.400 -0.9304  0.1598  0.2458
 7277SOL    HW233291   2.119   1.641   5.430  0.1307  1.6164  1.7769
 7278SOL     OW33292   4.647   2.250   1.297 -0.0060 -0.0906  0.4885
 7278SOL    HW133293   4.603   2.324   1.256 -0.9355 -0.2141  1.2659
 7278SOL    HW233294   4.586   2.176   1.292  0.4296 -0.1504 -3.5971
 7279SOL     OW33295   2.581   3.716  11.299  0.0882  0.2419 -0.2916
 7279SOL    HW133296   2.651   3.741  11.359  0.0694  0.6311 -0.4372
 7279SOL    HW233297   2.577   3.620  11.306  1.6857  0.1458 -0.7054
 7280SOL     OW33298   2.769   0.021   9.309 -0.0644 -0.1577  0.2600
 7280SOL    HW133299   2.701   0.067   9.358  3.3482  4.0284  1.0882
 7280SOL    HW233300   2.755   4.659   9.342  0.4302 -0.4438 -0.3077
 7281SOL     OW33301   0.550   3.185  15.705  0.5449 -0.7762 -0.4340
 7281SOL    HW133302   0.634   3.211  15.744  0.7706  0.9683 -2.0280
 7281SOL    HW233303   0.497   3.261  15.729 -0.2367 -1.9590  1.5221
 7282SOL     OW33304   1.745   0.399   9.050 -0.5819  0.5751  0.4899
 7282SOL    HW133305   1.719   0.323   8.998  1.1207  0.7256 -0.5889
 7282SOL    HW233306   1.809   0.445   8.995 -0.2063  2.0959  2.1795
 7283SOL     OW33307   1.038   0.527   5.357 -0.6180  0.0542  0.5017
 7283SOL    HW133308   1.117   0.553   5.309 -1.2287 -1.3384 -1.2880
 7283SOL    HW233309   0.986   0.487   5.287  1.5408 -0.3017 -0.9101
 7284SOL     OW33310   2.588   1.649   5.679 -0.0294  0.9193 -0.1858
 7284SOL    HW133311   2.561   1.563   5.710 -0.4931  1.6705  1.5060
 7284SOL    HW233312   2.514   1.708   5.695 -1.4014 -0.5553 -1.0484
 7285SOL     OW33313   0.505   1.054   9.146  0.0839  0.2376  0.1623
 7285SOL    HW133314   0.470   1.084   9.062  0.6433 -0.6677 -0.4014
 7285SOL    HW233315   0.422   1.029   9.187 -0.1342  0.6398 -0.0350
 7286SOL     OW33316   1.197   0.783  11.144  0.4592  0.1761  0.4498
 7286SOL    HW133317   1.171   0.693  11.164 -1.4690  1.2205  2.6861
 7286SOL    HW233318   1.118   0.829  11.175  0.1063 -0.3900  0.3851
 7287SOL     OW33319   1.538   3.727   7.489 -0.2553 -0.0273 -0.4332
 7287SOL    HW133320   1.622   3.681   7.489  0.6035  1.5350 -0.2512
 7287SOL    HW233321   1.541   3.758   7.579  0.5963 -0.1592 -0.4175
 7288SOL     OW33322   1.775   1.041  11.280  0.0198 -0.0255  0.1805
 7288SOL    HW133323   1.836   1.043  11.354 -0.7319 -2.8603  0.8967
 7288SOL    HW233324   1.697   0.994  11.312  1.2418  0.8931  4.5362
 7289SOL     OW33325   2.948   2.315   2.448 -0.4714 -0.1779  0.3786
 7289SOL    HW133326   3.014   2.294   2.381  0.5360  0.7227  1.0862
 7289SOL    HW233327   3.008   2.299   2.521 -0.4291 -3.5648 -0.3844
 7290SOL     OW33328   2.314   4.606   2.284 -0.3778 -0.4104 -0.1282
 7290SOL    HW133329   2.284   4.693   2.259  0.7301  0.7924  2.7624
 7290SOL    HW233330   2.379   4.575   2.221  1.8433  0.9121  1.5089
 7291SOL     OW33331   3.331   0.709   6.509  0.0457 -0.1000 -0.5064
 7291SOL    HW133332   3.288   0.786   6.547  0.0043  0.8024 -2.4279
 7291SOL    HW233333   3.309   0.640   6.572 -0.9800  1.3714  0.7530
 7292SOL     OW33334   3.337   4.443   3.948 -0.5414 -0.0744 -0.5857
 7292SOL    HW133335   3.430   4.426   3.961 -0.8461 -0.7797  0.6501
 7292SOL    HW233336   3.325   4.534   3.978  3.4276  0.1575  0.2349
 7293SOL     OW33337   3.704   4.706   8.203 -0.5305 -0.2879  0.4802
 7293SOL    HW133338   3.747   0.045   8.149 -0.5415  1.3923  2.5439
 7293SOL    HW233339   3.668   0.017   8.283 -1.2358 -1.6942  0.8404
 7294SOL     OW33340   2.112   3.027   4.849 -0.2627 -0.3748  0.1388
 7294SOL    HW133341   2.034   2.976   4.830 -1.6122  1.4319  0.7897
 7294SOL    HW233342   2.151   2.972   4.917 -1.9728  0.9003  2.1884
 7295SOL     OW33343   0.624   0.973   6.177  0.7107 -0.0848  0.5706
 7295SOL    HW133344   0.667   0.905   6.228  0.8390 -1.6608 -1.6151
 7295SOL    HW233345   0.658   1.059   6.200  4.2429 -0.9951 -1.3349
 7296SOL     OW33346   2.246   4.142  11.052  0.0374  0.2496  0.2446
 7296SOL    HW133347   2.333   4.152  11.089 -0.4888  1.6310  1.0788
 7296SOL    HW233348   2.189   4.117  11.124  0.6682 -0.5370  0.4687
 7297SOL     OW33349   0.660   3.697   2.640 -0.0587 -0.1115 -0.1365
 7297SOL    HW133350   0.633   3.758   2.708 -1.1405 -1.9809  1.1322
 7297SOL    HW233351   0.623   3.614   2.670 -0.7361 -0.3240 -1.5819
 7298SOL     OW33352   3.111   2.948   2.752  0.0981  0.1167  0.0022
 7298SOL    HW133353   3.063   3.016   2.704  0.9985 -1.1023 -2.5875
 7298SOL    HW233354   3.160   2.910   2.680  0.4235 -1.6745  1.1714
 7299SOL     OW33355   3.278   4.605   5.066  0.2750 -0.3264 -0.2011
 7299SOL    HW133356   3.199   4.567   5.030 -0.3473  1.3028 -0.5534
 7299SOL    HW233357   3.335   4.613   4.989 -1.2327  2.9434 -0.9403
 7300SOL     OW33358   0.187   2.486   4.476  0.8979 -1.0007 -0.7137
 7300SOL    HW133359   0.103   2.440   4.487  0.3232 -0.2298 -1.8821
 7300SOL    HW233360   0.215   2.486   4.567 -1.0828 -0.4789 -0.0964
 7301SOL     OW33361   0.317   3.733   2.048 -0.0737 -0.2454  0.9131
 7301SOL    HW133362   0.413   3.733   2.055  0.1299 -1.3674 -1.8015
 7301SOL    HW233363   0.305   3.643   2.017 -0.2750 -0.3084  1.1816
 7302SOL     OW33364   1.663   2.926   6.807 -0.0392  0.1795  0.1569
 7302SOL    HW133365   1.571   2.908   6.790  0.2502 -0.2864 -0.9229
 7302SOL    HW233366   1.668   2.950   6.899  0.0831  3.0406 -0.6163
 7303SOL     OW33367   2.199   2.909   4.467  0.5744  0.5687 -0.1806
 7303SOL    HW133368   2.138   2.845   4.432  0.3850  1.1321 -0.8669
 7303SOL    HW233369   2.277   2.855   4.482  1.4090  2.2631  1.5852
 7304SOL     OW33370   0.772   3.615   7.974  0.1616  0.0842  0.1802
 7304SOL    HW133371   0.718   3.608   7.895 -0.1355 -0.7144  0.4542
 7304SOL    HW233372   0.797   3.523   7.984 -0.3638 -0.3438 -2.2892
 7305SOL     OW33373   3.801   0.914   1.957 -0.1571 -0.4099 -0.4738
 7305SOL    HW133374   3.825   0.861   2.033  1.6316  0.8473 -0.1711
 7305SOL    HW233375   3.708   0.933   1.968  0.0003  0.2000 -0.1688
 7306SOL     OW33376   2.711   2.591  11.596 -0.5074  0.0913  0.0978
 7306SOL    HW133377   2.751   2.660  11.649 -0.1442  0.4754 -0.6791
 7306SOL    HW233378   2.698   2.523  11.661 -0.8151 -2.3111 -2.4871
 7307SOL     OW33379   3.708   3.644   4.211 -0.4686 -0.3621  0.0810
 7307SOL    HW133380   3.731   3.656   4.119 -0.6273 -2.0041 -0.1601
 7307SOL    HW233381   3.742   3.722   4.256 -3.6789 -0.1367  2.1444
 7308SOL     OW33382   0.324   3.526   8.556  0.2113  0.2264  0.5013
 7308SOL    HW133383   0.327   3.600   8.617 -2.2184 -1.4242  2.5741
 7308SOL    HW233384   0.398   3.559   8.504 -0.0958  0.3889  0.1627
 7309SOL     OW33385   1.806   0.060  12.222 -0.0583  0.3877  0.1653
 7309SOL    HW133386   1.752   0.062  12.143  0.5623  0.9981 -0.2394
 7309SOL    HW233387   1.886   0.012  12.199 -0.2969 -0.8151  1.8245
 7310SOL     OW33388   1.509   2.001   7.693 -0.3186 -0.2325 -0.0245
 7310SOL    HW133389   1.460   2.032   7.616 -1.4932 -3.0679 -0.4061
 7310SOL    HW233390   1.563   1.934   7.651  4.0677  2.7036  0.9207
 7311SOL     OW33391   1.612   1.148   6.946  0.6516 -0.1407  0.2209
 7311SOL    HW133392   1.678   1.113   7.006 -0.0718 -0.5400  0.7806
 7311SOL    HW233393   1.536   1.091   6.959  0.0206  0.6492 -0.0188
 7312SOL     OW33394   1.916   4.378   6.814  0.1923 -0.1730 -0.4673
 7312SOL    HW133395   1.921   4.464   6.772 -2.9018  0.2914  0.1266
 7312SOL    HW233396   1.970   4.323   6.756 -1.2026  0.2657 -2.1655
 7313SOL     OW33397   3.753   0.530   8.826 -0.2809 -0.4621 -0.4428
 7313SOL    HW133398   3.797   0.446   8.837 -2.8977 -1.7504  0.3890
 7313SOL    HW233399   3.668   0.513   8.866 -0.1326 -0.0688  0.0429
 7314SOL     OW33400   2.027   3.166   2.530 -0.3718  0.2893  0.4615
 7314SOL    HW133401   1.963   3.194   2.464  0.5655  1.1194 -0.0861
 7314SOL    HW233402   1.974   3.194   2.605 -1.1736  0.8738 -0.3254
 7315SOL     OW33403   3.093   2.608   2.308  0.4041 -0.4433  0.1908
 7315SOL    HW133404   3.044   2.593   2.388 -0.0196 -0.9352 -0.1531
 7315SOL    HW233405   3.021   2.633   2.250 -0.9945  0.4011  2.2918
 7316SOL     OW33406   1.034   3.703   7.798  0.1179  0.1694  0.5238
 7316SOL    HW133407   0.984   3.643   7.853 -1.7253  0.1177 -1.1972
 7316SOL    HW233408   0.975   3.718   7.724  0.8411 -0.5452 -0.2059
 7317SOL     OW33409   1.751   4.446   5.334 -0.1155 -0.2851  0.0877
 7317SOL    HW133410   1.718   4.534   5.313  0.7666  0.0652  0.1718
 7317SOL    HW233411   1.720   4.401   5.255 -0.4009 -3.1492  1.8379
 7318SOL     OW33412   4.340   0.017   6.740  0.0570  0.1025  0.3016
 7318SOL    HW133413   4.424   0.049   6.770  0.6309 -0.8883 -0.2363
 7318SOL    HW233414   4.338   0.076   6.665  0.4675  0.0048  0.2158
 7319SOL     OW33415   4.433   4.521  16.426 -0.2153 -0.5394 -0.2764
 7319SOL    HW133416   4.414   4.431  16.400  0.6347 -0.9516  0.5271
 7319SOL    HW233417   4.528   4.511  16.437  0.4825  1.1821 -4.5355
 7320SOL     OW33418   1.763   4.176   7.318 -0.3985  0.0149  0.3303
 7320SOL    HW133419   1.742   4.220   7.400 -1.6286  2.0791 -1.1003
 7320SOL    HW233420   1.857   4.193   7.321 -0.5628  1.1441 -1.1152
 7321SOL     OW33421   0.262   4.495  13.474 -0.4145  0.4186  0.6434
 7321SOL    HW133422   0.232   4.415  13.515 -1.1250 -0.9686 -2.5900
 7321SOL    HW233423   0.275   4.545  13.555  0.8845 -1.1032  1.3715
 7322SOL     OW33424   4.278   3.194  11.637 -0.6195 -0.2909  0.2101
 7322SOL    HW133425   4.311   3.271  11.683 -1.2469  0.1522 -0.0846
 7322SOL    HW233426   4.354   3.140  11.616 -0.1323  0.5459 -0.1812
 7323SOL     OW33427   3.365   0.646   3.432 -0.0062 -0.3205 -0.0725
 7323SOL    HW133428   3.399   0.710   3.494 -0.1437 -0.6127  0.3073
 7323SOL    HW233429   3.436   0.636   3.368  0.3706  1.2701  0.0884
 7324SOL     OW33430   0.312   1.875   9.002 -0.1469 -0.1509  0.1252
 7324SOL    HW133431   0.306   1.970   8.992 -2.1172 -0.2875 -0.0926
 7324SOL    HW233432   0.363   1.862   9.081 -2.0003 -0.3953  1.2926
 7325SOL     OW33433   0.011   3.227  12.637 -0.2436  0.1662 -0.6124
 7325SOL    HW133434   0.004   3.321  12.654  0.7222 -0.1953  1.7592
 7325SOL    HW233435   4.676   3.205  12.706  0.7807 -2.0937 -0.4225
 7326SOL     OW33436   2.440   4.539   3.140  0.1067 -0.2324 -0.7589
 7326SOL    HW133437   2.435   4.519   3.046  2.3548  1.2385 -1.1794
 7326SOL    HW233438   2.442   4.447   3.167  0.9432 -0.3083 -1.0794
 7327SOL     OW33439   1.187   0.480  16.779  0.4862  0.1901 -0.3637
 7327SOL    HW133440   1.193   0.489  16.684  2.2932 -2.8081 -0.5303
 7327SOL    HW233441   1.259   0.419  16.795 -0.1190 -0.2685  0.5918
 7328SOL     OW33442   1.556   3.843   4.359 -0.4520  0.1026 -0.2761
 7328SOL    HW133443   1.505   3.898   4.419 -0.5053 -1.0266  0.7270
 7328SOL    HW233444   1.517   3.755   4.367 -2.3801  0.9511 -0.3254
 7329SOL     OW33445   2.102   0.092   5.485 -0.0748  0.2040  0.0744
 7329SOL    HW133446   2.154   0.055   5.556  1.7425 -0.8219 -1.8106
 7329SOL    HW233447   2.070   0.173   5.525 -0.4613 -0.1288  0.4316
 7330SOL     OW33448   0.836   1.227  15.594  0.2003  0.1558 -0.1193
 7330SOL    HW133449   0.836   1.322  15.602 -1.9112  0.0663  1.0293
 7330SOL    HW233450   0.862   1.215  15.686  1.0128  2.6885 -0.0261
 7331SOL     OW33451   0.943   0.565   8.157 -0.1570  0.1525  0.3767
 7331SOL    HW133452   1.008   0.576   8.226  0.1139  0.4136  0.0791
 7331SOL    HW233453   0.987   0.607   8.083 -1.8707  0.8518 -0.2420
 7332SOL     OW33454   3.248   1.531   5.371 -0.2525 -0.1151 -0.3426
 7332SOL    HW133455   3.153   1.544   5.371 -0.0079  1.7511 -0.1579
 7332SOL    HW233456   3.269   1.539   5.278  0.2825  0.7945 -0.1424
 7333SOL     OW33457   1.415   1.889   4.696  0.3542  0.0486  0.2122
 7333SOL    HW133458   1.422   1.797   4.671  1.4949 -0.3000  1.8788
 7333SOL    HW233459   1.472   1.926   4.628 -0.9085  1.7537  0.0668
 7334SOL     OW33460   3.160   3.751   3.856 -0.2992  0.2941 -0.1101
 7334SOL    HW133461   3.100   3.679   3.836  0.4883 -0.3550 -0.1081
 7334SOL    HW233462   3.106   3.817   3.899 -0.2639 -1.8763  3.1990
 7335SOL     OW33463   0.627   3.334   5.500 -0.0588 -0.3387 -0.1057
 7335SOL    HW133464   0.678   3.256   5.482  0.4083 -0.0676  0.0486
 7335SOL    HW233465   0.562   3.289   5.555 -0.9070 -1.0879 -1.7427
 7336SOL     OW33466   3.286   2.151  10.291 -0.4444 -0.3395 -0.5436
 7336SOL    HW133467   3.278   2.083  10.224  1.0911 -1.2944  0.2569
 7336SOL    HW233468   3.330   2.107  10.364  1.3073 -0.4929 -1.6933
 7337SOL     OW33469   2.751   0.690   2.166 -0.0280  0.0244  0.7105
 7337SOL    HW133470   2.701   0.713   2.088 -1.1795  0.6015  1.6292
 7337SOL    HW233471   2.831   0.725   2.128 -0.7602  1.9815  1.0072
 7338SOL     OW33472   3.257   3.613   5.164  0.8383  0.5331  0.0048
 7338SOL    HW133473   3.202   3.691   5.174  2.0703  1.4577 -0.4340
 7338SOL    HW233474   3.345   3.649   5.176  0.3513  1.6752  0.1675
 7339SOL     OW33475   3.656   1.656   7.281  0.0574 -0.6381  0.3394
 7339SOL    HW133476   3.627   1.620   7.198  0.0802 -0.4112  0.2332
 7339SOL    HW233477   3.700   1.734   7.247 -0.4983 -0.8208 -0.7558
 7340SOL     OW33478   1.067   1.907   4.054  1.0256  0.1089 -0.2394
 7340SOL    HW133479   1.059   1.904   3.959  1.4886 -0.8571 -0.2512
 7340SOL    HW233480   1.038   1.819   4.077  0.5776  0.9178  2.2719
 7341SOL     OW33481   4.597   2.229   6.000 -0.5806 -0.0062 -0.0336
 7341SOL    HW133482   4.561   2.167   5.937  0.3729 -1.2444  0.6561
 7341SOL    HW233483   4.690   2.208   6.003 -0.6914 -0.6137 -1.0396
 7342SOL     OW33484   2.525   2.104   3.750  0.4128  0.5312 -0.3066
 7342SOL    HW133485   2.524   2.063   3.664  2.3125  2.5914 -1.2926
 7342SOL    HW233486   2.616   2.132   3.755  0.6085  0.0467 -1.2794
 7343SOL     OW33487   1.945   2.147   4.209  0.9581 -0.3936 -0.6456
 7343SOL    HW133488   2.004   2.161   4.283  1.6610  1.1013 -1.4856
 7343SOL    HW233489   2.002   2.125   4.135 -0.6582 -1.4286 -1.5930
 7344SOL     OW33490   0.368   0.722   0.565 -0.2262  0.6602 -0.4206
 7344SOL    HW133491   0.320   0.708   0.647 -0.6008 -1.0844 -0.9413
 7344SOL    HW233492   0.405   0.809   0.579  1.5629 -0.3881  1.4368
 7345SOL     OW33493   2.305   2.747   4.174 -0.2048 -0.6303  0.5026
 7345SOL    HW133494   2.385   2.697   4.156  0.2115  0.0761  0.3810
 7345SOL    HW233495   2.303   2.734   4.268 -1.4341  0.4332  0.6234
 7346SOL     OW33496   1.459   3.784  11.345 -0.5690 -0.1122  0.2053
 7346SOL    HW133497   1.519   3.855  11.323 -0.1815 -0.3142  0.6041
 7346SOL    HW233498   1.521   3.734  11.398  0.9981 -0.7050 -2.2203
 7347SOL     OW33499   2.588   2.637   2.866  0.1698 -0.4453  0.7459
 7347SOL    HW133500   2.613   2.720   2.825 -2.2857 -0.0835 -0.0469
 7347SOL    HW233501   2.588   2.653   2.960 -2.2235  0.0531  0.6635
 7348SOL     OW33502   4.151   4.053   3.483  0.4355 -0.5550 -0.3446
 7348SOL    HW133503   4.068   4.047   3.530  1.7202 -1.8573  1.8147
 7348SOL    HW233504   4.211   4.103   3.539 -1.4054 -0.1259  1.2633
 7349SOL     OW33505   1.407   1.073  13.772 -0.2198 -0.5575 -0.1939
 7349SOL    HW133506   1.313   1.060  13.786 -0.7622 -0.1405 -3.3030
 7349SOL    HW233507   1.412   1.155  13.723  0.3875  0.5353  1.6955
 7350SOL     OW33508   1.481   2.701  16.859 -0.1827 -0.1036 -0.2814
 7350SOL    HW133509   1.510   2.774  16.914  0.1770 -1.2311  1.0006
 7350SOL    HW233510   1.562   2.652  16.845  0.3392  0.9603 -1.0602
 7351SOL     OW33511   1.793   1.918   3.917 -0.3075 -0.2312  0.6104
 7351SOL    HW133512   1.811   2.004   3.955  0.6018  1.0788 -2.7334
 7351SOL    HW233513   1.808   1.922   3.822 -1.6758  0.2311  0.4012
 7352SOL     OW33514   0.109   2.043   2.575 -0.2513 -0.5542 -0.7536
 7352SOL    HW133515   0.084   2.029   2.484 -1.1233 -0.1086 -0.5801
 7352SOL    HW233516   0.044   2.108   2.602 -0.7303 -0.7265 -1.5222
 7353SOL     OW33517   0.821   2.405   8.748 -0.2332 -0.0624 -0.1522
 7353SOL    HW133518   0.775   2.321   8.739  0.9980 -0.4193 -2.9593
 7353SOL    HW233519   0.832   2.406   8.843 -0.0475 -0.9808 -0.1601
 7354SOL     OW33520   0.776   2.337   0.539 -0.1468 -0.3312 -0.0425
 7354SOL    HW133521   0.722   2.367   0.612  2.2870 -1.0782  2.0385
 7354SOL    HW233522   0.836   2.280   0.586 -0.6258 -1.3729 -0.7062
 7355SOL     OW33523   3.525   3.817   2.560 -0.3475 -0.3713 -0.0916
 7355SOL    HW133524   3.435   3.843   2.541 -0.8689  0.0664  2.8240
 7355SOL    HW233525   3.529   3.853   2.649  0.0022 -1.5393  0.3581
 7356SOL     OW33526   0.946   2.541   5.484  0.7538  0.2637 -0.1093
 7356SOL    HW133527   0.983   2.629   5.481  2.1281 -0.2821  1.0788
 7356SOL    HW233528   0.893   2.538   5.564 -0.6326  1.4816 -0.9801
 7357SOL     OW33529   0.376   3.174  10.643 -0.2828 -0.0231 -0.2601
 7357SOL    HW133530   0.298   3.133  10.680  0.4343 -0.3753  0.8618
 7357SOL    HW233531   0.443   3.112  10.671 -0.1560 -1.3256 -3.4137
 7358SOL     OW33532   1.939   4.204  11.959  0.6201  0.1989 -0.1403
 7358SOL    HW133533   2.028   4.184  11.930  0.3328  0.2479 -1.0395
 7358SOL    HW233534   1.920   4.123  12.007  1.1119  0.0499 -0.1950
 7359SOL     OW33535   0.247   1.239  15.013 -0.0443 -0.1505  0.5948
 7359SOL    HW133536   0.337   1.243  15.045  0.6728 -1.2767 -1.2682
 7359SOL    HW233537   0.238   1.145  14.998  0.3817  0.0417 -0.9104
 7360SOL     OW33538   3.467   1.231   1.636 -0.6018 -0.1138  0.1309
 7360SOL    HW133539   3.494   1.308   1.686 -2.6316  1.2112 -0.8341
 7360SOL    HW233540   3.552   1.191   1.617 -2.5769 -3.6348 -1.2980
 7361SOL     OW33541   3.824   0.087  10.148  0.4295 -0.6275 -0.2139
 7361SOL    HW133542   3.847   0.151  10.081 -0.0685 -0.2277 -0.0017
 7361SOL    HW233543   3.915   0.066  10.167  0.2932 -0.9037  0.1309
 7362SOL     OW33544   1.643   1.276   8.183  0.2405  0.1644  0.2941
 7362SOL    HW133545   1.564   1.323   8.208  0.9066  1.7515 -0.5733
 7362SOL    HW233546   1.683   1.243   8.263 -0.2945 -3.6274 -1.0154
 7363SOL     OW33547   2.587   2.237   5.837 -0.1186 -0.0357 -0.0180
 7363SOL    HW133548   2.558   2.323   5.808 -0.1050  0.3776  1.1761
 7363SOL    HW233549   2.677   2.233   5.807  0.3422 -0.3068  1.3875
 7364SOL     OW33550   1.079   1.599   0.872  0.5324  0.2459  0.2107
 7364SOL    HW133551   1.011   1.609   0.806  0.0440  1.4255  0.8895
 7364SOL    HW233552   1.073   1.678   0.925 -1.2402  1.1519 -1.3760
 7365SOL     OW33553   2.074   4.705   8.490 -0.1550 -0.0357  0.3413
 7365SOL    HW133554   2.052   0.064   8.525 -1.3431 -0.0239 -0.4421
 7365SOL    HW233555   2.151   4.690   8.544  0.2284  0.2169 -0.1360
 7366SOL     OW33556   4.492   3.917  17.177  0.0312  0.2220  0.1265
 7366SOL    HW133557   4.421   3.894  17.237 -0.0526  0.1898  0.0148
 7366SOL    HW233558   4.450   3.987  17.127 -0.8182  0.0266  0.5719
 7367SOL     OW33559   0.815   4.415  12.646 -0.1521 -0.7528  0.3713
 7367SOL    HW133560   0.783   4.497  12.611  2.2396 -0.1238 -0.3529
 7367SOL    HW233561   0.854   4.446  12.727  1.3878 -1.8219  0.0393
 7368SOL     OW33562   3.519   0.257   0.402 -0.0145  0.1917 -0.2777
 7368SOL    HW133563   3.441   0.312   0.399 -1.7789 -2.3237 -0.0059
 7368SOL    HW233564   3.498   0.205   0.479  0.2210  0.5881  0.0589
 7369SOL     OW33565   1.186   0.918   3.642 -0.2480 -0.5051  0.5264
 7369SOL    HW133566   1.272   0.892   3.612 -0.0051  0.3359  0.5021
 7369SOL    HW233567   1.206   0.937   3.734 -0.5152  0.1808  0.4508
 7370SOL     OW33568   2.102   1.725   9.656 -0.5979 -0.1761  0.4154
 7370SOL    HW133569   2.187   1.745   9.694 -0.3768  4.1334 -2.3353
 7370SOL    HW233570   2.047   1.792   9.697 -0.6423 -0.0871  0.2083
 7371SOL     OW33571   0.625   3.465  12.357  0.1853  0.1126 -0.2913
 7371SOL    HW133572   0.685   3.425  12.294  1.3820 -1.1237  1.6394
 7371SOL    HW233573   0.636   3.410  12.435  0.9511  0.5603 -0.0909
 7372SOL     OW33574   3.284   0.255  16.045 -0.0585  0.4956  0.0492
 7372SOL    HW133575   3.331   0.210  15.975 -3.0399 -1.6147 -0.6021
 7372SOL    HW233576   3.238   0.318  15.989  0.4453  0.8412  0.0222
 7373SOL     OW33577   0.593   1.074   2.412 -0.3657 -0.3409 -0.0008
 7373SOL    HW133578   0.625   1.120   2.334 -0.7661  1.6788  1.0237
 7373SOL    HW233579   0.676   1.038   2.442  0.9021  0.5177 -2.4257
 7374SOL     OW33580   2.085   1.231  12.895 -0.1908  0.0966  1.1858
 7374SOL    HW133581   2.146   1.283  12.843 -0.9982 -1.8700 -1.7146
 7374SOL    HW233582   2.020   1.210  12.828  1.7973 -0.8842 -0.4435
 7375SOL     OW33583   3.778   4.634   6.070  0.6969  0.6866 -0.2804
 7375SOL    HW133584   3.797   4.613   5.979 -0.0498 -1.1999 -0.0139
 7375SOL    HW233585   3.741   4.721   6.067  0.6821  0.5938 -2.5665
 7376SOL     OW33586   2.671   4.481   8.909  0.1671  0.2712  0.1525
 7376SOL    HW133587   2.696   4.394   8.878  0.6801 -0.0930  1.5815
 7376SOL    HW233588   2.667   4.464   9.003 -0.6373 -0.9055 -0.0846
 7377SOL     OW33589   1.211   4.491  14.915  0.9688  0.4213  0.0944
 7377SOL    HW133590   1.203   4.570  14.968  0.6280  1.6817 -1.8282
 7377SOL    HW233591   1.305   4.476  14.920  1.1896  1.7751  0.1296
 7378SOL     OW33592   2.119   1.297   8.647  0.1339 -0.9081 -0.3562
 7378SOL    HW133593   2.213   1.306   8.665 -0.0508 -2.2468  1.2309
 7378SOL    HW233594   2.090   1.389   8.646 -0.1083 -0.9846 -0.0765
 7379SOL     OW33595   4.673   2.756  15.283 -0.6176 -0.3483 -0.0428
 7379SOL    HW133596   0.022   2.791  15.236  1.6317 -1.2794  2.8345
 7379SOL    HW233597   4.638   2.683  15.232  1.0781  0.5117 -2.4345
 7380SOL     OW33598   4.355   2.737   8.894  0.5734 -0.1621 -0.1281
 7380SOL    HW133599   4.419   2.788   8.943 -0.0569 -0.5949  1.1698
 7380SOL    HW233600   4.394   2.655   8.926  1.6465 -0.7181 -2.9168
 7381SOL     OW33601   2.757   4.638   6.017  0.1657 -0.4068 -0.4000
 7381SOL    HW133602   2.848   4.608   6.009 -0.1003 -1.2845 -0.0186
 7381SOL    HW233603   2.761   4.699   6.091 -0.9603  0.5196 -1.1022
 7382SOL     OW33604   3.735   0.381   0.234  0.1398 -0.5497  0.1712
 7382SOL    HW133605   3.665   0.348   0.291 -0.3561  0.6761  0.2831
 7382SOL    HW233606   3.704   0.471   0.223  0.4030 -0.6158 -1.0292
 7383SOL     OW33607   1.852   2.424  12.352 -0.2005 -0.5449  0.1216
 7383SOL    HW133608   1.868   2.349  12.410 -0.2821 -0.2522  0.5235
 7383SOL    HW233609   1.778   2.392  12.300 -0.3853  1.4949 -0.8704
 7384SOL     OW33610   2.174   3.820  11.991 -0.3967  0.2640  0.0054
 7384SOL    HW133611   2.106   3.760  12.021 -2.1259  2.6906  0.9103
 7384SOL    HW233612   2.241   3.821  12.059  0.1983 -1.8946 -0.5559
 7385SOL     OW33613   3.778   4.181   1.977  0.3374  0.3842  0.0567
 7385SOL    HW133614   3.849   4.118   1.987  1.7924  2.0643  0.2685
 7385SOL    HW233615   3.706   4.120   1.960 -0.2121  0.3202  2.6719
 7386SOL     OW33616   3.608   1.449   5.982  0.4710 -0.6586  0.2831
 7386SOL    HW133617   3.574   1.485   6.064 -0.1086  1.8389 -1.0603
 7386SOL    HW233618   3.603   1.528   5.928 -0.0112 -0.9355 -0.0805
 7387SOL     OW33619   1.263   2.737   5.964  0.0067  0.1531 -0.0198
 7387SOL    HW133620   1.215   2.806   5.918  0.4739 -0.4722 -1.4352
 7387SOL    HW233621   1.212   2.660   5.937 -1.1245  0.2860  1.7059
 7388SOL     OW33622   0.232   4.506   2.519 -0.1353 -0.9857  0.2109
 7388SOL    HW133623   0.179   4.427   2.524  1.0238 -1.7195  0.8738
 7388SOL    HW233624   0.257   4.503   2.612 -1.1072 -2.8088  0.4193
 7389SOL     OW33625   3.210   1.091  11.747  0.4503  0.6597 -0.1552
 7389SOL    HW133626   3.262   1.120  11.673 -0.7642  0.0287 -1.2620
 7389SOL    HW233627   3.266   1.108  11.822 -0.0456 -0.4652  0.4780
 7390SOL     OW33628   1.193   2.589   1.178 -0.5457  0.1692  0.0297
 7390SOL    HW133629   1.128   2.518   1.177  0.0222 -0.3366 -0.5424
 7390SOL    HW233630   1.132   2.663   1.189  1.8534  2.2922 -0.8590
 7391SOL     OW33631   2.634   2.885   4.165 -0.0589 -0.5078 -0.1138
 7391SOL    HW133632   2.674   2.820   4.222 -1.3232  0.5410  1.9965
 7391SOL    HW233633   2.634   2.967   4.215  1.7552 -0.5268 -0.0858
 7392SOL     OW33634   4.472   2.819   2.901  0.0741  0.2324 -0.1829
 7392SOL    HW133635   4.438   2.895   2.948  0.5816  0.2938  0.0858
 7392SOL    HW233636   4.410   2.831   2.829  0.6233  3.1895 -0.1390
 7393SOL     OW33637   1.356   4.184  15.861 -0.0296  0.5399 -0.1874
 7393SOL    HW133638   1.274   4.141  15.839  0.1763  1.2436 -2.3503
 7393SOL    HW233639   1.364   4.174  15.956 -0.1155 -0.8084 -0.3337
 7394SOL     OW33640   0.725   4.688  15.584 -0.1457  0.0656 -0.6334
 7394SOL    HW133641   0.640   0.001  15.602 -0.1795  0.6868 -2.1070
 7394SOL    HW233642   0.775   0.014  15.646  0.4180  2.5445 -3.1978
 7395SOL     OW33643   1.219   1.053  15.610 -0.0556 -0.1673  0.3983
 7395SOL    HW133644   1.232   0.968  15.568  2.1844  0.9289 -1.1251
 7395SOL    HW233645   1.257   1.041  15.698  0.2798 -4.3652 -0.3237
 7396SOL     OW33646   1.796   4.351   8.828 -0.3705 -0.1419 -0.1466
 7396SOL    HW133647   1.710   4.363   8.868  0.1791  1.8562  0.4651
 7396SOL    HW233648   1.768   4.323   8.741 -0.8491 -0.4461  0.1044
 7397SOL     OW33649   0.035   1.966  10.121  0.3509 -0.3657  0.4563
 7397SOL    HW133650   0.083   2.040  10.083 -0.0973 -0.1734  0.2624
 7397SOL    HW233651   4.667   1.966  10.103  0.6736  2.1273 -1.2528
 7398SOL     OW33652   1.474   0.304   2.414 -1.0583  0.5277  0.1115
 7398SOL    HW133653   1.518   0.252   2.346  0.4794  1.6142  0.2807
 7398SOL    HW233654   1.539   0.328   2.481  0.7467 -1.7738 -0.8129
 7399SOL     OW33655   4.681   2.815  10.147 -0.2399 -0.0114 -0.4250
 7399SOL    HW133656   4.664   2.877  10.218 -0.2418  1.2442 -1.5184
 7399SOL    HW233657   0.008   2.745  10.185 -1.0131 -1.2020 -1.5439
 7400SOL     OW33658   3.915   0.399   2.022 -0.4894 -0.1802  0.0644
 7400SOL    HW133659   3.898   0.480   1.974 -1.0974 -0.3115  0.0545
 7400SOL    HW233660   3.825   0.386   2.052 -0.5743  0.6038  0.1363
 7401SOL     OW33661   0.793   0.050   4.478  0.0366 -0.4402  0.0342
 7401SOL    HW133662   0.709   0.012   4.454  0.4828 -1.3779 -0.0526
 7401SOL    HW233663   0.848   4.698   4.473 -1.0259 -1.1342 -0.6003
 7402SOL     OW33664   0.513   0.868   2.775  0.0996 -0.2976 -0.4080
 7402SOL    HW133665   0.457   0.907   2.842  1.4972  1.8073 -0.4741
 7402SOL    HW233666   0.599   0.904   2.799 -1.2303  1.6032  1.5192
 7403SOL     OW33667   0.277   1.891   2.058  0.0424  0.0374 -0.4426
 7403SOL    HW133668   0.336   1.844   1.999  0.8611 -1.7913  1.8192
 7403SOL    HW233669   0.264   1.974   2.013 -1.4663  1.2523  2.2458
 7404SOL     OW33670   0.176   0.361  10.419  0.1896  0.5280  0.0682
 7404SOL    HW133671   0.206   0.361  10.328 -0.2020 -0.0460 -0.0625
 7404SOL    HW233672   0.242   0.414  10.463  0.2334  2.4003 -2.2363
 7405SOL     OW33673   3.590   1.452   4.161 -0.2694  0.7575 -0.2417
 7405SOL    HW133674   3.625   1.428   4.247 -2.2401 -1.1400  0.0331
 7405SOL    HW233675   3.529   1.517   4.195 -0.6188  0.4406 -0.2589
 7406SOL     OW33676   3.379   4.658   3.424  0.1819 -0.2608 -0.3706
 7406SOL    HW133677   3.311   4.602   3.463  1.3189 -0.1086  1.8283
 7406SOL    HW233678   3.333   0.015   3.431  1.3686  0.5187 -1.9901
 7407SOL     OW33679   2.635   0.389   2.712  0.5032  0.1275  0.1952
 7407SOL    HW133680   2.641   0.399   2.617 -0.5467 -0.4296  0.0601
 7407SOL    HW233681   2.712   0.337   2.733  0.6139 -0.2694 -1.2275
 7408SOL     OW33682   3.632   3.931   3.992 -0.1386  0.0757  0.4881
 7408SOL    HW133683   3.566   3.967   4.052  0.9462  4.1200 -0.7244
 7408SOL    HW233684   3.587   3.852   3.962  0.3456  0.7504 -1.9778
 7409SOL     OW33685   4.388   3.218   6.136  0.0728 -0.0314  0.1086
 7409SOL    HW133686   4.477   3.213   6.170 -0.0630 -1.2203  0.2811
 7409SOL    HW233687   4.387   3.293   6.076 -0.1302  1.1400  1.5708
 7410SOL     OW33688   0.115   1.539  10.468 -0.2389 -0.4052  0.5324
 7410SOL    HW133689   0.023   1.566  10.469 -0.3440 -0.7051 -1.8783
 7410SOL    HW233690   0.113   1.451  10.505 -0.8598 -1.0954 -1.1660
 7411SOL     OW33691   4.295   1.248   3.535  0.2343  0.2023 -0.5296
 7411SOL    HW133692   4.272   1.316   3.472 -0.1868  0.5101 -0.0415
 7411SOL    HW233693   4.233   1.178   3.513 -0.9256  2.0621 -3.1448
 7412SOL     OW33694   3.888   1.534   0.550  0.9045 -0.1705 -0.2839
 7412SOL    HW133695   3.855   1.596   0.615 -0.4706 -1.4128  0.2067
 7412SOL    HW233696   3.806   1.488   0.534 -0.3776  1.7657  0.7111
 7413SOL     OW33697   0.576   4.206   1.453 -0.3637  0.2130 -0.1803
 7413SOL    HW133698   0.511   4.135   1.445 -0.3059  0.1784 -0.3529
 7413SOL    HW233699   0.597   4.216   1.545 -0.9786 -2.1957  0.2428
 7414SOL     OW33700   4.026   1.071   9.719  0.7276 -0.1190 -0.0039
 7414SOL    HW133701   4.021   0.989   9.670 -1.0677  0.6311 -1.0370
 7414SOL    HW233702   4.017   1.039   9.809 -2.0952 -2.2010 -1.0293
 7415SOL     OW33703   1.740   2.894  10.671  0.5762 -0.1614 -0.1551
 7415SOL    HW133704   1.714   2.802  10.677 -2.7311  0.8831  1.4480
 7415SOL    HW233705   1.727   2.904  10.577 -2.1189 -0.3149  0.1995
 7416SOL     OW33706   2.958   4.289   8.904  0.6563 -0.2104  0.4765
 7416SOL    HW133707   2.994   4.350   8.841 -1.7016  0.8429  0.1591
 7416SOL    HW233708   2.970   4.345   8.981 -2.1833 -0.1507  0.8702
 7417SOL     OW33709   3.599   0.590   4.395 -0.7517 -0.2591  0.0001
 7417SOL    HW133710   3.550   0.618   4.472 -0.7574  0.6682 -0.3473
 7417SOL    HW233711   3.688   0.615   4.420 -0.6553 -1.3074  0.7270
 7418SOL     OW33712   0.986   2.259  17.004  0.0187 -0.2488  0.3977
 7418SOL    HW133713   0.996   2.167  16.979  1.1462 -0.0559  0.1350
 7418SOL    HW233714   0.913   2.281  16.946  0.1520 -1.4101 -0.2209
 7419SOL     OW33715   0.270   1.273   2.359  0.5495  0.8525  0.0108
 7419SOL    HW133716   0.200   1.326   2.399  0.8057 -0.7887  2.6635
 7419SOL    HW233717   0.353   1.317   2.377  0.2958  0.9851  0.8694
 7420SOL     OW33718   0.918   4.191  14.452  0.2552  0.0580  0.0150
 7420SOL    HW133719   0.874   4.218  14.533 -3.0878  0.4882 -1.9837
 7420SOL    HW233720   0.890   4.255  14.386  2.4203  0.2548 -0.7419
 7421SOL     OW33721   1.975   1.429   0.108 -0.5642  0.3994 -0.4923
 7421SOL    HW133722   1.973   1.336   0.129  1.0713 -0.0077 -2.0889
 7421SOL    HW233723   2.068   1.431   0.082 -0.6415 -0.1962 -0.8167
 7422SOL     OW33724   0.586   1.138   3.145  0.9320 -0.2199  0.4300
 7422SOL    HW133725   0.675   1.134   3.110  0.5012  2.5212 -0.9249
 7422SOL    HW233726   0.538   1.191   3.081  0.3347 -0.8253  0.3654
 7423SOL     OW33727   2.880   0.352   1.715 -0.5785  0.8886 -0.1161
 7423SOL    HW133728   2.955   0.406   1.693 -1.5589  1.4917 -1.9430
 7423SOL    HW233729   2.929   0.291   1.771  0.9108  0.4999 -1.8635
 7424SOL     OW33730   0.137   1.484  11.114 -0.0239  0.1708  0.3907
 7424SOL    HW133731   0.121   1.545  11.042  0.8786 -1.6336 -1.3345
 7424SOL    HW233732   0.095   1.403  11.086 -0.9496  0.8779 -0.2764
 7425SOL     OW33733   2.093   2.947   8.675  0.7316 -0.6055 -0.0483
 7425SOL    HW133734   2.130   2.980   8.757 -2.7839 -0.7085  1.5513
 7425SOL    HW233735   2.085   2.856   8.701  1.4164  0.0834  2.6263
 7426SOL     OW33736   4.586   3.352   5.518 -0.8343 -0.0875 -0.1550
 7426SOL    HW133737   4.626   3.434   5.547 -0.2774 -0.1062 -0.8843
 7426SOL    HW233738   4.630   3.298   5.585 -2.4717 -0.0938  0.9156
 7427SOL     OW33739   0.328   2.639   8.362 -0.2918 -0.0691 -0.1456
 7427SOL    HW133740   0.294   2.554   8.334 -0.3447  0.0361 -0.3973
 7427SOL    HW233741   0.394   2.656   8.295  1.4133 -2.2267  0.9994
 7428SOL     OW33742   4.445   3.685   3.225  0.2969 -0.1257 -0.0678
 7428SOL    HW133743   4.517   3.668   3.285 -0.9096 -2.0492  0.8353
 7428SOL    HW233744   4.381   3.617   3.248  2.1550 -2.3926 -1.7512
 7429SOL     OW33745   1.828   1.942   5.137  0.2344 -1.1552  0.0213
 7429SOL    HW133746   1.769   1.962   5.065  1.2405 -0.3400 -0.5745
 7429SOL    HW233747   1.863   1.859   5.105 -0.4691 -1.6421  0.5142
 7430SOL     OW33748   1.097   1.743   1.972  0.7019 -0.4442  0.0997
 7430SOL    HW133749   1.177   1.753   2.025 -0.3871 -2.1008  2.0801
 7430SOL    HW233750   1.126   1.733   1.882  0.6342 -1.3902  0.1827
 7431SOL     OW33751   2.816   2.081  13.250 -0.1268  0.6304  0.4101
 7431SOL    HW133752   2.854   1.995  13.270 -0.9346  0.0991 -0.3826
 7431SOL    HW233753   2.744   2.056  13.193 -0.4544 -0.2228  1.1947
 7432SOL     OW33754   1.134   2.930   5.806 -0.0777 -0.5183  0.2252
 7432SOL    HW133755   1.151   2.981   5.727 -0.6547 -2.3356 -1.0888
 7432SOL    HW233756   1.039   2.938   5.819  0.2345  1.9269  1.0188
 7433SOL     OW33757   0.830   0.665   1.398 -0.3708  0.1820  0.2906
 7433SOL    HW133758   0.821   0.760   1.408 -1.1643  0.2538 -1.1932
 7433SOL    HW233759   0.860   0.648   1.487  0.5977 -0.8038 -0.2309
 7434SOL     OW33760   1.773   2.835  16.838  0.2878  0.2286  0.1273
 7434SOL    HW133761   1.804   2.868  16.923 -0.8262  0.3846  0.4715
 7434SOL    HW233762   1.785   2.740  16.840  1.5750  0.3935  0.6929
 7435SOL     OW33763   0.474   0.142   2.081 -0.1459 -0.3199 -1.0250
 7435SOL    HW133764   0.476   0.237   2.071  0.7627  0.2702  4.6697
 7435SOL    HW233765   0.388   0.116   2.115  0.1014  1.2554  0.8204
 7436SOL     OW33766   2.790   4.406   6.252 -0.3994 -0.1245  0.7982
 7436SOL    HW133767   2.831   4.457   6.183  0.1760  0.7075  1.7471
 7436SOL    HW233768   2.762   4.468   6.320  2.2299 -1.2206  2.9296
 7437SOL     OW33769   1.655   2.229  12.887  0.7196 -0.1695  0.3320
 7437SOL    HW133770   1.659   2.200  12.796 -0.6640  0.1786  0.1624
 7437SOL    HW233771   1.698   2.152  12.924  1.2054  0.9473  2.1274
 7438SOL     OW33772   3.662   0.142   3.292  0.6448  0.3029  0.0412
 7438SOL    HW133773   3.701   0.062   3.257  0.3271  1.0502 -2.0406
 7438SOL    HW233774   3.633   0.112   3.378  3.6051  1.5304  1.4737
 7439SOL     OW33775   1.184   0.333  11.856  0.0618 -0.2337  0.6128
 7439SOL    HW133776   1.192   0.359  11.764  2.4389 -3.1860 -0.0155
 7439SOL    HW233777   1.260   0.378  11.894  0.6473  0.4167 -1.3140
 7440SOL     OW33778   1.339   0.161  12.130 -0.3793 -0.5629  0.1386
 7440SOL    HW133779   1.411   0.098  12.125 -1.4705 -2.0969  3.0512
 7440SOL    HW233780   1.354   0.209  12.049  0.5349 -1.2271 -0.0854
 7441SOL     OW33781   3.890   1.800   7.430  0.1347 -0.1518  0.3454
 7441SOL    HW133782   3.962   1.758   7.383 -0.6728  0.4870 -1.4621
 7441SOL    HW233783   3.832   1.817   7.355 -2.8405  1.9441  3.1234
 7442SOL     OW33784   4.656   4.467  11.817 -0.0369  0.5654 -0.9812
 7442SOL    HW133785   4.695   4.387  11.781 -1.2979 -0.6801  0.3988
 7442SOL    HW233786   4.688   4.468  11.907  1.0614 -0.4016 -1.3554
 7443SOL     OW33787   2.018   1.779   7.689  1.1643  0.0746  0.1692
 7443SOL    HW133788   2.098   1.748   7.731  0.4146  0.6302  2.0441
 7443SOL    HW233789   2.059   1.852   7.643  0.6184 -0.4085 -1.0665
 7444SOL     OW33790   2.283   4.502   6.653  0.6897 -0.2689  0.0871
 7444SOL    HW133791   2.246   4.518   6.739 -0.4097  2.0975 -0.8369
 7444SOL    HW233792   2.283   4.589   6.612 -2.6266  0.2461  1.2223
 7445SOL     OW33793   0.818   1.789   5.003  0.4270 -0.3516 -0.0716
 7445SOL    HW133794   0.891   1.808   5.062  0.6926  0.7020 -0.7443
 7445SOL    HW233795   0.862   1.720   4.954 -1.6076 -1.6874 -0.0391
 7446SOL     OW33796   0.922   1.644   1.197 -0.4095  0.0272  0.0656
 7446SOL    HW133797   0.837   1.661   1.157 -0.0564 -0.7184 -1.0140
 7446SOL    HW233798   0.906   1.635   1.291  0.2484 -2.8437 -0.0832
 7447SOL     OW33799   1.488   1.111   3.697 -0.0860  0.4347 -0.4047
 7447SOL    HW133800   1.518   1.175   3.632  0.5920 -2.8042 -3.2929
 7447SOL    HW233801   1.444   1.046   3.642  1.5021 -0.3937 -0.7011
 7448SOL     OW33802   0.867   3.826  17.699  0.3554 -0.3533 -0.3360
 7448SOL    HW133803   0.773   3.825   0.009  0.3378 -0.1547 -0.4189
 7448SOL    HW233804   0.898   3.790   0.074 -0.9224  1.5164  0.9567
 7449SOL     OW33805   3.372   2.137   7.064  0.2316  0.1598 -0.2520
 7449SOL    HW133806   3.371   2.161   7.157 -1.7967 -0.4298 -0.1334
 7449SOL    HW233807   3.463   2.109   7.050  0.4179  0.1827  0.8571
 7450SOL     OW33808   2.388   0.527   2.694  0.4009 -0.5050  0.1009
 7450SOL    HW133809   2.423   0.613   2.672  0.5667 -0.4772  0.4716
 7450SOL    HW233810   2.469   0.477   2.689 -1.1096 -2.9645  0.0821
 7451SOL     OW33811   3.251   3.037   0.072  0.3659  0.1126 -0.2027
 7451SOL    HW133812   3.206   3.025   0.155  1.7476  0.3357  0.5639
 7451SOL    HW233813   3.284   3.124   0.097 -0.8468  0.2237  1.0264
 7452SOL     OW33814   2.722   4.715   2.874 -0.1787 -0.2704  0.0748
 7452SOL    HW133815   2.715   4.699   2.780 -1.0819 -0.1960  0.1287
 7452SOL    HW233816   2.628   4.724   2.889 -0.1162  0.6366 -0.0710
 7453SOL     OW33817   3.721   3.384  12.069 -0.2617  0.0700 -0.0847
 7453SOL    HW133818   3.709   3.313  12.005 -0.3318 -1.5867  1.7505
 7453SOL    HW233819   3.711   3.330  12.148  2.5167  0.5304  0.5808
 7454SOL     OW33820   1.900   4.272   4.072  0.0651  0.2121 -0.0843
 7454SOL    HW133821   1.910   4.188   4.117 -0.3040 -0.4438 -1.2004
 7454SOL    HW233822   1.889   4.333   4.144  0.3523 -0.2461  0.3457
 7455SOL     OW33823   1.906   1.622   8.769 -0.5469  0.7171 -0.4497
 7455SOL    HW133824   1.992   1.614   8.727 -0.1182 -0.5543  0.6508
 7455SOL    HW233825   1.864   1.536   8.762 -1.7223  1.0568  2.3174
 7456SOL     OW33826   0.702   1.208   6.264  0.2232 -0.1723 -0.1563
 7456SOL    HW133827   0.797   1.213   6.275  0.2466 -1.3720  0.1440
 7456SOL    HW233828   0.678   1.285   6.316 -0.9177  0.8714 -2.2190
 7457SOL     OW33829   3.779   0.114   0.177  0.3886 -0.0036 -0.6454
 7457SOL    HW133830   3.761   0.206   0.197 -0.9217 -0.9439  2.4457
 7457SOL    HW233831   3.715   0.101   0.107  1.5870 -0.3581 -1.6661
 7458SOL     OW33832   1.793   3.559   6.952  0.1882  0.2381  0.3088
 7458SOL    HW133833   1.718   3.500   6.963  0.1845  0.4073  1.1868
 7458SOL    HW233834   1.861   3.513   6.903  0.2497 -1.5101  2.0226
 7459SOL     OW33835   1.551   1.401  10.202  0.0857 -0.6033 -0.6224
 7459SOL    HW133836   1.592   1.403  10.289 -0.0545  0.7324 -0.5939
 7459SOL    HW233837   1.538   1.306  10.196  0.3807 -0.8940  3.1629
 7460SOL     OW33838   2.387   2.818   0.625 -0.5671  0.2763 -0.0669
 7460SOL    HW133839   2.420   2.851   0.708 -0.5656  1.0940 -0.3904
 7460SOL    HW233840   2.307   2.870   0.614 -0.5233  0.7176  1.7054
 7461SOL     OW33841   4.698   0.587   6.832 -0.7606  0.2390 -0.4975
 7461SOL    HW133842   4.648   0.536   6.897 -1.2900  0.5024 -0.6950
 7461SOL    HW233843   4.650   0.557   6.755  1.5199  1.4574 -2.3737
 7462SOL     OW33844   3.130   3.292   4.715  0.2096  0.0166 -0.3539
 7462SOL    HW133845   3.168   3.215   4.673 -0.3923 -0.2569 -0.3855
 7462SOL    HW233846   3.156   3.279   4.806 -1.4655  0.1697  0.1519
 7463SOL     OW33847   2.339   3.022   9.297  0.1125  0.1491 -0.2101
 7463SOL    HW133848   2.310   2.992   9.211 -0.5360  2.0003 -0.6539
 7463SOL    HW233849   2.373   2.942   9.336 -0.9023 -0.1173  0.1354
 7464SOL     OW33850   4.504   1.436  13.277  0.3871  0.0529  0.5302
 7464SOL    HW133851   4.552   1.419  13.358  0.4347 -0.5042  0.3874
 7464SOL    HW233852   4.569   1.387  13.226  1.8750  0.9332  1.5662
 7465SOL     OW33853   2.085   2.880   4.075  0.6935 -0.0048  0.4111
 7465SOL    HW133854   2.016   2.813   4.072  1.4437 -0.7166 -1.1553
 7465SOL    HW233855   2.164   2.843   4.115  2.4146  0.9400 -2.0968
 7466SOL     OW33856   0.377   2.230  10.304 -0.5198 -0.5615  0.5103
 7466SOL    HW133857   0.346   2.251  10.216 -0.6394  0.0289  0.6924
 7466SOL    HW233858   0.301   2.223  10.361 -1.4824  0.7542 -0.6082
 7467SOL     OW33859   2.370   2.571   2.239 -0.8545  0.1668 -0.1110
 7467SOL    HW133860   2.420   2.551   2.318  1.5113 -0.2482 -1.7093
 7467SOL    HW233861   2.340   2.487   2.206 -1.3335  0.2400  0.1387
 7468SOL     OW33862   1.823   4.355  11.120  0.1342 -0.3680 -0.2753
 7468SOL    HW133863   1.879   4.319  11.189  0.7196 -0.6414 -0.8957
 7468SOL    HW233864   1.894   4.403  11.077  0.5904 -1.1789 -0.4323
 7469SOL     OW33865   2.620   1.703  10.194  1.2741  0.0431 -0.0262
 7469SOL    HW133866   2.593   1.722  10.104 -0.6127  0.2295  0.5937
 7469SOL    HW233867   2.669   1.785  10.208 -0.8692  1.0587  1.3686
 7470SOL     OW33868   2.374   1.007   3.772  0.4767 -0.2851 -0.1506
 7470SOL    HW133869   2.461   0.994   3.808  0.3842 -2.0115 -0.5476
 7470SOL    HW233870   2.332   0.930   3.810  3.1192 -1.3514  0.5485
 7471SOL     OW33871   2.659   0.494   1.769  0.2335 -0.0470  0.2411
 7471SOL    HW133872   2.648   0.500   1.675 -0.2496 -3.9091  0.0506
 7471SOL    HW233873   2.731   0.431   1.769  1.2219  1.0999 -0.5200
 7472SOL     OW33874   2.326   4.376  11.258 -0.5200  0.2060 -0.3380
 7472SOL    HW133875   2.369   4.427  11.327 -0.0130  0.1442 -0.6063
 7472SOL    HW233876   2.371   4.410  11.181 -0.0064 -1.3280 -0.7055
 7473SOL     OW33877   0.501   0.525   3.770  0.6451  0.1950 -0.3429
 7473SOL    HW133878   0.436   0.561   3.710 -1.6538 -0.1519  1.9393
 7473SOL    HW233879   0.566   0.594   3.756 -0.6983  1.5492  0.0885
 7474SOL     OW33880   2.941   1.127   5.536  0.2516  0.2485 -0.1909
 7474SOL    HW133881   2.893   1.052   5.499  1.6651 -0.1604 -1.2001
 7474SOL    HW233882   3.034   1.105   5.543 -0.1631 -1.5549 -0.3776
 7475SOL     OW33883   0.967   4.691  15.073  0.7292  0.6005 -0.0785
 7475SOL    HW133884   0.996   0.021  15.001  0.2072  1.7848  0.6501
 7475SOL    HW233885   1.043   4.689  15.131  0.8164 -0.9537 -0.2272
 7476SOL     OW33886   1.385   3.687   5.413  0.1833 -0.0389  0.0043
 7476SOL    HW133887   1.453   3.619   5.415 -0.6108 -0.8005  1.2891
 7476SOL    HW233888   1.415   3.729   5.494  0.7284 -2.4728  1.0657
 7477SOL     OW33889   1.934   0.902   3.716  0.3572  0.3766 -0.4476
 7477SOL    HW133890   1.942   0.996   3.732 -0.2027  0.5250 -1.0381
 7477SOL    HW233891   1.894   0.874   3.799  0.1487  0.0313 -0.6660
 7478SOL     OW33892   3.962   4.185   9.465 -0.2582  0.0628  0.0466
 7478SOL    HW133893   4.021   4.114   9.489 -1.9696 -2.1054 -2.0255
 7478SOL    HW233894   4.024   4.257   9.466  0.6775 -0.7590  0.7546
 7479SOL     OW33895   2.507   2.003  14.897 -0.8110  0.3089  0.2482
 7479SOL    HW133896   2.419   1.996  14.935 -0.7223  4.9332  1.3312
 7479SOL    HW233897   2.552   2.052  14.966  2.2999 -0.9335 -0.9212
 7480SOL     OW33898   2.301   2.072  17.006  0.0953  0.2364 -0.0909
 7480SOL    HW133899   2.271   1.995  17.054  2.4052 -1.7601 -1.8217
 7480SOL    HW233900   2.297   2.137  17.076  2.2721  0.1871  0.0757
 7481SOL     OW33901   3.320   0.155  16.830  0.3514  0.0705 -0.3724
 7481SOL    HW133902   3.372   0.175  16.908 -0.3337  0.3958 -0.0017
 7481SOL    HW233903   3.278   0.239  16.813 -1.6993 -0.5495  1.5613
 7482SOL     OW33904   0.567   3.613   3.049 -0.4886  0.4206  0.3179
 7482SOL    HW133905   0.655   3.576   3.058 -1.2746 -1.2840  0.9381
 7482SOL    HW233906   0.591   3.698   3.012  1.8409  0.2637  1.4338
 7483SOL     OW33907   1.164   2.256  11.056  0.0211 -0.0837 -0.2632
 7483SOL    HW133908   1.231   2.281  10.993  0.8547  0.0576  0.6703
 7483SOL    HW233909   1.171   2.336  11.109 -0.2198  0.3114 -0.8291
 7484SOL     OW33910   3.776   4.427   3.419  0.1714  0.2149 -0.7396
 7484SOL    HW133911   3.839   4.392   3.356  2.2424  0.2546  1.3051
 7484SOL    HW233912   3.696   4.441   3.369 -0.5187 -0.3595  0.2136
 7485SOL     OW33913   1.999   2.864   5.627 -0.5890 -0.0302 -0.3619
 7485SOL    HW133914   1.941   2.938   5.611 -0.1133  0.1128 -1.3703
 7485SOL    HW233915   2.085   2.904   5.638  0.0761 -2.1241  2.1548
 7486SOL     OW33916   0.437   3.087  13.285 -0.2982 -0.0755  0.3108
 7486SOL    HW133917   0.503   3.050  13.344 -0.7372  0.1616  0.9448
 7486SOL    HW233918   0.492   3.154  13.246  1.5274  0.7454  4.2996
 7487SOL     OW33919   1.335   3.031  12.372  0.2923 -0.0270  0.6542
 7487SOL    HW133920   1.277   2.958  12.395  1.5958 -1.3763 -0.4011
 7487SOL    HW233921   1.415   2.981  12.357  0.5583  0.7358 -0.4247
 7488SOL     OW33922   1.736   1.485   0.590 -0.2159 -0.5702 -0.4189
 7488SOL    HW133923   1.750   1.391   0.585 -1.4597 -0.7804  0.0325
 7488SOL    HW233924   1.778   1.516   0.510 -2.2830 -0.2717 -1.3932
 7489SOL     OW33925   4.670   2.576  15.031 -0.2368 -0.1585  0.1243
 7489SOL    HW133926   0.034   2.565  15.058 -0.5866  1.9003  2.1081
 7489SOL    HW233927   4.655   2.492  14.987 -0.7300  1.7205 -3.2802
 7490SOL     OW33928   0.382   4.619   5.385 -0.2206 -0.0239 -0.0704
 7490SOL    HW133929   0.308   4.638   5.328 -0.7900 -0.9455  0.3663
 7490SOL    HW233930   0.445   4.575   5.328  1.1895 -1.6158  2.7121
 7491SOL     OW33931   0.549   2.692   7.625  0.3577 -0.2400  0.5696
 7491SOL    HW133932   0.546   2.638   7.704  0.3287 -3.4793 -1.6423
 7491SOL    HW233933   0.644   2.699   7.614  0.0800 -1.4445 -2.4998
 7492SOL     OW33934   2.798   4.720   3.234 -0.0348  0.5358  0.0803
 7492SOL    HW133935   2.857   4.675   3.294  0.4645 -2.7863 -2.9095
 7492SOL    HW233936   2.712   4.721   3.275  0.6277  1.4421  1.4326
 7493SOL     OW33937   2.005   3.849   7.638 -0.0595 -0.2509  0.3747
 7493SOL    HW133938   2.004   3.870   7.732  3.0801 -1.4382  0.6870
 7493SOL    HW233939   2.088   3.887   7.609  0.6955 -1.9190  0.3529
 7494SOL     OW33940   3.004   2.916   2.188 -0.5573 -0.3671  0.1954
 7494SOL    HW133941   2.993   3.006   2.158  0.7571 -0.9696 -2.0927
 7494SOL    HW233942   2.960   2.921   2.273 -0.0686  1.3403  0.3471
 7495SOL     OW33943   2.188   4.291   6.260 -0.3086  0.5821 -0.6470
 7495SOL    HW133944   2.184   4.305   6.166 -1.8122 -1.0639 -0.8374
 7495SOL    HW233945   2.235   4.368   6.294 -1.3384  0.3599  1.3025
 7496SOL     OW33946   4.053   0.151   2.177 -0.2467  0.1990  0.0250
 7496SOL    HW133947   4.126   0.197   2.218  1.4327 -0.5714 -2.1158
 7496SOL    HW233948   3.994   0.214   2.135 -1.3200  0.5615  2.0639
 7497SOL     OW33949   4.415   0.842  15.654  0.1323  0.3590 -0.0387
 7497SOL    HW133950   4.397   0.754  15.622  1.8029  0.0674 -0.1923
 7497SOL    HW233951   4.421   0.878  15.565  2.0415 -0.1407 -0.1262
 7498SOL     OW33952   0.987   3.980   7.321 -0.8849  1.0711 -0.0487
 7498SOL    HW133953   1.037   3.907   7.286 -0.6627  0.6757  1.1104
 7498SOL    HW233954   1.022   4.052   7.269 -0.9932 -0.0984 -1.7424
 7499SOL     OW33955   0.477   3.975   3.214 -0.1727  0.4091 -0.7780
 7499SOL    HW133956   0.464   3.945   3.124 -3.5257  1.6943 -0.7377
 7499SOL    HW233957   0.572   3.979   3.220 -0.1872  0.5603 -0.6647
 7500SOL     OW33958   4.095   3.594  10.178 -0.2557  0.9459 -0.0635
 7500SOL    HW133959   4.056   3.593  10.266 -0.5309  0.5548 -0.1899
 7500SOL    HW233960   4.042   3.667  10.146  1.6508  1.8774 -1.0666
 7501SOL     OW33961   3.028   0.750   3.732  0.2264 -0.4242  0.3979
 7501SOL    HW133962   3.114   0.789   3.715  0.5696 -0.9842  0.8712
 7501SOL    HW233963   3.055   0.685   3.796  0.5274  0.0482  0.7529
 7502SOL     OW33964   0.781   1.339  17.209  0.7389  0.3859 -0.5152
 7502SOL    HW133965   0.841   1.329  17.283  0.8114  0.4560 -0.5648
 7502SOL    HW233966   0.724   1.413  17.228 -2.2199 -1.6042 -1.7186
 7503SOL     OW33967   4.301   2.329   2.529  0.5545 -0.3473 -0.3051
 7503SOL    HW133968   4.327   2.411   2.488  0.8350 -0.0197  0.5263
 7503SOL    HW233969   4.354   2.263   2.484 -2.3407 -2.1627 -1.0995
 7504SOL     OW33970   4.230   2.114   6.863 -0.1431 -0.3825 -0.2313
 7504SOL    HW133971   4.245   2.078   6.776 -0.4778 -1.3475  0.1148
 7504SOL    HW233972   4.302   2.177   6.852 -0.5403  0.2666  0.8023
 7505SOL     OW33973   2.826   0.549   4.849 -0.3771  0.2914  0.4775
 7505SOL    HW133974   2.742   0.566   4.892 -0.5531 -1.1719  0.7147
 7505SOL    HW233975   2.836   0.456   4.866 -2.0515  0.6329  3.2917
 7506SOL     OW33976   0.132   0.010   8.287 -0.2460 -0.6872 -0.5055
 7506SOL    HW133977   0.077   0.047   8.356  0.5194 -1.7987  0.6939
 7506SOL    HW233978   0.218   0.027   8.325 -1.1550  0.5047  1.0141
 7507SOL     OW33979   1.195   1.471  12.094 -0.2611  0.1978  0.0752
 7507SOL    HW133980   1.176   1.380  12.071 -1.2397 -0.1917  2.3565
 7507SOL    HW233981   1.157   1.523  12.023 -0.5145  0.6607  0.5512
 7508SOL     OW33982   0.404   1.074   4.872  0.3501 -0.7961  0.0156
 7508SOL    HW133983   0.376   1.103   4.959  0.5622 -0.6562  0.0354
 7508SOL    HW233984   0.455   1.147   4.839 -1.3272  1.6640  2.9400
 7509SOL     OW33985   0.419   2.494   4.931 -0.2419  0.2566 -0.0184
 7509SOL    HW133986   0.455   2.409   4.908  0.5881  0.3459  0.9695
 7509SOL    HW233987   0.497   2.549   4.939  0.6881 -1.2538  1.2251
 7510SOL     OW33988   3.029   4.523   7.322  0.5875  0.0095 -0.1009
 7510SOL    HW133989   2.974   4.454   7.359  0.5730 -0.4620 -1.0133
 7510SOL    HW233990   3.049   4.576   7.399 -1.7957 -0.0107  0.5652
 7511SOL     OW33991   3.764   3.400   0.230  0.1681 -0.4731  0.5347
 7511SOL    HW133992   3.689   3.457   0.247 -0.7817 -1.5524 -0.0864
 7511SOL    HW233993   3.831   3.447   0.280  1.0007 -2.1599  1.0030
 7512SOL     OW33994   3.492   1.591  13.875  0.1295 -0.1534  0.2409
 7512SOL    HW133995   3.506   1.640  13.956  1.7934  2.9916 -1.9626
 7512SOL    HW233996   3.570   1.615  13.824 -1.3054  0.8112 -1.4775
 7513SOL     OW33997   0.217   2.484   9.135 -0.5165 -0.5375  0.3925
 7513SOL    HW133998   0.203   2.405   9.188  1.3469 -0.2799  1.2747
 7513SOL    HW233999   0.142   2.534   9.167  0.2350  0.6120  0.3264
 7514SOL     OW34000   0.331   2.381   7.481 -0.3180  0.2936  0.2442
 7514SOL    HW134001   0.359   2.451   7.540 -0.5229 -0.6301  1.4410
 7514SOL    HW234002   0.417   2.351   7.450 -0.5490 -0.2726  0.1541
 7515SOL     OW34003   4.013   3.983   0.720 -0.3340  0.1803  0.2561
 7515SOL    HW134004   4.006   4.077   0.731  2.9468  0.6223 -1.5279
 7515SOL    HW234005   4.073   3.980   0.646 -2.4051 -2.3369 -1.3355
 7516SOL     OW34006   2.831   2.477   7.196 -0.3859  0.6579 -0.1450
 7516SOL    HW134007   2.837   2.494   7.290 -0.1932  1.3020 -0.2790
 7516SOL    HW234008   2.918   2.514   7.181 -0.6294  0.5725 -1.8203
 7517SOL     OW34009   3.210   4.679   4.124 -0.0898 -0.1419 -0.2927
 7517SOL    HW134010   3.299   4.672   4.157  0.9543  1.7704 -2.6549
 7517SOL    HW234011   3.195   0.046   4.116 -1.1183 -0.3771 -1.2076
 7518SOL     OW34012   3.759   1.569   5.617  0.2710 -0.7239  0.3166
 7518SOL    HW134013   3.832   1.508   5.607 -0.0244 -0.7686 -1.5563
 7518SOL    HW234014   3.690   1.504   5.632  0.8507 -0.5876  3.5374
 7519SOL     OW34015   1.905   3.965  12.166 -0.2568  0.1039 -0.2022
 7519SOL    HW134016   1.890   4.016  12.246 -1.0061  0.5145 -0.6040
 7519SOL    HW234017   1.886   3.876  12.196  1.9320  0.4511  2.1830
 7520SOL     OW34018   1.996   1.219   5.654  0.2810  0.6511 -0.2188
 7520SOL    HW134019   1.960   1.131   5.668 -0.6023  0.5905 -2.8403
 7520SOL    HW234020   2.046   1.231   5.735 -0.9086  0.3045  0.5780
 7521SOL     OW34021   0.540   2.229   5.623 -0.0644 -0.4543  0.7010
 7521SOL    HW134022   0.461   2.178   5.611 -0.4450  0.3227 -0.1096
 7521SOL    HW234023   0.597   2.189   5.557 -0.5639  0.2219 -0.1446
 7522SOL     OW34024   1.533   4.368   0.916 -0.2889  0.2568  0.0141
 7522SOL    HW134025   1.472   4.436   0.946  0.1432  1.5465 -2.0374
 7522SOL    HW234026   1.529   4.378   0.821  0.7532 -2.2897 -0.2731
 7523SOL     OW34027   0.069   0.282  16.543 -0.6671  0.3698  0.6803
 7523SOL    HW134028   0.099   0.192  16.538 -1.6774  0.0594  0.0854
 7523SOL    HW234029   4.700   0.279  16.535 -0.6147  0.4339  0.0607
 7524SOL     OW34030   2.452   1.921   3.541  0.0325  0.4612  0.0106
 7524SOL    HW134031   2.540   1.895   3.570 -0.3832  0.3022  1.1321
 7524SOL    HW234032   2.404   1.840   3.558 -0.5369  0.3521 -2.0954
 7525SOL     OW34033   3.016   0.384   5.986  0.1540  0.2252  0.2056
 7525SOL    HW134034   3.080   0.345   5.926  1.8688  1.7364  1.0433
 7525SOL    HW234035   3.065   0.454   6.029 -0.8666  0.4522  0.9955
 7526SOL     OW34036   4.719   2.649  10.565 -0.1233  0.3200  0.3324
 7526SOL    HW134037   0.047   2.697  10.502 -0.6462  1.5315  0.7960
 7526SOL    HW234038   4.643   2.708  10.567  0.0291  0.4288  2.3795
 7527SOL     OW34039   1.070   2.817  16.608  0.5541  0.1854  0.2846
 7527SOL    HW134040   1.130   2.890  16.596  0.0808  0.8030  1.6877
 7527SOL    HW234041   1.113   2.759  16.671 -0.3417  1.3750  1.9548
 7528SOL     OW34042   2.411   2.828   4.750  0.1792 -0.3199 -0.3186
 7528SOL    HW134043   2.427   2.913   4.711 -1.9497  0.3352  0.2173
 7528SOL    HW234044   2.329   2.799   4.711 -0.2204 -0.8296  0.8900
 7529SOL     OW34045   3.224   2.319  13.001  0.6601  0.3778 -0.3590
 7529SOL    HW134046   3.266   2.277  12.926  0.8645 -0.0220 -0.0206
 7529SOL    HW234047   3.307   2.358  13.031  0.6421  0.3492 -0.2728
 7530SOL     OW34048   2.863   1.696   4.953 -0.0067  0.0675  0.5792
 7530SOL    HW134049   2.935   1.715   5.012 -0.6881  0.0887  1.4139
 7530SOL    HW234050   2.918   1.670   4.879 -0.5406 -2.9937  1.2533
 7531SOL     OW34051   0.062   4.256   2.461  0.0950  0.6901  0.1879
 7531SOL    HW134052   4.719   4.321   2.450 -1.0924 -0.9762 -2.2534
 7531SOL    HW234053   0.099   4.254   2.373  1.7534  1.3252  0.8789
 7532SOL     OW34054   1.670   1.003  10.691  0.2728 -0.3196 -0.4640
 7532SOL    HW134055   1.624   0.982  10.610 -0.1097 -1.3439  0.0238
 7532SOL    HW234056   1.700   0.919  10.724  1.5583  0.5603  0.6076
 7533SOL     OW34057   1.217   0.072   4.064 -0.7697 -0.1828 -0.0005
 7533SOL    HW134058   1.267   4.723   4.095 -0.1600  0.6388  1.0396
 7533SOL    HW234059   1.252   0.095   3.978 -0.0368  1.1106  0.6394
 7534SOL     OW34060   3.780   4.099   6.906 -0.0584 -0.1254 -0.7329
 7534SOL    HW134061   3.851   4.138   6.956 -0.1807 -0.4401 -0.3123
 7534SOL    HW234062   3.782   4.143   6.821 -1.1272  2.0059  0.3471
 7535SOL     OW34063   1.599   4.191   0.237 -0.5172 -0.6403 -0.0900
 7535SOL    HW134064   1.534   4.248   0.277 -1.6054  1.2229 -4.4860
 7535SOL    HW234065   1.550   4.111   0.259 -1.0461 -0.0999  0.6850
 7536SOL     OW34066   1.679   0.480  16.792  0.1650 -0.6283  0.1769
 7536SOL    HW134067   1.712   0.405  16.841 -1.3611 -2.3348 -1.3980
 7536SOL    HW234068   1.749   0.491  16.728 -0.9283 -1.2207 -1.1173
 7537SOL     OW34069   4.470   4.202   3.877 -0.9516 -0.3906  0.2583
 7537SOL    HW134070   4.564   4.187   3.890 -0.8847 -2.2549 -2.3741
 7537SOL    HW234071   4.454   4.275   3.937 -3.2366  0.0413 -0.9028
 7538SOL     OW34072   0.407   4.011   1.178  0.1173  0.0901 -0.1394
 7538SOL    HW134073   0.407   3.983   1.269 -2.2138 -0.3572 -0.2694
 7538SOL    HW234074   0.408   4.105   1.196  1.0338  0.0705 -0.0914
 7539SOL     OW34075   3.295   0.482   2.630  0.0801 -0.2577 -0.0600
 7539SOL    HW134076   3.201   0.488   2.615  0.1863  0.5260 -0.4108
 7539SOL    HW234077   3.309   0.404   2.685 -1.3569 -0.3217  0.1994
 7540SOL     OW34078   4.593   2.959   4.612 -0.0486  0.0555 -0.2110
 7540SOL    HW134079   4.643   2.897   4.665  0.4306  0.1606 -0.5429
 7540SOL    HW234080   4.658   2.991   4.550 -0.9572 -0.7746 -1.6058
 7541SOL     OW34081   0.804   2.192   3.744 -0.0150 -0.0031 -0.4382
 7541SOL    HW134082   0.738   2.124   3.756  0.9480 -0.8820 -0.1184
 7541SOL    HW234083   0.835   2.170   3.656 -0.1975  1.1990 -0.7995
 7542SOL     OW34084   3.570   4.117  10.815 -0.4900  0.3437 -0.3128
 7542SOL    HW134085   3.552   4.070  10.897 -1.3445 -2.1583 -1.9390
 7542SOL    HW234086   3.526   4.196  10.846  0.2165  0.8787 -0.6675
 7543SOL     OW34087   4.424   3.979   5.155 -0.1125 -0.3679 -0.4465
 7543SOL    HW134088   4.505   4.002   5.201 -0.7541 -1.9654  1.4914
 7543SOL    HW234089   4.444   3.886   5.163 -0.7360 -0.5385 -0.9870
 7544SOL     OW34090   4.157   3.951   5.148  0.2727  0.1657 -0.1955
 7544SOL    HW134091   4.150   3.865   5.107  1.5793  0.2476 -0.6154
 7544SOL    HW234092   4.250   3.971   5.133  0.2508  0.2181 -0.2656
 7545SOL     OW34093   3.827   3.344   2.812 -0.1636  0.3382 -0.0958
 7545SOL    HW134094   3.870   3.424   2.842  0.0956  0.2220 -0.1639
 7545SOL    HW234095   3.736   3.361   2.837 -0.4642  0.3340 -1.1969
 7546SOL     OW34096   4.107   0.424   0.443  0.1919 -0.3519  0.6959
 7546SOL    HW134097   4.146   0.428   0.355 -0.6992 -3.2560  0.1491
 7546SOL    HW234098   4.040   0.357   0.427  1.4297 -1.1264 -1.2917
 7547SOL     OW34099   2.769   2.735  15.246  0.2052 -0.6259 -0.2922
 7547SOL    HW134100   2.693   2.785  15.276  0.1278  0.0759 -1.6284
 7547SOL    HW234101   2.811   2.801  15.189  0.6098  1.7602  2.7612
 7548SOL     OW34102   1.604   1.053   5.589 -0.0469  0.2052  0.3650
 7548SOL    HW134103   1.623   1.016   5.675  2.0139  1.5140  0.4631
 7548SOL    HW234104   1.617   1.145   5.613 -2.1581  0.4106  0.7827
 7549SOL     OW34105   2.272   2.439  13.333  0.2622  0.8583  0.2575
 7549SOL    HW134106   2.251   2.361  13.281  0.2822  1.2050 -0.2656
 7549SOL    HW234107   2.349   2.463  13.281  0.1174 -0.2826 -0.4916
 7550SOL     OW34108   3.219   1.213  17.498  0.3394 -0.2884 -0.2706
 7550SOL    HW134109   3.260   1.283  17.548 -0.1828 -0.7865  0.8610
 7550SOL    HW234110   3.195   1.264  17.421 -2.9150  0.8186  1.4669
 7551SOL     OW34111   0.936   1.661   7.383  0.7288  0.2512 -0.1839
 7551SOL    HW134112   0.967   1.685   7.296  0.2419 -1.0302 -0.7189
 7551SOL    HW234113   0.870   1.729   7.396  1.4164  0.8040  0.4171
 7552SOL     OW34114   3.251   1.233   0.539  0.1861  0.1816 -0.4103
 7552SOL    HW134115   3.162   1.215   0.508  0.1990 -0.6439  0.0564
 7552SOL    HW234116   3.252   1.329   0.541  0.2016  0.1935 -1.0548
 7553SOL     OW34117   0.416   1.286   6.615  0.2867 -0.1328 -0.4964
 7553SOL    HW134118   0.503   1.291   6.655 -0.3349  1.1981  0.6890
 7553SOL    HW234119   0.362   1.282   6.693 -2.2038 -0.1461 -2.2075
 7554SOL     OW34120   0.844   4.009  12.685 -0.0603  0.5017 -0.3391
 7554SOL    HW134121   0.891   4.022  12.767  1.4929 -0.2002 -1.1096
 7554SOL    HW234122   0.847   3.913  12.681  1.6905  0.5904 -0.9235
 7555SOL     OW34123   3.982   1.928   8.423  0.5954 -0.3798 -0.4002
 7555SOL    HW134124   3.958   1.991   8.354 -2.9980  1.5701  2.6639
 7555SOL    HW234125   4.074   1.952   8.434  0.0562  1.5883 -0.2485
 7556SOL     OW34126   2.938   1.941   1.959 -0.0465 -0.0666 -0.1846
 7556SOL    HW134127   2.863   1.905   1.912 -0.9825 -1.3197  2.2834
 7556SOL    HW234128   2.971   2.009   1.900  0.9127 -0.6905 -0.3722
 7557SOL     OW34129   2.297   0.433   4.157  0.2082  0.2177 -0.2545
 7557SOL    HW134130   2.260   0.348   4.132  0.3952  0.9613 -3.0513
 7557SOL    HW234131   2.217   0.460   4.203 -0.0392 -0.5625 -0.2332
 7558SOL     OW34132   4.408   0.874   8.014  0.0513 -0.0417 -0.3212
 7558SOL    HW134133   4.427   0.953   7.963  1.4874  0.0871  0.4240
 7558SOL    HW234134   4.465   0.805   7.980 -0.8918 -0.4202 -1.1427
 7559SOL     OW34135   3.576   3.059   3.699 -0.1749  0.1037  0.0417
 7559SOL    HW134136   3.591   3.014   3.617  1.5477 -0.8837  0.9020
 7559SOL    HW234137   3.554   2.988   3.760  0.9168  0.4330  0.8164
 7560SOL     OW34138   4.596   2.876   0.695 -0.2616  0.8326 -0.1683
 7560SOL    HW134139   4.677   2.852   0.651 -0.8502  0.2365 -0.9329
 7560SOL    HW234140   4.524   2.856   0.635 -1.6256  1.5767  1.2210
 7561SOL     OW34141   4.239   3.842   8.437  0.2481  0.2027  0.0352
 7561SOL    HW134142   4.241   3.882   8.524 -0.7703  0.3416 -0.0023
 7561SOL    HW234143   4.207   3.920   8.391 -0.4457 -1.0497 -1.5712
 7562SOL     OW34144   0.796   2.199   5.189 -0.4182  0.5435  0.1472
 7562SOL    HW134145   0.770   2.168   5.275 -1.4511 -1.4194 -0.8741
 7562SOL    HW234146   0.711   2.199   5.145 -0.5127  2.2505  0.3504
 7563SOL     OW34147   4.231   1.282   4.066  0.0240 -0.3343  0.1972
 7563SOL    HW134148   4.176   1.248   3.995 -1.0794  0.4185  0.6964
 7563SOL    HW234149   4.301   1.216   4.074  1.1871  0.8241 -0.3132
 7564SOL     OW34150   0.069   4.366   1.558  0.1351 -0.1829  0.2964
 7564SOL    HW134151   0.098   4.432   1.495 -0.0435  0.6079  1.0378
 7564SOL    HW234152   0.013   4.429   1.604  0.5368  0.2893  0.1458
 7565SOL     OW34153   4.589   4.119   0.440 -0.4457 -1.0504  0.1163
 7565SOL    HW134154   4.675   4.083   0.457 -0.8755 -2.1011  0.0646
 7565SOL    HW234155   4.543   4.042   0.407 -1.8126 -0.1781 -0.0459
 7566SOL     OW34156   3.509   0.910   1.973  0.3201 -0.6241  0.1348
 7566SOL    HW134157   3.462   0.840   1.927  0.1804 -1.6572  1.8380
 7566SOL    HW234158   3.484   0.875   2.059  1.2981 -0.5248  0.4539
 7567SOL     OW34159   1.217   2.662   1.764 -0.6182 -0.5129 -0.0845
 7567SOL    HW134160   1.276   2.589   1.745 -0.4950 -0.6453  0.8311
 7567SOL    HW234161   1.240   2.693   1.851 -2.7515 -0.3221  0.4086
 7568SOL     OW34162   3.034   0.037   8.435  0.1711  0.3346 -0.4234
 7568SOL    HW134163   3.076   0.089   8.503  0.9335  0.3698 -0.9165
 7568SOL    HW234164   2.953   0.022   8.483 -0.2992 -0.6028 -1.5123
 7569SOL     OW34165   1.380   0.289   5.733 -0.9185  0.2954  0.1997
 7569SOL    HW134166   1.304   0.341   5.706  0.1757  1.8441  0.0914
 7569SOL    HW234167   1.415   0.272   5.645 -1.4013  0.7136 -0.0731
 7570SOL     OW34168   3.921   1.801   7.896 -0.4910 -0.3025 -0.5547
 7570SOL    HW134169   3.913   1.781   7.803 -0.8519 -0.8904 -0.3944
 7570SOL    HW234170   3.919   1.710   7.924 -0.4435  0.5154  2.0925
 7571SOL     OW34171   0.398   2.083  12.022 -0.6964 -0.0513 -0.0187
 7571SOL    HW134172   0.366   2.078  11.932 -0.0843  3.8559 -0.4553
 7571SOL    HW234173   0.357   2.006  12.062 -2.7597  0.9673 -0.1650
 7572SOL     OW34174   0.185   0.407   5.053  0.0928  0.1300 -0.2300
 7572SOL    HW134175   0.145   0.491   5.078  1.4617  0.8192 -0.3572
 7572SOL    HW234176   0.133   0.347   5.106  1.6091 -0.5127  0.5304
 7573SOL     OW34177   3.997   2.553   5.692 -0.6042  0.4287 -0.5467
 7573SOL    HW134178   3.923   2.514   5.645  0.0232 -0.3646 -0.8860
 7573SOL    HW234179   4.023   2.626   5.636  0.3794 -1.7758 -2.9774
 7574SOL     OW34180   1.799   0.884  14.433 -0.0054  0.5204 -0.6453
 7574SOL    HW134181   1.824   0.835  14.355  1.2047  0.6344 -0.3263
 7574SOL    HW234182   1.809   0.977  14.413 -1.4430  0.3607 -2.1256
 7575SOL     OW34183   0.804   2.634  11.943  0.5755 -0.2215 -0.1791
 7575SOL    HW134184   0.893   2.601  11.932  0.4620 -0.2344 -1.0184
 7575SOL    HW234185   0.770   2.645  11.854 -1.1279 -1.0605  0.3487
 7576SOL     OW34186   4.698   0.947   8.461 -0.5733 -0.4625 -0.2599
 7576SOL    HW134187   4.702   0.859   8.497 -0.3711  0.2613  1.5291
 7576SOL    HW234188   0.015   0.996   8.531 -3.7994  0.8595  0.8484
 7577SOL     OW34189   0.576   2.260   6.395  0.4471 -0.6020  0.4623
 7577SOL    HW134190   0.481   2.267   6.403  0.5117  0.1936  0.4964
 7577SOL    HW234191   0.605   2.249   6.485  2.2688 -1.6535 -0.2449
 7578SOL     OW34192   2.776   1.532  17.557 -0.4868 -0.7563  0.1984
 7578SOL    HW134193   2.698   1.483  17.531 -0.0394 -1.0399 -0.6010
 7578SOL    HW234194   2.795   1.581  17.477 -0.9023  0.7256  0.9932
 7579SOL     OW34195   2.115   0.369   0.950 -0.5606 -0.3028 -0.1116
 7579SOL    HW134196   2.039   0.406   0.996  0.7685  1.1276  0.9350
 7579SOL    HW234197   2.079   0.369   0.862 -0.8135  1.6945 -0.0208
 7580SOL     OW34198   3.896   3.393  17.652  0.1702  0.5284  0.3603
 7580SOL    HW134199   3.965   3.392   0.010  0.9080  0.1507 -0.4184
 7580SOL    HW234200   3.816   3.376  17.703  0.2940 -2.0668 -0.2920
 7581SOL     OW34201   2.860   1.111   2.539  0.6102 -0.1917  0.0811
 7581SOL    HW134202   2.883   1.059   2.616 -2.3373 -0.5836  0.6873
 7581SOL    HW234203   2.780   1.070   2.505  1.5696 -0.5743 -1.7083
 7582SOL     OW34204   0.740   4.009   6.401  0.0759  0.2048  0.2054
 7582SOL    HW134205   0.672   3.948   6.427 -1.0210  0.0973 -2.9316
 7582SOL    HW234206   0.822   3.989   6.445  0.0322 -1.2878 -0.3815
 7583SOL     OW34207   0.921   3.631  16.102 -0.3996 -0.0956 -0.1775
 7583SOL    HW134208   0.863   3.573  16.053 -3.2536  2.6498 -0.0825
 7583SOL    HW234209   0.901   3.602  16.191  4.3165 -0.3604  0.8172
 7584SOL     OW34210   1.361   0.542  10.066  0.0549  0.4765 -0.1060
 7584SOL    HW134211   1.454   0.535  10.045 -0.1998  0.9041 -1.3578
 7584SOL    HW234212   1.339   0.631  10.037  0.9394  0.5948 -0.4273
 7585SOL     OW34213   3.731   0.696   7.215  0.2135 -0.3899 -0.3405
 7585SOL    HW134214   3.825   0.713   7.219 -0.1128  1.3708 -0.1953
 7585SOL    HW234215   3.690   0.776   7.182 -0.3029 -0.0730  1.0801
 7586SOL     OW34216   1.860   1.507   4.462  0.6448 -0.2366 -0.3966
 7586SOL    HW134217   1.900   1.444   4.402  0.9959 -0.0179 -0.3975
 7586SOL    HW234218   1.783   1.457   4.489  0.4069 -0.9766 -2.4474
 7587SOL     OW34219   4.568   3.143  15.555 -0.2756 -0.4588  0.3583
 7587SOL    HW134220   4.548   3.052  15.530  0.9105 -0.2374 -1.3900
 7587SOL    HW234221   4.517   3.195  15.493 -2.1387 -0.2444  2.0547
 7588SOL     OW34222   2.993   0.031  13.879  0.0137  0.0495  0.2738
 7588SOL    HW134223   2.961   0.084  13.952 -2.7669 -1.8399  0.4798
 7588SOL    HW234224   2.911   4.711  13.859  0.5690 -0.9378  0.2942
 7589SOL     OW34225   0.553   0.122   2.461  0.2934 -0.4758  0.0416
 7589SOL    HW134226   0.624   0.131   2.397  0.5949  0.0813  0.4466
 7589SOL    HW234227   0.577   0.193   2.521  1.1171  0.4149 -1.3354
 7590SOL     OW34228   1.296   1.571   4.054  0.9482  0.4095  0.3368
 7590SOL    HW134229   1.310   1.496   4.112 -0.4629  0.9305  1.3657
 7590SOL    HW234230   1.202   1.569   4.036  1.4427 -1.9622 -1.9360
 7591SOL     OW34231   0.803   0.962  14.526 -0.9709  0.1316  0.2581
 7591SOL    HW134232   0.733   0.929  14.470 -1.3270  0.3686  0.5678
 7591SOL    HW234233   0.881   0.921  14.488 -1.9730 -2.7314  1.2816
 7592SOL     OW34234   0.929   4.353   1.721  0.1448 -0.0805 -0.3058
 7592SOL    HW134235   0.928   4.432   1.775  0.4336 -0.8549  0.8174
 7592SOL    HW234236   0.837   4.356   1.694  0.3550 -0.5114 -1.0680
 7593SOL     OW34237   0.607   3.573   7.754  0.0466 -0.2278  0.5038
 7593SOL    HW134238   0.516   3.553   7.774  0.0308 -0.3624  0.3071
 7593SOL    HW234239   0.591   3.664   7.729  1.3356  0.9992  4.2645
 7594SOL     OW34240   2.850   3.360   5.048 -0.5434 -0.2024 -0.0413
 7594SOL    HW134241   2.937   3.365   5.088 -0.5006  2.7352 -0.5043
 7594SOL    HW234242   2.798   3.354   5.128 -1.1114 -0.3333 -0.4162
 7595SOL     OW34243   3.966   3.405  16.359 -0.8709 -0.3112 -0.0031
 7595SOL    HW134244   3.917   3.448  16.288 -1.7000 -1.5733 -0.2035
 7595SOL    HW234245   3.922   3.444  16.435 -2.6925 -0.5763 -0.9234
 7596SOL     OW34246   0.123   1.752   4.669 -0.3485  0.3915  0.2333
 7596SOL    HW134247   0.030   1.756   4.647 -0.6926 -0.5954  1.4899
 7596SOL    HW234248   0.148   1.674   4.619 -2.7603 -0.5275  0.4749
 7597SOL     OW34249   1.881   0.274   6.102  0.0881 -0.6767  0.2790
 7597SOL    HW134250   1.909   0.272   6.011 -1.0758 -2.5174 -0.0262
 7597SOL    HW234251   1.952   0.333   6.129  0.0138 -2.0504  3.4349
 7598SOL     OW34252   4.055   0.154  10.820  0.0741  0.3118 -0.2294
 7598SOL    HW134253   3.990   0.225  10.817  2.6596  2.7349  1.6112
 7598SOL    HW234254   4.136   0.204  10.823  0.2145  0.0489  0.3182
 7599SOL     OW34255   1.631   3.129   1.111 -0.4190  0.5888 -0.2925
 7599SOL    HW134256   1.553   3.185   1.117 -1.6949 -1.4701  2.6467
 7599SOL    HW234257   1.697   3.175   1.060  0.0984  2.3009  1.9452
 7600SOL     OW34258   2.875   3.875  13.204  0.0568  0.6776 -0.3730
 7600SOL    HW134259   2.810   3.917  13.260 -2.2943 -0.1205 -2.5593
 7600SOL    HW234260   2.946   3.858  13.267  0.2204  0.5780 -0.5832
 7601SOL     OW34261   0.430   1.857  17.576  0.6495  0.2619  0.9134
 7601SOL    HW134262   0.519   1.852  17.541  0.8575  0.5128  1.4175
 7601SOL    HW234263   0.405   1.768  17.549 -1.0478  1.9810 -3.2980
 7602SOL     OW34264   2.336   1.271   6.534  0.1697 -0.5323  0.5875
 7602SOL    HW134265   2.248   1.286   6.500 -0.2722  1.3644  2.6168
 7602SOL    HW234266   2.338   1.175   6.524 -1.0978 -0.3401 -1.5652
 7603SOL     OW34267   1.724   1.014   5.098 -0.0342 -0.0272  0.1251
 7603SOL    HW134268   1.757   0.932   5.135 -1.5794 -0.3942  0.7326
 7603SOL    HW234269   1.732   1.064   5.179  0.4711 -1.6151  1.0544
 7604SOL     OW34270   1.633   4.698  13.457 -0.2612 -0.1895  0.0500
 7604SOL    HW134271   1.698   0.017  13.405  0.5388 -2.7004 -1.1477
 7604SOL    HW234272   1.572   0.040  13.482  1.8061  1.2149  1.1841
 7605SOL     OW34273   2.313   2.601   6.932  0.4269  0.5406 -0.4896
 7605SOL    HW134274   2.398   2.584   6.971  0.9657  1.6556 -1.1823
 7605SOL    HW234275   2.290   2.522   6.882  0.0045  0.0531  0.4721
 7606SOL     OW34276   4.570   3.392  14.915  0.1551 -0.4992  0.1667
 7606SOL    HW134277   4.571   3.425  15.005 -1.4079 -0.2166  0.0892
 7606SOL    HW234278   4.549   3.299  14.915  0.2614 -0.5195 -0.4004
 7607SOL     OW34279   0.996   3.223  10.973 -0.2703 -0.0510 -0.4512
 7607SOL    HW134280   0.918   3.244  11.023 -1.7851 -0.2343 -2.7292
 7607SOL    HW234281   0.979   3.137  10.935 -0.5559  1.0611 -2.8303
 7608SOL     OW34282   3.501   1.297   1.341 -0.8382  0.3462 -0.0267
 7608SOL    HW134283   3.465   1.370   1.290  0.6061 -0.1035 -1.6980
 7608SOL    HW234284   3.592   1.302   1.313 -0.9098  1.0414 -0.1437
 7609SOL     OW34285   0.905   1.880  16.318  0.2497 -0.4214  0.6785
 7609SOL    HW134286   0.809   1.878  16.326  0.2183 -0.9409  0.1833
 7609SOL    HW234287   0.932   1.912  16.404  0.5838  1.3219 -0.0745
 7610SOL     OW34288   4.060   0.524   4.341  0.4457  0.3116  0.4283
 7610SOL    HW134289   4.152   0.549   4.338  0.2616  0.8660 -0.6670
 7610SOL    HW234290   4.063   0.429   4.351  1.6228  0.3352  0.2695
 7611SOL     OW34291   0.480   4.335   8.629 -0.2724 -0.3989 -0.2266
 7611SOL    HW134292   0.421   4.309   8.558 -1.5768  1.0752  0.3242
 7611SOL    HW234293   0.440   4.417   8.658  0.5615 -0.5436  1.3317
 7612SOL     OW34294   0.229   4.038   7.545 -0.0138 -0.1492  0.1044
 7612SOL    HW134295   0.204   3.948   7.565 -1.8156  0.1047 -0.9755
 7612SOL    HW234296   0.294   4.055   7.613 -0.5617  0.0772  0.5734
 7613SOL     OW34297   3.178   1.115   1.594 -0.1372 -0.0308  0.3871
 7613SOL    HW134298   3.086   1.114   1.568  0.1238 -2.3040 -0.4357
 7613SOL    HW234299   3.176   1.041   1.655  1.5579  0.1824  0.7240
 7614SOL     OW34300   3.393   1.503  16.151 -0.2099 -0.1915 -0.0798
 7614SOL    HW134301   3.336   1.436  16.190 -0.4520  0.6887  1.0984
 7614SOL    HW234302   3.406   1.466  16.064 -2.1332 -1.2717  0.0900
 7615SOL     OW34303   3.206   4.149   6.521  0.0080  0.2998 -0.4946
 7615SOL    HW134304   3.157   4.207   6.464 -0.5895  1.7388  1.4848
 7615SOL    HW234305   3.163   4.152   6.607  1.3771 -0.8133  0.2254
 7616SOL     OW34306   2.128   2.797   6.667  0.1706  0.3717 -0.1859
 7616SOL    HW134307   2.218   2.795   6.701  0.0748 -0.4254  0.0130
 7616SOL    HW234308   2.129   2.776   6.574 -2.2683 -0.1639 -0.0928
 7617SOL     OW34309   0.274   1.439   4.831  0.2607  0.2589  0.4004
 7617SOL    HW134310   0.320   1.372   4.781 -0.5059  0.9941 -1.2685
 7617SOL    HW234311   0.247   1.402   4.915  0.2282 -1.2984 -0.2826
 7618SOL     OW34312   0.072   1.446   6.680  0.4537 -0.0837  0.7252
 7618SOL    HW134313   0.136   1.502   6.634 -0.7113  0.5568 -0.1114
 7618SOL    HW234314   0.074   1.365   6.630  0.1541  1.4866 -1.8592
 7619SOL     OW34315   3.692   1.990   2.317  0.2486 -0.3566 -0.0542
 7619SOL    HW134316   3.607   1.961   2.351  0.0118  0.5799  0.1359
 7619SOL    HW234317   3.739   1.924   2.368 -0.7039 -0.4287  0.7253
 7620SOL     OW34318   4.624   3.886   4.945 -0.5556  0.2845 -0.3010
 7620SOL    HW134319   4.695   3.832   4.908 -0.6414  0.6780 -1.0352
 7620SOL    HW234320   4.548   3.850   4.900 -0.9814  0.8126  0.0081
 7621SOL     OW34321   4.403   1.120   5.522 -0.0633  0.2291  0.1504
 7621SOL    HW134322   4.373   1.043   5.473  1.2986 -0.4670  0.3944
 7621SOL    HW234323   4.336   1.132   5.589 -0.0779  1.0639 -0.0217
 7622SOL     OW34324   0.226   3.701   4.606 -0.1779 -0.1825 -0.1027
 7622SOL    HW134325   0.300   3.647   4.578 -1.3494 -2.2937  0.9158
 7622SOL    HW234326   0.156   3.640   4.582  0.8115 -0.7372 -1.6196
 7623SOL     OW34327   3.251   4.660   2.027 -0.0482 -0.1781 -0.0748
 7623SOL    HW134328   3.201   4.595   2.077 -0.6344  1.9733  2.1731
 7623SOL    HW234329   3.202   4.662   1.945 -1.9245  2.2424  1.0931
 7624SOL     OW34330   0.934   0.911  12.861  0.1615 -0.9032 -0.3230
 7624SOL    HW134331   0.849   0.891  12.822 -1.6565  2.3267  1.8952
 7624SOL    HW234332   0.922   0.900  12.956  2.8323  0.9181  0.2357
 7625SOL     OW34333   2.162   1.965   7.567 -0.4499 -0.0439  0.3680
 7625SOL    HW134334   2.121   2.052   7.578  1.2203  0.3780  3.3603
 7625SOL    HW234335   2.156   1.958   7.472  0.6926  0.9694  0.2173
 7626SOL     OW34336   0.207   1.833   2.773  0.2191  0.6334 -0.8470
 7626SOL    HW134337   0.168   1.917   2.751 -1.7812 -0.1775 -0.4634
 7626SOL    HW234338   0.294   1.834   2.734  0.4474  0.1927 -0.3528
 7627SOL     OW34339   0.895   3.903   2.505 -0.3542 -0.5758  0.3482
 7627SOL    HW134340   0.885   3.831   2.442 -0.4323 -0.5127  0.2894
 7627SOL    HW234341   0.926   3.978   2.454 -1.2152  0.2142  0.9970
 7628SOL     OW34342   3.547   2.153   2.543  0.1342 -0.3991  0.5760
 7628SOL    HW134343   3.544   2.242   2.507  1.0793  0.0089  1.5034
 7628SOL    HW234344   3.534   2.171   2.637 -1.2622 -2.2906  0.7363
 7629SOL     OW34345   3.632   2.688   3.666 -0.1297  0.0451 -0.9346
 7629SOL    HW134346   3.588   2.605   3.651 -1.3469  0.5098  0.1138
 7629SOL    HW234347   3.603   2.743   3.593 -0.5602  0.2928 -0.5727
 7630SOL     OW34348   0.646   4.158   2.843  0.1210 -0.2812 -0.1598
 7630SOL    HW134349   0.601   4.212   2.907 -0.9453 -0.2038 -0.9841
 7630SOL    HW234350   0.614   4.185   2.757  0.9083  0.5670 -0.1989
 7631SOL     OW34351   4.484   3.020   3.674  0.0447 -0.3843  0.7118
 7631SOL    HW134352   4.410   2.961   3.680  0.3381 -0.8084  0.0938
 7631SOL    HW234353   4.530   3.002   3.592  1.0592 -0.7134  1.3490
 7632SOL     OW34354   4.425   2.539   7.145  0.2711  0.8186  0.0239
 7632SOL    HW134355   4.354   2.502   7.198  0.9132  0.4807  0.6455
 7632SOL    HW234356   4.502   2.537   7.202 -0.5228  0.3585  1.0653
 7633SOL     OW34357   4.401   2.293  13.791  0.3362 -0.0091  0.0844
 7633SOL    HW134358   4.490   2.320  13.811  0.4055 -1.7010  2.0365
 7633SOL    HW234359   4.405   2.259  13.702  0.3468  0.8825 -0.2514
 7634SOL     OW34360   0.251   0.979  10.530 -0.7436 -0.3655 -0.1298
 7634SOL    HW134361   0.178   1.040  10.524  0.5206  1.0165 -1.2041
 7634SOL    HW234362   0.211   0.924  10.597 -0.3039 -1.5441 -0.8258
 7635SOL     OW34363   4.504   3.352   8.854  0.0253  0.7701 -0.2220
 7635SOL    HW134364   4.435   3.285   8.852 -0.3174  1.1404 -0.6588
 7635SOL    HW234365   4.480   3.391   8.938 -1.9454 -0.7750 -0.0600
 7636SOL     OW34366   1.771   2.245  11.344 -0.1687 -0.1854  0.1682
 7636SOL    HW134367   1.763   2.284  11.431 -2.2659 -1.2539  0.4555
 7636SOL    HW234368   1.732   2.304  11.279 -1.8736 -0.7692  0.6635
 7637SOL     OW34369   2.524   0.102   6.628  0.1628 -0.2593 -0.5233
 7637SOL    HW134370   2.612   0.106   6.590  1.6848 -1.5068  2.8902
 7637SOL    HW234371   2.549   0.052   6.706 -0.9184  0.2595  0.1533
 7638SOL     OW34372   1.393   0.999   4.587 -0.1029 -0.4622  0.0572
 7638SOL    HW134373   1.422   1.056   4.516  0.8470  0.3470  1.1128
 7638SOL    HW234374   1.431   1.037   4.666  1.7288 -0.6641 -0.7274
 7639SOL     OW34375   3.942   2.784   6.920  0.1524  0.2822  0.0090
 7639SOL    HW134376   3.902   2.819   6.840  0.6556  1.5783  0.3309
 7639SOL    HW234377   3.900   2.698   6.909  0.1165  0.7299 -3.6188
 7640SOL     OW34378   4.395   4.099  16.233  0.1197 -0.1944 -0.7366
 7640SOL    HW134379   4.331   4.164  16.262  3.2686  2.0563  1.1690
 7640SOL    HW234380   4.450   4.086  16.311 -1.6612  1.2034  0.7327
 7641SOL     OW34381   1.412   1.205   1.520 -0.1717  0.3698 -0.3228
 7641SOL    HW134382   1.430   1.274   1.455 -0.0912  2.0625  1.4943
 7641SOL    HW234383   1.358   1.244   1.588 -0.5875 -1.9511  0.6832
 7642SOL     OW34384   1.058   1.049   8.575  0.3000 -0.2149  0.2716
 7642SOL    HW134385   1.086   1.065   8.665  3.0695 -0.2335 -0.5772
 7642SOL    HW234386   1.050   0.954   8.582  1.3453 -0.3219 -0.0222
 7643SOL     OW34387   2.808   2.243   0.402 -0.0405 -0.3943 -0.2862
 7643SOL    HW134388   2.900   2.268   0.402 -0.8846  2.7205 -2.3804
 7643SOL    HW234389   2.771   2.331   0.404  1.9267  0.4537 -1.2337
 7644SOL     OW34390   4.192   1.237   1.419 -0.1903 -0.1705 -0.7644
 7644SOL    HW134391   4.201   1.324   1.457  1.0903 -0.8719  0.5667
 7644SOL    HW234392   4.284   1.216   1.400 -0.2007 -0.7913 -0.1045
 7645SOL     OW34393   1.470   1.213   7.195  0.1580  0.0192  0.0347
 7645SOL    HW134394   1.386   1.213   7.148 -0.6743  1.8327  1.5647
 7645SOL    HW234395   1.474   1.134   7.249  2.0628 -1.6230 -2.5313
 7646SOL     OW34396   2.732   0.360   5.186  0.5057  0.1463 -0.0276
 7646SOL    HW134397   2.662   0.328   5.128  0.0774 -0.5430  0.8793
 7646SOL    HW234398   2.711   0.314   5.267  0.6739  0.8023  0.3825
 7647SOL     OW34399   1.696   4.393   6.982  0.1439 -0.2456 -0.6503
 7647SOL    HW134400   1.779   4.395   6.934 -0.1816  1.6862 -1.1245
 7647SOL    HW234401   1.694   4.303   7.013 -1.1431 -0.7336 -2.1393
 7648SOL     OW34402   3.437   0.240   0.885  0.0938 -0.7120  0.1360
 7648SOL    HW134403   3.447   0.206   0.796  1.2379  0.0495 -0.0294
 7648SOL    HW234404   3.362   0.300   0.883 -0.4292 -1.4001 -0.7803
 7649SOL     OW34405   1.739   0.561   3.792 -0.0039  0.2289 -0.0584
 7649SOL    HW134406   1.730   0.624   3.863 -2.3875 -2.2086  1.8077
 7649SOL    HW234407   1.812   0.508   3.826  0.0645  1.2146  1.3030
 7650SOL     OW34408   3.902   2.090   8.678 -0.1619  0.3887  0.3912
 7650SOL    HW134409   3.933   2.041   8.603 -2.6841 -1.1158  0.3459
 7650SOL    HW234410   3.878   2.013   8.729 -1.5116  1.9669  2.1518
 7651SOL     OW34411   0.065   3.003  10.417 -0.2071  0.0118 -0.3370
 7651SOL    HW134412   0.098   3.086  10.382 -1.6333  0.9446  0.5163
 7651SOL    HW234413   0.131   2.976  10.481  0.4361 -0.6569 -1.2789
 7652SOL     OW34414   3.396   1.676   5.554  0.0497  0.0309 -0.2818
 7652SOL    HW134415   3.373   1.638   5.470 -0.7891 -1.3923  0.6010
 7652SOL    HW234416   3.491   1.669   5.550  0.1246  0.9859 -0.2309
 7653SOL     OW34417   2.881   2.970  15.101  0.3778 -0.0371  0.0873
 7653SOL    HW134418   2.906   3.007  15.016 -1.8928  0.3001 -0.4190
 7653SOL    HW234419   2.911   3.031  15.168 -0.9542  0.5831  0.1157
 7654SOL     OW34420   1.462   1.826   1.389 -0.1449 -0.4800 -0.3040
 7654SOL    HW134421   1.415   1.903   1.357 -1.0585 -1.2424 -0.7919
 7654SOL    HW234422   1.385   1.772   1.403  0.7155 -1.4637  0.6523
 7655SOL     OW34423   4.409   3.006   5.810  0.3147  0.1858  0.2641
 7655SOL    HW134424   4.478   3.059   5.770 -0.5347  1.0002 -0.1142
 7655SOL    HW234425   4.402   2.935   5.746 -0.8957  1.8410 -1.4280
 7656SOL     OW34426   3.967   3.512   1.773 -0.1238  0.1594  0.5679
 7656SOL    HW134427   3.880   3.551   1.779 -0.0823  0.6457 -1.9088
 7656SOL    HW234428   3.974   3.460   1.853 -2.6778  2.6706  2.4023
 7657SOL     OW34429   3.985   1.332   8.540 -0.5722 -0.2707  0.1083
 7657SOL    HW134430   4.002   1.252   8.591  2.1390  0.1824 -0.0679
 7657SOL    HW234431   4.059   1.385   8.570  0.2276 -0.8584 -0.7986
 7658SOL     OW34432   2.182   0.624   6.871  0.2655 -0.0907 -0.0538
 7658SOL    HW134433   2.207   0.538   6.903  0.1754 -0.4302 -0.9116
 7658SOL    HW234434   2.087   0.612   6.864  0.0712  1.9422 -0.9960
 7659SOL     OW34435   0.572   1.581   9.073 -0.2082  0.4303 -0.3028
 7659SOL    HW134436   0.622   1.501   9.056 -0.1005  0.2446  0.8775
 7659SOL    HW234437   0.636   1.653   9.076 -0.6104  0.7996 -0.6597
 7660SOL     OW34438   3.465   0.601   5.586 -0.3189 -0.3845 -0.0050
 7660SOL    HW134439   3.396   0.535   5.598  0.6577 -1.3224  0.4740
 7660SOL    HW234440   3.534   0.596   5.652 -1.7168 -2.2965  1.3241
 7661SOL     OW34441   0.723   0.508   5.581  0.5156 -0.0852  0.1353
 7661SOL    HW134442   0.677   0.445   5.637 -2.0345  0.5188 -1.3230
 7661SOL    HW234443   0.806   0.462   5.571 -0.2504 -1.1741 -1.2006
 7662SOL     OW34444   2.101   2.354   6.617  0.1255 -0.3919  0.0183
 7662SOL    HW134445   2.046   2.299   6.561 -0.8506  1.0700 -0.4455
 7662SOL    HW234446   2.092   2.305   6.699  1.9713  1.3893  1.2758
 7663SOL     OW34447   0.684   0.686   3.683 -0.3611  0.2002  0.4540
 7663SOL    HW134448   0.759   0.706   3.738 -1.3281  0.2114  1.7747
 7663SOL    HW234449   0.646   0.773   3.679 -0.8107  0.0206  0.7825
 7664SOL     OW34450   1.217   3.894   0.138 -0.3313 -0.6062 -0.3008
 7664SOL    HW134451   1.221   3.897   0.043  0.5584 -0.3034 -0.2502
 7664SOL    HW234452   1.144   3.835   0.159 -1.3214  0.6383 -0.2344
 7665SOL     OW34453   3.994   1.650   3.640  0.2844 -0.6407 -0.4402
 7665SOL    HW134454   4.048   1.604   3.705 -0.2213  0.6594  0.8948
 7665SOL    HW234455   4.007   1.602   3.558  1.1743  0.8364 -1.1679
 7666SOL     OW34456   0.896   1.865   2.431  0.4627 -0.8335 -0.3493
 7666SOL    HW134457   0.918   1.904   2.346 -1.4149 -1.0517 -0.9418
 7666SOL    HW234458   0.897   1.770   2.420  0.0199 -0.7544 -1.1143
 7667SOL     OW34459   0.316   0.339   4.520 -0.3138  0.1004  0.0743
 7667SOL    HW134460   0.317   0.411   4.582  0.1827  0.8915 -0.8564
 7667SOL    HW234461   0.268   0.368   4.442 -2.0152  0.3257  1.2067
 7668SOL     OW34462   3.912   0.259   4.715 -0.0025  0.0564  0.4939
 7668SOL    HW134463   3.891   0.274   4.622  0.3473  0.9571  0.5669
 7668SOL    HW234464   3.951   0.339   4.750  0.0778 -0.5654  1.8174
 7669SOL     OW34465   1.651   2.972   0.387  0.1919 -0.0206  0.1384
 7669SOL    HW134466   1.693   3.056   0.369  1.1040 -0.2242  1.3857
 7669SOL    HW234467   1.673   2.932   0.303  2.4594  3.1366 -0.7697
 7670SOL     OW34468   0.378   1.218  17.034  0.6466 -0.0782 -0.2705
 7670SOL    HW134469   0.317   1.266  16.978  1.1036 -0.2812 -0.9501
 7670SOL    HW234470   0.318   1.155  17.073  1.2317  0.0685  0.8658
 7671SOL     OW34471   0.021   2.438   9.458  0.5439  0.3116  0.1973
 7671SOL    HW134472   4.676   2.486   9.416 -0.1433  0.0042  1.0028
 7671SOL    HW234473   0.035   2.368   9.394 -0.0730  1.7497 -1.5271
 7672SOL     OW34474   4.721   0.137   0.272  0.1590 -0.2854 -0.2116
 7672SOL    HW134475   0.044   0.079   0.214  0.0627 -0.4806 -0.1022
 7672SOL    HW234476   0.004   0.222   0.230 -0.4754  0.2285  0.6820
 7673SOL     OW34477   2.492   2.699  15.700  0.1800 -0.0792  0.3121
 7673SOL    HW134478   2.407   2.720  15.660  0.6038  0.2030 -0.4275
 7673SOL    HW234479   2.502   2.614  15.657 -0.6666 -0.1172  0.1823
 7674SOL     OW34480   1.778   3.635  14.305  0.5395  0.1424 -0.1172
 7674SOL    HW134481   1.691   3.648  14.341  0.5414  0.3303 -0.1805
 7674SOL    HW234482   1.764   3.694  14.231 -1.3194  1.2894  1.1505
 7675SOL     OW34483   3.311   0.164   4.431  0.1756  0.5195  0.7324
 7675SOL    HW134484   3.229   0.160   4.382  0.5075 -0.3999  0.2403
 7675SOL    HW234485   3.329   0.256   4.451  1.2702  0.2932  0.8359
 7676SOL     OW34486   3.060   3.080   6.870 -0.2914 -0.2061  0.5810
 7676SOL    HW134487   3.016   3.132   6.937 -1.7047 -0.4712 -0.1572
 7676SOL    HW234488   3.040   2.998   6.916 -1.5048 -2.0141 -3.2352
 7677SOL     OW34489   0.397   3.559   8.113  0.5166  0.2222  0.2008
 7677SOL    HW134490   0.445   3.512   8.181 -0.6872 -2.2397 -0.6584
 7677SOL    HW234491   0.378   3.489   8.051 -1.1993 -0.2341  1.2635
 7678SOL     OW34492   0.522   0.555   9.813 -0.4645 -0.3074  0.0455
 7678SOL    HW134493   0.519   0.644   9.848 -3.2420  0.6140 -2.4379
 7678SOL    HW234494   0.429   0.536   9.797  0.4412 -3.4829 -1.4390
 7679SOL     OW34495   3.444   2.294  17.490 -0.2970 -0.0978 -0.2448
 7679SOL    HW134496   3.441   2.239  17.568  0.9968 -1.6546 -1.2815
 7679SOL    HW234497   3.357   2.276  17.456 -1.0746  1.9410  0.6918
 7680SOL     OW34498   1.314   1.324   3.286 -0.0438 -0.3538 -0.0738
 7680SOL    HW134499   1.249   1.263   3.321  0.7832 -0.7747  0.7237
 7680SOL    HW234500   1.292   1.401   3.338 -2.8495 -0.5307 -0.9659
 7681SOL     OW34501   3.504   3.842   4.913 -0.2493  0.0656 -0.4162
 7681SOL    HW134502   3.597   3.823   4.898 -1.1147 -3.9416 -0.5827
 7681SOL    HW234503   3.462   3.758   4.895  2.0369 -1.4041  1.0804
 7682SOL     OW34504   3.595   3.865   6.117 -0.3410 -0.8517  0.2025
 7682SOL    HW134505   3.549   3.850   6.200 -1.2120  2.4229  0.2990
 7682SOL    HW234506   3.548   3.799   6.065 -0.5143  0.3224 -1.1177
 7683SOL     OW34507   1.850   1.347   5.033 -0.4082  0.2247 -0.3600
 7683SOL    HW134508   1.856   1.306   5.119 -0.6771 -1.7293 -1.2767
 7683SOL    HW234509   1.767   1.308   5.007  0.4408 -0.9113 -1.3511
 7684SOL     OW34510   1.290   0.754  12.054 -0.7013 -0.3238 -0.0650
 7684SOL    HW134511   1.267   0.672  12.009 -0.0824  0.1233 -1.1884
 7684SOL    HW234512   1.299   0.730  12.146 -0.5595  0.4503  0.1267
 7685SOL     OW34513   2.389   2.293   8.143  0.3084 -1.0945  0.0085
 7685SOL    HW134514   2.332   2.217   8.130 -0.2455 -0.4285 -1.4853
 7685SOL    HW234515   2.360   2.334   8.225 -0.0343  0.2606 -0.7909
 7686SOL     OW34516   1.510   0.441   8.834 -0.0803  1.0730  0.0503
 7686SOL    HW134517   1.572   0.402   8.895 -1.7622  1.8932  2.2596
 7686SOL    HW234518   1.464   0.365   8.800  1.4516 -0.8538  2.2859
 7687SOL     OW34519   0.920   0.185   8.763 -0.2240 -0.0413 -0.0785
 7687SOL    HW134520   0.895   0.093   8.756  0.6533 -0.1639 -1.6374
 7687SOL    HW234521   0.860   0.230   8.822 -1.4201 -1.9807  0.1656
 7688SOL     OW34522   4.312   0.305  12.334 -0.0964  0.2095 -0.3128
 7688SOL    HW134523   4.390   0.307  12.277 -0.3894 -2.5196 -0.7942
 7688SOL    HW234524   4.342   0.227  12.380  0.4869 -0.0376 -1.0885
 7689SOL     OW34525   0.274   2.099   5.589 -0.0158  0.4988  0.1192
 7689SOL    HW134526   0.203   2.107   5.526  0.6197  0.3261 -0.6176
 7689SOL    HW234527   0.294   2.005   5.591  1.2079  0.7192 -1.2881
 7690SOL     OW34528   1.067   0.571  11.245  0.0485 -0.1107 -0.1561
 7690SOL    HW134529   0.974   0.547  11.250 -0.4945  2.4527  1.7368
 7690SOL    HW234530   1.114   0.490  11.267  1.9583  0.7143 -1.1598
 7691SOL     OW34531   3.951   3.177   0.230  0.1432  0.0846 -0.3714
 7691SOL    HW134532   3.882   3.243   0.240 -0.3177 -0.6547  1.2293
 7691SOL    HW234533   4.019   3.228   0.185  0.6135  0.1137  0.3859
 7692SOL     OW34534   2.063   0.946   7.562 -0.0452 -0.0474  0.4658
 7692SOL    HW134535   2.137   0.893   7.531  1.0905  0.2310  2.6738
 7692SOL    HW234536   2.044   0.883   7.632 -3.8320 -0.2579 -0.7459
 7693SOL     OW34537   2.471   3.797   4.270  0.3007  0.4972  0.0563
 7693SOL    HW134538   2.451   3.708   4.239  0.5238  0.2984  0.4745
 7693SOL    HW234539   2.537   3.833   4.211  0.7104 -0.5989 -0.1583
 7694SOL     OW34540   3.075   2.712   6.748  0.1491 -0.4465 -0.3128
 7694SOL    HW134541   3.146   2.751   6.798  0.7190 -1.2398 -0.4979
 7694SOL    HW234542   3.011   2.700   6.819  0.1640  5.5377  0.6671
 7695SOL     OW34543   4.321   0.624   4.455  0.5144 -0.3028  0.1157
 7695SOL    HW134544   4.315   0.716   4.428 -0.9181  0.5314  3.2776
 7695SOL    HW234545   4.407   0.598   4.421 -0.6558 -0.6020 -2.5900
 7696SOL     OW34546   4.202   2.549  16.506  0.0750 -0.1448 -0.2018
 7696SOL    HW134547   4.121   2.569  16.458  0.6631  0.9660 -0.7072
 7696SOL    HW234548   4.260   2.616  16.472  1.4031 -0.1235  2.0729
 7697SOL     OW34549   4.446   1.245  10.704  0.4484  0.2014 -0.7256
 7697SOL    HW134550   4.379   1.236  10.636  1.1474 -1.2602 -1.2020
 7697SOL    HW234551   4.496   1.319  10.670  0.0240 -0.1288 -2.0936
 7698SOL     OW34552   4.283   2.606   6.744  0.2078  0.1607  0.3123
 7698SOL    HW134553   4.274   2.536   6.810 -0.6243  0.0489  0.0763
 7698SOL    HW234554   4.268   2.687   6.792  0.5968 -0.1080  0.9018
 7699SOL     OW34555   0.547   0.311   9.122 -0.9447  0.0085 -0.3962
 7699SOL    HW134556   0.596   0.259   9.185 -0.6609 -0.3662 -0.9277
 7699SOL    HW234557   0.540   0.392   9.173 -2.9599 -1.0087  0.9295
 7700SOL     OW34558   4.435   2.373   2.090 -0.1624  0.2174 -0.1988
 7700SOL    HW134559   4.429   2.279   2.108 -1.2704  0.2987 -0.1351
 7700SOL    HW234560   4.347   2.404   2.113 -0.2341 -0.6860  0.7072
 7701SOL     OW34561   4.676   3.553   5.698  0.3094 -0.3985 -0.2213
 7701SOL    HW134562   0.000   3.632   5.712 -0.5783 -0.2224  1.9776
 7701SOL    HW234563   4.714   3.497   5.766 -0.4655 -0.6415  0.0155
 7702SOL     OW34564   0.409   1.900   2.273  0.0859  0.4210 -0.8195
 7702SOL    HW134565   0.362   1.902   2.189  1.5162 -0.0133 -1.6196
 7702SOL    HW234566   0.490   1.924   2.229  2.0807 -2.4287  1.3365
 7703SOL     OW34567   0.362   3.070   7.071 -0.3820  0.2014  0.1336
 7703SOL    HW134568   0.407   3.032   7.147 -0.9877 -0.5117  0.1311
 7703SOL    HW234569   0.349   2.999   7.008  0.1427  1.3749 -1.2883
 7704SOL     OW34570   3.136   1.749   2.754  0.8294  0.2968  0.2267
 7704SOL    HW134571   3.053   1.784   2.721  1.7043  1.3360 -0.8869
 7704SOL    HW234572   3.115   1.683   2.820 -0.4743 -1.0367 -1.5104
 7705SOL     OW34573   3.446   0.696   3.982 -0.2155 -0.2066 -0.0477
 7705SOL    HW134574   3.364   0.739   4.006  0.3568  1.9951 -2.0295
 7705SOL    HW234575   3.506   0.742   4.042  0.8422 -1.6228 -0.0128
 7706SOL     OW34576   3.414   1.590   0.167  0.2991 -0.0824  0.0716
 7706SOL    HW134577   3.361   1.637   0.231  1.2899  0.2735  0.6225
 7706SOL    HW234578   3.478   1.555   0.229  0.2883 -1.5980 -0.7622
 7707SOL     OW34579   1.466   1.233   1.993  0.2316  0.0382 -0.1067
 7707SOL    HW134580   1.540   1.293   2.004  0.6946 -0.2407 -1.7833
 7707SOL    HW234581   1.507   1.181   1.925  0.2455 -0.7262  0.4892
 7708SOL     OW34582   0.391   3.104  12.562  0.0630 -0.2648  0.2442
 7708SOL    HW134583   0.429   3.020  12.535 -1.1039 -1.1015  1.2126
 7708SOL    HW234584   0.340   3.078  12.640 -0.0876 -0.3744  0.1102
 7709SOL     OW34585   0.641   2.536   3.880 -0.1303  0.5663  0.2288
 7709SOL    HW134586   0.709   2.537   3.812 -0.1892  0.5155  0.1687
 7709SOL    HW234587   0.575   2.591   3.836  0.2741  0.7991 -0.0939
 7710SOL     OW34588   4.420   4.316   6.163 -0.1431  0.2630  0.9222
 7710SOL    HW134589   4.335   4.344   6.129 -0.2325  0.0962  1.0071
 7710SOL    HW234590   4.401   4.298   6.255  0.7351 -4.9658  0.0638
 7711SOL     OW34591   2.850   2.584  14.939 -0.0751  0.3029  0.1840
 7711SOL    HW134592   2.925   2.555  14.888 -0.4111 -1.8083  0.9029
 7711SOL    HW234593   2.892   2.636  15.008  0.4046 -0.4723  0.4752
 7712SOL     OW34594   3.599   4.251   5.069  0.0732 -0.6761  0.4785
 7712SOL    HW134595   3.685   4.290   5.051 -0.3212  0.3220  0.7733
 7712SOL    HW234596   3.614   4.174   5.125  2.7527 -0.6100 -0.1389
 7713SOL     OW34597   2.210   3.822   6.693  0.0725 -0.3715 -0.4685
 7713SOL    HW134598   2.256   3.898   6.728  1.8504 -2.1183  0.9933
 7713SOL    HW234599   2.136   3.834   6.752  0.5351  2.2131 -0.4397
 7714SOL     OW34600   2.128   2.580   8.382 -0.3128  0.4780  0.6409
 7714SOL    HW134601   2.042   2.622   8.379 -0.4590  0.0154 -1.4176
 7714SOL    HW234602   2.115   2.522   8.457  1.0668 -1.3004 -0.5178
 7715SOL     OW34603   4.335   0.762   5.460  0.4166  0.0657  0.3689
 7715SOL    HW134604   4.254   0.710   5.454 -1.0283  2.4174 -0.2013
 7715SOL    HW234605   4.336   0.776   5.555 -0.7807 -1.2556  0.5921
 7716SOL     OW34606   0.101   1.885   6.422  0.1296 -0.4107  0.0542
 7716SOL    HW134607   0.066   1.798   6.402 -1.8274  0.8248 -1.9152
 7716SOL    HW234608   0.062   1.940   6.354 -1.2433 -1.6085 -0.1344
 7717SOL     OW34609   0.614   2.019   3.686 -0.0198  0.3689 -0.6653
 7717SOL    HW134610   0.553   2.050   3.753 -1.8445 -1.9173 -1.2956
 7717SOL    HW234611   0.561   2.042   3.609  0.5134  0.1941 -1.0862
 7718SOL     OW34612   4.528   3.691   8.985 -0.1962 -0.7891 -0.5495
 7718SOL    HW134613   4.520   3.650   9.071 -1.2552  0.8925  0.1643
 7718SOL    HW234614   4.562   3.618   8.935 -0.5535 -0.6742 -0.9604
 7719SOL     OW34615   3.626   3.399   6.086  0.7106  0.3876 -0.0816
 7719SOL    HW134616   3.620   3.476   6.143 -0.9771  0.3907 -0.2716
 7719SOL    HW234617   3.627   3.444   6.001 -1.8120 -2.3840 -1.5890
 7720SOL     OW34618   3.682   2.427   1.413 -0.7333  0.0144 -0.3697
 7720SOL    HW134619   3.721   2.482   1.345  0.2864 -1.5948 -1.0735
 7720SOL    HW234620   3.649   2.362   1.352 -0.6122  0.2924 -0.7268
 7721SOL     OW34621   2.691   4.126   6.368  0.4662  0.2306  0.0901
 7721SOL    HW134622   2.600   4.124   6.339 -0.0158  0.1420  1.6443
 7721SOL    HW234623   2.726   4.214   6.352 -0.5389  0.8786  1.5043
 7722SOL     OW34624   2.749   3.702   5.144 -0.6389 -0.0791  0.2971
 7722SOL    HW134625   2.737   3.717   5.238 -0.3952 -0.5582  0.4029
 7722SOL    HW234626   2.673   3.648   5.121  0.2283 -0.8224 -0.7599
 7723SOL     OW34627   3.963   0.781   7.105  0.8047  0.0170  0.4550
 7723SOL    HW134628   3.896   0.831   7.058  0.0601 -2.3912 -1.0654
 7723SOL    HW234629   4.018   0.852   7.136 -1.7973  3.1819 -2.2108
 7724SOL     OW34630   4.224   3.420   7.989  0.1912  0.1694  0.4626
 7724SOL    HW134631   4.202   3.332   7.957  0.8420  0.1191  0.1554
 7724SOL    HW234632   4.238   3.446   7.898 -0.8309  0.2189  0.3206
 7725SOL     OW34633   4.457   0.537   3.053 -0.2096  0.1089  0.5281
 7725SOL    HW134634   4.381   0.501   3.099 -0.8122 -0.5970 -1.0170
 7725SOL    HW234635   4.482   0.470   2.990 -0.5492 -0.1240  0.6396
 7726SOL     OW34636   3.596   3.369  16.352 -0.3421  0.2210 -0.5937
 7726SOL    HW134637   3.654   3.312  16.402 -1.1950 -0.2990 -0.1888
 7726SOL    HW234638   3.660   3.416  16.299  2.2941 -0.2233  2.2039
 7727SOL     OW34639   2.235   1.441   0.034 -0.0189  0.3889  0.0541
 7727SOL    HW134640   2.263   1.365   0.085  2.2879  1.8705  0.9892
 7727SOL    HW234641   2.242   1.521   0.086  2.6101 -0.1362  0.4938
 7728SOL     OW34642   0.238   0.688   2.932  0.1729 -0.3023 -0.2142
 7728SOL    HW134643   0.269   0.692   3.022 -0.7813  3.5595 -0.0665
 7728SOL    HW234644   0.227   0.781   2.913 -0.2820 -0.2657  0.2206
 7729SOL     OW34645   3.942   1.420   3.470  0.4806 -0.0546  0.0794
 7729SOL    HW134646   3.850   1.396   3.466  0.2745  0.9513 -1.3821
 7729SOL    HW234647   3.979   1.334   3.490  0.8823  0.1096  0.0571
 7730SOL     OW34648   3.071   4.377   2.871  0.3907 -0.2630 -0.1468
 7730SOL    HW134649   3.039   4.464   2.897  0.1927  0.1667 -1.7929
 7730SOL    HW234650   3.095   4.343   2.956  0.1645 -0.0033  0.0212
 7731SOL     OW34651   2.404   4.262  16.741  0.1734 -0.2763 -0.6268
 7731SOL    HW134652   2.489   4.222  16.764  0.4163 -0.7189 -2.3185
 7731SOL    HW234653   2.351   4.187  16.715 -0.0951 -0.6738  1.0183
 7732SOL     OW34654   4.287   0.890   4.275 -0.1155  0.3426  0.4883
 7732SOL    HW134655   4.299   0.907   4.368 -0.4830 -2.2198  1.0049
 7732SOL    HW234656   4.377   0.910   4.249 -0.2422  1.2640  0.7849
 7733SOL     OW34657   2.497   2.694  11.419  0.6446  0.6487 -0.1120
 7733SOL    HW134658   2.508   2.657  11.332  1.7600  2.3097 -0.6732
 7733SOL    HW234659   2.581   2.676  11.461  0.1733 -2.0843 -0.3389
 7734SOL     OW34660   4.514   0.359  12.143  0.0494 -0.2286  0.1210
 7734SOL    HW134661   4.586   0.413  12.177  0.1782  0.5988 -1.4670
 7734SOL    HW234662   4.554   0.318  12.067  2.3119  0.5487  0.8779
 7735SOL     OW34663   1.205   4.198   8.854 -0.7548  0.3066 -0.4316
 7735SOL    HW134664   1.181   4.106   8.842  3.7543 -1.1560  2.0881
 7735SOL    HW234665   1.231   4.197   8.946 -0.1915  0.3975 -0.5908
 7736SOL     OW34666   1.693   4.526  11.875 -0.0864  0.3744 -0.0066
 7736SOL    HW134667   1.605   4.491  11.893  0.3548 -1.0131 -0.5929
 7736SOL    HW234668   1.738   4.474  11.942  1.8585  1.1399 -0.7316
 7737SOL     OW34669   1.953   4.699   8.170 -0.7278  0.3859 -0.2543
 7737SOL    HW134670   1.880   4.676   8.113 -1.7052 -1.6892  1.8256
 7737SOL    HW234671   2.008   4.621   8.169  0.0577  0.9280 -0.2461
 7738SOL     OW34672   0.915   4.385   2.310 -0.5017 -0.2450 -0.1407
 7738SOL    HW134673   0.983   4.418   2.369  0.4966 -1.0986 -0.7943
 7738SOL    HW234674   0.861   4.463   2.300  1.9294  1.4449 -0.2863
 7739SOL     OW34675   3.765   0.400   5.504  0.3311 -0.1028 -0.2208
 7739SOL    HW134676   3.745   0.464   5.436 -1.6158 -0.5767 -0.0977
 7739SOL    HW234677   3.765   0.319   5.452  1.5018  1.6093 -2.8979
 7740SOL     OW34678   2.724   3.661   6.307 -0.0546 -0.3417  0.1934
 7740SOL    HW134679   2.651   3.707   6.265 -0.1437 -0.1495  0.5548
 7740SOL    HW234680   2.761   3.727   6.365 -1.2022  0.7555 -0.3312
 7741SOL     OW34681   1.628   4.001   8.824 -0.1820  0.1833 -0.4106
 7741SOL    HW134682   1.685   4.059   8.773 -1.6570  0.6072 -1.5887
 7741SOL    HW234683   1.647   3.924   8.771  1.9031  0.2038  0.3039
 7742SOL     OW34684   0.405   3.260   6.773 -0.2428 -0.2464 -0.2957
 7742SOL    HW134685   0.493   3.244   6.738 -0.3098  0.4689 -0.7858
 7742SOL    HW234686   0.367   3.172   6.781  0.8236 -0.6183  0.7336
 7743SOL     OW34687   2.850   4.340   3.609 -0.1680  0.0016 -0.2501
 7743SOL    HW134688   2.910   4.390   3.664  1.2469 -0.6315 -1.2199
 7743SOL    HW234689   2.900   4.258   3.608 -0.5647 -0.1974 -2.1999
 7744SOL     OW34690   4.338   0.426   8.317 -0.2333 -0.5232  0.6157
 7744SOL    HW134691   4.368   0.474   8.239  1.0724  0.6916  1.8570
 7744SOL    HW234692   4.301   0.501   8.364  1.7071  2.0325 -1.8701
 7745SOL     OW34693   4.479   4.517  12.824 -0.0894 -0.1438 -0.0097
 7745SOL    HW134694   4.568   4.505  12.791 -0.9489 -2.7727 -1.4339
 7745SOL    HW234695   4.502   4.574  12.897  0.9288 -0.3436 -0.1728
 7746SOL     OW34696   1.416   0.207  15.155 -0.0630  0.6699  0.4850
 7746SOL    HW134697   1.509   0.217  15.174  0.0794 -0.7714  0.5059
 7746SOL    HW234698   1.384   0.231  15.242 -1.8629  0.0946 -0.0280
 7747SOL     OW34699   3.809   1.065   6.678 -0.3073 -0.0400 -0.4991
 7747SOL    HW134700   3.811   1.132   6.746  0.4874  0.0185 -0.5788
 7747SOL    HW234701   3.898   1.066   6.643  0.0511  0.2222  0.4229
 7748SOL     OW34702   0.905   1.499   7.700 -0.0887  0.0684  0.5977
 7748SOL    HW134703   0.924   1.554   7.776 -1.0837 -0.1662  1.0112
 7748SOL    HW234704   0.979   1.440   7.684  0.7567  1.7691 -1.6447
 7749SOL     OW34705   4.543   2.910   9.005 -0.1389  0.1083  0.2040
 7749SOL    HW134706   4.500   2.929   9.088 -0.5564 -0.6389  0.1569
 7749SOL    HW234707   4.616   2.972   9.013  0.0558 -0.0606 -0.2713
 7750SOL     OW34708   4.698   3.136   6.796 -0.1687 -0.0735  0.6475
 7750SOL    HW134709   4.711   3.042   6.807 -1.6823 -0.5192 -1.4155
 7750SOL    HW234710   4.614   3.147   6.751  1.4564  2.4268 -1.8191
 7751SOL     OW34711   4.165   2.114   3.139  0.1796  0.3793 -0.7347
 7751SOL    HW134712   4.181   2.152   3.226 -0.0148 -1.1493 -0.0381
 7751SOL    HW234713   4.070   2.113   3.131  0.1589 -0.8813 -0.3536
 7752SOL     OW34714   0.110   3.873  15.278  0.6995  0.6959  0.3563
 7752SOL    HW134715   0.075   3.784  15.264 -2.8817  2.1553 -0.1362
 7752SOL    HW234716   0.136   3.896  15.189 -1.6531 -0.2223 -0.5937
 7753SOL     OW34717   0.095   3.399   5.897 -0.1285 -0.2226  0.4352
 7753SOL    HW134718   0.090   3.304   5.899  1.4811 -0.2828  1.6058
 7753SOL    HW234719   0.106   3.412   5.992 -1.5679  1.8745  0.3154
 7754SOL     OW34720   4.438   1.138   8.643  0.8722  0.3095 -0.0712
 7754SOL    HW134721   4.485   1.220   8.656 -1.1106  1.2922  0.7816
 7754SOL    HW234722   4.395   1.160   8.560  0.1331 -1.9765 -0.2935
 7755SOL     OW34723   0.262   0.299   7.894  0.4038 -0.0002 -0.2458
 7755SOL    HW134724   0.259   0.394   7.909 -2.2603 -0.3741  1.6828
 7755SOL    HW234725   0.183   0.272   7.941 -0.4245  0.2870 -1.4693
 7756SOL     OW34726   1.765   0.721   5.732 -0.4273 -0.4561 -0.6895
 7756SOL    HW134727   1.728   0.640   5.697 -0.6079 -0.0208 -1.4899
 7756SOL    HW234728   1.852   0.682   5.744 -0.4063  0.0392  0.7465
 7757SOL     OW34729   3.797   0.618   3.201  0.1576  0.3810  0.0433
 7757SOL    HW134730   3.839   0.654   3.123  0.0872  0.3248 -0.0196
 7757SOL    HW234731   3.835   0.530   3.206 -1.7324 -0.4168  0.4353
 7758SOL     OW34732   2.275   4.016  16.731  0.0977  0.3052 -0.2494
 7758SOL    HW134733   2.232   3.936  16.699 -1.0852  0.3534  1.1844
 7758SOL    HW234734   2.334   3.976  16.795 -0.3730 -2.6295 -1.6254
 7759SOL     OW34735   1.392   0.224   5.417 -0.3373 -0.3624 -0.4511
 7759SOL    HW134736   1.348   0.265   5.342 -1.2085  0.0695  0.2920
 7759SOL    HW234737   1.325   0.165   5.453 -1.1837  0.0522 -1.3312
 7760SOL     OW34738   0.167   3.482   9.769 -0.2719  0.0259 -0.0308
 7760SOL    HW134739   0.246   3.530   9.796  0.2082  0.0330 -1.4873
 7760SOL    HW234740   0.109   3.558   9.764  0.4125  0.5798  0.2964
 7761SOL     OW34741   3.462   1.065   7.416  0.2757 -0.0067 -0.0947
 7761SOL    HW134742   3.460   1.158   7.438  0.1225 -0.2723  0.9735
 7761SOL    HW234743   3.386   1.068   7.357  1.0858  0.4940 -1.1166
 7762SOL     OW34744   1.706   3.663   1.216 -0.1572  0.2445  0.1257
 7762SOL    HW134745   1.671   3.750   1.195  1.1566  0.8540  0.4392
 7762SOL    HW234746   1.681   3.642   1.306  1.5606  0.6916  0.7098
 7763SOL     OW34747   4.237   3.037   5.998  0.5116  0.4524  0.0512
 7763SOL    HW134748   4.299   3.022   5.927 -0.8090  0.0351 -0.9987
 7763SOL    HW234749   4.280   3.112   6.040  0.3003 -0.2235  1.4884
 7764SOL     OW34750   0.869   2.215   6.994  0.2413 -0.0164  0.9685
 7764SOL    HW134751   0.914   2.143   6.950 -1.1535  0.2372 -0.8371
 7764SOL    HW234752   0.788   2.168   7.015 -0.5187  1.0420  0.3828
 7765SOL     OW34753   3.157   2.462   3.319  0.0924  0.0507  0.1034
 7765SOL    HW134754   3.070   2.421   3.326  0.9763 -2.2309 -2.1422
 7765SOL    HW234755   3.138   2.553   3.297  1.1670  0.4641  0.9238
 7766SOL     OW34756   3.445   3.531   2.612  0.2662 -0.3347  0.1135
 7766SOL    HW134757   3.446   3.563   2.522  1.4055 -0.5678  0.0390
 7766SOL    HW234758   3.514   3.585   2.651 -0.7454  0.9027  0.1692
 7767SOL     OW34759   4.694   0.907  15.318 -0.1550  0.7718 -0.7925
 7767SOL    HW134760   4.706   1.002  15.315 -3.1130  1.2035  1.0475
 7767SOL    HW234761   0.054   0.875  15.341 -0.7387  0.5392  1.0742
 7768SOL     OW34762   1.894   1.795   7.329  0.2101 -0.3051 -0.3796
 7768SOL    HW134763   1.823   1.844   7.369 -1.6642 -2.0159 -1.6507
 7768SOL    HW234764   1.853   1.763   7.249  0.0239  0.7703 -0.7100
 7769SOL     OW34765   2.182   4.664   4.622  0.6733 -0.0229 -0.0144
 7769SOL    HW134766   2.174   4.616   4.705  0.0962 -2.6893 -1.6146
 7769SOL    HW234767   2.228   0.014   4.656  0.3425  0.0930  0.1756
 7770SOL     OW34768   1.892   1.443   9.966 -0.7312 -0.2393 -0.4411
 7770SOL    HW134769   1.931   1.501  10.031  0.1401 -0.8922 -0.3823
 7770SOL    HW234770   1.806   1.485   9.957  0.7527  2.9871  0.4007
 7771SOL     OW34771   1.154   0.522   4.695 -0.3985  0.0812  0.1463
 7771SOL    HW134772   1.202   0.529   4.778  0.8611  1.1907 -0.6912
 7771SOL    HW234773   1.173   0.606   4.655 -2.0482 -0.7217 -2.3516
 7772SOL     OW34774   1.388   2.089   5.078  0.0447 -0.2488 -0.3702
 7772SOL    HW134775   1.431   2.063   5.159 -1.5584  1.6174  1.0940
 7772SOL    HW234776   1.317   2.027   5.062  2.0409 -2.8912  1.0811
 7773SOL     OW34777   3.930   3.662   5.079 -0.1726 -0.4565 -0.4194
 7773SOL    HW134778   3.882   3.743   5.096 -1.5501 -1.5537  0.8201
 7773SOL    HW234779   3.927   3.627   5.168  1.1070  2.6490  0.8684
 7774SOL     OW34780   1.686   0.881   4.693  0.8466  0.1539  0.0287
 7774SOL    HW134781   1.733   0.850   4.616  0.8194  0.6751 -0.1957
 7774SOL    HW234782   1.691   0.976   4.693 -0.0085  0.2025  0.8709
 7775SOL     OW34783   2.402   3.027  16.067 -0.2291 -0.3049  0.0357
 7775SOL    HW134784   2.311   3.017  16.093 -0.4627 -1.1543 -1.1007
 7775SOL    HW234785   2.462   3.047  16.139  0.2840 -0.2172 -0.4154
 7776SOL     OW34786   2.232   2.012   6.063 -0.0359 -0.3594  0.4558
 7776SOL    HW134787   2.317   2.041   6.031 -1.1637  2.0649 -0.2934
 7776SOL    HW234788   2.172   2.075   6.023  1.6575  1.9803  1.6032
 7777SOL     OW34789   4.093   1.695   4.361  0.0216  0.3318  0.9306
 7777SOL    HW134790   4.067   1.787   4.368  1.3741  0.9446 -1.8359
 7777SOL    HW234791   4.011   1.659   4.325  0.7295  1.0544 -1.4075
 7778SOL     OW34792   0.980   3.948   3.393 -0.5209  0.3504 -0.7200
 7778SOL    HW134793   0.981   4.006   3.469  2.6546 -1.5027  0.6588
 7778SOL    HW234794   1.014   3.870   3.438 -0.9348  0.9537  0.6403
 7779SOL     OW34795   1.038   2.406  17.599  0.0900  0.2119 -0.1562
 7779SOL    HW134796   1.033   2.406  17.695  0.9101 -3.7555 -0.0844
 7779SOL    HW234797   1.019   2.313  17.583  0.5410  0.3385 -1.3841
 7780SOL     OW34798   0.822   0.248  12.804  0.2685 -0.2685  0.0523
 7780SOL    HW134799   0.842   0.155  12.818 -0.3987 -0.5700 -1.0406
 7780SOL    HW234800   0.802   0.245  12.711 -0.7745 -1.3522  0.3046
 7781SOL     OW34801   0.730   4.397   3.808 -0.3742  0.0629  0.0209
 7781SOL    HW134802   0.795   4.460   3.777 -0.9007  0.1272 -0.9306
 7781SOL    HW234803   0.720   4.425   3.899 -1.9718  1.1459 -0.4959
 7782SOL     OW34804   2.576   2.348  11.384 -0.1277  0.0038 -0.0895
 7782SOL    HW134805   2.554   2.255  11.393  1.6732 -0.3491  0.6280
 7782SOL    HW234806   2.495   2.374  11.428 -0.7007 -1.1833 -0.4620
 7783SOL     OW34807   3.138   3.889   4.199  0.0308 -0.1225  0.3007
 7783SOL    HW134808   3.097   3.808   4.230  3.2223 -1.8775 -0.0197
 7783SOL    HW234809   3.143   3.940   4.279 -1.4197  1.0803 -0.3729
 7784SOL     OW34810   3.849   0.323   5.011 -0.2767  0.5787  0.2971
 7784SOL    HW134811   3.768   0.306   4.963  1.0067  0.1825 -1.7380
 7784SOL    HW234812   3.886   0.388   4.951  0.5088  0.6487  0.8508
 7785SOL     OW34813   0.460   4.015  13.064 -0.3674 -0.7316 -0.2590
 7785SOL    HW134814   0.536   3.997  13.119 -0.2188 -1.3289 -0.6621
 7785SOL    HW234815   0.438   4.105  13.088 -1.5416 -0.7850 -1.1124
 7786SOL     OW34816   3.159   2.279   7.497 -0.4547 -0.7686  0.1105
 7786SOL    HW134817   3.064   2.286   7.502 -0.7094 -1.0042 -5.3293
 7786SOL    HW234818   3.191   2.212   7.558 -1.5661 -0.0076  1.5483
 7787SOL     OW34819   0.858   0.184  16.964  0.3538 -0.2800 -0.2483
 7787SOL    HW134820   0.843   0.183  17.058  2.0851  1.5046  0.0396
 7787SOL    HW234821   0.892   0.273  16.950 -0.6033 -0.1222 -1.5604
 7788SOL     OW34822   1.425   1.267   6.681  0.1801  1.1058 -0.0159
 7788SOL    HW134823   1.333   1.283   6.662 -0.2566 -0.4812  0.8187
 7788SOL    HW234824   1.425   1.196   6.745 -0.8100  2.8280  1.9174
 7789SOL     OW34825   1.755   2.249  11.809 -0.0368 -0.6289  0.5977
 7789SOL    HW134826   1.779   2.283  11.722  2.5209  0.9010  1.9188
 7789SOL    HW234827   1.697   2.316  11.844 -1.3375 -1.3167 -0.2468
 7790SOL     OW34828   3.259   4.667   9.851 -0.1280 -0.1981  0.1152
 7790SOL    HW134829   3.303   0.020   9.821  1.5992 -0.9388  0.6542
 7790SOL    HW234830   3.240   4.634   9.763 -0.3782 -0.5639  0.3063
 7791SOL     OW34831   3.316   0.961   6.269 -0.2116 -0.7293 -0.2184
 7791SOL    HW134832   3.340   0.905   6.344 -2.6828 -1.0132  0.3550
 7791SOL    HW234833   3.270   0.901   6.211 -1.4259 -0.2055  0.1937
 7792SOL     OW34834   3.388   0.544   3.724  0.1135  0.1912  0.4466
 7792SOL    HW134835   3.379   0.566   3.816  0.9411  2.9069 -0.1337
 7792SOL    HW234836   3.482   0.560   3.709 -0.2692  1.5402 -0.4742
 7793SOL     OW34837   2.797   0.058   0.092 -0.2294  0.1218  0.6466
 7793SOL    HW134838   2.728   0.011   0.139 -1.6974  0.7016 -0.9123
 7793SOL    HW234839   2.820   0.120   0.161 -1.3301 -1.7441  2.6584
 7794SOL     OW34840   1.619   2.034   2.698  0.6167 -0.1491 -0.1481
 7794SOL    HW134841   1.591   1.952   2.739 -0.5735  1.1617  1.6720
 7794SOL    HW234842   1.697   2.003   2.652  0.0951 -1.9986  0.2084
 7795SOL     OW34843   4.386   0.455   9.478 -0.0554 -0.2836 -0.5668
 7795SOL    HW134844   4.454   0.391   9.500  1.7870  0.6984 -3.3262
 7795SOL    HW234845   4.439   0.518   9.428  2.7051 -1.7452  0.4983
 7796SOL     OW34846   3.254   3.309   0.247  0.0445  0.0839  0.1152
 7796SOL    HW134847   3.180   3.257   0.278 -0.4913  0.6019 -0.2951
 7796SOL    HW234848   3.231   3.383   0.304 -1.1319 -0.2617  0.0679
 7797SOL     OW34849   2.276   1.896   0.471  0.4797  0.0548 -0.1327
 7797SOL    HW134850   2.285   1.801   0.483 -1.3424  0.1750  2.1292
 7797SOL    HW234851   2.185   1.913   0.493  1.1344  0.6701  2.1407
 7798SOL     OW34852   3.047   3.719   6.586 -0.2993 -1.4258  0.4160
 7798SOL    HW134853   3.085   3.802   6.612  2.3272 -2.1428 -1.1708
 7798SOL    HW234854   2.954   3.732   6.607 -0.7292 -0.6346 -1.9533
 7799SOL     OW34855   2.358   2.803   3.478  0.4969  0.8878 -0.2570
 7799SOL    HW134856   2.339   2.881   3.530  0.2257 -0.9848  2.4450
 7799SOL    HW234857   2.432   2.765   3.526  1.9982 -0.8225 -3.9602
 7800SOL     OW34858   4.370   4.225   2.453 -0.3397 -0.2795 -0.2283
 7800SOL    HW134859   4.307   4.153   2.444 -1.1192 -0.0780  3.5178
 7800SOL    HW234860   4.424   4.185   2.522 -2.2748 -0.1772  1.3381
 7801SOL     OW34861   2.051   4.626   7.531  0.0297  0.2316  0.3642
 7801SOL    HW134862   2.082   4.555   7.475 -0.2584 -0.2745  0.8528
 7801SOL    HW234863   2.123   4.635   7.593 -0.6296  1.3085  0.9710
 7802SOL     OW34864   4.145   2.231  11.765  0.2585  0.3435  0.1219
 7802SOL    HW134865   4.105   2.268  11.686  0.3150 -0.3598 -0.2303
 7802SOL    HW234866   4.235   2.220  11.735  0.2326 -0.8059  0.4589
 7803SOL     OW34867   2.042   4.299   2.404  0.1946 -0.5031  0.0967
 7803SOL    HW134868   2.063   4.236   2.335  0.7717  0.1043 -0.2889
 7803SOL    HW234869   1.958   4.334   2.374  0.4857  0.6168  0.5894
 7804SOL     OW34870   2.026   2.186  14.516 -0.1105 -0.5014 -0.6646
 7804SOL    HW134871   1.935   2.164  14.497 -0.5485  0.2533  0.5404
 7804SOL    HW234872   2.021   2.266  14.569 -1.1775  0.4494 -2.2024
 7805SOL     OW34873   1.708   0.757   2.066  0.2884 -0.4172 -0.0308
 7805SOL    HW134874   1.746   0.820   2.005 -0.3273  0.1637  0.1901
 7805SOL    HW234875   1.736   0.674   2.027  0.5607 -0.2818 -0.1243
 7806SOL     OW34876   1.958   0.424   8.851  0.1971 -0.0647 -0.7761
 7806SOL    HW134877   2.002   0.343   8.879 -1.1726  0.0967  1.8537
 7806SOL    HW234878   2.006   0.436   8.769  0.2555 -1.0176 -0.8868
 7807SOL     OW34879   3.737   2.814   5.041 -0.6017  0.7398 -0.4422
 7807SOL    HW134880   3.725   2.729   4.999 -1.5330  0.8883 -0.5005
 7807SOL    HW234881   3.681   2.859   4.977 -2.2617  0.0571  0.5147
 7808SOL     OW34882   4.579   3.957   2.921  0.4919  0.2398  0.0317
 7808SOL    HW134883   4.588   3.991   2.832 -0.2804 -0.5511 -0.3523
 7808SOL    HW234884   4.526   4.024   2.962  1.7540  1.8221 -0.9349
 7809SOL     OW34885   3.355   2.373   9.623 -0.0377 -0.0856 -0.2509
 7809SOL    HW134886   3.310   2.306   9.572 -2.7481  1.7554 -0.2549
 7809SOL    HW234887   3.394   2.420   9.549  0.8799 -0.2836  0.1069
 7810SOL     OW34888   0.744   1.869   7.454 -0.0083 -0.1557 -0.5392
 7810SOL    HW134889   0.747   1.856   7.549  1.0465 -0.8034 -0.6542
 7810SOL    HW234890   0.650   1.885   7.451 -0.2836 -2.1367 -2.7637
 7811SOL     OW34891   4.500   1.400   8.565  0.3015  0.0704 -0.2809
 7811SOL    HW134892   4.546   1.481   8.591 -1.0916  0.8806 -0.3406
 7811SOL    HW234893   4.481   1.429   8.476 -1.4695 -1.3180 -0.3409
 7812SOL     OW34894   0.388   1.448  13.374 -0.3583 -0.1577 -0.3489
 7812SOL    HW134895   0.465   1.491  13.411 -1.0544  0.3906  0.4747
 7812SOL    HW234896   0.321   1.511  13.402 -0.7756 -1.0420  0.6574
 7813SOL     OW34897   3.045   1.109   6.476 -0.0373 -0.0249  0.4579
 7813SOL    HW134898   3.131   1.110   6.433 -1.6255 -2.2177 -2.7754
 7813SOL    HW234899   3.038   1.203   6.489  0.4399  0.0732  0.0485
 7814SOL     OW34900   3.452   4.651   2.579  0.1088  0.1236 -0.3220
 7814SOL    HW134901   3.528   4.648   2.637 -0.9779 -2.8925  0.9144
 7814SOL    HW234902   3.451   4.558   2.556  0.6383  0.6707 -2.6328
 7815SOL     OW34903   3.913   0.688   3.647  0.3493  0.3248  0.0553
 7815SOL    HW134904   3.940   0.601   3.674  2.2693  1.0092  0.3246
 7815SOL    HW234905   3.897   0.729   3.732  0.0013  0.3935 -0.0391
 7816SOL     OW34906   2.316   3.081  15.395  0.5824  0.1764 -0.5765
 7816SOL    HW134907   2.363   3.055  15.475  2.7820  1.7315 -1.3609
 7816SOL    HW234908   2.359   3.027  15.329 -0.0081 -0.9198 -0.0634
 7817SOL     OW34909   1.495   0.192  12.991  0.4856  0.3346 -0.0301
 7817SOL    HW134910   1.425   0.257  12.986 -0.1401 -0.3525 -0.2866
 7817SOL    HW234911   1.456   0.121  13.042  2.9103 -0.7649  0.2882
 7818SOL     OW34912   4.643   3.808   8.005 -0.4122 -0.1644 -0.1573
 7818SOL    HW134913   4.638   3.782   8.098  0.1090  2.4442  0.5820
 7818SOL    HW234914   0.004   3.773   7.990 -0.1105 -0.0986  1.3658
 7819SOL     OW34915   2.243   2.013   5.566  0.3574 -0.0985 -0.1404
 7819SOL    HW134916   2.268   1.959   5.491  0.0510  0.2367 -0.4887
 7819SOL    HW234917   2.225   2.096   5.523  2.3069  1.2756  1.7549
 7820SOL     OW34918   4.232   3.937   6.783  0.0982 -0.3512 -0.1960
 7820SOL    HW134919   4.314   3.902   6.816 -1.4343 -3.1218  0.7411
 7820SOL    HW234920   4.187   3.964   6.863 -0.3025  1.7445 -1.1405
 7821SOL     OW34921   3.873   3.867   3.492 -0.2176 -0.4958  0.1778
 7821SOL    HW134922   3.809   3.821   3.546  0.2447 -0.3392  0.8562
 7821SOL    HW234923   3.944   3.804   3.503 -0.7856 -0.8798  1.5477
 7822SOL     OW34924   3.321   1.144   8.873  0.2703 -0.6963  0.0681
 7822SOL    HW134925   3.275   1.168   8.954  1.4033 -1.3722  0.9168
 7822SOL    HW234926   3.337   1.226   8.827 -2.4935 -0.2499 -0.1089
 7823SOL     OW34927   3.165   3.293   8.258 -0.2868 -0.1075  0.1491
 7823SOL    HW134928   3.107   3.276   8.332 -1.0931 -0.6501 -0.6155
 7823SOL    HW234929   3.182   3.202   8.233  0.7352  0.6938 -2.0844
 7824SOL     OW34930   0.359   0.043   7.853 -0.4551  0.4155  0.1098
 7824SOL    HW134931   0.316   0.128   7.860  2.4086  1.8836 -0.1395
 7824SOL    HW234932   0.291   0.004   7.908 -2.0466  0.5345 -1.7630
 7825SOL     OW34933   3.680   4.574   4.998 -0.1380 -0.2005  0.0274
 7825SOL    HW134934   3.723   4.624   4.929 -1.0433 -0.2799 -0.5894
 7825SOL    HW234935   3.744   4.505   5.015 -3.0396 -2.5402  1.4455
 7826SOL     OW34936   0.257   2.695   1.020  0.1590  0.3865 -0.0294
 7826SOL    HW134937   0.227   2.738   0.940 -1.2677 -1.3179 -0.4101
 7826SOL    HW234938   0.171   2.681   1.060  1.0795 -2.0375  1.1203
 7827SOL     OW34939   2.495   4.647   9.564  0.5436  0.2434  0.7624
 7827SOL    HW134940   2.407   4.637   9.602 -0.6660 -2.4460 -2.7811
 7827SOL    HW234941   2.487   4.724   9.506 -0.5571 -0.9918 -0.7336
 7828SOL     OW34942   4.232   3.407   4.265 -0.1683 -0.2415  0.4090
 7828SOL    HW134943   4.213   3.455   4.346 -2.6428  1.0812 -0.9575
 7828SOL    HW234944   4.147   3.415   4.222  0.1291  1.1160  0.0903
 7829SOL     OW34945   0.632   3.105   5.983 -0.3305  0.0420  0.0246
 7829SOL    HW134946   0.720   3.099   6.020 -0.7912 -2.0132  0.7903
 7829SOL    HW234947   0.634   3.041   5.912  2.3342  0.7662 -0.5564
 7830SOL     OW34948   4.224   3.997   2.540  0.1050 -0.5177  0.4205
 7830SOL    HW134949   4.260   3.950   2.615  0.7840 -0.9163 -0.1559
 7830SOL    HW234950   4.139   3.954   2.530 -1.1257  1.8701  0.6414
 7831SOL     OW34951   0.495   2.696   7.334 -0.1846  0.5178 -0.3758
 7831SOL    HW134952   0.548   2.621   7.359  0.7119  0.6829 -1.7855
 7831SOL    HW234953   0.445   2.708   7.414 -0.5448 -0.6027 -0.4320
 7832SOL     OW34954   0.365   1.433   3.699  0.2041  0.0628 -0.3849
 7832SOL    HW134955   0.373   1.368   3.629  0.3351  0.6012 -0.8693
 7832SOL    HW234956   0.424   1.393   3.763  2.4943  0.0544 -2.4857
 7833SOL     OW34957   2.525   3.058   6.194 -0.0813 -0.0515  0.1353
 7833SOL    HW134958   2.480   3.141   6.210  1.5143  0.6450  1.0032
 7833SOL    HW234959   2.576   3.047   6.275  2.2708  0.8949 -1.2174
 7834SOL     OW34960   2.867   3.185   4.659 -0.1108  0.2382 -0.3603
 7834SOL    HW134961   2.956   3.218   4.669 -0.3212  0.7308 -0.1029
 7834SOL    HW234962   2.840   3.257   4.602  0.4698  1.4029  0.8031
 7835SOL     OW34963   1.019   1.191  16.090 -0.4785  0.2600 -0.0041
 7835SOL    HW134964   0.951   1.235  16.141  0.7524 -0.7924  2.5426
 7835SOL    HW234965   0.998   1.099  16.104  2.6367 -0.3676  0.7014
 7836SOL     OW34966   4.637   2.469   8.314  0.4806  0.1333 -0.2058
 7836SOL    HW134967   4.574   2.541   8.318  0.6221  0.2287  0.3754
 7836SOL    HW234968   4.614   2.433   8.228 -0.0899 -2.4981  1.0589
 7837SOL     OW34969   0.807   3.649   6.834  0.7037 -0.2302  0.0373
 7837SOL    HW134970   0.827   3.575   6.891 -0.5796  0.1875  1.0316
 7837SOL    HW234971   0.891   3.657   6.789  1.9997  1.9985  2.8572
 7838SOL     OW34972   1.013   3.088   9.057  0.2466 -0.2565 -0.0088
 7838SOL    HW134973   1.038   3.060   9.145 -1.1123  0.7882  0.7285
 7838SOL    HW234974   1.013   3.008   9.005  1.5246 -1.4840  1.8893
 7839SOL     OW34975   1.250   3.688  12.514  0.2613 -0.0958  0.2456
 7839SOL    HW134976   1.208   3.759  12.466 -1.4161 -0.5555  1.0360
 7839SOL    HW234977   1.190   3.617  12.491  1.2464 -0.5224 -0.9583
 7840SOL     OW34978   1.368   3.502   1.015 -0.0318  0.3459  0.5390
 7840SOL    HW134979   1.305   3.533   1.080 -1.9014 -0.2357 -0.9631
 7840SOL    HW234980   1.392   3.418   1.052  1.5808 -0.1710 -1.6783
 7841SOL     OW34981   3.014   4.300   4.128  0.6382 -0.4100  0.5902
 7841SOL    HW134982   3.080   4.282   4.196  0.7012  0.0853  0.6632
 7841SOL    HW234983   2.930   4.297   4.173  1.0175 -2.6665  1.1480
 7842SOL     OW34984   0.854   0.693   5.157 -0.3707 -0.0271  0.0452
 7842SOL    HW134985   0.833   0.612   5.203 -1.1952 -0.4975 -1.1525
 7842SOL    HW234986   0.815   0.758   5.215 -1.5086 -0.8577  0.1926
 7843SOL     OW34987   0.047   3.577   6.529 -0.5517 -0.7030  0.3818
 7843SOL    HW134988   0.076   3.655   6.576  0.4088 -0.6388 -0.3268
 7843SOL    HW234989   0.073   3.515   6.598  0.2809  0.1132  0.8173
 7844SOL     OW34990   3.337   3.051  12.650  0.5133 -0.1254  0.2511
 7844SOL    HW134991   3.305   3.106  12.722 -1.2727  0.2354 -0.8127
 7844SOL    HW234992   3.264   3.068  12.589  0.2905  0.6917  0.7392
 7845SOL     OW34993   0.080   2.580   0.327  0.1603  0.1661 -0.1991
 7845SOL    HW134994   0.171   2.565   0.302  0.7741  2.2917  0.7418
 7845SOL    HW234995   0.057   2.494   0.362 -0.5686 -0.7135 -2.8701
 7846SOL     OW34996   4.117   1.582  12.288  0.0638  0.6586 -0.7250
 7846SOL    HW134997   4.123   1.487  12.283 -2.2424  0.4476  0.6630
 7846SOL    HW234998   4.149   1.609  12.202 -1.8721  0.4538 -1.4972
 7847SOL     OW34999   4.475   3.737   8.331  0.5102  0.6315 -0.3136
 7847SOL    HW135000   4.384   3.714   8.349  0.7915 -0.1970  0.0871
 7847SOL    HW235001   4.473   3.830   8.353  1.0044  1.2119 -2.7633
 7848SOL     OW35002   4.227   4.498   7.781 -0.0063 -0.5755  0.1892
 7848SOL    HW135003   4.285   4.564   7.820 -1.4624  1.3354 -0.8854
 7848SOL    HW235004   4.284   4.423   7.796 -1.6908 -1.6012  1.3837
 7849SOL     OW35005   4.082   2.458   5.028  0.5440  0.2590  0.0526
 7849SOL    HW135006   4.072   2.364   5.036 -0.1135  0.1864 -1.5861
 7849SOL    HW235007   4.071   2.475   5.122 -1.6370 -0.2670 -0.1145
 7850SOL     OW35008   0.714   3.619   5.530 -0.5465 -0.1598 -0.1281
 7850SOL    HW135009   0.673   3.536   5.509 -1.1248 -0.2428  1.2790
 7850SOL    HW235010   0.756   3.636   5.446  2.2385  0.9575  1.4695
 7851SOL     OW35011   3.457   0.952   8.743 -0.2088 -0.7207  0.3822
 7851SOL    HW135012   3.550   0.973   8.750 -0.1603 -0.5514 -0.8028
 7851SOL    HW235013   3.422   1.034   8.777  0.1704 -0.4994  0.2355
 7852SOL     OW35014   0.939   2.184   2.561 -0.5398  0.1810  0.3042
 7852SOL    HW135015   0.918   2.219   2.648  1.4426 -0.4836  1.0589
 7852SOL    HW235016   0.947   2.090   2.573  0.7454  0.1571 -0.7467
 7853SOL     OW35017   4.632   3.670   7.695 -0.2187 -0.3599 -0.6542
 7853SOL    HW135018   4.604   3.612   7.624  3.0059 -1.9280 -0.6278
 7853SOL    HW235019   4.628   3.609   7.769 -3.5847 -1.9405 -2.1372
 7854SOL     OW35020   1.173   1.099   9.932 -0.2816 -0.3709  0.3450
 7854SOL    HW135021   1.161   1.192   9.912  2.6652 -0.5247 -2.1821
 7854SOL    HW235022   1.196   1.104  10.025 -0.9603 -2.7935  0.6148
 7855SOL     OW35023   0.361   2.163   9.035  0.1242  0.3324  0.3532
 7855SOL    HW135024   0.347   2.183   9.128  0.6560  0.5503  0.3870
 7855SOL    HW235025   0.302   2.222   8.988 -1.3980 -1.6928 -0.2519
 7856SOL     OW35026   4.082   0.724  17.257 -0.6677 -0.2635 -0.3452
 7856SOL    HW135027   4.106   0.772  17.336  1.9100 -2.9899  0.5093
 7856SOL    HW235028   4.138   0.647  17.269  0.0364  0.6769  2.2815
 7857SOL     OW35029   4.003   1.208   4.616 -0.1491  0.2305 -0.5217
 7857SOL    HW135030   4.031   1.247   4.534  0.7172  0.7624  0.0320
 7857SOL    HW235031   3.916   1.177   4.588  1.0166 -2.3139 -1.3371
 7858SOL     OW35032   0.758   4.634  15.227  0.1544 -0.0221  0.4831
 7858SOL    HW135033   0.674   4.671  15.199  0.6535 -0.1516 -1.1844
 7858SOL    HW235034   0.817   4.677  15.165 -0.5502  1.2210  0.6749
 7859SOL     OW35035   1.494   2.384   6.362 -0.5026  0.6903  0.0666
 7859SOL    HW135036   1.466   2.340   6.442  1.3966 -2.5830 -1.0451
 7859SOL    HW235037   1.557   2.445   6.400  0.3791  1.4436 -2.5880
 7860SOL     OW35038   1.124   1.378   2.338  0.0497  1.0748  0.2459
 7860SOL    HW135039   1.163   1.378   2.251  0.7769 -0.7768  0.5796
 7860SOL    HW235040   1.205   1.391   2.386  0.8262  0.2451 -0.8638
 7861SOL     OW35041   3.469   4.625   2.164 -0.0919  0.4043 -0.2516
 7861SOL    HW135042   3.454   4.702   2.219 -0.5745  1.6573 -2.1622
 7861SOL    HW235043   3.399   4.640   2.100 -0.6712  1.3465  0.5969
 7862SOL     OW35044   3.123   3.150   6.003 -0.6091 -0.0446 -0.3321
 7862SOL    HW135045   3.108   3.061   5.972  0.9523 -0.3190 -0.3150
 7862SOL    HW235046   3.178   3.181   5.931  1.4994 -0.7488  0.9610
 7863SOL     OW35047   2.035   2.803  11.125  0.1658  0.1641  0.2354
 7863SOL    HW135048   2.028   2.707  11.132  0.4006  0.1606  0.4097
 7863SOL    HW235049   1.973   2.810  11.052 -0.6049 -0.4961  0.8205
 7864SOL     OW35050   3.577   1.886   2.012 -0.3212 -0.0844 -0.2405
 7864SOL    HW135051   3.546   1.931   2.091  0.9147  1.7166 -0.7782
 7864SOL    HW235052   3.643   1.829   2.052 -1.1311  1.0072  2.6964
 7865SOL     OW35053   2.034   1.398  10.941  0.1534  0.2530  0.9363
 7865SOL    HW135054   2.022   1.485  10.902 -2.1872 -1.7758 -2.9112
 7865SOL    HW235055   2.122   1.372  10.914  0.8108  1.9276  1.4078
 7866SOL     OW35056   2.266   2.233  13.165 -0.0426  0.1093 -0.2979
 7866SOL    HW135057   2.301   2.211  13.078  1.1697  0.8667  0.0004
 7866SOL    HW235058   2.250   2.145  13.201  0.5362  0.6165  1.1843
 7867SOL     OW35059   2.847   1.935  14.106 -0.7345 -0.3407 -0.5227
 7867SOL    HW135060   2.884   1.938  14.194 -2.1433  0.6302  0.0457
 7867SOL    HW235061   2.754   1.918  14.125 -0.6366  0.3300  0.5734
 7868SOL     OW35062   3.233   2.886  16.032 -0.7905  0.3622  0.7595
 7868SOL    HW135063   3.194   2.852  15.952 -2.1220 -0.6137  1.8035
 7868SOL    HW235064   3.176   2.835  16.091 -2.3150  1.4777  0.2569
 7869SOL     OW35065   2.151   3.787  16.602 -0.2688 -0.3931 -0.1579
 7869SOL    HW135066   2.119   3.707  16.643 -1.8992 -0.8085 -2.2217
 7869SOL    HW235067   2.235   3.747  16.581  0.2714  0.3595  0.5834
 7870SOL     OW35068   1.858   2.586   0.707 -0.4299 -0.1726  0.0602
 7870SOL    HW135069   1.780   2.623   0.748 -0.6859 -0.5502 -0.0911
 7870SOL    HW235070   1.856   2.499   0.746  0.6292  0.0662  0.6586
 7871SOL     OW35071   1.244   1.483   6.881 -0.5504 -0.4322 -0.2698
 7871SOL    HW135072   1.251   1.575   6.858 -0.1992 -0.4472 -0.2289
 7871SOL    HW235073   1.312   1.454   6.821  0.1541 -1.6202  1.0960
 7872SOL     OW35074   0.875   2.933  17.695  0.0364  0.1848  0.0591
 7872SOL    HW135075   0.938   2.967  17.632  0.1460 -1.9459 -0.9866
 7872SOL    HW235076   0.897   2.840  17.694 -0.9285 -0.0033 -3.3838
 7873SOL     OW35077   2.018   2.958   3.296 -0.2198  0.0216  0.1189
 7873SOL    HW135078   2.041   2.880   3.245  3.2177  3.1475 -3.0781
 7873SOL    HW235079   1.958   2.922   3.361 -0.9297  0.8187 -0.1040
 7874SOL     OW35080   2.973   2.330   5.356 -0.1914 -0.3904  0.0421
 7874SOL    HW135081   2.993   2.408   5.304  1.3089 -0.8772 -0.0991
 7874SOL    HW235082   3.027   2.267   5.309  0.5976  0.1033  0.3012
 7875SOL     OW35083   1.921   3.542   1.785  0.6767  0.0646 -0.0509
 7875SOL    HW135084   1.881   3.620   1.823 -1.2300 -1.0121  0.1639
 7875SOL    HW235085   1.953   3.579   1.703 -0.5555 -1.4238 -1.2142
 7876SOL     OW35086   3.476   0.049   6.546 -0.5373  0.2135 -0.1321
 7876SOL    HW135087   3.473   4.692   6.592 -0.9338  0.4164  0.2138
 7876SOL    HW235088   3.397   0.038   6.492 -0.8485 -1.3326  0.6487
 7877SOL     OW35089   1.657   3.634   2.921 -0.0801 -0.0242 -0.6178
 7877SOL    HW135090   1.602   3.613   2.996  2.3939 -0.9910  0.9618
 7877SOL    HW235091   1.651   3.548   2.878 -1.0477 -0.9769  1.4451
 7878SOL     OW35092   3.806   3.002   6.786 -0.2589  0.1876 -0.5055
 7878SOL    HW135093   3.813   3.098   6.788  0.4523  0.1553 -1.3106
 7878SOL    HW235094   3.717   2.991   6.754 -0.9324  0.8747  1.1315
 7879SOL     OW35095   1.707   3.996   2.914  0.4493 -0.0217 -0.1686
 7879SOL    HW135096   1.644   3.934   2.878 -0.5670  1.1525 -0.4182
 7879SOL    HW235097   1.676   4.073   2.866  0.6136 -0.2070 -0.5739
 7880SOL     OW35098   1.631   1.764  11.945 -0.3523  0.0988 -0.0161
 7880SOL    HW135099   1.548   1.723  11.969 -0.8182  0.9869 -0.1228
 7880SOL    HW235100   1.695   1.694  11.935 -0.0573  0.4094 -0.3160
 7881SOL     OW35101   0.997   0.365   2.882 -0.2758 -0.7162  0.1004
 7881SOL    HW135102   0.997   0.430   2.952  0.7657  0.8092 -1.3320
 7881SOL    HW235103   0.921   0.320   2.920 -1.5966  0.9344 -0.5893
 7882SOL     OW35104   2.594   3.981   9.947  0.3349 -0.0856 -0.3229
 7882SOL    HW135105   2.642   3.985  10.030 -1.6207  2.3165  0.6650
 7882SOL    HW235106   2.511   3.966   9.992 -0.3121  2.0356 -0.8151
 7883SOL     OW35107   0.205   3.197   8.790 -0.5441 -0.0149  0.0358
 7883SOL    HW135108   0.184   3.243   8.871 -1.9264  0.5702 -0.6418
 7883SOL    HW235109   0.136   3.230   8.732  0.6472  2.4981  0.0508
 7884SOL     OW35110   2.056   1.251   4.597 -0.2468  0.3227  0.1674
 7884SOL    HW135111   2.120   1.321   4.582 -0.2306 -0.2880 -2.4969
 7884SOL    HW235112   2.044   1.258   4.692  3.6848  1.6485  0.5829
 7885SOL     OW35113   4.651   0.816   3.595  0.0685 -0.1874  0.1969
 7885SOL    HW135114   4.670   0.838   3.504 -0.0041  1.1529  0.5028
 7885SOL    HW235115   4.578   0.875   3.612 -0.7496 -1.1354 -0.0527
 7886SOL     OW35116   4.670   3.805   4.005  0.4391 -0.0828  0.5091
 7886SOL    HW135117   4.667   3.859   3.926 -0.0513  0.8691  1.1870
 7886SOL    HW235118   4.576   3.787   4.016  0.2784  1.1465  1.0624
 7887SOL     OW35119   3.799   3.802   4.885  0.8854  0.1707  0.2617
 7887SOL    HW135120   3.855   3.780   4.811 -1.7337  0.7090 -1.8941
 7887SOL    HW235121   3.821   3.726   4.940  0.8776  0.7630  1.0881
 7888SOL     OW35122   4.123   0.429   9.258  0.4448  0.9115 -0.0965
 7888SOL    HW135123   4.133   0.334   9.254  0.2738  1.0130 -2.8233
 7888SOL    HW235124   4.199   0.457   9.310  0.4179 -0.0614  0.4680
 7889SOL     OW35125   3.826   2.217   2.590  0.3733 -0.1480 -0.4503
 7889SOL    HW135126   3.790   2.143   2.640  0.4364  1.5958  2.1895
 7889SOL    HW235127   3.919   2.216   2.614  0.2604 -1.9195 -0.0964
 7890SOL     OW35128   1.131   2.444   4.594 -0.1339  0.2865  0.1690
 7890SOL    HW135129   1.109   2.437   4.687  1.8937 -0.6202  0.5998
 7890SOL    HW235130   1.081   2.520   4.565 -1.5203 -1.0437 -0.8884
 7891SOL     OW35131   2.545   3.704  12.066  0.0218 -0.4022 -0.4721
 7891SOL    HW135132   2.583   3.757  11.997 -0.1332 -0.1980 -0.4010
 7891SOL    HW235133   2.614   3.663  12.120  0.5418  1.8009  0.5285
 7892SOL     OW35134   3.632   2.841   7.499  0.6914  0.4930  0.3839
 7892SOL    HW135135   3.692   2.846   7.573  2.3753  0.2786 -0.9696
 7892SOL    HW235136   3.681   2.782   7.442  3.0985  1.0172  1.9346
 7893SOL     OW35137   0.436   2.700   3.088  0.3540 -0.2154  0.1206
 7893SOL    HW135138   0.392   2.770   3.040  1.1924  0.0699 -0.2426
 7893SOL    HW235139   0.459   2.644   3.014 -1.0611 -1.2835  0.5099
 7894SOL     OW35140   2.606   2.033   6.518  0.0447  0.0924  0.5845
 7894SOL    HW135141   2.584   2.091   6.591 -0.8462 -1.9198  1.9361
 7894SOL    HW235142   2.700   2.047   6.517 -0.0510  0.6424 -0.4003
 7895SOL     OW35143   2.117   0.815   4.664  0.1645 -0.3150  0.8689
 7895SOL    HW135144   2.063   0.865   4.603  0.2320  0.3706  1.3720
 7895SOL    HW235145   2.052   0.758   4.707 -0.8785 -0.7911 -1.3575
 7896SOL     OW35146   4.119   3.074   4.326  0.2555 -0.1267  0.7090
 7896SOL    HW135147   4.132   3.167   4.345  0.1369 -0.2321  1.2868
 7896SOL    HW235148   4.198   3.031   4.358  0.6400 -0.1634 -0.2601
 7897SOL     OW35149   3.242   0.001   6.422  0.6707 -0.1892  0.4119
 7897SOL    HW135150   3.241   4.643   6.377 -1.8761  1.1072 -1.9472
 7897SOL    HW235151   3.151   4.721   6.452  1.3222 -2.2069  1.9044
 7898SOL     OW35152   3.532   4.100   7.034  0.1793  0.1184 -0.2080
 7898SOL    HW135153   3.531   4.006   7.053 -0.7917  0.0399 -0.6348
 7898SOL    HW235154   3.619   4.096   6.996  0.5753  0.4358  0.6600
 7899SOL     OW35155   1.839   3.060   5.587 -0.4247  0.2998 -0.3991
 7899SOL    HW135156   1.756   3.086   5.547 -1.2383  1.0647  1.7801
 7899SOL    HW235157   1.837   3.122   5.660  0.3018 -0.3169  0.1460
 7900SOL     OW35158   3.033   2.483   4.019 -0.4189 -0.6087  0.2610
 7900SOL    HW135159   3.121   2.513   4.039 -0.9224 -1.6415  4.1246
 7900SOL    HW235160   3.036   2.390   4.042  0.4089 -0.6409  0.0107
 7901SOL     OW35161   3.102   2.317   5.952  0.6805  0.1985 -0.0248
 7901SOL    HW135162   3.103   2.242   5.893 -2.8711 -1.1877  1.6994
 7901SOL    HW235163   3.173   2.295   6.012 -0.5168  0.4191  1.4517
 7902SOL     OW35164   1.280   0.527   4.954 -0.1391  0.5343  0.5520
 7902SOL    HW135165   1.239   0.565   5.032 -0.5385 -0.3802  0.7820
 7902SOL    HW235166   1.360   0.578   4.952  0.3034 -0.2346 -1.1553
 7903SOL     OW35167   4.690   1.501   9.725 -0.1466  0.1972 -0.2983
 7903SOL    HW135168   0.040   1.446   9.740 -1.2129 -0.2441  3.6143
 7903SOL    HW235169   0.004   1.587   9.730  3.2547 -1.4407  0.0572
 7904SOL     OW35170   0.436   2.524   4.099  0.3898 -0.1065  0.1014
 7904SOL    HW135171   0.484   2.579   4.037  1.4914 -1.3812 -0.1710
 7904SOL    HW235172   0.397   2.590   4.157 -1.1036 -1.4133  0.5937
 7905SOL     OW35173   1.401   0.945   1.487  0.7532 -0.6605 -0.5772
 7905SOL    HW135174   1.395   0.944   1.392 -1.0498 -0.1294 -0.4736
 7905SOL    HW235175   1.418   1.036   1.512  1.7341 -1.2792  1.0522
 7906SOL     OW35176   0.496   3.680   9.091  0.2302 -0.2823  0.5245
 7906SOL    HW135177   0.494   3.669   9.186 -0.8509 -1.0469  0.4093
 7906SOL    HW235178   0.512   3.590   9.063  0.9665  0.3362 -1.0062
 7907SOL     OW35179   0.695   2.227  13.152 -0.5206 -0.3384 -0.2636
 7907SOL    HW135180   0.765   2.162  13.159 -0.3586 -0.5063 -3.6576
 7907SOL    HW235181   0.751   2.304  13.144 -1.6665  0.8931  3.5276
 7908SOL     OW35182   1.186   3.372  11.994  0.2523  0.0277 -0.4945
 7908SOL    HW135183   1.234   3.311  12.050  0.9750 -0.0991 -1.2420
 7908SOL    HW235184   1.120   3.321  11.948  0.1719 -0.9243  0.6475
 7909SOL     OW35185   2.313   0.851   6.727 -0.1931  0.5456  0.5147
 7909SOL    HW135186   2.263   0.774   6.755 -1.7109  1.8447  1.3538
 7909SOL    HW235187   2.374   0.854   6.801 -1.0664  1.5482  1.2003
 7910SOL     OW35188   2.989   4.172   6.783  0.5432 -0.1087 -0.5596
 7910SOL    HW135189   2.951   4.227   6.852  1.6776 -1.2876  1.0053
 7910SOL    HW235190   2.906   4.169   6.736  0.2386 -1.8165  0.0797
 7911SOL     OW35191   3.154   1.495   7.054 -0.5183  0.1585 -0.1815
 7911SOL    HW135192   3.188   1.487   6.965 -1.2878 -0.8369 -0.3854
 7911SOL    HW235193   3.060   1.482   7.042 -1.0903  1.7367  2.6233
 7912SOL     OW35194   1.955   4.248   2.904 -0.2691  0.1198  0.4943
 7912SOL    HW135195   1.934   4.216   2.816  1.9358  0.6080 -0.2188
 7912SOL    HW235196   2.050   4.248   2.893 -0.2431  0.1561  0.7278
 7913SOL     OW35197   0.728   3.541   0.199 -0.3144 -1.1123  0.0712
 7913SOL    HW135198   0.653   3.495   0.234 -2.8080  0.9764 -2.5389
 7913SOL    HW235199   0.758   3.466   0.147  0.2715 -2.1054  1.8404
 7914SOL     OW35200   0.367   4.001  12.426  0.9887  0.5768  0.1734
 7914SOL    HW135201   0.353   3.954  12.344  0.0259  1.1418  0.0161
 7914SOL    HW235202   0.297   3.962  12.479  2.4686 -0.6490  1.2261
 7915SOL     OW35203   4.117   4.056   8.349 -0.4240 -0.0623 -0.0045
 7915SOL    HW135204   4.040   4.000   8.364  1.0751 -2.0909  0.0913
 7915SOL    HW235205   4.078   4.124   8.294  0.2720 -0.1679 -0.6260
 7916SOL     OW35206   1.015   3.660  14.551  0.4978 -0.4727 -0.2056
 7916SOL    HW135207   1.080   3.633  14.486 -0.9771  1.5525 -2.5498
 7916SOL    HW235208   1.030   3.754  14.553 -0.1475 -0.2843 -3.4379
 7917SOL     OW35209   0.606   2.254  10.052 -0.1206 -0.0358  0.5714
 7917SOL    HW135210   0.533   2.216  10.101 -0.6834 -1.1253 -1.0854
 7917SOL    HW235211   0.679   2.228  10.108 -0.6665  0.2715  1.4160
 7918SOL     OW35212   4.518   1.062  12.662 -0.7395 -0.2336 -0.4562
 7918SOL    HW135213   4.439   1.040  12.612 -0.8303 -0.2909 -0.2872
 7918SOL    HW235214   4.485   1.130  12.721  0.0837 -2.4161  2.4852
 7919SOL     OW35215   1.452   4.493  12.928  0.3115 -0.2683  0.5816
 7919SOL    HW135216   1.379   4.463  12.874  0.5410  0.2448 -0.0068
 7919SOL    HW235217   1.492   4.412  12.959 -1.0197 -2.0013 -2.2880
 7920SOL     OW35218   0.366   3.415   4.777 -0.5717 -0.8136  0.3013
 7920SOL    HW135219   0.349   3.353   4.848 -0.5158  0.6097  1.5705
 7920SOL    HW235220   0.312   3.382   4.706 -1.5860  0.8300  0.3041
 7921SOL     OW35221   2.109   2.887   0.604 -0.4951 -0.4086  0.0615
 7921SOL    HW135222   2.039   2.942   0.569  1.2301  1.5708 -0.2957
 7921SOL    HW235223   2.088   2.808   0.554  3.3078  0.0121 -2.1798
 7922SOL     OW35224   3.375   1.155   4.137 -0.5199 -1.1645  0.1845
 7922SOL    HW135225   3.451   1.160   4.080  0.9806 -1.0509  2.1974
 7922SOL    HW235226   3.415   1.129   4.220  0.5715 -2.2283 -0.6921
 7923SOL     OW35227   2.974   2.239  13.463 -0.5396  0.6508  0.1385
 7923SOL    HW135228   2.948   2.154  13.498  0.8248  0.3348  0.3872
 7923SOL    HW235229   3.042   2.204  13.405 -0.7690  0.3243  0.0657
 7924SOL     OW35230   3.318   1.448  17.649 -0.1331  0.4813  0.2243
 7924SOL    HW135231   3.323   1.491   0.026  0.9381 -0.8690  0.8370
 7924SOL    HW235232   3.297   1.520  17.590 -0.5454  1.3349  1.4050
 7925SOL     OW35233   3.728   1.139   1.598 -0.0632 -0.1227 -0.4833
 7925SOL    HW135234   3.748   1.052   1.564  0.1134  0.3813 -1.6509
 7925SOL    HW235235   3.812   1.158   1.640  1.2068 -0.8104 -2.7552
 7926SOL     OW35236   3.911   1.770   6.291 -0.1520 -0.0644  0.2509
 7926SOL    HW135237   3.985   1.765   6.231 -0.1190 -2.1297  0.4666
 7926SOL    HW235238   3.949   1.780   6.378  1.2883 -0.0195 -0.3894
 7927SOL     OW35239   3.393   4.484   0.647  0.0051  0.3064  0.0690
 7927SOL    HW135240   3.458   4.450   0.586  0.4808  0.2176  0.6308
 7927SOL    HW235241   3.378   4.409   0.705  1.7103  2.8617  3.8223
 7928SOL     OW35242   0.798   1.215  13.982  0.5754 -0.3152 -0.3375
 7928SOL    HW135243   0.712   1.251  14.005  1.3092  0.3940  1.2952
 7928SOL    HW235244   0.797   1.147  14.049 -3.7973 -0.3385 -0.4001
 7929SOL     OW35245   1.117   0.690   6.405  0.2091 -0.0583  0.2409
 7929SOL    HW135246   1.148   0.622   6.465  2.5771  0.2867 -0.6294
 7929SOL    HW235247   1.200   0.701   6.360  0.7374 -1.9314  0.7681
 7930SOL     OW35248   2.189   3.865  14.719 -0.0974 -0.6024  0.1924
 7930SOL    HW135249   2.152   3.934  14.664 -0.7277  0.2880  1.7104
 7930SOL    HW235250   2.272   3.847  14.675  0.8546  1.7062  1.0307
 7931SOL     OW35251   0.726   3.960   7.373  0.3549  0.1588 -0.1809
 7931SOL    HW135252   0.702   3.916   7.291 -3.2719  2.0425 -0.0941
 7931SOL    HW235253   0.822   3.953   7.372  0.3125 -0.4697 -0.5593
 7932SOL     OW35254   0.189   3.748   7.629 -0.2525 -0.0175 -0.4771
 7932SOL    HW135255   0.104   3.754   7.672 -1.1289 -1.0763 -2.0566
 7932SOL    HW235256   0.229   3.674   7.674 -2.4536 -0.1637  1.2143
 7933SOL     OW35257   1.119   2.020   8.357 -0.7060  0.3372 -0.0896
 7933SOL    HW135258   1.195   2.051   8.306 -0.1598 -1.3113 -0.2630
 7933SOL    HW235259   1.093   2.092   8.415  2.4238  0.1543  1.5320
 7934SOL     OW35260   2.265   3.321   8.986 -0.4440 -0.2622 -0.0388
 7934SOL    HW135261   2.304   3.313   9.073 -0.1472  0.8463 -0.0792
 7934SOL    HW235262   2.247   3.232   8.953  0.6053 -0.6394  0.4252
 7935SOL     OW35263   4.290   0.836   1.435  0.8620 -0.0916  0.1925
 7935SOL    HW135264   4.327   0.879   1.358 -0.7206  0.7577 -0.0744
 7935SOL    HW235265   4.317   0.746   1.419 -2.1808 -1.1053  0.8822
 7936SOL     OW35266   1.585   3.151   8.494  0.8581 -0.3755 -0.0257
 7936SOL    HW135267   1.540   3.101   8.426  1.0509 -0.2226 -0.2638
 7936SOL    HW235268   1.589   3.235   8.448 -0.8786 -0.7314 -0.8291
 7937SOL     OW35269   1.909   0.014   8.775  0.1339  0.4906 -0.3368
 7937SOL    HW135270   1.933   0.086   8.716 -0.1635 -2.0500 -3.5463
 7937SOL    HW235271   1.993   4.704   8.802 -0.5548 -0.3241  0.6896
 7938SOL     OW35272   1.184   4.700   9.942 -0.3765 -0.0276  0.5645
 7938SOL    HW135273   1.201   0.032   9.868  1.1870 -2.5664 -1.1022
 7938SOL    HW235274   1.197   0.028  10.019  0.0567  1.0107 -0.2454
 7939SOL     OW35275   4.695   0.137   9.926  0.1082 -0.3189 -0.4878
 7939SOL    HW135276   4.613   0.099   9.958  0.8624 -0.3816  1.3693
 7939SOL    HW235277   0.030   0.102   9.990  0.1999  0.4432 -0.1716
 7940SOL     OW35278   1.843   2.456   3.613  0.5415  0.4080 -0.3646
 7940SOL    HW135279   1.896   2.520   3.566  0.3742  0.2922 -0.7152
 7940SOL    HW235280   1.779   2.428   3.547  0.2265 -1.6504  0.8083
 7941SOL     OW35281   2.054   4.403  10.966 -0.1896  0.3183 -0.0006
 7941SOL    HW135282   2.148   4.414  10.978  0.5447 -2.2584 -3.2632
 7941SOL    HW235283   2.057   4.398  10.870  2.7634  1.8711  0.0176
 7942SOL     OW35284   3.649   4.190   4.188 -0.0381 -0.1214 -0.2497
 7942SOL    HW135285   3.730   4.187   4.240  1.8737  0.7145 -3.1843
 7942SOL    HW235286   3.597   4.121   4.230 -1.8543  1.8134  0.6949
 7943SOL     OW35287   4.671   3.946   6.633 -0.0704 -0.1753  0.1586
 7943SOL    HW135288   0.026   3.916   6.672  0.1177  1.7660  1.2080
 7943SOL    HW235289   4.673   3.903   6.547  0.2601  0.8297 -0.3289
 7944SOL     OW35290   0.354   0.573  13.928 -0.0513 -0.4754 -0.3349
 7944SOL    HW135291   0.420   0.636  13.899 -0.6513 -1.1907 -3.2507
 7944SOL    HW235292   0.328   0.533  13.845  0.2560 -1.2112 -0.0744
 7945SOL     OW35293   0.694   2.582   4.981 -0.2578 -0.1292 -0.1792
 7945SOL    HW135294   0.720   2.627   5.062  1.8250  0.8049 -1.3601
 7945SOL    HW235295   0.664   2.658   4.931 -0.1159  0.5687  0.7961
 7946SOL     OW35296   1.251   2.983   3.527  0.0936  0.4182  0.1530
 7946SOL    HW135297   1.244   2.903   3.578  3.1783 -0.3971 -0.6896
 7946SOL    HW235298   1.344   3.002   3.540 -0.0007  0.5180  0.6813
 7947SOL     OW35299   0.921   3.496   8.790 -0.5283  0.1397  0.2075
 7947SOL    HW135300   0.919   3.495   8.694 -2.4646 -0.0301  0.2430
 7947SOL    HW235301   0.917   3.401   8.796  2.0403 -0.0084 -0.2724
 7948SOL     OW35302   0.927   0.764  13.207 -0.2028 -0.5462 -0.2425
 7948SOL    HW135303   0.839   0.745  13.240  1.1325 -2.3580  2.2072
 7948SOL    HW235304   0.946   0.680  13.167  2.1934  0.2899 -0.8802
 7949SOL     OW35305   2.784   3.753   7.170 -0.4090  0.4081 -0.1956
 7949SOL    HW135306   2.775   3.666   7.133  0.5345  0.9844 -1.7979
 7949SOL    HW235307   2.711   3.757   7.231  0.1277 -0.5195  0.5020
 7950SOL     OW35308   2.675   3.140   6.533  0.2924  0.1844  0.1922
 7950SOL    HW135309   2.715   3.060   6.500  1.5096  0.1583  1.6882
 7950SOL    HW235310   2.679   3.196   6.455 -2.9456  0.0417 -0.0723
 7951SOL     OW35311   2.867   2.123  11.159  0.4342  0.3701 -0.4925
 7951SOL    HW135312   2.775   2.108  11.138 -0.3247  2.1106  1.6393
 7951SOL    HW235313   2.895   2.038  11.196 -1.3431 -0.2779 -0.6305
 7952SOL     OW35314   0.645   0.344   8.654 -0.3214 -0.3444  0.1981
 7952SOL    HW135315   0.599   0.426   8.635 -0.9493 -0.5004  1.0216
 7952SOL    HW235316   0.730   0.380   8.678 -0.4534  0.3750 -0.3983
 7953SOL     OW35317   3.962   1.164   4.182  0.7735 -0.1730 -0.2232
 7953SOL    HW135318   3.993   1.169   4.092  1.2711 -0.4217 -0.0652
 7953SOL    HW235319   3.941   1.070   4.185 -1.1699  0.2495 -0.1877
 7954SOL     OW35320   3.624   1.750   5.365  0.2376  0.3129 -0.5071
 7954SOL    HW135321   3.616   1.824   5.305 -0.9641 -1.2866 -2.3133
 7954SOL    HW235322   3.669   1.687   5.309 -1.1182 -1.3624  0.2358
 7955SOL     OW35323   2.478   1.290  15.700 -0.2784 -0.2801 -0.1547
 7955SOL    HW135324   2.430   1.326  15.625  2.5329 -0.0380 -1.8648
 7955SOL    HW235325   2.504   1.367  15.750 -0.8198 -1.0179  1.2734
 7956SOL     OW35326   4.038   0.188   3.047 -0.1782  0.3361 -0.1082
 7956SOL    HW135327   4.069   0.102   3.076 -0.5180  1.2940  3.1982
 7956SOL    HW235328   3.962   0.151   3.001 -1.3726 -1.4190  3.2102
 7957SOL     OW35329   1.375   0.844   9.992  0.0546 -0.2889  0.4593
 7957SOL    HW135330   1.440   0.905   9.956  1.2417 -1.2586  0.9662
 7957SOL    HW235331   1.410   0.839  10.081  1.3137  3.8079  0.1912
 7958SOL     OW35332   0.274   3.094   4.295 -0.4315  0.5820 -0.1539
 7958SOL    HW135333   0.226   3.143   4.228 -1.6468 -0.6807 -0.2032
 7958SOL    HW235334   0.331   3.034   4.248 -0.1386  0.3336  0.5160
 7959SOL     OW35335   3.248   2.165  15.065  0.5446  0.4551  0.0274
 7959SOL    HW135336   3.215   2.254  15.054 -2.6849 -0.5798  1.3115
 7959SOL    HW235337   3.196   2.119  15.000  0.1259 -2.6770  2.5845
 7960SOL     OW35338   3.888   0.622   5.685  0.1400  0.4661 -0.0944
 7960SOL    HW135339   3.840   0.540   5.676  1.8460 -0.3411 -1.7996
 7960SOL    HW235340   3.938   0.596   5.763 -2.0108 -1.7372  0.5461
 7961SOL     OW35341   1.687   2.603   2.105  0.1284 -0.1283  0.0707
 7961SOL    HW135342   1.780   2.624   2.108  0.0935 -0.0021  0.2703
 7961SOL    HW235343   1.653   2.651   2.180  0.8799  0.9598 -0.2970
 7962SOL     OW35344   4.504   0.302  12.995 -0.6230  0.1664 -0.6528
 7962SOL    HW135345   4.530   0.394  12.993 -0.7320  0.1639 -2.1320
 7962SOL    HW235346   4.411   0.315  13.011 -0.5951 -1.1140  0.5174
 7963SOL     OW35347   3.862   1.698  12.318  0.0729  0.3531 -0.3085
 7963SOL    HW135348   3.878   1.736  12.404  0.6102  1.3688 -0.8656
 7963SOL    HW235349   3.946   1.656  12.297 -1.7035 -3.0725 -0.6122
 7964SOL     OW35350   0.313   4.294   9.463  0.2419  0.3155 -0.4105
 7964SOL    HW135351   0.288   4.284   9.554  0.8501  0.1580 -0.2621
 7964SOL    HW235352   0.234   4.255   9.425  0.9609 -3.0093  1.4724
 7965SOL     OW35353   1.955   4.337   4.724 -0.4614  0.4098  0.0180
 7965SOL    HW135354   1.963   4.390   4.804  0.6183  0.6796 -0.2793
 7965SOL    HW235355   1.883   4.380   4.677 -0.2371  0.4640 -0.2702
 7966SOL     OW35356   0.389   0.691   4.904 -0.4960  0.2496  0.3022
 7966SOL    HW135357   0.445   0.616   4.923  1.2454  1.7627  1.1810
 7966SOL    HW235358   0.379   0.726   4.993  0.8358  0.8462  0.2221
 7967SOL     OW35359   3.410   2.548  15.023  0.4705 -0.1469  0.0249
 7967SOL    HW135360   3.424   2.600  15.102  1.2671 -0.5845  0.1775
 7967SOL    HW235361   3.487   2.570  14.971  0.4641 -1.0089 -0.3564
 7968SOL     OW35362   3.317   2.356   8.356  0.1535 -0.1300 -0.4201
 7968SOL    HW135363   3.278   2.394   8.277 -1.7005  1.0195  1.0534
 7968SOL    HW235364   3.236   2.324   8.394  0.9233  1.3651  2.4993
 7969SOL     OW35365   4.234   0.085  17.286  0.3533  0.0732 -0.1451
 7969SOL    HW135366   4.158   0.125  17.329  0.2604 -1.3587  1.0035
 7969SOL    HW235367   4.199   0.101  17.198 -1.0480  0.8177  0.5385
 7970SOL     OW35368   2.192   4.466   1.336  1.0149  0.1795  0.0266
 7970SOL    HW135369   2.198   4.383   1.288 -0.2318 -0.7237  1.4629
 7970SOL    HW235370   2.116   4.499   1.287  1.3159 -1.5663 -1.6222
 7971SOL     OW35371   1.443   1.762   9.071  0.1576  0.4405 -0.3186
 7971SOL    HW135372   1.389   1.684   9.082 -1.1255  1.1998 -1.2297
 7971SOL    HW235373   1.450   1.779   9.165  0.7633 -0.0775 -0.2724
 7972SOL     OW35374   4.724   3.170   7.619 -0.5541  0.1472 -0.1600
 7972SOL    HW135375   0.035   3.237   7.562 -0.4716  1.9749  2.0634
 7972SOL    HW235376   4.638   3.157   7.579 -0.3827  2.3736 -1.2329
 7973SOL     OW35377   0.953   0.376   4.378  0.0457  0.3215  0.6933
 7973SOL    HW135378   0.945   0.451   4.437  0.4650 -0.2661  1.4949
 7973SOL    HW235379   0.892   0.401   4.309 -0.0440 -2.1867 -0.1239
 7974SOL     OW35380   3.854   1.328   0.143  0.0758 -0.4253 -0.2529
 7974SOL    HW135381   3.949   1.327   0.146  0.1389 -0.7744 -2.0640
 7974SOL    HW235382   3.833   1.284   0.060  0.8154  1.8657 -1.6786
 7975SOL     OW35383   3.864   3.952   9.038 -0.3556  0.2417 -0.7662
 7975SOL    HW135384   3.775   3.925   9.062 -0.0794  0.3402  0.3627
 7975SOL    HW235385   3.885   3.896   8.963  1.1932 -0.5621  0.2782
 7976SOL     OW35386   3.878   0.386  10.861  0.4413 -0.7138  0.2896
 7976SOL    HW135387   3.783   0.388  10.850  0.2122 -0.1248  2.2967
 7976SOL    HW235388   3.881   0.357  10.952 -2.2819  1.9504  1.2321
 7977SOL     OW35389   0.882   2.421  13.981 -0.1005  0.1332 -0.3744
 7977SOL    HW135390   0.804   2.376  14.014 -0.4088  1.5794  0.8465
 7977SOL    HW235391   0.876   2.412  13.886  0.0890  0.8296 -0.4542
 7978SOL     OW35392   1.963   0.508  17.161 -0.2845 -0.4995 -0.4353
 7978SOL    HW135393   2.032   0.462  17.113 -0.1782  0.0780 -0.8357
 7978SOL    HW235394   1.942   0.568  17.089  4.1589  0.4483 -0.9515
 7979SOL     OW35395   0.846   2.033   9.383  0.1057  0.5252 -0.3308
 7979SOL    HW135396   0.794   2.108   9.411 -1.4564 -1.1641  1.3610
 7979SOL    HW235397   0.853   1.990   9.469 -2.1804 -2.0250 -1.4150
 7980SOL     OW35398   1.307   0.641   9.365 -0.2216  0.3343  0.0056
 7980SOL    HW135399   1.233   0.701   9.369 -0.6663 -0.2865  1.1426
 7980SOL    HW235400   1.286   0.597   9.283  1.3771 -1.2389  0.4479
 7981SOL     OW35401   0.475   0.360   1.758  0.7634 -0.0402 -0.2428
 7981SOL    HW135402   0.404   0.421   1.772 -1.2084 -2.4491  0.3373
 7981SOL    HW235403   0.518   0.400   1.683 -0.7034  0.3360 -0.8789
 7982SOL     OW35404   4.234   3.625   8.185  0.4322 -0.0623  0.1328
 7982SOL    HW135405   4.182   3.698   8.149  1.4431 -0.2124 -1.6118
 7982SOL    HW235406   4.201   3.553   8.131  1.5814  1.0287 -2.0298
 7983SOL     OW35407   2.199   3.527  17.352 -0.4355 -0.0074 -0.4481
 7983SOL    HW135408   2.136   3.599  17.348 -1.4454 -0.9080 -0.8228
 7983SOL    HW235409   2.206   3.497  17.262 -2.3596  0.7899 -0.8760
 7984SOL     OW35410   2.400   1.749   3.054  0.6195  0.5613  0.0408
 7984SOL    HW135411   2.342   1.687   3.010 -0.4777  2.0336 -0.5759
 7984SOL    HW235412   2.470   1.695   3.090  0.3565  0.9543  1.1417
 7985SOL     OW35413   3.938   0.858   7.426 -0.0498  0.5864 -0.7803
 7985SOL    HW135414   3.848   0.876   7.453 -0.0778  0.5145 -0.8262
 7985SOL    HW235415   3.976   0.824   7.507 -0.1385  1.1367 -0.5060
 7986SOL     OW35416   1.065   2.717  13.289  0.2342 -0.5517 -0.0036
 7986SOL    HW135417   1.112   2.655  13.345  1.9337 -0.6135 -1.4912
 7986SOL    HW235418   1.080   2.674  13.205 -3.3108 -2.3981  0.2881
 7987SOL     OW35419   3.065   3.508   5.440  0.0472  0.0952  0.0464
 7987SOL    HW135420   3.065   3.457   5.521 -2.2859 -1.0800 -0.6819
 7987SOL    HW235421   3.124   3.579   5.468 -2.2075  1.6744  0.8114
 7988SOL     OW35422   0.352   0.312   0.631  0.0111  0.6434  0.1789
 7988SOL    HW135423   0.385   0.377   0.693  1.7490 -0.3647  0.3260
 7988SOL    HW235424   0.411   0.237   0.641  0.7758  0.9400 -2.0899
 7989SOL     OW35425   1.562   1.355   7.646  0.9481  0.0014 -0.6063
 7989SOL    HW135426   1.477   1.323   7.677  0.8924 -1.6362 -2.4239
 7989SOL    HW235427   1.605   1.341   7.731  1.7014 -0.2239 -1.0223
 7990SOL     OW35428   4.537   4.314   0.658 -0.7231 -0.0023 -0.2620
 7990SOL    HW135429   4.524   4.233   0.608  1.3630  0.9044 -2.2751
 7990SOL    HW235430   4.631   4.315   0.673 -0.9659  1.2981  1.1329
 7991SOL     OW35431   1.683   1.143   3.893 -0.3615 -0.2424 -0.7857
 7991SOL    HW135432   1.729   1.225   3.876  0.4866 -0.3374  1.0638
 7991SOL    HW235433   1.623   1.130   3.820  2.4375  0.4827 -3.2148
 7992SOL     OW35434   2.371   0.348   6.763  0.1024  0.0889 -0.0306
 7992SOL    HW135435   2.281   0.373   6.744 -0.0779  0.1909  0.9400
 7992SOL    HW235436   2.375   0.253   6.750  0.9983  0.2562 -1.0381
 7993SOL     OW35437   0.538   3.365   2.078  0.0185 -0.0649 -0.0174
 7993SOL    HW135438   0.482   3.442   2.078 -0.8828 -0.7233 -0.8194
 7993SOL    HW235439   0.475   3.293   2.085 -0.3268  0.3057  0.7574
 7994SOL     OW35440   1.526   3.086   7.671  0.4056  1.1881  0.0780
 7994SOL    HW135441   1.499   3.046   7.754 -1.5920  0.6316 -0.8529
 7994SOL    HW235442   1.488   3.173   7.676  0.9810  1.5500 -1.9761
 7995SOL     OW35443   4.439   0.284   3.830  0.1997  0.0951  0.3049
 7995SOL    HW135444   4.385   0.222   3.781  1.7725 -0.0370 -1.2857
 7995SOL    HW235445   4.525   0.242   3.830  1.5043  2.7719  0.1701
 7996SOL     OW35446   1.497   1.407   3.813  0.1885 -0.1059  0.0703
 7996SOL    HW135447   1.507   1.365   3.727  0.2938  1.5032 -0.7110
 7996SOL    HW235448   1.586   1.437   3.828 -0.7958  1.2157  3.1071
 7997SOL     OW35449   0.135   4.265   5.444 -0.4402 -0.0289  0.3077
 7997SOL    HW135450   0.224   4.230   5.448 -0.3515  0.2484  0.7531
 7997SOL    HW235451   0.136   4.299   5.355 -0.9691  1.3785  0.8401
 7998SOL     OW35452   3.717   1.227   7.142  0.0168 -0.0213  0.8422
 7998SOL    HW135453   3.635   1.275   7.146 -0.1663 -0.0364 -2.6090
 7998SOL    HW235454   3.762   1.268   7.216  0.4872  1.9483 -0.5460
 7999SOL     OW35455   4.590   0.367   5.025 -0.3787 -0.4744 -0.4301
 7999SOL    HW135456   4.510   0.379   5.077  0.6416 -3.8446  1.9990
 7999SOL    HW235457   4.574   0.422   4.949  1.2532  2.0034  1.0135
 8000SOL     OW35458   4.259   3.512   1.750  0.1118  0.0156 -0.1470
 8000SOL    HW135459   4.172   3.486   1.778 -0.4447  1.2365 -0.7010
 8000SOL    HW235460   4.242   3.501   1.656  1.4851 -1.8464 -0.1587
 8001SOL     OW35461   3.666   3.386   5.747 -0.3145 -0.3837 -0.0471
 8001SOL    HW135462   3.611   3.328   5.695  0.3916  0.0082 -1.2361
 8001SOL    HW235463   3.720   3.328   5.800 -0.9211 -0.8462  0.0630
 8002SOL     OW35464   2.187   1.826   7.065 -0.2338  0.0918  0.4193
 8002SOL    HW135465   2.195   1.732   7.045  2.6605  0.3647  0.2544
 8002SOL    HW235466   2.265   1.868   7.028 -0.3620 -0.0924 -0.0631
 8003SOL     OW35467   4.613   3.841   3.535 -0.0128 -0.0391  0.1325
 8003SOL    HW135468   4.599   3.913   3.473  0.9470 -0.5653 -0.7004
 8003SOL    HW235469   4.548   3.858   3.602 -0.2757  0.4500 -0.2453
 8004SOL     OW35470   4.375   2.903   0.487 -0.1562  0.8337 -0.3699
 8004SOL    HW135471   4.402   2.983   0.531 -1.5866  0.2911  1.5178
 8004SOL    HW235472   4.321   2.931   0.413  0.7236 -0.0056 -1.3342
 8005SOL     OW35473   1.476   4.139  15.454  0.4804  0.2738  0.2376
 8005SOL    HW135474   1.388   4.129  15.489 -0.1660 -0.8351 -1.7026
 8005SOL    HW235475   1.476   4.225  15.412  1.7734  0.8265  1.3765
 8006SOL     OW35476   3.720   3.957   2.422  0.1506 -0.6137 -0.3073
 8006SOL    HW135477   3.645   3.909   2.458  0.1371  0.2330  0.7995
 8006SOL    HW235478   3.735   3.920   2.335 -0.7914 -0.1110 -0.6729
 8007SOL     OW35479   4.047   1.000   6.564  0.4494 -0.0297 -0.6839
 8007SOL    HW135480   4.017   0.934   6.502  2.7870 -1.0392 -0.7026
 8007SOL    HW235481   4.137   0.972   6.579  0.2829 -0.3507 -0.2906
 8008SOL     OW35482   1.702   3.146   4.861 -0.5527 -0.3863  0.2830
 8008SOL    HW135483   1.769   3.166   4.926  1.1518 -1.1248 -1.2604
 8008SOL    HW235484   1.739   3.066   4.823 -1.5213 -0.3985 -0.6291
 8009SOL     OW35485   2.725   0.473   8.655 -0.5950 -0.2509  1.0316
 8009SOL    HW135486   2.806   0.508   8.692 -0.3882 -0.7913  1.1044
 8009SOL    HW235487   2.661   0.485   8.725 -0.4311  2.2162  0.7531
 8010SOL     OW35488   0.460   3.816  11.480  0.3024 -0.8670 -0.2956
 8010SOL    HW135489   0.555   3.805  11.478  0.2129 -1.9112  0.6879
 8010SOL    HW235490   0.439   3.763  11.403 -2.8171  0.2733 -0.2102
 8011SOL     OW35491   2.052   2.978  11.358 -0.3905 -0.5262 -0.3674
 8011SOL    HW135492   2.028   3.061  11.317 -2.3769 -1.4216 -1.0280
 8011SOL    HW235493   2.008   2.917  11.298  2.2438 -2.7584 -0.0039
 8012SOL     OW35494   1.178   4.298   1.933  0.3122  0.1086  0.0391
 8012SOL    HW135495   1.137   4.254   1.859  0.6838  0.7233 -0.5356
 8012SOL    HW235496   1.190   4.222   1.990  1.7518  1.3162  1.3408
 8013SOL     OW35497   2.178   3.017   0.823  0.3864 -0.2908 -0.7585
 8013SOL    HW135498   2.100   3.013   0.878 -0.3676  1.0263 -1.7156
 8013SOL    HW235499   2.148   2.966   0.748 -2.5980  2.0039 -1.1677
 8014SOL     OW35500   4.635   1.098  15.069 -0.2391 -0.0045  0.5388
 8014SOL    HW135501   4.572   1.168  15.052  0.3365  0.4347  0.1782
 8014SOL    HW235502   4.676   1.135  15.148 -1.1987  0.0229  1.0263
 8015SOL     OW35503   1.030   1.903   9.923 -0.2480 -0.3677 -0.5832
 8015SOL    HW135504   0.965   1.954   9.970 -0.7144 -1.4636 -0.0340
 8015SOL    HW235505   0.979   1.843   9.868 -0.6872  0.6527 -1.3032
 8016SOL     OW35506   1.327   3.486   5.250  0.0088 -0.2653  0.2337
 8016SOL    HW135507   1.247   3.504   5.201 -0.0418  0.8035  0.7096
 8016SOL    HW235508   1.336   3.573   5.288 -0.7967  0.0737 -0.3588
 8017SOL     OW35509   0.809   0.613   9.066 -0.4590 -0.0772 -0.3239
 8017SOL    HW135510   0.747   0.680   9.094 -0.0369  0.1474  0.0592
 8017SOL    HW235511   0.885   0.663   9.038  0.2960 -2.8181 -3.1992
 8018SOL     OW35512   2.996   3.787   3.479 -0.3371  0.0374 -0.4410
 8018SOL    HW135513   3.046   3.800   3.399  0.2514 -0.5862 -0.1750
 8018SOL    HW235514   3.060   3.733   3.524  0.7676  0.8399 -1.0645
 8019SOL     OW35515   1.665   4.404   4.179  1.0727 -0.3191  0.5602
 8019SOL    HW135516   1.657   4.407   4.084  0.6887 -0.7474  0.5788
 8019SOL    HW235517   1.674   4.492   4.215  0.7987 -1.7431  4.1419
 8020SOL     OW35518   3.898   3.024  13.090  0.3223 -0.3270  0.0944
 8020SOL    HW135519   3.938   3.000  13.173 -0.5401  0.2265  0.6706
 8020SOL    HW235520   3.946   2.975  13.023 -0.0080 -0.5156 -0.0065
 8021SOL     OW35521   1.150   1.328   4.069  0.3572  0.1413 -0.1974
 8021SOL    HW135522   1.116   1.287   3.989  1.5149 -2.3909  0.6350
 8021SOL    HW235523   1.243   1.307   4.077  0.2812  0.2039  0.8482
 8022SOL     OW35524   2.380   1.769   7.340  0.0153 -0.7842 -0.3462
 8022SOL    HW135525   2.378   1.812   7.254 -1.2335 -0.8822 -0.3701
 8022SOL    HW235526   2.285   1.757   7.348 -0.1980  2.5743  1.7078
 8023SOL     OW35527   1.868   4.302   3.159  0.5543 -0.1757 -0.3925
 8023SOL    HW135528   1.959   4.329   3.168  0.7880 -1.9593  2.6428
 8023SOL    HW235529   1.871   4.272   3.068  0.1913 -0.8809 -0.1724
 8024SOL     OW35530   1.167   4.701   8.733 -0.1439  0.2046  0.0239
 8024SOL    HW135531   1.078   4.699   8.767 -0.5610 -2.1420 -1.1907
 8024SOL    HW235532   1.209   0.025   8.803 -2.4922  0.1704  1.4454
 8025SOL     OW35533   0.892   3.358   6.857 -0.1765  0.1317 -0.3733
 8025SOL    HW135534   0.985   3.381   6.851  0.2149 -0.7860  2.0400
 8025SOL    HW235535   0.872   3.360   6.951  0.7486  0.9153 -0.1910
 8026SOL     OW35536   4.019   3.208  15.890 -0.1063 -0.1460  0.3639
 8026SOL    HW135537   4.053   3.229  15.803  0.2795  0.3738  0.6403
 8026SOL    HW235538   4.031   3.290  15.938 -0.3592 -0.9922  1.8654
 8027SOL     OW35539   1.051   2.050   4.328  0.5898 -0.0742 -0.3751
 8027SOL    HW135540   1.087   2.139   4.324 -0.6540  0.3215 -2.7980
 8027SOL    HW235541   1.019   2.036   4.239  0.5576 -1.5791 -0.1191
 8028SOL     OW35542   3.252   0.714  14.658 -0.2883 -0.3779 -0.1204
 8028SOL    HW135543   3.273   0.808  14.660  0.7403 -0.6464  2.2292
 8028SOL    HW235544   3.341   0.681  14.652 -0.6903 -1.4350 -0.2429
 8029SOL     OW35545   3.958   4.284   4.236 -0.0489  0.2695 -0.4078
 8029SOL    HW135546   3.938   4.226   4.309  1.3852 -0.2214 -0.3883
 8029SOL    HW235547   3.981   4.222   4.167 -0.6601  0.0193 -0.3861
 8030SOL     OW35548   2.040   3.410   5.004  0.4942  0.1111 -0.0833
 8030SOL    HW135549   1.969   3.433   4.944 -0.5533  3.1758  2.3036
 8030SOL    HW235550   2.011   3.447   5.087  1.9424  0.7977  0.1176
 8031SOL     OW35551   1.490   1.577   2.959 -0.5187 -0.6618 -0.1194
 8031SOL    HW135552   1.500   1.575   2.863 -1.4010 -0.7401 -0.2101
 8031SOL    HW235553   1.560   1.518   2.983  0.4138  0.5256  0.0718
 8032SOL     OW35554   2.897   1.803  13.889 -0.3552 -0.1138 -0.4316
 8032SOL    HW135555   2.894   1.850  13.972  3.1840 -0.0361 -0.3496
 8032SOL    HW235556   2.804   1.814  13.869 -0.5138  0.9963  0.9287
 8033SOL     OW35557   2.956   1.419   3.975  0.4513 -0.4596 -0.1444
 8033SOL    HW135558   2.981   1.501   4.018 -0.1765 -0.9249  1.1057
 8033SOL    HW235559   3.047   1.398   3.953  0.4051  3.0816 -3.6194
 8034SOL     OW35560   0.616   3.204   7.366 -0.0516  0.1746 -0.4439
 8034SOL    HW135561   0.603   3.131   7.305  1.2550 -0.3563 -0.1003
 8034SOL    HW235562   0.706   3.183   7.392  0.1163  2.0140  0.4036
 8035SOL     OW35563   0.080   1.596  13.756  0.1275  0.4333 -0.4247
 8035SOL    HW135564   0.151   1.653  13.727 -0.7308  1.9273  0.4127
 8035SOL    HW235565   0.008   1.658  13.748  0.0350  0.3374 -0.3354
 8036SOL     OW35566   3.498   3.668   8.357  0.0380 -0.2533 -0.1142
 8036SOL    HW135567   3.571   3.658   8.296  1.3022  2.0789  1.0157
 8036SOL    HW235568   3.547   3.720   8.420  1.3645 -1.0799 -0.4725
 8037SOL     OW35569   3.767   3.816  17.312 -0.1696  0.5636 -0.0147
 8037SOL    HW135570   3.858   3.795  17.290 -0.5596 -0.5660 -0.6017
 8037SOL    HW235571   3.739   3.725  17.320  0.0479  0.5153  0.1862
 8038SOL     OW35572   0.396   1.196  13.468 -0.2529 -0.3023 -0.7427
 8038SOL    HW135573   0.333   1.242  13.524  1.5777  1.4309 -0.1087
 8038SOL    HW235574   0.411   1.261  13.399  2.0448 -0.4482 -0.3900
 8039SOL     OW35575   4.190   4.481   8.119  0.2100  0.3741 -0.1999
 8039SOL    HW135576   4.120   4.485   8.053 -0.2281 -0.5584  0.2039
 8039SOL    HW235577   4.252   4.532   8.067 -0.8923  1.0673 -0.8488
 8040SOL     OW35578   1.099   1.782   5.755  0.6859  0.3345 -0.0021
 8040SOL    HW135579   1.113   1.713   5.819 -0.8608  1.1911  1.2679
 8040SOL    HW235580   1.047   1.730   5.693 -0.9833 -0.1285  1.7904
 8041SOL     OW35581   4.361   4.137  17.054 -0.2905 -0.1278  0.5960
 8041SOL    HW135582   4.387   4.215  17.103  2.9049 -0.4599 -0.5400
 8041SOL    HW235583   4.417   4.147  16.977 -2.2211 -0.9573 -0.9005
 8042SOL     OW35584   2.715   4.097  16.505 -0.1364 -0.0457  0.0786
 8042SOL    HW135585   2.716   4.111  16.600  3.1781 -0.7372  0.1642
 8042SOL    HW235586   2.699   4.004  16.491 -1.5843 -0.1411  2.5035
 8043SOL     OW35587   3.181   0.249   5.794 -0.5639 -0.2432 -0.1597
 8043SOL    HW135588   3.132   0.192   5.734 -0.1419  0.5696 -1.2578
 8043SOL    HW235589   3.218   0.311   5.732 -3.3215  0.9721 -0.5767
 8044SOL     OW35590   1.625   1.086   2.294 -0.2188 -0.7437  0.0599
 8044SOL    HW135591   1.561   1.037   2.242  1.3756 -0.2352 -2.3585
 8044SOL    HW235592   1.575   1.141   2.354  0.4133  3.8424 -3.6312
 8045SOL     OW35593   0.079   0.209   2.363 -0.3337  0.0867 -0.5443
 8045SOL    HW135594   0.134   0.149   2.414  0.3774  0.8485 -0.4202
 8045SOL    HW235595   0.123   0.291   2.383 -1.3613 -0.4100  3.9619
 8046SOL     OW35596   3.349   3.141   6.883 -0.2566 -0.0058 -1.0155
 8046SOL    HW135597   3.324   3.197   6.957  1.5229  0.5407 -0.8242
 8046SOL    HW235598   3.269   3.127   6.834  0.1547  1.2185 -2.0223
 8047SOL     OW35599   4.338   1.869   5.258  0.0331 -0.0673  0.4985
 8047SOL    HW135600   4.374   1.862   5.169  1.5423 -1.0393  1.1893
 8047SOL    HW235601   4.303   1.783   5.281  1.3727 -1.0643 -1.1941
 8048SOL     OW35602   1.663   2.765  17.555 -0.6812  0.2755  0.3365
 8048SOL    HW135603   1.611   2.688  17.578  0.6599 -0.5734  0.5719
 8048SOL    HW235604   1.664   2.751  17.461  3.6863 -0.9486  0.5517
 8049SOL     OW35605   3.341   2.910   2.093  0.3130  0.0935 -0.0132
 8049SOL    HW135606   3.397   2.922   2.016 -0.2093 -2.0016 -0.7356
 8049SOL    HW235607   3.256   2.875   2.064  0.2223  1.3859 -1.3232
 8050SOL     OW35608   1.598   0.315   7.467  0.1461  0.3394  0.1275
 8050SOL    HW135609   1.514   0.278   7.497  0.3009 -1.2903 -1.4136
 8050SOL    HW235610   1.637   0.244   7.416  0.5966  0.3189  0.5063
 8051SOL     OW35611   3.808   2.796   1.903 -0.8818  0.3056 -0.2816
 8051SOL    HW135612   3.867   2.831   1.969 -0.3160  0.1931 -0.7306
 8051SOL    HW235613   3.804   2.705   1.931 -0.5771  0.3436 -0.1156
 8052SOL     OW35614   4.007   1.116   8.212  0.0773 -0.0469 -0.1059
 8052SOL    HW135615   4.082   1.114   8.153 -0.0596 -1.8036 -0.2214
 8052SOL    HW235616   4.008   1.026   8.244 -1.6076  0.5308  1.5243
 8053SOL     OW35617   4.098   3.743   1.575  1.0344 -0.2284  0.3206
 8053SOL    HW135618   4.119   3.659   1.533  0.6165 -0.8371  1.3383
 8053SOL    HW235619   4.185   3.773   1.603  1.2144  0.9423 -1.4591
 8054SOL     OW35620   1.340   1.694   6.080  0.0573  0.0118 -0.5130
 8054SOL    HW135621   1.344   1.614   6.132 -1.4008  2.4664  3.3199
 8054SOL    HW235622   1.432   1.716   6.067  0.0467 -1.0615 -2.4308
 8055SOL     OW35623   0.891   3.642   6.438 -0.1153  0.1584  0.5487
 8055SOL    HW135624   0.879   3.548   6.425 -2.0071  0.4374  0.2777
 8055SOL    HW235625   0.804   3.670   6.411 -0.6763 -1.3787  0.7706
 8056SOL     OW35626   2.811   3.407  13.775 -0.2297 -0.4934 -0.3428
 8056SOL    HW135627   2.792   3.500  13.783 -0.3730 -0.7991  3.0059
 8056SOL    HW235628   2.900   3.408  13.739 -0.9349 -0.0825 -2.0962
 8057SOL     OW35629   0.346   2.418   1.844  0.0495 -0.2218  0.0326
 8057SOL    HW135630   0.385   2.345   1.796 -2.5747 -0.7640 -1.2513
 8057SOL    HW235631   0.365   2.394   1.935 -0.4044 -2.3621 -0.4304
 8058SOL     OW35632   3.723   4.366   5.416 -0.2271  0.5386  0.4733
 8058SOL    HW135633   3.668   4.299   5.457 -1.2926  1.0445 -0.1323
 8058SOL    HW235634   3.711   4.345   5.323  0.2260  2.0122  0.0843
 8059SOL     OW35635   4.378   1.762   3.918  0.2266 -0.3536  0.1179
 8059SOL    HW135636   4.458   1.710   3.917 -0.5623 -1.5155 -2.6713
 8059SOL    HW235637   4.370   1.774   4.013 -0.4743  2.4712 -0.2980
 8060SOL     OW35638   1.064   4.140  13.589  0.1992  0.2489  0.5057
 8060SOL    HW135639   1.125   4.091  13.645 -1.2732 -2.4807 -0.3259
 8060SOL    HW235640   1.112   4.155  13.507  0.6278  0.8987  0.8753
 8061SOL     OW35641   2.519   0.195   7.897  0.3456 -0.1949  0.0813
 8061SOL    HW135642   2.489   0.194   7.988  1.3779 -0.1398  0.4236
 8061SOL    HW235643   2.498   0.286   7.878 -2.1443 -0.7403  0.1839
 8062SOL     OW35644   4.504   2.642  17.106  0.5691 -0.2680 -0.2642
 8062SOL    HW135645   4.547   2.557  17.119 -0.0979 -0.4650  0.6669
 8062SOL    HW235646   4.423   2.617  17.061 -1.1852  0.6888  2.3643
 8063SOL     OW35647   0.246   1.839   6.735  0.2230  0.2715 -0.0658
 8063SOL    HW135648   0.314   1.896   6.699 -1.0414  1.1992 -1.0096
 8063SOL    HW235649   0.170   1.896   6.748  1.5238  1.4962  2.1775
 8064SOL     OW35650   0.566   2.122   8.770  0.3795  0.2913 -0.7633
 8064SOL    HW135651   0.483   2.079   8.749  0.6371 -0.8604  0.5584
 8064SOL    HW235652   0.548   2.144   8.861  2.3471 -0.5018 -0.1993
 8065SOL     OW35653   3.284   3.150   4.035  0.2686 -0.2444  0.1905
 8065SOL    HW135654   3.328   3.188   3.959 -2.1742  1.7169 -0.2200
 8065SOL    HW235655   3.190   3.164   4.028  0.3352  0.5636  0.8900
 8066SOL     OW35656   2.324   2.676   8.084  0.5630  0.3781 -0.0192
 8066SOL    HW135657   2.338   2.708   8.173  0.2791 -0.1779  0.2255
 8066SOL    HW235658   2.239   2.632   8.096  0.6925  0.2174  0.3112
 8067SOL     OW35659   2.143   4.354  12.870 -0.2098 -0.2263  0.1931
 8067SOL    HW135660   2.170   4.264  12.852 -0.8609 -0.1124 -1.4125
 8067SOL    HW235661   2.225   4.385  12.830  0.0959 -0.7374  0.4312
 8068SOL     OW35662   0.148   2.132  12.791 -0.3162  0.1248 -0.4356
 8068SOL    HW135663   0.123   2.082  12.869  0.7518 -0.4676 -0.4744
 8068SOL    HW235664   0.066   2.153  12.747 -0.6495 -1.4214 -0.5309
 8069SOL     OW35665   3.879   3.611   2.942 -0.0022 -0.0814  0.4635
 8069SOL    HW135666   3.878   3.698   2.983 -2.4002  0.5166 -0.8544
 8069SOL    HW235667   3.871   3.623   2.848  0.1569  1.1051  0.5992
 8070SOL     OW35668   4.602   4.339   2.030  0.1962  0.4725 -0.4321
 8070SOL    HW135669   4.516   4.372   2.056  0.2460 -0.0505  0.3935
 8070SOL    HW235670   4.576   4.277   1.962  3.3926 -1.6693  0.2690
 8071SOL     OW35671   0.612   4.058  11.574  0.4319 -0.4148  0.3125
 8071SOL    HW135672   0.525   4.037  11.541  0.9912 -1.2975 -0.6287
 8071SOL    HW235673   0.652   3.971  11.574 -0.9127 -1.0261 -1.0187
 8072SOL     OW35674   3.456   2.079   3.526 -0.0109 -0.8488  0.3354
 8072SOL    HW135675   3.527   2.130   3.565 -1.4038  2.0120 -0.7964
 8072SOL    HW235676   3.443   2.145   3.457  1.0151 -1.1314 -0.1239
 8073SOL     OW35677   2.450   2.760   9.074 -0.1541  0.2271 -0.5857
 8073SOL    HW135678   2.380   2.825   9.073 -0.8342 -0.5000  0.3456
 8073SOL    HW235679   2.465   2.782   9.166 -1.4018 -2.2220  0.2066
 8074SOL     OW35680   0.138   4.400   0.227 -0.2163  0.0484  0.1136
 8074SOL    HW135681   0.136   4.413   0.322  3.4014  1.2915  0.0377
 8074SOL    HW235682   0.090   4.476   0.193  0.1023 -1.0299 -2.6839
 8075SOL     OW35683   0.809   3.380   5.971  0.2576 -0.2216 -0.5045
 8075SOL    HW135684   0.849   3.313   5.917 -2.0680 -2.0258 -0.0104
 8075SOL    HW235685   0.755   3.424   5.905  1.1297  0.5983 -0.6663
 8076SOL     OW35686   1.109   0.629   7.485  0.0610 -0.0210  0.1513
 8076SOL    HW135687   1.032   0.683   7.503  1.0584  1.2590  0.5964
 8076SOL    HW235688   1.133   0.673   7.404  2.3867 -1.3756  0.1110
 8077SOL     OW35689   3.186   4.087   4.764  0.0084  0.0829  0.5476
 8077SOL    HW135690   3.231   4.069   4.847  1.6028 -0.6009 -0.4517
 8077SOL    HW235691   3.264   4.097   4.709  0.4556  2.4670  1.6152
 8078SOL     OW35692   0.359   1.779   6.383 -0.6160  0.0584  0.1663
 8078SOL    HW135693   0.425   1.839   6.348  1.8388 -2.0960  1.0771
 8078SOL    HW235694   0.289   1.840   6.408 -1.6839 -0.2059 -2.2224
 8079SOL     OW35695   0.245   3.324  10.456 -0.4935 -0.5907  0.0316
 8079SOL    HW135696   0.287   3.270  10.523  3.7879  0.9265 -1.4422
 8079SOL    HW235697   0.220   3.400  10.508 -1.5659 -1.2509  0.4902
 8080SOL     OW35698   0.639   1.842   3.350 -0.0583 -0.1156  0.4877
 8080SOL    HW135699   0.582   1.805   3.417 -1.2224 -0.6426 -0.8061
 8080SOL    HW235700   0.619   1.936   3.358  2.5509  0.4794  0.1041
 8081SOL     OW35701   2.535   2.386   3.122  0.0731 -0.4147  0.6787
 8081SOL    HW135702   2.558   2.347   3.038 -1.9961 -0.5593  0.1637
 8081SOL    HW235703   2.618   2.420   3.155  0.6134 -0.2533 -0.8593
 8082SOL     OW35704   0.581   0.119   0.572  0.3901 -0.3545 -0.8131
 8082SOL    HW135705   0.627   0.045   0.531  0.9467 -0.3363 -0.2241
 8082SOL    HW235706   0.652   0.141   0.632  0.2468  0.5924 -0.9947
 8083SOL     OW35707   4.567   4.292   4.138 -0.3024  0.7147 -0.3692
 8083SOL    HW135708   4.537   4.204   4.161 -2.6874  2.1847  2.0577
 8083SOL    HW235709   4.521   4.343   4.204  0.9511 -1.4032  2.1484
 8084SOL     OW35710   4.284   4.414   9.723  0.0679 -0.6770 -0.0659
 8084SOL    HW135711   4.336   4.336   9.743 -0.0174 -0.4949  0.8688
 8084SOL    HW235712   4.356   4.472   9.697  1.0801 -0.9213  2.2718
 8085SOL     OW35713   2.186   0.410   4.571  0.0427  0.5053  0.2158
 8085SOL    HW135714   2.126   0.452   4.509 -1.8270  0.4367  1.9527
 8085SOL    HW235715   2.266   0.459   4.552  0.6066 -0.3341  0.4482
 8086SOL     OW35716   1.569   2.503   1.217  0.7383  0.7372  0.3539
 8086SOL    HW135717   1.562   2.515   1.123 -3.5869  0.8510  0.7200
 8086SOL    HW235718   1.560   2.598   1.231 -0.9610  0.8280 -1.4201
 8087SOL     OW35719   1.130   4.458  11.467 -0.0473 -0.0130  0.2110
 8087SOL    HW135720   1.051   4.445  11.520  1.6717 -1.9584  2.2750
 8087SOL    HW235721   1.139   4.379  11.413  0.0001 -0.0025  0.2035
 8088SOL     OW35722   1.060   0.910   3.959  0.3381 -0.1971  0.2193
 8088SOL    HW135723   1.082   0.826   3.999  1.6708 -0.1492 -0.4043
 8088SOL    HW235724   1.146   0.946   3.936  0.3533 -0.2928  0.1256
 8089SOL     OW35725   3.181   3.877   8.394 -0.3141  0.1280 -0.1157
 8089SOL    HW135726   3.216   3.911   8.476  1.1643 -0.7158 -0.3905
 8089SOL    HW235727   3.101   3.930   8.388 -0.2029  0.1794 -1.2537
 8090SOL     OW35728   1.025   3.249   8.581  0.1968  0.2514 -0.7442
 8090SOL    HW135729   0.979   3.232   8.663 -1.1921  1.0137 -1.3558
 8090SOL    HW235730   0.950   3.249   8.521 -0.1925 -1.1856 -0.2557
 8091SOL     OW35731   0.737   3.674  16.553 -0.4747  0.5217  0.4791
 8091SOL    HW135732   0.730   3.583  16.583 -0.9819  0.1882 -0.6575
 8091SOL    HW235733   0.646   3.691  16.577 -0.8712 -0.2038 -0.5002
 8092SOL     OW35734   4.002   2.281  15.878  0.1159 -0.4944 -0.3652
 8092SOL    HW135735   3.999   2.361  15.826 -0.1186 -0.5959 -0.5088
 8092SOL    HW235736   3.909   2.260  15.882 -0.2869  1.2415 -0.9474
 8093SOL     OW35737   0.970   4.253   3.154 -0.1404 -0.1503 -0.0113
 8093SOL    HW135738   1.035   4.215   3.213  0.2464  1.3212  0.5175
 8093SOL    HW235739   0.995   4.209   3.073  2.2682 -0.5311  0.9302
 8094SOL     OW35740   1.420   4.364   4.347 -0.2640  0.0606  0.5568
 8094SOL    HW135741   1.483   4.394   4.281 -0.1234 -0.4094  0.4778
 8094SOL    HW235742   1.463   4.377   4.431  0.4079  1.0027  0.0686
 8095SOL     OW35743   0.332   1.320   5.811  1.1021 -0.0598 -0.0221
 8095SOL    HW135744   0.305   1.338   5.901 -0.9945 -2.3486 -0.2030
 8095SOL    HW235745   0.349   1.226   5.815 -0.2204 -0.2546  1.0784
 8096SOL     OW35746   3.857   2.067   4.193  0.5123 -0.0811 -0.6142
 8096SOL    HW135747   3.803   2.001   4.235 -0.6713  0.2031 -1.6557
 8096SOL    HW235748   3.827   2.038   4.106 -1.9726  0.4983  0.0389
 8097SOL     OW35749   1.954   2.939  14.345 -0.4194  0.2408 -0.4556
 8097SOL    HW135750   2.031   2.992  14.327  0.4269 -1.0843 -0.7374
 8097SOL    HW235751   1.922   2.911  14.259  0.5227 -0.2778 -0.6354
 8098SOL     OW35752   1.712   2.656   9.063 -0.2878 -0.1432  1.7075
 8098SOL    HW135753   1.676   2.584   9.114 -0.0945 -2.0135 -0.7958
 8098SOL    HW235754   1.637   2.715   9.067  0.5756  1.1447 -1.5677
 8099SOL     OW35755   3.169   2.099   4.859 -0.0457  0.4579  0.3508
 8099SOL    HW135756   3.092   2.043   4.869 -1.0194  1.8530  0.7327
 8099SOL    HW235757   3.151   2.184   4.899 -4.2264  0.5765 -1.7972
 8100SOL     OW35758   1.695   0.099   7.332  0.0092 -0.6567 -0.6236
 8100SOL    HW135759   1.764   0.108   7.266  1.9012  0.0797  1.4487
 8100SOL    HW235760   1.630   0.055   7.277  1.0949 -2.0255 -0.8248
 8101SOL     OW35761   1.674   0.188  11.477 -0.0615 -0.1909 -0.1041
 8101SOL    HW135762   1.732   0.206  11.551 -0.2157 -0.7545  0.1511
 8101SOL    HW235763   1.664   0.094  11.492 -0.8011  0.0114  0.6891
 8102SOL     OW35764   2.636   1.267   6.014  0.0897 -0.0794  0.1178
 8102SOL    HW135765   2.707   1.208   5.989 -1.9602 -2.5809  0.1153
 8102SOL    HW235766   2.654   1.272   6.108  0.2275  0.9293  0.0359
 8103SOL     OW35767   3.225   1.087   7.324 -0.3449 -0.5770  0.6263
 8103SOL    HW135768   3.149   1.050   7.278 -1.2765  0.2613  1.4744
 8103SOL    HW235769   3.210   1.182   7.321 -0.7343 -0.5688  2.6340
 8104SOL     OW35770   3.573   2.395   6.596 -0.8066  0.1006 -0.0154
 8104SOL    HW135771   3.528   2.356   6.521  0.6700  0.1599 -0.9344
 8104SOL    HW235772   3.608   2.321   6.646  0.4153  0.4294 -0.3862
 8105SOL     OW35773   0.964   0.375   1.312  0.0071 -0.0752 -0.3824
 8105SOL    HW135774   0.872   0.358   1.292 -0.0541 -0.3794  0.1452
 8105SOL    HW235775   0.984   0.454   1.262  0.6880  1.6552  2.6063
 8106SOL     OW35776   1.305   4.698   3.290  0.0821  0.6405 -0.3264
 8106SOL    HW135777   1.291   4.703   3.195  1.5653 -0.3563 -0.5851
 8106SOL    HW235778   1.369   0.042   3.297 -1.1521  1.8336 -0.9443
 8107SOL     OW35779   4.090   0.242   9.547 -0.0167 -0.0056  0.1586
 8107SOL    HW135780   4.128   0.228   9.460 -2.9394 -2.2544 -0.7421
 8107SOL    HW235781   4.147   0.188   9.601 -2.5639 -1.0762  1.7642
 8108SOL     OW35782   0.725   2.075   9.856  0.1009  0.0735 -0.2436
 8108SOL    HW135783   0.799   2.055   9.913  0.0932 -0.3043 -0.3681
 8108SOL    HW235784   0.681   2.143   9.907  0.1805  1.3285 -1.8671
 8109SOL     OW35785   4.349   3.690  10.297 -0.0647  0.3566  0.2163
 8109SOL    HW135786   4.290   3.750  10.343  0.3746 -0.5374  1.9577
 8109SOL    HW235787   4.292   3.645  10.235  1.5763 -1.7762  0.2671
 8110SOL     OW35788   0.989   2.895   2.343 -0.2475  0.0513  0.7858
 8110SOL    HW135789   0.923   2.837   2.305  1.8004 -1.1346 -0.9652
 8110SOL    HW235790   0.939   2.942   2.411 -0.1440  0.9600  0.2309
 8111SOL     OW35791   3.155   1.968   1.308 -0.3718 -0.6152 -0.2501
 8111SOL    HW135792   3.115   2.006   1.386 -2.1232 -0.0550 -1.4400
 8111SOL    HW235793   3.187   2.045   1.261 -2.0630 -1.0320 -2.0593
 8112SOL     OW35794   0.922   3.994   3.658  0.0467  0.2255  0.6468
 8112SOL    HW135795   0.832   3.995   3.693 -0.7642 -1.7894 -1.4172
 8112SOL    HW235796   0.942   3.901   3.656  0.9197  0.4948 -2.7116
 8113SOL     OW35797   2.676   3.693   2.930 -0.0333  0.1668  0.5821
 8113SOL    HW135798   2.676   3.634   2.855 -3.1214 -1.1797  1.6443
 8113SOL    HW235799   2.724   3.766   2.892  1.1920 -1.2139 -0.5295
 8114SOL     OW35800   1.649   2.783  11.284  0.5608 -0.1741  0.0140
 8114SOL    HW135801   1.702   2.741  11.351  0.3708  0.9354  0.8697
 8114SOL    HW235802   1.561   2.759  11.315  1.0148 -0.2610  1.2272
 8115SOL     OW35803   4.114   1.595  14.370 -0.3052 -0.4463 -0.4517
 8115SOL    HW135804   4.124   1.555  14.284 -0.8004  0.6680 -1.0171
 8115SOL    HW235805   4.093   1.524  14.431 -0.9331  1.4179  1.5298
 8116SOL     OW35806   2.340   4.194  15.273 -0.3398  0.2165  0.3831
 8116SOL    HW135807   2.426   4.181  15.314 -0.2902  2.3336  0.9533
 8116SOL    HW235808   2.334   4.289  15.281  2.0205  0.4624 -0.9392
 8117SOL     OW35809   1.474   3.123  13.893 -0.3217  0.0588  0.1894
 8117SOL    HW135810   1.507   3.172  13.968 -1.0801 -0.1608  0.6528
 8117SOL    HW235811   1.551   3.065  13.888 -0.8774 -0.6128 -0.5706
 8118SOL     OW35812   0.892   4.473  12.896 -0.7979 -0.3200  0.2610
 8118SOL    HW135813   0.945   4.411  12.946 -2.6566 -0.3652  2.1897
 8118SOL    HW235814   0.853   4.523  12.967 -2.0031 -0.1919 -0.4919
 8119SOL     OW35815   1.929   2.256   7.609 -0.1275  0.3600  0.1412
 8119SOL    HW135816   1.943   2.279   7.517 -0.4716  0.5372  0.1319
 8119SOL    HW235817   1.978   2.329   7.647 -1.1043  2.8475 -3.3337
 8120SOL     OW35818   1.403   4.566   2.387  0.6155  0.2721 -0.3150
 8120SOL    HW135819   1.368   4.560   2.298 -1.0662  0.1573  0.3546
 8120SOL    HW235820   1.341   4.630   2.421  0.4004  1.0807 -2.2191
 8121SOL     OW35821   0.815   3.215   3.180  0.3844  0.4227  0.1677
 8121SOL    HW135822   0.910   3.201   3.180  0.0928 -1.4870 -0.7512
 8121SOL    HW235823   0.808   3.227   3.275  2.3424  1.7909  0.1526
 8122SOL     OW35824   1.867   3.737  13.611  0.5559  0.1950  0.1578
 8122SOL    HW135825   1.839   3.829  13.618 -0.5557  0.0886 -3.0843
 8122SOL    HW235826   1.894   3.731  13.519  0.7197 -2.2382  0.3844
 8123SOL     OW35827   3.159   0.452   3.571  0.4472 -0.1523 -0.0768
 8123SOL    HW135828   3.220   0.509   3.525  0.0601  2.7682  3.0210
 8123SOL    HW235829   3.209   0.433   3.650  1.0707  0.9541 -0.2033
 8124SOL     OW35830   0.188   3.278   9.602  0.5276 -0.2053  0.2045
 8124SOL    HW135831   0.232   3.217   9.660 -0.0025  0.9711  1.8435
 8124SOL    HW235832   0.180   3.347   9.668 -2.6988  0.4685 -0.8856
 8125SOL     OW35833   3.730   0.163  11.634  0.0798 -0.4254  0.0013
 8125SOL    HW135834   3.802   0.110  11.669 -0.6445 -1.2813  0.2096
 8125SOL    HW235835   3.686   0.184  11.717  0.1321  1.9987 -0.5915
 8126SOL     OW35836   2.541   1.150   7.242  0.2722 -0.0129 -0.5369
 8126SOL    HW135837   2.450   1.181   7.244 -0.7684 -3.0930 -0.9405
 8126SOL    HW235838   2.550   1.126   7.150 -4.0565  1.6847 -1.4132
 8127SOL     OW35839   0.266   1.912   5.058  0.2338  0.3659 -0.5910
 8127SOL    HW135840   0.348   1.881   5.094 -0.6118 -0.3277  0.7517
 8127SOL    HW235841   0.294   1.947   4.973  0.2828  0.4905 -0.5241
 8128SOL     OW35842   3.897   0.630  11.316  0.1259  0.4328  0.7499
 8128SOL    HW135843   3.977   0.580  11.332  1.1389  2.1838  1.0911
 8128SOL    HW235844   3.827   0.574  11.350  1.2463 -2.0026 -0.9307
 8129SOL     OW35845   3.219   0.784  11.639 -0.3020  0.7254  0.1566
 8129SOL    HW135846   3.281   0.728  11.593 -0.7300 -1.8928  2.7382
 8129SOL    HW235847   3.277   0.854  11.667  1.6139 -1.3103  1.2866
 8130SOL     OW35848   4.003   4.245   6.985  0.0347 -0.4888  0.0257
 8130SOL    HW135849   4.061   4.271   6.913  1.5579 -0.8491  1.1219
 8130SOL    HW235850   4.033   4.314   7.044 -0.0315 -0.5159  0.0916
 8131SOL     OW35851   0.543   1.548   8.261 -0.1030 -0.6220  0.3003
 8131SOL    HW135852   0.613   1.545   8.326  2.1997  0.7284 -2.1212
 8131SOL    HW235853   0.532   1.457   8.235 -0.7953  0.3564 -2.8710
 8132SOL     OW35854   0.573   3.773   6.857  0.0095  0.9471  0.0067
 8132SOL    HW135855   0.662   3.738   6.852  0.3539  1.7763  0.4491
 8132SOL    HW235856   0.522   3.701   6.820  1.6470  0.0900 -0.5863
 8133SOL     OW35857   3.741   0.428   8.112  0.4186  0.1082 -0.6169
 8133SOL    HW135858   3.783   0.413   8.197 -0.8583  0.3868  0.0674
 8133SOL    HW235859   3.803   0.497   8.088  2.9472 -1.5016  1.2200
 8134SOL     OW35860   2.188   3.272   3.664  0.3331  0.1984  0.0427
 8134SOL    HW135861   2.250   3.321   3.718  0.4468 -0.6552  0.6885
 8134SOL    HW235862   2.192   3.329   3.588  0.1690  0.6733  0.3873
 8135SOL     OW35863   4.456   2.772   6.990 -0.0933  0.2769  0.1257
 8135SOL    HW135864   4.371   2.803   6.957 -0.8198 -1.5230  0.2855
 8135SOL    HW235865   4.433   2.699   7.048 -1.7969  1.1164  0.5101
 8136SOL     OW35866   3.076   2.898   6.213 -0.4811  0.1172  0.1120
 8136SOL    HW135867   3.135   2.973   6.208 -0.2274 -0.1760 -1.2478
 8136SOL    HW235868   3.134   2.825   6.232 -0.3976  0.2242  0.2712
 8137SOL     OW35869   2.904   2.884  11.974 -0.4369 -0.0976 -0.2579
 8137SOL    HW135870   2.941   2.945  12.038 -0.3539 -1.7574  1.2808
 8137SOL    HW235871   2.922   2.804  12.024 -1.1846 -0.4621 -0.5745
 8138SOL     OW35872   1.745   1.890   8.299 -0.7563 -0.0352  0.6256
 8138SOL    HW135873   1.720   1.845   8.380 -0.9382 -2.3530 -0.7362
 8138SOL    HW235874   1.721   1.824   8.234 -1.1679 -0.0893  0.8358
 8139SOL     OW35875   2.932   2.871   7.640 -0.4323 -0.5768 -0.3663
 8139SOL    HW135876   2.867   2.880   7.570  1.3900 -3.0124 -2.3441
 8139SOL    HW235877   2.970   2.959   7.643 -2.0129  0.0897  0.0531
 8140SOL     OW35878   1.339   2.042   1.004  0.2163  0.6492  0.3288
 8140SOL    HW135879   1.429   2.047   0.974  0.5488  1.6609  1.5301
 8140SOL    HW235880   1.323   1.950   0.982 -3.8192  0.7927  2.6237
 8141SOL     OW35881   2.762   2.929   6.370 -0.4868  0.0356 -0.4925
 8141SOL    HW135882   2.737   2.839   6.390  0.1137  0.3926  1.8583
 8141SOL    HW235883   2.853   2.923   6.340 -0.2663 -0.3508  0.2674
 8142SOL     OW35884   1.821   4.134   1.118 -0.3139 -0.6882  0.2359
 8142SOL    HW135885   1.853   4.044   1.123  0.4270 -0.4989 -1.2419
 8142SOL    HW235886   1.848   4.168   1.203 -1.1091  3.3979 -1.1794
 8143SOL     OW35887   2.349   3.680   3.631 -0.0644 -0.0131 -0.5593
 8143SOL    HW135888   2.420   3.664   3.569  0.2284  1.7020 -0.6746
 8143SOL    HW235889   2.271   3.671   3.576 -0.8635  1.3664  0.3477
 8144SOL     OW35890   1.248   3.524   4.762 -0.3471 -0.7160 -0.0866
 8144SOL    HW135891   1.194   3.447   4.780 -1.1648  0.0816  0.8747
 8144SOL    HW235892   1.324   3.490   4.716  0.3277 -1.1959  1.3780
 8145SOL     OW35893   2.410   4.570   0.242 -0.2313 -0.1683 -0.4090
 8145SOL    HW135894   2.345   4.629   0.203 -0.5313 -0.0803  0.2257
 8145SOL    HW235895   2.346   4.499   0.241 -1.6618  1.0757  1.3479
 8146SOL     OW35896   3.970   0.396   8.589 -0.3587  0.0669  0.5209
 8146SOL    HW135897   3.908   0.379   8.660  1.8209 -0.4445  2.2849
 8146SOL    HW235898   4.020   0.475   8.611  2.5056 -1.2161 -1.4867
 8147SOL     OW35899   4.429   3.750   4.081  0.3680 -0.0783 -0.3137
 8147SOL    HW135900   4.370   3.812   4.124  0.4149 -0.1034 -0.2146
 8147SOL    HW235901   4.479   3.727   4.159  1.9121 -0.4296 -1.4107
 8148SOL     OW35902   3.957   4.207   3.856 -0.0536  0.4848 -0.0503
 8148SOL    HW135903   4.020   4.278   3.845 -0.9074  1.2732  0.0809
 8148SOL    HW235904   3.918   4.203   3.768  1.4143  1.8845 -0.7514
 8149SOL     OW35905   4.296   3.290   4.562  0.0238 -0.5012 -0.7302
 8149SOL    HW135906   4.227   3.225   4.549  0.0864 -0.4793 -1.1730
 8149SOL    HW235907   4.246   3.369   4.584  1.0355 -0.5650  1.8552
 8150SOL     OW35908   2.817   1.149  10.583  0.4755  0.3105  0.4825
 8150SOL    HW135909   2.840   1.113  10.669 -0.3020  4.9148  2.6138
 8150SOL    HW235910   2.860   1.235  10.577  3.1915 -0.8926  2.5150
 8151SOL     OW35911   2.006   2.278  14.201 -0.5901  0.2328 -0.3951
 8151SOL    HW135912   1.935   2.330  14.164  0.2136  1.8135  0.2616
 8151SOL    HW235913   1.972   2.254  14.288  0.7672 -0.0299  0.0768
 8152SOL     OW35914   3.482   0.399   8.878  0.2985 -0.0955  0.1627
 8152SOL    HW135915   3.472   0.328   8.941  0.2186 -0.2999 -0.0778
 8152SOL    HW235916   3.451   0.349   8.802  3.4264 -0.0741 -1.1351
 8153SOL     OW35917   1.096   1.414   8.359 -0.0815 -0.2009  0.2026
 8153SOL    HW135918   1.189   1.406   8.338 -0.0610 -0.0110  0.2210
 8153SOL    HW235919   1.076   1.507   8.345 -0.5221 -0.4237 -0.6401
 8154SOL     OW35920   2.860   2.557   1.326  0.6703  0.2808 -0.3877
 8154SOL    HW135921   2.876   2.548   1.232 -0.6984 -0.3095 -0.5589
 8154SOL    HW235922   2.832   2.469   1.352  2.5266 -0.5351 -1.1685
 8155SOL     OW35923   0.206   2.769   6.529 -0.1362  0.1204  0.1316
 8155SOL    HW135924   0.127   2.779   6.476  0.3774 -1.8283 -0.9804
 8155SOL    HW235925   0.178   2.765   6.620  0.1208  0.2780  0.2178
 8156SOL     OW35926   0.978   0.085   4.884  0.1593 -0.0292  0.4256
 8156SOL    HW135927   0.921   0.134   4.825 -0.2997  0.2852  1.1215
 8156SOL    HW235928   0.916   0.055   4.951  0.3478  0.3300  0.7660
 8157SOL     OW35929   4.459   1.077  10.333  0.1560  0.0125 -0.9558
 8157SOL    HW135930   4.373   1.068  10.292  0.0658  0.7231 -0.9138
 8157SOL    HW235931   4.451   1.050  10.425  0.1162  0.1912 -0.9070
 8158SOL     OW35932   3.700   1.406   4.413 -0.2932 -1.2263  0.5061
 8158SOL    HW135933   3.677   1.439   4.500 -1.3171  0.7799 -0.5387
 8158SOL    HW235934   3.720   1.318   4.444 -2.3047 -2.5114 -1.8524
 8159SOL     OW35935   1.766   2.369  10.602  0.0831  0.9275 -0.0292
 8159SOL    HW135936   1.729   2.431  10.665 -0.0710  0.5834  0.2221
 8159SOL    HW235937   1.724   2.383  10.518  0.4379  1.5512 -0.1030
 8160SOL     OW35938   2.562   2.082  13.131  0.2383 -0.1348 -0.1026
 8160SOL    HW135939   2.537   2.009  13.187  0.5459  0.6932  1.1056
 8160SOL    HW235940   2.498   2.075  13.060  0.0206 -0.1716  0.1018
 8161SOL     OW35941   3.469   4.282   1.847 -0.0345 -0.1854  0.1120
 8161SOL    HW135942   3.456   4.345   1.917  1.0457 -1.2172  1.2476
 8161SOL    HW235943   3.527   4.327   1.786 -0.4337 -0.4387 -0.4570
 8162SOL     OW35944   3.748   0.110  13.143 -0.8200 -0.2794 -0.3799
 8162SOL    HW135945   3.786   0.038  13.193  0.7781 -0.0493 -1.2598
 8162SOL    HW235946   3.806   0.126  13.069 -0.9044  2.3541  0.1136
 8163SOL     OW35947   4.307   2.783   5.130  0.1393 -0.3376 -0.3146
 8163SOL    HW135948   4.268   2.870   5.122 -0.8884 -0.6165  1.4515
 8163SOL    HW235949   4.301   2.766   5.224  0.0718 -0.1686 -0.2893
 8164SOL     OW35950   2.336   3.619   3.293 -0.7262 -0.0498 -0.1894
 8164SOL    HW135951   2.415   3.565   3.291 -0.0702  1.0174 -2.9506
 8164SOL    HW235952   2.307   3.599   3.204  0.8867 -0.1606 -0.6865
 8165SOL     OW35953   1.148   2.101   1.827 -0.2818 -0.3910 -0.0431
 8165SOL    HW135954   1.067   2.151   1.820 -0.7887 -1.2171 -0.0630
 8165SOL    HW235955   1.170   2.116   1.918  1.2603 -1.5259 -0.2354
 8166SOL     OW35956   0.209   0.399   2.089  0.3070  0.3693  0.4621
 8166SOL    HW135957   0.220   0.459   2.015  1.2551 -0.6384 -0.2239
 8166SOL    HW235958   0.234   0.453   2.164  0.7063 -0.1229  0.6844
 8167SOL     OW35959   3.713   3.336  13.307 -0.2562  1.1414  0.2932
 8167SOL    HW135960   3.621   3.345  13.281 -0.8858 -0.4476  1.9340
 8167SOL    HW235961   3.702   3.272  13.377  0.9823  1.8254  1.1200
 8168SOL     OW35962   0.880   1.978  17.031 -0.7757 -0.2431  0.6049
 8168SOL    HW135963   0.875   1.884  17.011  0.3143  0.3063 -2.2204
 8168SOL    HW235964   0.950   1.998  16.968  1.0931 -2.2346  2.0417
 8169SOL     OW35965   1.784   4.314   2.257 -0.2399 -0.2867  0.6060
 8169SOL    HW135966   1.741   4.384   2.208 -1.1145 -1.3396 -0.1277
 8169SOL    HW235967   1.838   4.281   2.186 -1.8966 -0.0470 -0.7642
 8170SOL     OW35968   1.462   2.476   8.810  1.0116  0.0643  0.1201
 8170SOL    HW135969   1.550   2.446   8.787 -0.2562 -0.0379 -4.5108
 8170SOL    HW235970   1.415   2.407   8.763  0.4863 -0.0410  0.7943
 8171SOL     OW35971   1.709   4.626   8.021 -0.3989 -0.1068  0.4387
 8171SOL    HW135972   1.704   4.579   8.105 -2.3222  0.7790  0.8076
 8171SOL    HW235973   1.631   4.680   8.017  0.4851  1.1612  0.4730
 8172SOL     OW35974   0.509   3.615   9.382 -1.0665  0.0566 -0.1526
 8172SOL    HW135975   0.598   3.634   9.353 -1.3330 -0.3761 -1.2412
 8172SOL    HW235976   0.529   3.534   9.429  1.3219  1.7149  1.7500
 8173SOL     OW35977   1.194   0.711  13.003 -1.0364 -0.1912 -0.0791
 8173SOL    HW135978   1.207   0.698  12.909  2.0482 -0.5827  0.4013
 8173SOL    HW235979   1.106   0.682  13.026 -0.5664 -0.8218  0.8994
 8174SOL     OW35980   1.949   2.361   8.850 -0.4582  0.1469  0.1662
 8174SOL    HW135981   1.950   2.426   8.920  1.3419  1.1190 -0.7581
 8174SOL    HW235982   1.955   2.279   8.898 -0.3944 -1.4896 -2.6707
 8175SOL     OW35983   3.530   2.964   5.861  0.2947  0.0373  0.2402
 8175SOL    HW135984   3.609   3.002   5.824 -0.4113  0.1298 -1.1857
 8175SOL    HW235985   3.464   3.002   5.802  1.0369  1.0704  0.0717
 8176SOL     OW35986   2.057   0.749   7.176  0.0339  0.7207 -0.2527
 8176SOL    HW135987   2.047   0.813   7.105  1.2021  0.7862 -0.3557
 8176SOL    HW235988   2.149   0.764   7.197  0.3917 -1.6554 -0.1694
 8177SOL     OW35989   4.016   2.469   6.290  0.2427 -0.3102 -0.1352
 8177SOL    HW135990   4.054   2.481   6.377  0.1115  1.2345 -0.2984
 8177SOL    HW235991   3.924   2.490   6.305  0.4784  0.6881 -0.1053
 8178SOL     OW35992   2.282   4.532  15.959  0.1368  0.1122  0.2698
 8178SOL    HW135993   2.258   4.479  16.035  1.6711 -1.5194 -0.3845
 8178SOL    HW235994   2.376   4.545  15.972  0.2344  2.8456 -3.0338
 8179SOL     OW35995   2.213   0.117   2.200 -0.2844 -0.4350  0.4126
 8179SOL    HW135996   2.245   0.204   2.176  0.5073 -0.9340 -0.3184
 8179SOL    HW235997   2.181   0.088   2.114 -0.9457  1.2550  0.0870
 8180SOL     OW35998   2.177   4.595   9.614 -0.5247  0.3151 -0.5810
 8180SOL    HW135999   2.157   4.509   9.650  1.7999  0.1867  0.4283
 8180SOL    HW236000   2.089   4.626   9.594  0.2516  2.2034 -1.1631
 8181SOL     OW36001   2.799   2.987   2.995 -0.4940 -1.0051 -0.5026
 8181SOL    HW136002   2.705   3.002   3.005 -0.8334 -3.7950  0.5298
 8181SOL    HW236003   2.827   3.074   3.022  0.9353 -1.8051  0.5963
 8182SOL     OW36004   2.479   0.466   7.998  0.4204 -0.0234  0.7071
 8182SOL    HW136005   2.544   0.527   7.963 -1.0416 -0.1560 -2.2208
 8182SOL    HW236006   2.529   0.443   8.077  2.8552 -0.3115 -0.9199
 8183SOL     OW36007   1.827   0.588   6.131  0.4531  0.0015 -0.2711
 8183SOL    HW136008   1.838   0.601   6.037 -4.4642  0.5865 -0.7697
 8183SOL    HW236009   1.733   0.576   6.142  0.8681 -1.3244  1.8355
 8184SOL     OW36010   2.722   2.956  14.056  0.1268 -0.2110  0.1522
 8184SOL    HW136011   2.713   2.999  13.971 -0.9785  0.9779  0.8782
 8184SOL    HW236012   2.678   2.877  14.024  3.1573 -1.4423 -1.0127
 8185SOL     OW36013   4.117   2.698   2.352 -0.1601  0.3967  0.3394
 8185SOL    HW136014   4.190   2.720   2.409 -0.7751  2.7960  0.2128
 8185SOL    HW236015   4.149   2.630   2.293 -0.8448  0.7915 -0.4860
 8186SOL     OW36016   3.270   4.329   3.707  0.1152  0.0659 -0.2207
 8186SOL    HW136017   3.283   4.235   3.692  1.6528  0.0055  1.4423
 8186SOL    HW236018   3.303   4.351   3.794  1.2778 -0.2047 -0.5881
 8187SOL     OW36019   2.351   2.720   6.402 -0.0196  0.8347  0.2679
 8187SOL    HW136020   2.345   2.633   6.443 -0.6622 -0.3143 -2.2630
 8187SOL    HW236021   2.401   2.693   6.325 -0.1348 -1.1004  0.8477
 8188SOL     OW36022   2.736   0.275  12.674  0.2389 -0.0379 -0.1383
 8188SOL    HW136023   2.805   0.230  12.723 -0.8084 -1.0783  0.3914
 8188SOL    HW236024   2.689   0.199  12.640  0.1788 -0.5166  1.0272
 8189SOL     OW36025   2.292   1.583   7.544  0.0124 -0.2965  0.9001
 8189SOL    HW136026   2.258   1.620   7.463 -0.1564 -0.4798  0.8899
 8189SOL    HW236027   2.337   1.506   7.509  0.8356 -0.4037  2.1994
 8190SOL     OW36028   1.109   1.674   8.281  0.3794  0.1061 -0.6053
 8190SOL    HW136029   1.169   1.698   8.210  1.8845 -0.9241  0.3111
 8190SOL    HW236030   1.164   1.701   8.355 -1.3236  0.3259  0.5955
 8191SOL     OW36031   0.343   1.650  14.260  0.0384  0.8018 -0.1873
 8191SOL    HW136032   0.393   1.622  14.336 -1.3289 -0.4912  0.2543
 8191SOL    HW236033   0.309   1.567  14.225  1.3601  0.7940 -1.4511
 8192SOL     OW36034   4.425   4.673  14.397  0.0625  0.1747 -0.1838
 8192SOL    HW136035   4.444   4.647  14.307 -1.9872  0.6821 -0.7628
 8192SOL    HW236036   4.386   0.034  14.389 -0.1471  0.0834 -0.1573
 8193SOL     OW36037   0.794   4.677   0.512 -0.1989 -0.3170 -0.3304
 8193SOL    HW136038   0.829   4.624   0.440  0.9181 -0.1904  0.1291
 8193SOL    HW236039   0.868   0.002   0.542 -0.0903 -0.5615 -0.1816
 8194SOL     OW36040   0.984   0.708   7.813  0.0519 -0.2378  0.1842
 8194SOL    HW136041   0.991   0.787   7.761 -0.5281 -1.4371 -1.7299
 8194SOL    HW236042   0.910   0.657   7.780  0.0302  1.9544 -3.0898
 8195SOL     OW36043   0.232   3.589   6.335 -0.4949  0.4711 -0.9519
 8195SOL    HW136044   0.159   3.598   6.397 -1.5608 -5.1037 -1.3865
 8195SOL    HW236045   0.306   3.595   6.395 -2.0608  0.8895  0.9590
 8196SOL     OW36046   1.591   3.514   8.661 -0.5134  0.1050  0.2212
 8196SOL    HW136047   1.542   3.458   8.602  2.5123 -1.2603 -0.9759
 8196SOL    HW236048   1.682   3.487   8.653 -0.4927 -0.0033  0.7816
 8197SOL     OW36049   1.283   3.382   2.245  0.8348 -0.1742  0.2597
 8197SOL    HW136050   1.300   3.475   2.257 -0.4514  0.1986 -0.7811
 8197SOL    HW236051   1.352   3.368   2.180  1.3583  2.1981  0.2858
 8198SOL     OW36052   0.226   4.537   1.789  0.0783 -0.3727 -0.4987
 8198SOL    HW136053   0.172   4.475   1.741  0.4841  0.3299 -1.8860
 8198SOL    HW236054   0.163   4.606   1.810  1.7396  0.9891  0.0375
 8199SOL     OW36055   3.882   1.568   4.259  0.2826 -0.1538 -0.1173
 8199SOL    HW136056   3.896   1.494   4.201  0.7762 -0.4539  0.3901
 8199SOL    HW236057   3.832   1.518   4.324  2.0404  0.4772  1.7259
 8200SOL     OW36058   1.764   4.096   7.781 -0.4404  0.1992  0.0827
 8200SOL    HW136059   1.788   4.008   7.811 -2.9806 -0.8750 -1.0552
 8200SOL    HW236060   1.681   4.096   7.829 -1.2230  2.6973 -1.2844
 8201SOL     OW36061   4.445   2.679   3.154  0.2764  0.3616  0.3019
 8201SOL    HW136062   4.482   2.596   3.184  1.4107  1.3065  1.5662
 8201SOL    HW236063   4.455   2.674   3.059 -1.6712 -2.6145  0.2387
 8202SOL     OW36064   1.299   2.253  14.742  0.2402  1.1833 -0.9202
 8202SOL    HW136065   1.368   2.286  14.800  0.8209 -1.4276 -0.1398
 8202SOL    HW236066   1.267   2.176  14.789 -0.6361  0.2679 -3.0217
 8203SOL     OW36067   1.806   1.910   2.933  0.2279  0.2674 -0.7018
 8203SOL    HW136068   1.727   1.865   2.902  0.9163 -1.6665  0.3850
 8203SOL    HW236069   1.770   1.954   3.010  2.2388 -0.4217  0.6147
 8204SOL     OW36070   3.206   4.058   3.446 -0.1645  0.0391  0.3320
 8204SOL    HW136071   3.141   4.126   3.431 -1.0202 -0.4213  1.9376
 8204SOL    HW236072   3.169   4.022   3.527  1.2793 -1.2298  0.4388
 8205SOL     OW36073   4.714   0.903  14.343 -0.3938 -0.1902 -0.8557
 8205SOL    HW136074   4.700   0.903  14.248  1.5267 -1.1132 -1.1193
 8205SOL    HW236075   0.023   0.817  14.363 -0.9446  0.2358  1.9369
 8206SOL     OW36076   0.085   3.398  11.048  0.2881  0.4463  0.4422
 8206SOL    HW136077   0.112   3.330  10.986  0.4867  0.8710  0.0584
 8206SOL    HW236078   0.149   3.466  11.026  1.7576 -1.0669  0.0885
 8207SOL     OW36079   4.214   3.684   2.877  0.0180 -0.1278 -0.0248
 8207SOL    HW136080   4.202   3.765   2.926 -2.7309 -1.6556  1.8110
 8207SOL    HW236081   4.203   3.618   2.945  0.4044  0.3701  0.5130
 8208SOL     OW36082   4.332   0.831  15.958  0.0024 -0.6476 -0.8245
 8208SOL    HW136083   4.306   0.881  15.881 -0.4111  0.2697 -0.0828
 8208SOL    HW236084   4.361   0.750  15.915  1.0423 -0.4034 -0.5926
 8209SOL     OW36085   3.745   3.064   6.403  0.4119 -0.0442 -0.6104
 8209SOL    HW136086   3.671   3.085   6.346 -1.2094 -2.1729  0.7117
 8209SOL    HW236087   3.790   3.006   6.342 -0.5889  0.1447 -1.5480
 8210SOL     OW36088   3.533   2.515   6.959  0.0803 -0.2038 -0.2371
 8210SOL    HW136089   3.607   2.461   6.934  2.1137  2.2568  0.4478
 8210SOL    HW236090   3.546   2.591   6.902  1.1379  0.6432  1.1401
 8211SOL     OW36091   3.309   4.720   5.306  0.2571  0.0499  0.1926
 8211SOL    HW136092   3.300   4.692   5.215 -0.4311  2.8134 -0.5919
 8211SOL    HW236093   3.220   4.704   5.339  0.0043 -2.3674 -1.6623
 8212SOL     OW36094   1.491   0.901  14.407  0.1237 -0.4553  0.1981
 8212SOL    HW136095   1.477   0.956  14.484  1.2139 -3.0288  2.2516
 8212SOL    HW236096   1.585   0.882  14.414 -0.0170 -0.6673  1.5382
 8213SOL     OW36097   4.207   3.006   0.286 -0.3252  0.6716  0.2441
 8213SOL    HW136098   4.235   3.033   0.199 -1.3487  2.4302  0.4605
 8213SOL    HW236099   4.139   2.943   0.262 -0.6181  1.2596 -0.4737
 8214SOL     OW36100   4.461   2.020   4.104  0.5495  0.1713 -0.0437
 8214SOL    HW136101   4.501   2.029   4.191 -0.1389 -2.8938  0.5744
 8214SOL    HW236102   4.402   1.946   4.113 -1.1479  1.5189 -0.0789
 8215SOL     OW36103   2.316   0.163   0.985 -1.1252 -0.5279  0.1992
 8215SOL    HW136104   2.347   0.102   1.052 -0.4501 -0.3459  0.0485
 8215SOL    HW236105   2.276   0.236   1.032  2.9238  0.9480  1.3615
 8216SOL     OW36106   0.719   3.516  17.611 -0.4835  0.4984  0.3588
 8216SOL    HW136107   0.802   3.468  17.601 -0.4197  0.6476  0.1507
 8216SOL    HW236108   0.732   3.576  17.684 -3.3158 -1.1881  2.2069
 8217SOL     OW36109   2.692   3.922   8.358 -0.0353 -0.1503 -0.2342
 8217SOL    HW136110   2.650   3.837   8.371  1.5004 -0.9668 -0.6075
 8217SOL    HW236111   2.610   3.968   8.341 -0.1159 -0.0646  0.3711
 8218SOL     OW36112   4.333   2.465   4.315  0.2027 -0.6657 -0.0961
 8218SOL    HW136113   4.298   2.524   4.249  0.2713 -1.8199 -1.1643
 8218SOL    HW236114   4.424   2.454   4.289 -0.0554 -0.8615 -0.9110
 8219SOL     OW36115   1.555   4.125   5.971  0.1689  0.1191  0.2105
 8219SOL    HW136116   1.476   4.123   5.916  2.2067  0.3772 -2.7265
 8219SOL    HW236117   1.628   4.127   5.909 -0.8586 -0.3228 -1.0165
 8220SOL     OW36118   2.789   2.757   0.655  0.3870  0.5716 -0.3192
 8220SOL    HW136119   2.776   2.850   0.675 -4.1884  0.1526 -1.2049
 8220SOL    HW236120   2.762   2.717   0.738 -0.3035  1.6822 -0.0081
 8221SOL     OW36121   1.733   2.049   3.427  0.8167 -0.4911  0.1592
 8221SOL    HW136122   1.664   2.022   3.488 -0.9357  1.0390 -1.1476
 8221SOL    HW236123   1.813   2.011   3.463  0.9982  0.7936  1.1018
 8222SOL     OW36124   1.439   0.995  14.958 -0.0568  0.4656  0.0796
 8222SOL    HW136125   1.454   0.948  15.040 -0.6722  0.6373  0.2881
 8222SOL    HW236126   1.345   0.978  14.952  0.0152  0.0910 -0.0339
 8223SOL     OW36127   1.187   1.400   4.925  0.1226 -0.1077 -0.6880
 8223SOL    HW136128   1.133   1.322   4.911  0.2038 -0.3566  0.4355
 8223SOL    HW236129   1.230   1.373   5.006 -1.6067  0.3792  0.3823
 8224SOL     OW36130   2.017   2.711  16.011 -0.1350  0.1949 -0.0670
 8224SOL    HW136131   2.018   2.638  15.949 -0.6522 -1.4801  1.8920
 8224SOL    HW236132   2.108   2.743  16.007  0.4929 -1.4903  0.9406
 8225SOL     OW36133   2.549   3.587  17.119 -0.1584 -0.4096  0.4370
 8225SOL    HW136134   2.623   3.534  17.088  0.7587  0.9226  0.3520
 8225SOL    HW236135   2.555   3.590  17.215 -0.8785  0.8185  0.4364
 8226SOL     OW36136   1.553   1.249  14.748 -0.1637  0.4571  0.6512
 8226SOL    HW136137   1.549   1.318  14.681 -1.0573 -0.1145  0.1194
 8226SOL    HW236138   1.599   1.184  14.694 -0.7194  1.5931 -1.2096
 8227SOL     OW36139   0.625   1.813   8.412 -0.1567  0.2613 -0.2275
 8227SOL    HW136140   0.692   1.842   8.351  0.3888 -0.4003  0.0581
 8227SOL    HW236141   0.651   1.727   8.445  1.8455  0.8711 -0.2595
 8228SOL     OW36142   1.022   0.806  14.458 -0.0532  0.2710  0.0209
 8228SOL    HW136143   1.114   0.779  14.463 -0.2501 -0.9633 -3.1474
 8228SOL    HW236144   0.980   0.753  14.391 -0.6055 -0.7287  1.1409
 8229SOL     OW36145   1.239   4.556   0.649  0.2778  0.4053 -0.2747
 8229SOL    HW136146   1.179   4.629   0.660  2.2827  2.2794 -1.8751
 8229SOL    HW236147   1.173   4.487   0.640  0.9271 -0.4940  1.8631
 8230SOL     OW36148   1.237   1.385  16.977  0.0792  0.4098  0.0191
 8230SOL    HW136149   1.273   1.462  16.933 -0.8636  2.3186  2.6190
 8230SOL    HW236150   1.159   1.425  17.017  1.5568  2.4837  0.8261
 8231SOL     OW36151   0.782   2.978  14.874  0.3689 -0.1042 -0.7466
 8231SOL    HW136152   0.766   2.921  14.799 -2.8471 -0.0124 -0.1016
 8231SOL    HW236153   0.749   3.058  14.833  0.1811  0.0047 -0.3872
 8232SOL     OW36154   0.161   1.386  14.131  0.5533  0.4526  0.3955
 8232SOL    HW136155   0.139   1.318  14.194  1.9301  0.2972  0.7060
 8232SOL    HW236156   0.082   1.441  14.134 -1.1184 -1.8820 -0.1977
 8233SOL     OW36157   0.364   4.396   4.616  0.0646  0.3126 -0.2134
 8233SOL    HW136158   0.457   4.384   4.632  0.4653  2.2408 -1.1194
 8233SOL    HW236159   0.360   4.398   4.521 -0.2549  2.1746 -0.1442
 8234SOL     OW36160   1.800   1.381   3.835  0.2655 -0.6930  0.7251
 8234SOL    HW136161   1.839   1.437   3.901  0.1053 -1.5759  1.5696
 8234SOL    HW236162   1.856   1.396   3.759 -0.4671  1.0456  0.5251
 8235SOL     OW36163   0.509   3.524   6.751  0.2340 -0.6546 -0.3271
 8235SOL    HW136164   0.459   3.450   6.785  0.0519  0.1174  1.0738
 8235SOL    HW236165   0.587   3.477   6.720  0.8787  1.5090 -2.0571
 8236SOL     OW36166   0.432   3.989  14.075 -0.1717 -0.2665 -0.4976
 8236SOL    HW136167   0.492   4.001  14.148  0.5835 -0.1855 -1.1236
 8236SOL    HW236168   0.372   4.064  14.074  1.5060  1.1004  0.0350
 8237SOL     OW36169   3.576   3.066   8.008  0.0287  0.1892 -0.0913
 8237SOL    HW136170   3.581   2.977   8.040 -2.3090 -0.1807 -0.7261
 8237SOL    HW236171   3.548   3.121   8.082  1.9381  1.6748 -0.4787
 8238SOL     OW36172   1.900   2.688  12.209  0.0431  1.0644  0.5953
 8238SOL    HW136173   1.899   2.607  12.259  3.5369  0.8715  0.3390
 8238SOL    HW236174   1.821   2.678  12.155 -0.4129  1.0409  1.2659
 8239SOL     OW36175   4.188   0.144  16.982 -0.1164  0.5973  0.1167
 8239SOL    HW136176   4.101   0.121  16.951  1.2720 -2.5644 -1.4156
 8239SOL    HW236177   4.250   0.089  16.933  0.2002  0.5844  0.5311
 8240SOL     OW36178   3.914   1.515   7.707  0.4082  0.5238 -0.0038
 8240SOL    HW136179   3.836   1.459   7.712 -1.6821  3.3762 -0.7755
 8240SOL    HW236180   3.919   1.512   7.803  0.0849 -2.1569 -0.0724
 8241SOL     OW36181   2.625   4.600   5.632 -0.4006  0.1950  0.0036
 8241SOL    HW136182   2.633   4.521   5.685 -2.4299 -0.0890 -0.1106
 8241SOL    HW236183   2.714   4.628   5.654 -0.2691 -1.3061  1.3750
 8242SOL     OW36184   2.489   2.602   0.502  0.0852 -0.2207 -0.2770
 8242SOL    HW136185   2.447   2.668   0.557  2.2871 -0.3996  1.6269
 8242SOL    HW236186   2.550   2.576   0.572 -1.5485  0.1492  1.2830
 8243SOL     OW36187   0.501   3.931   1.447  0.4022  0.2613 -0.3626
 8243SOL    HW136188   0.473   3.919   1.538  1.7458 -1.8902 -0.2578
 8243SOL    HW236189   0.475   3.845   1.415  1.8249 -0.4270  0.3679
 8244SOL     OW36190   2.186   2.759  11.826  0.3602  0.4137 -0.1170
 8244SOL    HW136191   2.183   2.784  11.919  1.5998 -1.7073  0.5017
 8244SOL    HW236192   2.212   2.842  11.787  0.3655 -0.3966 -1.7939
 8245SOL     OW36193   3.797   2.477   7.423  0.0412  0.4791  0.1854
 8245SOL    HW136194   3.794   2.552   7.365  0.0027  1.7480  1.8248
 8245SOL    HW236195   3.810   2.515   7.510 -1.8164  0.5794  0.4015
 8246SOL     OW36196   2.954   4.570  17.543  0.0297 -0.5736  0.3232
 8246SOL    HW136197   2.989   4.632  17.607  1.8700 -1.6547  0.3852
 8246SOL    HW236198   2.889   4.630  17.507 -1.1278 -0.3666  2.7505
 8247SOL     OW36199   0.983   4.601  10.111  0.1160 -0.6170 -0.1328
 8247SOL    HW136200   0.955   4.674  10.167  0.8824  0.3893 -1.0569
 8247SOL    HW236201   1.053   4.635  10.055  0.2625  0.9992  1.0137
 8248SOL     OW36202   1.877   2.715   4.046  0.2819  0.1638  0.7072
 8248SOL    HW136203   1.844   2.673   3.967 -0.3058 -2.9662  2.6355
 8248SOL    HW236204   1.866   2.648   4.113 -0.1689  0.7018  1.1789
 8249SOL     OW36205   2.209   0.897   3.086 -0.8111  0.0201 -0.0527
 8249SOL    HW136206   2.135   0.865   3.034  0.1792  0.6349 -1.8554
 8249SOL    HW236207   2.221   0.989   3.065 -1.5311 -0.0806 -0.9373
 8250SOL     OW36208   0.096   4.690  13.454  0.4025 -0.2787  0.1112
 8250SOL    HW136209   0.150   4.612  13.456  2.2871  1.1165  3.1893
 8250SOL    HW236210   0.160   0.031  13.435 -0.3735  0.4443  0.0480
 8251SOL     OW36211   2.181   0.158  16.844 -0.0179  0.0676 -0.1704
 8251SOL    HW136212   2.088   0.138  16.830  0.4399 -0.1340 -3.0068
 8251SOL    HW236213   2.223   0.073  16.858  0.7212  0.0778 -2.3445
 8252SOL     OW36214   0.328   0.162   2.786 -0.4625  0.2377  0.0904
 8252SOL    HW136215   0.367   0.249   2.798 -0.4519  0.0427  1.4324
 8252SOL    HW236216   0.328   0.141   2.692  2.6364  0.5871  0.0062
 8253SOL     OW36217   3.518   0.888   6.742  0.0331 -0.3819 -0.5142
 8253SOL    HW136218   3.533   0.976   6.778 -0.8765 -0.2738 -0.4104
 8253SOL    HW236219   3.504   0.899   6.648  1.8921 -0.3933 -0.8004
 8254SOL     OW36220   3.947   3.055   4.071 -0.3043 -0.6621 -0.5533
 8254SOL    HW136221   3.988   3.026   4.153 -1.5489 -0.0462  0.2779
 8254SOL    HW236222   3.857   3.079   4.093  0.7942  2.2021  0.8189
 8255SOL     OW36223   2.535   4.267   3.157 -0.6644 -0.0251 -0.3079
 8255SOL    HW136224   2.473   4.195   3.166 -0.0838 -0.3866  0.7581
 8255SOL    HW236225   2.595   4.223   3.097 -0.4391  1.8233 -1.4249
 8256SOL     OW36226   0.956   3.022   2.972  0.0967 -0.0961  0.0194
 8256SOL    HW136227   1.006   3.099   2.945 -0.7233  1.2504  2.3564
 8256SOL    HW236228   1.019   2.968   3.018 -0.1608 -0.2800  0.1533
 8257SOL     OW36229   4.697   4.521   4.633 -0.4185 -0.4447  0.0878
 8257SOL    HW136230   4.719   4.558   4.547 -0.2248 -1.8391 -0.4642
 8257SOL    HW236231   0.051   4.527   4.684 -0.0515 -1.5123 -0.3698
 8258SOL     OW36232   2.086   4.121  16.947  0.0072  0.4535 -0.8229
 8258SOL    HW136233   2.159   4.155  16.998  0.8253 -1.1987 -0.8899
 8258SOL    HW236234   2.127   4.111  16.861  0.6723 -0.8751 -0.3532
 8259SOL     OW36235   2.442   1.367  13.818  0.2921 -0.3832  0.1550
 8259SOL    HW136236   2.433   1.435  13.750  1.8834 -0.2743  0.0569
 8259SOL    HW236237   2.446   1.296  13.754  1.2524  0.7505 -1.0687
 8260SOL     OW36238   2.461   2.547   2.490  0.3553  0.2001 -0.2790
 8260SOL    HW136239   2.460   2.643   2.495  1.4975  0.1665  0.8492
 8260SOL    HW236240   2.553   2.527   2.510  0.7462 -0.4178 -2.6577
 8261SOL     OW36241   4.416   3.658   7.240 -0.2061 -0.1238 -0.2644
 8261SOL    HW136242   4.389   3.746   7.215  1.6931  0.6974  0.5946
 8261SOL    HW236243   4.511   3.670   7.241 -0.5711  2.7274  2.3107
 8262SOL     OW36244   1.282   1.014   6.084 -0.8575  0.1214 -0.0370
 8262SOL    HW136245   1.375   0.996   6.098 -1.0662  0.6706  2.0509
 8262SOL    HW236246   1.297   1.108   6.082  2.1395 -0.3461 -0.3542
 8263SOL     OW36247   2.341   2.909   2.267  0.5630  0.3349  0.3103
 8263SOL    HW136248   2.327   2.871   2.180 -0.5918 -2.1160  1.5930
 8263SOL    HW236249   2.254   2.932   2.299  0.0657  0.8982 -1.4359
 8264SOL     OW36250   1.792   1.727   8.536 -0.7029  0.1105 -0.0579
 8264SOL    HW136251   1.749   1.644   8.517  0.2494 -0.6219  1.0244
 8264SOL    HW236252   1.848   1.708   8.611 -0.1689  2.5501  0.1796
 8265SOL     OW36253   1.956   4.272  14.325  0.2112 -0.9287  0.0297
 8265SOL    HW136254   1.956   4.189  14.277 -1.0429 -2.0165  1.8972
 8265SOL    HW236255   2.047   4.300  14.322  0.2618 -1.1104 -0.1217
 8266SOL     OW36256   0.957   0.536   9.625  0.2281 -0.4716 -0.3387
 8266SOL    HW136257   1.004   0.453   9.611  3.3356  1.7261 -2.9333
 8266SOL    HW236258   0.898   0.515   9.697 -0.2188  0.4994 -0.4297
 8267SOL     OW36259   3.961   3.977   6.611  0.7004 -0.6589  1.4389
 8267SOL    HW136260   4.000   4.017   6.533 -1.1245 -1.0865  0.3022
 8267SOL    HW236261   3.921   4.054   6.653  1.0048  1.1588 -1.5762
 8268SOL     OW36262   1.399   3.804   9.706  0.1158  0.1612 -0.1828
 8268SOL    HW136263   1.357   3.889   9.690  1.4073  1.2207  2.1305
 8268SOL    HW236264   1.486   3.819   9.670  0.3451 -1.3591 -0.2791
 8269SOL     OW36265   3.109   2.860   8.340  0.3736  0.0096  0.5566
 8269SOL    HW136266   3.170   2.785   8.344  0.8269  0.4323  1.6923
 8269SOL    HW236267   3.155   2.918   8.280 -2.0125  1.0335 -0.2404
 8270SOL     OW36268   0.255   1.978   4.643  0.1651  0.6877  0.7209
 8270SOL    HW136269   0.324   1.958   4.706  0.0535 -0.2655  0.5359
 8270SOL    HW236270   0.195   1.908   4.667  0.4792  0.2485  0.2445
 8271SOL     OW36271   2.517   4.098  15.433 -0.3867  0.0591 -0.1762
 8271SOL    HW136272   2.591   4.103  15.492 -0.0062  1.4511 -0.7573
 8271SOL    HW236273   2.483   4.014  15.463  0.9256 -0.4313 -0.0761
 8272SOL     OW36274   0.070   3.105   0.329 -0.0978 -0.2372  0.0657
 8272SOL    HW136275   0.000   3.044   0.307 -0.8191  0.7638 -0.4209
 8272SOL    HW236276   0.134   3.044   0.366 -1.2835 -0.2211  2.1271
 8273SOL     OW36277   0.243   3.509  11.587 -0.7344 -0.0146 -0.2863
 8273SOL    HW136278   0.158   3.488  11.627 -0.9519 -0.5120 -1.0033
 8273SOL    HW236279   0.206   3.524  11.500 -1.4743  0.2616  0.0741
 8274SOL     OW36280   1.614   0.834   9.584  0.3209  0.0296 -0.5220
 8274SOL    HW136281   1.569   0.798   9.660 -0.3410 -1.6194 -1.6875
 8274SOL    HW236282   1.599   0.763   9.521 -1.5244 -0.7490  0.7856
 8275SOL     OW36283   4.407   0.938   5.273  0.0767  0.1815  0.1971
 8275SOL    HW136284   4.476   0.987   5.318  1.6868 -0.2843 -1.7589
 8275SOL    HW236285   4.395   0.867   5.335 -0.0511  1.2447  1.4018
 8276SOL     OW36286   1.761   3.610   4.943  0.1258 -0.0990 -0.1882
 8276SOL    HW136287   1.745   3.618   4.849 -2.9210  1.4175  0.4915
 8276SOL    HW236288   1.696   3.663   4.988  1.5630 -0.8459  2.8001
 8277SOL     OW36289   1.333   2.638   4.255 -0.3587 -0.3538 -0.1291
 8277SOL    HW136290   1.328   2.545   4.279 -0.6625 -0.7801 -1.8762
 8277SOL    HW236291   1.410   2.635   4.197  0.3654  0.2823  0.7995
 8278SOL     OW36292   0.838   1.452   5.131  0.3250  0.1047 -0.9567
 8278SOL    HW136293   0.829   1.379   5.070  0.7174  0.5577 -1.5606
 8278SOL    HW236294   0.843   1.524   5.068  0.8173  3.1699  2.5936
 8279SOL     OW36295   2.014   0.844   6.056  0.4914 -0.7570 -0.1130
 8279SOL    HW136296   1.969   0.760   6.061 -0.5039 -0.2784 -1.0154
 8279SOL    HW236297   1.950   0.910   6.031  2.1290  0.4995 -0.9827
 8280SOL     OW36298   1.528   3.826   5.641 -0.0426 -0.1571 -0.3622
 8280SOL    HW136299   1.449   3.826   5.695  0.5284 -0.3871  0.4779
 8280SOL    HW236300   1.600   3.802   5.700 -0.2086  1.0677  0.3422
 8281SOL     OW36301   2.440   3.216   3.929 -0.4101 -0.3095  0.3630
 8281SOL    HW136302   2.433   3.230   4.024 -3.2192 -0.4485  0.1592
 8281SOL    HW236303   2.360   3.259   3.900 -0.5672  0.1796  1.4833
 8282SOL     OW36304   4.691   2.723   8.748 -0.1204 -0.4948  0.2802
 8282SOL    HW136305   4.630   2.661   8.706  0.8086  0.1085 -1.9467
 8282SOL    HW236306   0.013   2.677   8.816  0.3032 -1.0100 -0.3777
 8283SOL     OW36307   3.457   0.872   5.835  0.3323  0.0159 -0.2348
 8283SOL    HW136308   3.492   0.869   5.924 -0.8717 -0.7764  0.2138
 8283SOL    HW236309   3.541   0.865   5.789  0.6473 -0.2264  0.3842
 8284SOL     OW36310   0.174   2.251   8.732 -0.0654 -0.3681 -0.3276
 8284SOL    HW136311   0.136   2.291   8.654 -0.5844  0.1933  0.2093
 8284SOL    HW236312   0.230   2.186   8.689  0.2636  0.3786 -1.0399
 8285SOL     OW36313   4.363   2.819   8.615 -0.2541 -0.2304 -0.1073
 8285SOL    HW136314   4.354   2.793   8.707  2.2258 -0.7124 -0.0099
 8285SOL    HW236315   4.388   2.910   8.627  0.8312 -0.3957 -1.1891
 8286SOL     OW36316   0.021   0.505   6.291 -0.1430 -0.2312  0.0368
 8286SOL    HW136317   0.091   0.450   6.328 -0.3430 -0.3318  0.2680
 8286SOL    HW236318   4.676   0.442   6.291 -0.0345 -0.3579  0.8100
 8287SOL     OW36319   2.234   4.246   2.902  0.4137 -0.2612 -0.4069
 8287SOL    HW136320   2.317   4.198   2.901  0.1696 -0.7083  0.6809
 8287SOL    HW236321   2.266   4.336   2.910  2.3103 -0.9149 -0.7430
 8288SOL     OW36322   4.235   3.552   5.472  0.0459  0.0392  0.3242
 8288SOL    HW136323   4.296   3.545   5.546 -0.0197  0.4565  0.4187
 8288SOL    HW236324   4.253   3.643   5.448  0.0697 -0.0969 -0.1739
 8289SOL     OW36325   0.992   2.471   7.488  0.6226 -0.0644  0.1436
 8289SOL    HW136326   1.031   2.416   7.556 -2.8808 -0.7433  1.6385
 8289SOL    HW236327   1.012   2.410   7.418 -0.4376 -0.3366  0.0772
 8290SOL     OW36328   2.895   2.398   2.060 -0.2227  0.1989  0.4933
 8290SOL    HW136329   2.948   2.325   2.090 -1.3703 -0.8590 -0.0289
 8290SOL    HW236330   2.945   2.436   1.988 -0.1579 -1.5539 -0.3916
 8291SOL     OW36331   2.018   1.835   1.767  0.5170 -0.1964  0.1662
 8291SOL    HW136332   2.101   1.800   1.799  0.4861 -1.2515 -0.9113
 8291SOL    HW236333   2.005   1.785   1.686  0.4016  1.2061 -0.6709
 8292SOL     OW36334   2.537   0.568   6.879  0.3894  0.0238  0.5305
 8292SOL    HW136335   2.587   0.497   6.920 -2.1049 -1.3375  1.1545
 8292SOL    HW236336   2.453   0.537   6.911 -0.3944  0.7644 -0.8305
 8293SOL     OW36337   3.558   0.005  16.576 -0.4751  0.0580 -0.4373
 8293SOL    HW136338   3.565   0.078  16.515 -4.4065  1.0600  0.3095
 8293SOL    HW236339   3.547   0.045  16.663 -0.1951  3.8761 -2.1764
 8294SOL     OW36340   1.790   1.084   6.213  0.4944  0.5044 -0.3727
 8294SOL    HW136341   1.877   1.052   6.239  0.9730  0.0263 -2.5224
 8294SOL    HW236342   1.797   1.065   6.120  1.5463 -0.4486 -0.1065
 8295SOL     OW36343   0.842   2.315   3.997  0.0398  0.1773  0.1567
 8295SOL    HW136344   0.822   2.408   3.996  3.1637  0.8323 -0.2986
 8295SOL    HW236345   0.806   2.282   3.914 -0.0923  2.3716 -0.6519
 8296SOL     OW36346   0.993   3.891   2.002  0.0238 -0.2139 -0.4898
 8296SOL    HW136347   0.997   3.859   1.912  2.2228 -0.4726 -0.3123
 8296SOL    HW236348   0.953   3.978   1.994 -0.9865 -0.6009  0.3618
 8297SOL     OW36349   0.846   3.193   4.122  0.3466  0.3597 -0.0280
 8297SOL    HW136350   0.925   3.191   4.069  0.4115  0.6056  0.0601
 8297SOL    HW236351   0.874   3.115   4.171 -1.7169 -0.7819 -0.6500
 8298SOL     OW36352   0.929   1.216  12.881 -0.3734  0.1960  0.2445
 8298SOL    HW136353   0.880   1.161  12.820  2.5306 -2.2938  0.1831
 8298SOL    HW236354   0.965   1.146  12.934  0.7814 -1.4218 -2.6977
 8299SOL     OW36355   2.323   3.279  15.627 -0.1818 -0.2641  0.4562
 8299SOL    HW136356   2.359   3.356  15.584 -1.7061 -1.1419 -2.3900
 8299SOL    HW236357   2.228   3.295  15.627 -0.5327 -2.3600  0.0411
 8300SOL     OW36358   2.989   2.329   1.173 -0.0959 -0.2414 -0.6954
 8300SOL    HW136359   3.079   2.361   1.180 -1.1668  2.4546  0.6844
 8300SOL    HW236360   2.994   2.298   1.082  3.0870  0.5478 -0.7983
 8301SOL     OW36361   1.516   3.895  16.443 -0.1259  0.3166 -0.9996
 8301SOL    HW136362   1.509   3.807  16.479 -1.3487  0.9577  0.2936
 8301SOL    HW236363   1.423   3.913  16.455 -0.5895 -3.1457  0.5241
 8302SOL     OW36364   1.543   3.095   1.579  0.2235 -0.0748  0.3450
 8302SOL    HW136365   1.595   3.025   1.617  2.4712  1.4571  0.1050
 8302SOL    HW236366   1.481   3.111   1.650 -0.1055  1.5285 -0.2798
 8303SOL     OW36367   0.159   4.161   4.678  0.2014  0.0999  0.0037
 8303SOL    HW136368   0.156   4.207   4.594  1.2476  0.2758  0.0659
 8303SOL    HW236369   0.115   4.227   4.731 -0.5610  0.6194 -1.2671
 8304SOL     OW36370   3.140   0.733   5.234 -0.6336 -0.0113  0.0881
 8304SOL    HW136371   3.111   0.685   5.311 -0.4837  0.2363  0.2994
 8304SOL    HW236372   3.061   0.757   5.186 -1.0720 -1.6390 -0.0117
 8305SOL     OW36373   4.344   2.657   0.611 -0.4612 -0.4208  0.2836
 8305SOL    HW136374   4.313   2.744   0.584  2.6196  0.5896 -0.0168
 8305SOL    HW236375   4.390   2.624   0.534 -0.8098  1.7445 -0.8661
 8306SOL     OW36376   1.819   0.354   8.016 -0.0839  0.1503  0.2748
 8306SOL    HW136377   1.827   0.438   7.970 -1.7889  0.6406  0.8988
 8306SOL    HW236378   1.903   0.312   7.998  0.5053  1.0626  0.9070
 8307SOL     OW36379   4.504   4.560   6.341  0.2049  0.1509  0.2665
 8307SOL    HW136380   4.509   4.598   6.253  0.4264 -2.0847 -0.6977
 8307SOL    HW236381   4.434   4.496   6.339  0.7576 -0.4554  0.0570
 8308SOL     OW36382   2.369   3.376   4.615  0.2446 -0.8940 -0.4664
 8308SOL    HW136383   2.382   3.414   4.701  1.2181 -1.1026 -0.5176
 8308SOL    HW236384   2.313   3.441   4.571 -0.2312 -1.4679 -0.7157
 8309SOL     OW36385   0.967   0.404   5.574  0.6233 -0.8999  0.0192
 8309SOL    HW136386   1.002   0.449   5.496  0.9451 -0.9869  0.1126
 8309SOL    HW236387   1.041   0.419   5.633 -0.3608  1.5686  0.6280
 8310SOL     OW36388   2.283   3.282   2.185 -0.0426  0.1850 -0.1700
 8310SOL    HW136389   2.204   3.239   2.152  0.3674 -0.1797 -0.6960
 8310SOL    HW236390   2.274   3.282   2.280 -0.3415  2.5784 -0.2191
 8311SOL     OW36391   3.863   1.984   3.151  0.0485  0.2011  0.2620
 8311SOL    HW136392   3.899   1.897   3.130 -1.6689 -0.2362 -0.8533
 8311SOL    HW236393   3.880   2.029   3.069 -0.2528 -0.7453 -0.3277
 8312SOL     OW36394   2.286   2.430   3.322 -0.0400 -0.4941 -0.2180
 8312SOL    HW136395   2.300   2.506   3.265  0.9710  0.3013  1.0891
 8312SOL    HW236396   2.250   2.473   3.400 -0.2129  1.8355 -1.5724
 8313SOL     OW36397   0.032   1.431   7.335 -0.2967 -0.4263 -0.5381
 8313SOL    HW136398   4.726   1.344   7.357 -1.9263  0.0175 -1.1913
 8313SOL    HW236399   4.682   1.476   7.371  1.6001  1.0531  1.6294
 8314SOL     OW36400   2.504   3.027  10.412  0.2681 -0.7381 -0.0622
 8314SOL    HW136401   2.572   3.019  10.479  0.3865  0.6267 -0.0211
 8314SOL    HW236402   2.558   3.038  10.334  3.0138 -1.2381  1.7578
 8315SOL     OW36403   1.289   0.888   4.948 -0.0116  0.3763 -0.2232
 8315SOL    HW136404   1.194   0.899   4.946  0.0658  0.9488 -0.6301
 8315SOL    HW236405   1.311   0.936   5.027  0.8037  1.1430 -0.9265
 8316SOL     OW36406   4.217   0.921   3.505  0.5489 -0.0629 -0.1214
 8316SOL    HW136407   4.234   0.842   3.454 -0.7095 -1.1180  1.1028
 8316SOL    HW236408   4.141   0.952   3.455 -2.2881 -2.8945  2.5025
 8317SOL     OW36409   2.781   1.236   5.009 -0.0177  0.1988  0.6445
 8317SOL    HW136410   2.822   1.268   4.930  0.7494  0.9594  1.3543
 8317SOL    HW236411   2.834   1.284   5.072  0.2230 -0.8493  1.2464
 8318SOL     OW36412   3.335   4.151  17.021 -0.3460 -0.4307 -0.7765
 8318SOL    HW136413   3.266   4.144  16.955 -1.7896  0.4978  0.6491
 8318SOL    HW236414   3.344   4.063  17.059 -0.4265  1.4782  3.6151
 8319SOL     OW36415   0.059   3.036  12.313 -0.6005 -0.1224  1.1236
 8319SOL    HW136416   0.153   3.045  12.300 -1.1625  0.8897 -2.2172
 8319SOL    HW236417   0.026   3.126  12.307  3.1083  1.2821  2.1648
 8320SOL     OW36418   2.305   2.944  13.874  0.3854  0.3181  0.3601
 8320SOL    HW136419   2.233   2.925  13.934 -1.2490  1.1562 -1.3171
 8320SOL    HW236420   2.335   2.854  13.860  0.2667  0.1440  1.2467
 8321SOL     OW36421   2.348   3.288   9.256 -0.0203 -0.4654  0.3328
 8321SOL    HW136422   2.365   3.199   9.288 -1.1583 -1.3620 -1.5393
 8321SOL    HW236423   2.289   3.319   9.325 -0.4287  0.0259 -0.2441
 8322SOL     OW36424   0.877   1.828   6.049 -0.1677  0.0049 -0.4400
 8322SOL    HW136425   0.809   1.762   6.067 -1.3386  1.4707  0.5450
 8322SOL    HW236426   0.823   1.891   6.002 -0.5195 -1.1636 -1.6003
 8323SOL     OW36427   1.407   3.620  14.166  0.4068 -0.4713  0.3496
 8323SOL    HW136428   1.359   3.645  14.244  0.3374 -0.5029  0.3168
 8323SOL    HW236429   1.476   3.687  14.169 -1.7901  1.8521 -0.9329
 8324SOL     OW36430   2.745   3.282  11.498  0.5084 -0.0753  0.3318
 8324SOL    HW136431   2.684   3.209  11.505 -2.1901  2.1135 -0.2339
 8324SOL    HW236432   2.820   3.242  11.543  2.4224  0.7279 -2.0811
 8325SOL     OW36433   1.142   3.360   3.383  0.1318  0.2158  0.0681
 8325SOL    HW136434   1.119   3.274   3.347 -2.2670  1.0947 -0.4898
 8325SOL    HW236435   1.109   3.343   3.472 -1.2581  0.9083 -0.3126
 8326SOL     OW36436   4.152   4.199  16.885 -0.2476  0.3406 -0.2401
 8326SOL    HW136437   4.223   4.173  16.943 -1.1629  3.1141  2.0884
 8326SOL    HW236438   4.193   4.283  16.864 -0.4048  0.0535 -1.7454
 8327SOL     OW36439   3.889   4.601   5.417  0.1787 -0.4783  0.0750
 8327SOL    HW136440   3.933   4.630   5.337 -1.5406  1.0360 -0.3330
 8327SOL    HW236441   3.821   4.541   5.388 -1.0465  1.4510 -1.0893
 8328SOL     OW36442   4.420   0.015   6.097  0.0042  0.7386 -0.1884
 8328SOL    HW136443   4.456   4.674   6.040  0.7132  1.0897 -0.1552
 8328SOL    HW236444   4.478   0.088   6.076  0.9969 -0.2906 -1.0375
 8329SOL     OW36445   1.819   2.375   4.928 -0.0572 -0.0315  0.0443
 8329SOL    HW136446   1.787   2.375   4.837  1.6466  1.8021 -0.5654
 8329SOL    HW236447   1.819   2.468   4.948  0.1690 -0.0021 -0.0947
 8330SOL     OW36448   0.858   2.673   7.665  0.7613  0.3351  0.1981
 8330SOL    HW136449   0.851   2.707   7.755  2.9417 -1.1781  0.9470
 8330SOL    HW236450   0.836   2.580   7.669  0.3415  0.4200 -0.1872
 8331SOL     OW36451   0.074   4.256   7.862 -0.6416 -0.2567  0.5171
 8331SOL    HW136452   4.718   4.263   7.910  0.2140 -0.2983  1.9841
 8331SOL    HW236453   0.046   4.251   7.770  1.7276 -1.5047 -0.1396
 8332SOL     OW36454   1.878   3.112   2.797  0.1343 -0.6104  0.1200
 8332SOL    HW136455   1.784   3.103   2.814 -0.1342 -1.5077 -1.7694
 8332SOL    HW236456   1.913   3.110   2.886  3.1893  0.5371 -1.0766
 8333SOL     OW36457   3.760   0.176   2.234 -0.0535 -0.5380 -0.1658
 8333SOL    HW136458   3.778   0.097   2.183  3.6763 -0.9617  1.7995
 8333SOL    HW236459   3.734   0.236   2.163 -1.4319 -0.5379  0.3560
 8334SOL     OW36460   3.555   1.318   2.913 -0.3853  0.0054 -0.1953
 8334SOL    HW136461   3.551   1.351   3.002 -0.5617  2.0669 -0.9634
 8334SOL    HW236462   3.632   1.261   2.912 -0.1386  0.2926  2.5053
 8335SOL     OW36463   3.380   2.792   6.561 -0.5185 -0.0837  0.0325
 8335SOL    HW136464   3.367   2.875   6.607  2.5032 -0.7248  2.0613
 8335SOL    HW236465   3.453   2.753   6.610  0.4491  1.4347 -0.1918
 8336SOL     OW36466   1.207   2.069  11.333 -0.1550 -0.1529  0.0694
 8336SOL    HW136467   1.124   2.032  11.364 -0.0073  1.4009  2.3031
 8336SOL    HW236468   1.190   2.161  11.355 -2.4470 -0.4157 -0.5384
 8337SOL     OW36469   2.962   3.201   2.127 -0.5989 -0.1627 -0.4858
 8337SOL    HW136470   2.936   3.230   2.214  0.0031  3.6306 -1.5775
 8337SOL    HW236471   3.052   3.229   2.142 -0.5354 -0.4932 -0.2582
 8338SOL     OW36472   3.209   1.821   6.884 -0.0603  0.4745 -0.1857
 8338SOL    HW136473   3.304   1.826   6.897 -0.0542  0.7702 -0.3379
 8338SOL    HW236474   3.202   1.726   6.872  0.7609  0.2332  1.1882
 8339SOL     OW36475   3.695   2.374   5.759 -0.1866 -0.1140 -0.2305
 8339SOL    HW136476   3.641   2.375   5.838 -0.0369 -1.3740 -0.1046
 8339SOL    HW236477   3.727   2.284   5.756  0.7256  0.1732  0.7678
 8340SOL     OW36478   1.904   3.778  11.137 -0.4005  0.4145 -0.2142
 8340SOL    HW136479   1.818   3.771  11.094 -0.6973  3.4262 -0.0973
 8340SOL    HW236480   1.900   3.740  11.225  0.8099  2.7127  0.8239
 8341SOL     OW36481   1.293   2.068   4.106 -0.2918 -0.1674  0.1378
 8341SOL    HW136482   1.333   1.981   4.104 -0.3236 -0.1838  0.2106
 8341SOL    HW236483   1.202   2.037   4.101 -0.3524  0.1114 -0.4211
 8342SOL     OW36484   2.827   1.222   7.276  1.0757 -0.0371  0.1577
 8342SOL    HW136485   2.837   1.287   7.345  0.6262  0.2018 -0.0001
 8342SOL    HW236486   2.738   1.192   7.293  0.4818  1.5632 -0.0976
 8343SOL     OW36487   4.086   2.899   5.725  0.3269  0.4056 -0.2750
 8343SOL    HW136488   4.083   2.995   5.723 -1.5542  0.3798  1.0763
 8343SOL    HW236489   4.162   2.881   5.670 -0.2070 -2.0016 -0.2095
 8344SOL     OW36490   3.653   0.496  16.459  0.3873 -0.4451 -0.0168
 8344SOL    HW136491   3.592   0.475  16.530 -1.5875  0.3879 -1.4509
 8344SOL    HW236492   3.705   0.562  16.504 -0.2902  2.0684 -2.8971
 8345SOL     OW36493   1.392   3.669   0.207 -0.1700  0.3624  0.1357
 8345SOL    HW136494   1.430   3.599   0.155 -2.2268 -0.4780 -0.2165
 8345SOL    HW236495   1.353   3.732   0.146  0.3055 -2.0500 -2.6429
 8346SOL     OW36496   4.699   3.933   6.104  0.1962 -0.0861  0.0824
 8346SOL    HW136497   4.670   3.851   6.064 -2.5307  0.2583  1.3411
 8346SOL    HW236498   4.637   3.989   6.059 -0.3659  0.4113  1.4891
 8347SOL     OW36499   1.879   1.886   7.892  0.0381  0.8569 -0.0467
 8347SOL    HW136500   1.861   1.971   7.852 -0.6757  1.4430  1.5080
 8347SOL    HW236501   1.933   1.846   7.824 -1.6964 -1.1364 -0.2584
 8348SOL     OW36502   3.462   0.678  13.642  0.5635  0.4381  0.2483
 8348SOL    HW136503   3.535   0.671  13.581 -1.2048  1.3714 -1.9936
 8348SOL    HW236504   3.488   0.610  13.704  1.7843  2.4794  1.9571
 8349SOL     OW36505   2.851   4.011  14.821 -0.2097 -0.9759 -0.3720
 8349SOL    HW136506   2.932   4.047  14.784 -0.9909  2.4709  1.2355
 8349SOL    HW236507   2.789   4.028  14.750 -1.2524  1.3139  1.0688
 8350SOL     OW36508   3.789   1.179   9.211 -0.3758  0.1043 -0.6517
 8350SOL    HW136509   3.764   1.095   9.249  2.3355 -0.2173  0.4008
 8350SOL    HW236510   3.765   1.239   9.281 -1.1641 -1.5816  0.5111
 8351SOL     OW36511   1.643   4.687  11.662  0.7818  0.0299  0.0974
 8351SOL    HW136512   1.570   4.636  11.627 -1.6596  2.8780  1.0320
 8351SOL    HW236513   1.670   4.630  11.734  0.6564 -0.2004 -0.0418
 8352SOL     OW36514   0.042   0.494   8.351 -0.1036  0.4242  0.2216
 8352SOL    HW136515   0.126   0.453   8.329 -0.5968 -0.5166  0.0788
 8352SOL    HW236516   4.711   0.435   8.303  1.9470  1.5324 -3.5983
 8353SOL     OW36517   2.317   1.797   1.935  0.0087  0.3791 -0.2619
 8353SOL    HW136518   2.376   1.872   1.944 -0.2086  0.4312  0.6672
 8353SOL    HW236519   2.360   1.736   1.875  1.3175  1.2157 -0.1851
 8354SOL     OW36520   3.228   1.958   7.946 -0.4516 -0.0035  0.8928
 8354SOL    HW136521   3.134   1.941   7.958 -0.6845 -0.4779 -1.6931
 8354SOL    HW236522   3.239   2.034   8.004  0.9478  0.3133  0.2144
 8355SOL     OW36523   0.724   4.259   4.430  0.3441  0.5454 -0.2375
 8355SOL    HW136524   0.636   4.222   4.437  0.5586  0.4323  1.8704
 8355SOL    HW236525   0.776   4.179   4.442 -1.3476 -0.5246 -0.1245
 8356SOL     OW36526   0.992   2.625   2.531  0.0956 -0.4686  0.4740
 8356SOL    HW136527   0.952   2.711   2.542 -1.5308 -1.0312 -0.9916
 8356SOL    HW236528   0.913   2.570   2.531 -0.3156  0.1080 -1.5115
 8357SOL     OW36529   4.571   2.141   0.312  0.2908  0.0663 -0.2051
 8357SOL    HW136530   4.541   2.157   0.401  2.1041 -0.1774  0.4552
 8357SOL    HW236531   4.518   2.063   0.292 -0.3852  0.6284 -0.5751
 8358SOL     OW36532   0.209   0.148   7.400 -0.3071  0.1085  0.0176
 8358SOL    HW136533   0.219   0.054   7.385  0.8988  0.0643  1.0436
 8358SOL    HW236534   0.298   0.166   7.431 -0.1334  2.4267 -1.7936
 8359SOL     OW36535   1.449   1.216   6.094 -0.3414  0.7339  0.0682
 8359SOL    HW136536   1.514   1.269   6.046 -2.2744  1.2668 -1.9534
 8359SOL    HW236537   1.493   1.198   6.177  1.5145  1.3482 -0.7740
 8360SOL     OW36538   4.669   2.252   2.641 -0.0695  0.2864  0.0339
 8360SOL    HW136539   4.610   2.243   2.715 -1.6043  0.2849 -1.1982
 8360SOL    HW236540   4.691   2.346   2.634  1.9743 -0.2368 -0.7222
 8361SOL     OW36541   4.106   2.456   9.752  0.1208  0.3624 -0.1144
 8361SOL    HW136542   4.200   2.446   9.764  0.4367  0.7907 -2.3251
 8361SOL    HW236543   4.092   2.511   9.829 -0.1607  0.0971  0.0235
 8362SOL     OW36544   0.602   0.607   2.832  0.1503  0.6340 -0.3185
 8362SOL    HW136545   0.685   0.617   2.786  1.3072 -0.8922  1.4826
 8362SOL    HW236546   0.556   0.685   2.801 -0.6619  0.2315 -0.1265
 8363SOL     OW36547   1.317   1.054   0.133  0.0031  0.1020 -0.1765
 8363SOL    HW136548   1.355   0.980   0.086 -1.0633 -0.6695  0.1920
 8363SOL    HW236549   1.393   1.068   0.189 -1.7976  1.4173  1.9751
 8364SOL     OW36550   0.775   3.833   5.708  0.0778 -0.2823 -0.5245
 8364SOL    HW136551   0.756   3.764   5.645  0.4460  2.7848 -3.9872
 8364SOL    HW236552   0.739   3.803   5.792 -2.1433 -0.0134 -1.3930
 8365SOL     OW36553   3.234   1.444   8.216 -0.0745  0.4982  0.8339
 8365SOL    HW136554   3.189   1.503   8.277 -1.2904  1.0117 -0.5692
 8365SOL    HW236555   3.312   1.497   8.198 -1.6209  2.6031  0.2749
 8366SOL     OW36556   0.736   0.523  13.975 -0.8936  0.0246 -0.0099
 8366SOL    HW136557   0.677   0.593  14.005 -1.6359 -0.5680 -0.0859
 8366SOL    HW236558   0.802   0.580  13.935 -0.0037 -0.4358  0.8318
 8367SOL     OW36559   3.232   0.133  15.599 -0.5412  0.1623 -0.2114
 8367SOL    HW136560   3.283   0.055  15.623 -1.7047  1.3384  5.9504
 8367SOL    HW236561   3.301   0.194  15.575  2.1801 -1.9219  2.2489
 8368SOL     OW36562   1.781   1.341  17.051  0.2177  0.6714  0.5475
 8368SOL    HW136563   1.732   1.409  17.004 -1.9676  0.4126  2.4406
 8368SOL    HW236564   1.781   1.379  17.138  0.4765 -3.0197  2.1617
 8369SOL     OW36565   2.258   2.089   8.421 -0.4818  0.7200  0.3212
 8369SOL    HW136566   2.222   2.081   8.333  0.5042  0.2206 -0.0334
 8369SOL    HW236567   2.181   2.066   8.474 -0.3812  0.0291  0.1621
 8370SOL     OW36568   1.178   3.993  15.576  0.5877 -0.3576  0.1286
 8370SOL    HW136569   1.162   3.976  15.669  1.7476 -0.2435  0.3483
 8370SOL    HW236570   1.101   4.049  15.564  1.5954  0.8361 -0.8113
 8371SOL     OW36571   1.327   3.634   2.266 -0.1061  0.2529  0.4549
 8371SOL    HW136572   1.238   3.671   2.263 -0.0417  0.2988 -1.1426
 8371SOL    HW236573   1.379   3.714   2.272  1.2329 -0.6110  0.1366
 8372SOL     OW36574   2.626   3.534  17.379  0.5016  0.0409  0.0103
 8372SOL    HW136575   2.643   3.463  17.441  2.3937 -0.6173 -1.2872
 8372SOL    HW236576   2.701   3.590  17.399 -0.9106  2.4524 -1.4624
 8373SOL     OW36577   0.679   0.980  13.835  0.1912 -0.6888  0.4637
 8373SOL    HW136578   0.712   1.046  13.896  0.5904 -0.9951  0.5811
 8373SOL    HW236579   0.686   1.009  13.744 -2.4984 -0.0188  0.4893
 8374SOL     OW36580   1.443   1.362   5.631  0.7684  0.5382 -0.1727
 8374SOL    HW136581   1.436   1.279   5.679 -2.6514  0.1544 -1.3219
 8374SOL    HW236582   1.449   1.420   5.706  0.4534 -0.9102  0.9794
 8375SOL     OW36583   1.300   3.263   3.722 -0.1751  0.1494 -0.4026
 8375SOL    HW136584   1.375   3.322   3.726 -0.8868  1.0255  0.0473
 8375SOL    HW236585   1.324   3.185   3.773 -1.5113  0.5984  0.9162
 8376SOL     OW36586   3.961   0.620   5.048  0.4989 -0.1980  0.0528
 8376SOL    HW136587   3.943   0.688   4.984 -3.8138  1.2416  2.7998
 8376SOL    HW236588   4.002   0.553   4.993  0.4818 -0.5126  0.4229
 8377SOL     OW36589   1.499   0.114  11.867  0.3382 -0.3392 -0.2230
 8377SOL    HW136590   1.539   0.085  11.949  4.4175 -0.7938 -2.3227
 8377SOL    HW236591   1.571   0.123  11.803  0.5334  1.9513  0.3204
 8378SOL     OW36592   4.265   0.878   8.986  0.6925 -0.3752  0.3803
 8378SOL    HW136593   4.277   0.906   9.077 -1.3797 -1.4089  0.9679
 8378SOL    HW236594   4.224   0.792   8.995 -0.1299 -0.0767 -0.6406
 8379SOL     OW36595   1.978   4.392  10.706  0.0293 -0.0502  0.0352
 8379SOL    HW136596   1.883   4.383  10.697  0.0328 -1.2919  1.3094
 8379SOL    HW236597   2.004   4.443  10.629  1.0780  0.6122  0.8248
 8380SOL     OW36598   3.560   4.053  10.107 -0.0025 -0.0006  0.5370
 8380SOL    HW136599   3.578   4.147  10.106 -0.9076  0.1980  2.9784
 8380SOL    HW236600   3.493   4.055  10.175  1.2281  2.5130  1.6685
 8381SOL     OW36601   0.898   0.323  11.637  0.3367  0.0825  0.2358
 8381SOL    HW136602   0.948   0.364  11.567 -0.8154 -1.3937 -1.4375
 8381SOL    HW236603   0.947   0.244  11.662  1.5243  0.3834 -1.1222
 8382SOL     OW36604   2.640   3.450   9.859 -0.7848  0.0684 -0.2161
 8382SOL    HW136605   2.668   3.427   9.770  2.0925 -0.1742  0.7578
 8382SOL    HW236606   2.672   3.541   9.859  0.9466 -0.5452  1.8325
 8383SOL     OW36607   1.843   0.265  16.602 -0.2120  0.2977  0.8982
 8383SOL    HW136608   1.843   0.169  16.594  0.2659  0.3252  0.6039
 8383SOL    HW236609   1.874   0.275  16.692  0.7825  2.4774  0.3187
 8384SOL     OW36610   2.118   3.078  17.485  0.2564 -0.2574 -0.2390
 8384SOL    HW136611   2.122   3.085  17.581  0.4423  0.3149 -0.2880
 8384SOL    HW236612   2.202   3.108  17.449 -0.0133  3.2024  2.0223
 8385SOL     OW36613   1.078   3.465   5.113  0.5296  0.0472 -0.3685
 8385SOL    HW136614   1.063   3.412   5.034 -1.2700  0.8664 -0.5677
 8385SOL    HW236615   1.087   3.550   5.069  2.0312 -0.3026 -0.7512
 8386SOL     OW36616   2.998   1.126   8.569  0.0050  0.3522  0.1471
 8386SOL    HW136617   2.920   1.117   8.515 -0.7650 -0.8221  1.4626
 8386SOL    HW236618   2.955   1.184   8.632 -0.1998  1.6459 -1.1662
 8387SOL     OW36619   2.310   3.264  11.488  0.4208 -0.4545  0.3935
 8387SOL    HW136620   2.341   3.339  11.539  2.3715 -0.3021 -1.0468
 8387SOL    HW236621   2.277   3.299  11.405 -1.2515  0.5440  1.4688
 8388SOL     OW36622   2.637   4.627   2.550 -0.2615  0.1943 -0.2466
 8388SOL    HW136623   2.579   4.700   2.572 -2.1244 -1.4315  0.2863
 8388SOL    HW236624   2.712   4.682   2.530 -1.4477  0.6793 -3.3153
 8389SOL     OW36625   0.256   1.501  17.154 -0.0819  0.0721 -0.1182
 8389SOL    HW136626   0.304   1.559  17.095 -0.1131 -0.6534 -0.8500
 8389SOL    HW236627   0.168   1.497  17.115 -0.1005 -1.1189  0.0552
 8390SOL     OW36628   1.182   3.673  16.156 -0.1483 -0.6219  0.1069
 8390SOL    HW136629   1.178   3.767  16.173 -2.2654 -0.2381 -2.5067
 8390SOL    HW236630   1.093   3.659  16.124 -0.8571 -0.1240  1.8662
 8391SOL     OW36631   2.236   3.009   5.679 -0.0912  0.0607  0.4446
 8391SOL    HW136632   2.263   3.069   5.749  1.7654 -2.5082  1.9127
 8391SOL    HW236633   2.311   2.952   5.666  0.6434  0.9850  0.6196
 8392SOL     OW36634   0.577   0.200   6.913 -0.1102  0.7126 -0.3032
 8392SOL    HW136635   0.658   0.245   6.932  0.4116 -0.3736  0.0747
 8392SOL    HW236636   0.596   0.116   6.956 -0.5933  0.5152 -0.4688
 8393SOL     OW36637   0.607   4.078   7.905 -0.4678  0.5163 -0.5296
 8393SOL    HW136638   0.697   4.110   7.908 -1.0171  2.0587 -0.0273
 8393SOL    HW236639   0.566   4.123   7.980  0.8495  0.8174  0.0072
 8394SOL     OW36640   4.382   0.199  17.479  0.5099 -0.1825 -0.1372
 8394SOL    HW136641   4.350   0.153  17.401  0.3716  0.3980 -0.4203
 8394SOL    HW236642   4.365   0.139  17.552  0.8671  1.7280  1.5107
 8395SOL     OW36643   3.341   0.866   1.550  0.4237 -0.2998 -0.4026
 8395SOL    HW136644   3.430   0.843   1.521  0.7743 -1.3969  1.5441
 8395SOL    HW236645   3.311   0.922   1.479 -2.0889 -0.9697  0.1239
 8396SOL     OW36646   2.100   3.305  17.037  0.2581 -0.5598  0.0652
 8396SOL    HW136647   2.178   3.254  17.058 -0.4562 -1.7096 -0.1413
 8396SOL    HW236648   2.120   3.372  16.972  0.3482 -0.7982 -0.1505
 8397SOL     OW36649   3.793   0.749   1.724 -0.0024  0.2905 -0.3404
 8397SOL    HW136650   3.790   0.822   1.786  2.0158  0.1111 -0.0607
 8397SOL    HW236651   3.776   0.671   1.777 -0.9134  0.2337 -0.7029
 8398SOL     OW36652   1.132   1.743   7.586 -0.0092  0.3537 -0.3255
 8398SOL    HW136653   1.049   1.721   7.544 -0.0668 -0.3890  0.1779
 8398SOL    HW236654   1.133   1.687   7.663  2.2784  0.1710 -0.4854
 8399SOL     OW36655   2.298   2.240  15.383 -0.2709  0.1208  0.1298
 8399SOL    HW136656   2.247   2.294  15.323 -0.0779 -0.6561 -0.7264
 8399SOL    HW236657   2.385   2.243  15.343  0.2604  1.5554  1.4212
 8400SOL     OW36658   1.288   0.865   4.199 -0.2464  0.3713 -0.4107
 8400SOL    HW136659   1.338   0.914   4.134 -0.1382  1.5238  0.5466
 8400SOL    HW236660   1.248   0.805   4.136  0.9115  0.2873 -1.0678
 8401SOL     OW36661   3.034   4.409   1.765 -0.3251  0.2016 -0.3925
 8401SOL    HW136662   3.109   4.414   1.707 -0.9741 -1.5636 -1.3822
 8401SOL    HW236663   3.003   4.500   1.774 -1.7859 -0.3399  0.0568
 8402SOL     OW36664   2.922   2.365  11.254  0.4922 -0.5384 -0.6110
 8402SOL    HW136665   2.890   2.278  11.228 -1.7244 -0.1897  0.9813
 8402SOL    HW236666   3.014   2.359  11.228  1.0480  2.4533  0.6951
 8403SOL     OW36667   4.314   1.770  16.850 -0.1116  0.1823 -0.3641
 8403SOL    HW136668   4.318   1.687  16.804 -2.5546 -0.4153  0.4683
 8403SOL    HW236669   4.223   1.766  16.882 -0.5269 -2.0052 -1.8554
 8404SOL     OW36670   3.439   3.441   2.142  0.2117  0.5350  0.5075
 8404SOL    HW136671   3.521   3.392   2.133 -0.2407  0.1403 -1.3196
 8404SOL    HW236672   3.457   3.493   2.221  1.4176 -0.3010  0.7845
 8405SOL     OW36673   2.765   3.719   3.583  0.0078  0.7006  0.1422
 8405SOL    HW136674   2.706   3.790   3.559 -2.3543 -1.4904 -0.5109
 8405SOL    HW236675   2.850   3.740   3.544  0.4798 -1.6168 -0.1036
 8406SOL     OW36676   1.216   3.575  14.375 -0.6665  0.1415  0.6311
 8406SOL    HW136677   1.149   3.571  14.307 -0.2358  0.0181  0.2138
 8406SOL    HW236678   1.222   3.486  14.408 -2.9000 -0.4662 -0.6429
 8407SOL     OW36679   3.646   0.470   5.746  0.4444 -0.0925 -0.1366
 8407SOL    HW136680   3.686   0.432   5.668 -0.2323 -0.5920 -0.2356
 8407SOL    HW236681   3.581   0.402   5.761  0.7586 -0.6570 -1.3607
 8408SOL     OW36682   0.843   2.240  14.967 -0.2010  0.4671 -0.3392
 8408SOL    HW136683   0.908   2.309  14.982 -1.2318  1.3372  0.1115
 8408SOL    HW236684   0.855   2.178  15.039 -0.1046  0.4527 -0.3675
 8409SOL     OW36685   1.314   2.930   9.343 -0.1212 -0.0194 -0.2967
 8409SOL    HW136686   1.225   2.900   9.324 -0.1134 -0.0918 -0.2192
 8409SOL    HW236687   1.301   2.965   9.432  0.7053  1.6690 -0.8355
 8410SOL     OW36688   4.420   4.090   4.219 -0.5338  0.4979 -0.6534
 8410SOL    HW136689   4.352   4.048   4.166 -0.1641 -1.4886  0.4747
 8410SOL    HW236690   4.373   4.136   4.289  0.2047 -2.0060  1.4589
 8411SOL     OW36691   4.356   4.356   2.182 -0.2469  0.0779 -0.1529
 8411SOL    HW136692   4.298   4.432   2.184 -0.3205 -0.0032  0.5940
 8411SOL    HW236693   4.338   4.313   2.265  4.8867  0.0605  0.9414
 8412SOL     OW36694   4.571   2.397  10.516  0.1819  1.1197  0.4367
 8412SOL    HW136695   4.557   2.343  10.594  1.1966 -0.3252 -0.3910
 8412SOL    HW236696   4.605   2.481  10.546  2.4242  0.2471  0.2885
 8413SOL     OW36697   4.119   1.690   7.254  0.3806 -0.4386 -0.4066
 8413SOL    HW136698   4.193   1.715   7.199  0.3982  0.5512  0.0695
 8413SOL    HW236699   4.166   1.682   7.337 -1.3128  1.0476  0.6872
 8414SOL     OW36700   0.221   0.995   4.681 -0.2904  0.4409  0.2873
 8414SOL    HW136701   0.250   1.062   4.619 -0.5517 -1.1500 -1.5322
 8414SOL    HW236702   0.287   1.006   4.750  0.1367 -1.6409  0.2173
 8415SOL     OW36703   3.135   0.839   0.227 -0.1361 -0.3496 -0.4505
 8415SOL    HW136704   3.045   0.815   0.253  0.8335 -2.6705  0.8026
 8415SOL    HW236705   3.125   0.807   0.138 -1.2398  2.2749 -1.2562
 8416SOL     OW36706   3.110   0.110   4.970 -0.2395  0.4786  0.7776
 8416SOL    HW136707   3.086   0.024   4.934  0.4640  0.0898  1.2398
 8416SOL    HW236708   3.192   0.126   4.923 -1.1467 -1.7698 -1.6112
 8417SOL     OW36709   3.702   1.770   4.174  0.0658 -0.2781 -0.1322
 8417SOL    HW136710   3.769   1.712   4.211  1.9196  1.5701 -0.6026
 8417SOL    HW236711   3.711   1.751   4.081  1.0081  1.6216 -0.4386
 8418SOL     OW36712   3.965   1.904   3.703  0.0966  0.2403 -0.1491
 8418SOL    HW136713   3.978   1.811   3.686 -0.7587  0.1368 -0.2257
 8418SOL    HW236714   4.049   1.922   3.746 -0.5971  0.4294  1.1235
 8419SOL     OW36715   2.369   3.854  10.930  0.7944 -0.4602  0.4094
 8419SOL    HW136716   2.297   3.915  10.944  1.6141  0.1589  1.8679
 8419SOL    HW236717   2.351   3.829  10.839  1.3591  2.6396 -0.5588
 8420SOL     OW36718   2.884   3.258   3.042 -0.6766  0.1802 -0.5302
 8420SOL    HW136719   2.951   3.295   2.984  0.4540 -0.7749  0.1812
 8420SOL    HW236720   2.933   3.253   3.123  0.9237  0.5365 -1.4759
 8421SOL     OW36721   2.934   0.658   8.707  0.5304  0.0455  0.4689
 8421SOL    HW136722   2.970   0.738   8.669 -1.0753  0.0069 -1.1480
 8421SOL    HW236723   2.973   0.640   8.792 -1.0026 -2.1471  0.7083
 8422SOL     OW36724   1.788   2.941   3.469  0.5181  0.3025  0.0207
 8422SOL    HW136725   1.715   2.964   3.411 -0.0531 -0.9659  0.2458
 8422SOL    HW236726   1.745   2.945   3.555 -0.3329 -2.4785 -0.2834
 8423SOL     OW36727   3.027   0.031   2.254  0.1733 -0.3629 -0.2220
 8423SOL    HW136728   3.100   0.088   2.229  1.4271 -2.2704 -0.9416
 8423SOL    HW236729   2.957   0.089   2.285  0.9423 -0.1495  1.0976
 8424SOL     OW36730   1.663   3.982  11.296  1.1660 -0.4695  0.0032
 8424SOL    HW136731   1.722   4.003  11.224 -0.2369  0.0418 -1.0050
 8424SOL    HW236732   1.656   4.065  11.343 -1.8062 -0.3759 -0.5785
 8425SOL     OW36733   4.311   0.603   7.475 -0.2302  0.3308  0.5841
 8425SOL    HW136734   4.272   0.672   7.421  2.0208  0.7617 -0.4857
 8425SOL    HW236735   4.378   0.651   7.523 -0.9996  0.3749  1.6015
 8426SOL     OW36736   2.710   0.654   8.373  0.7581  0.2515  0.6171
 8426SOL    HW136737   2.796   0.688   8.397  0.4259  1.2503  0.3803
 8426SOL    HW236738   2.665   0.659   8.457  1.6475 -3.3977  1.3038
 8427SOL     OW36739   3.637   1.650   7.741 -0.2429  0.2634 -0.0608
 8427SOL    HW136740   3.642   1.554   7.747 -0.5224  0.1332 -1.8853
 8427SOL    HW236741   3.594   1.674   7.823 -0.1804 -0.7972  0.2876
 8428SOL     OW36742   4.484   2.878   7.968  0.1206  0.6046 -0.1725
 8428SOL    HW136743   4.507   2.945   8.031 -1.3133  1.2197 -0.2877
 8428SOL    HW236744   4.540   2.806   7.997 -0.1387  1.4406  2.3397
 8429SOL     OW36745   4.674   3.286   8.645  0.0688 -0.1992  0.1891
 8429SOL    HW136746   4.634   3.321   8.725  0.1165  3.6388 -1.4662
 8429SOL    HW236747   4.645   3.194   8.646 -0.7811  0.0757  0.8623
 8430SOL     OW36748   0.306   1.240   1.643  0.4154 -0.2262 -0.5501
 8430SOL    HW136749   0.230   1.240   1.701  0.4616 -0.5684 -0.4910
 8430SOL    HW236750   0.281   1.308   1.581 -1.8669  0.7612  1.4711
 8431SOL     OW36751   0.199   4.238  14.890  0.3563 -0.5467  0.1906
 8431SOL    HW136752   0.194   4.251  14.984  1.8402  4.1124 -0.3758
 8431SOL    HW236753   0.267   4.171  14.885  0.4592 -0.2421 -2.4223
 8432SOL     OW36754   2.431   3.838   5.528  0.4317 -0.0014  0.0626
 8432SOL    HW136755   2.422   3.833   5.433 -0.0425  0.9267  0.0622
 8432SOL    HW236756   2.347   3.878   5.546 -0.1529  0.7032 -4.1723
 8433SOL     OW36757   3.499   0.435  16.667 -0.0439  0.3575  0.5830
 8433SOL    HW136758   3.502   0.452  16.761  0.7495  1.1479  0.4156
 8433SOL    HW236759   3.421   0.379  16.661  0.4299 -0.1972 -0.4487
 8434SOL     OW36760   0.622   0.967   1.990 -0.0294  0.1635 -0.2843
 8434SOL    HW136761   0.540   0.930   1.956 -0.6797  2.3395 -1.1244
 8434SOL    HW236762   0.586   1.008   2.068 -2.4289 -2.7885  0.1831
 8435SOL     OW36763   2.319   2.336   6.873  0.2376  0.1729 -0.1342
 8435SOL    HW136764   2.381   2.273   6.837 -1.6368 -0.3335 -2.4756
 8435SOL    HW236765   2.236   2.296   6.845  1.7493 -1.9375 -1.5340
 8436SOL     OW36766   1.784   4.291   7.594 -0.0120 -0.2705 -0.0394
 8436SOL    HW136767   1.846   4.349   7.639 -0.1973 -0.0579 -0.0617
 8436SOL    HW236768   1.769   4.225   7.661  1.6375 -2.6477 -2.0192
 8437SOL     OW36769   2.812   2.354   9.905  0.4825  0.0331  0.4901
 8437SOL    HW136770   2.813   2.269   9.950 -2.7951 -0.1568  0.2550
 8437SOL    HW236771   2.902   2.385   9.898 -0.2178  2.3070  1.6031
 8438SOL     OW36772   2.799   0.179   7.638 -0.5577  0.0284  0.2936
 8438SOL    HW136773   2.780   0.260   7.686  1.6182  1.0839 -0.6483
 8438SOL    HW236774   2.789   0.205   7.547 -1.4217 -1.5736 -0.0762
 8439SOL     OW36775   2.137   0.411   8.638 -0.3004  0.3634  0.4052
 8439SOL    HW136776   2.159   0.442   8.550  0.5900  0.2200  0.5778
 8439SOL    HW236777   2.225   0.400   8.673  0.6808 -2.6284 -2.9720
 8440SOL     OW36778   1.188   1.130   1.910  0.3346 -0.4707  0.1900
 8440SOL    HW136779   1.152   1.105   1.825 -1.7547 -0.3262  1.0450
 8440SOL    HW236780   1.277   1.155   1.882  0.3422 -1.1784 -0.4117
 8441SOL     OW36781   1.588   4.566   7.155  0.1268  0.2316  0.6909
 8441SOL    HW136782   1.625   4.512   7.084  0.8426 -0.4261  1.5575
 8441SOL    HW236783   1.580   4.506   7.229 -1.6578  0.0649  0.3484
 8442SOL     OW36784   2.740   1.943   2.496 -0.4884 -0.1239 -0.1720
 8442SOL    HW136785   2.796   1.893   2.436 -1.9034 -1.1050 -0.6662
 8442SOL    HW236786   2.675   1.879   2.525 -0.3411  0.5732  1.7143
 8443SOL     OW36787   3.410   3.093   6.458  0.5564 -0.7612 -0.1886
 8443SOL    HW136788   3.319   3.065   6.450  0.6744 -1.2545  0.2235
 8443SOL    HW236789   3.427   3.120   6.368  1.2273 -0.9017 -0.0991
 8444SOL     OW36790   2.586   3.274   8.757 -0.3229  0.5238 -0.0548
 8444SOL    HW136791   2.593   3.259   8.851 -0.5454  2.1772  0.2229
 8444SOL    HW236792   2.674   3.309   8.741  0.8343 -1.3571  2.3061
 8445SOL     OW36793   4.703   1.676   2.812  0.1737 -0.5709  0.0295
 8445SOL    HW136794   0.053   1.726   2.784 -2.2517  3.3802  0.5779
 8445SOL    HW236795   0.012   1.649   2.896 -0.4452 -0.2468  0.3948
 8446SOL     OW36796   0.509   1.829   5.135  0.4322  0.5650  0.2345
 8446SOL    HW136797   0.506   1.760   5.201 -1.5685  0.5362  0.1093
 8446SOL    HW236798   0.562   1.783   5.070 -1.7405  0.1348 -1.2115
 8447SOL     OW36799   3.778   4.258   8.877  0.0476 -0.0089 -0.2259
 8447SOL    HW136800   3.708   4.240   8.940  3.3014 -0.4694  3.2814
 8447SOL    HW236801   3.727   4.286   8.801 -0.2239 -0.1279 -0.0867
 8448SOL     OW36802   3.792   1.921   3.501  0.0672 -0.5166  0.6678
 8448SOL    HW136803   3.859   1.923   3.569  1.1648 -0.7631 -0.3901
 8448SOL    HW236804   3.803   2.005   3.455  1.7271  0.9581  3.7937
 8449SOL     OW36805   0.674   0.884   5.494 -0.0736 -0.1755  0.3080
 8449SOL    HW136806   0.756   0.876   5.543  0.6619  1.1251 -0.7154
 8449SOL    HW236807   0.630   0.948   5.549  0.2706 -1.5471  2.2128
 8450SOL     OW36808   1.007   4.353   5.220 -0.0347 -0.2944  0.1651
 8450SOL    HW136809   1.023   4.277   5.276  1.9675  0.8962  1.2376
 8450SOL    HW236810   1.000   4.312   5.134  0.4999  0.2588 -0.1460
 8451SOL     OW36811   1.023   4.225   5.823 -0.2915 -0.0288  0.0759
 8451SOL    HW136812   0.974   4.274   5.889 -0.8067 -1.2043  0.5706
 8451SOL    HW236813   1.010   4.135   5.853  2.2059 -1.0831 -1.9697
 8452SOL     OW36814   1.868   2.692  17.099  0.6534 -0.0393  0.0419
 8452SOL    HW136815   1.959   2.666  17.083 -0.1108 -3.1221  0.7278
 8452SOL    HW236816   1.819   2.634  17.041 -0.2053 -0.5950  1.3115
 8453SOL     OW36817   1.445   3.057  15.092  0.6133 -0.0538  0.0308
 8453SOL    HW136818   1.401   2.973  15.077 -0.8373  0.6487  0.3341
 8453SOL    HW236819   1.396   3.122  15.041  0.4841  0.6214  1.0147
 8454SOL     OW36820   2.893   0.266   2.790  0.5665  0.3659  0.7654
 8454SOL    HW136821   2.871   0.228   2.875 -0.1459 -1.4755 -0.2491
 8454SOL    HW236822   2.986   0.250   2.777  0.1998 -1.0349 -0.1899
 8455SOL     OW36823   1.888   3.405   8.094 -0.6509  0.2357 -0.4549
 8455SOL    HW136824   1.965   3.381   8.042  0.3216  1.0737  0.6039
 8455SOL    HW236825   1.922   3.370   8.176  1.4293  0.0942 -1.3729
 8456SOL     OW36826   4.351   1.258   6.608 -0.2646 -0.6862 -0.2447
 8456SOL    HW136827   4.396   1.331   6.651 -1.3159  0.8216 -1.7068
 8456SOL    HW236828   4.263   1.262   6.646 -0.3150  1.3953 -0.5780
 8457SOL     OW36829   1.479   0.142   9.294  0.1231  0.4439  0.1092
 8457SOL    HW136830   1.497   0.074   9.229 -1.9004  0.8489 -0.8910
 8457SOL    HW236831   1.519   0.122   9.378 -0.5635 -2.3754 -0.2363
 8458SOL     OW36832   1.570   1.869   8.569  0.3774 -0.0643  0.2155
 8458SOL    HW136833   1.531   1.883   8.655  1.0217  2.6541  0.0602
 8458SOL    HW236834   1.643   1.810   8.588 -0.3846 -0.7112  1.1543
 8459SOL     OW36835   1.863   1.267  10.679  0.0255 -0.1345  0.2565
 8459SOL    HW136836   1.784   1.276  10.625  1.7406 -1.3616 -2.4441
 8459SOL    HW236837   1.904   1.192  10.637 -0.7374 -0.0971 -0.5458
 8460SOL     OW36838   2.863   0.340  14.303 -0.2702  0.1368 -0.3539
 8460SOL    HW136839   2.893   0.351  14.393 -0.2447  2.8210 -0.7081
 8460SOL    HW236840   2.881   0.425  14.264 -1.0887 -0.4141 -1.9196
 8461SOL     OW36841   4.350   0.612  11.268  0.0365  0.2495 -0.2406
 8461SOL    HW136842   4.285   0.542  11.265  1.0640 -0.7570  1.2343
 8461SOL    HW236843   4.399   0.597  11.349  0.6029 -1.0039 -0.8304
 8462SOL     OW36844   1.031   0.771   4.713  0.1727 -0.2146 -0.0289
 8462SOL    HW136845   1.051   0.779   4.806 -0.3304  2.4797 -0.1304
 8462SOL    HW236846   1.056   0.862   4.694 -1.1815 -0.6760 -3.9957
 8463SOL     OW36847   0.668   1.561  15.609 -0.2270 -0.1912 -0.1898
 8463SOL    HW136848   0.635   1.473  15.591 -1.3225  0.2923 -0.5719
 8463SOL    HW236849   0.650   1.593  15.520 -1.0867  2.4548  0.9360
 8464SOL     OW36850   1.784   3.799  15.048  0.0133  0.0938  0.1979
 8464SOL    HW136851   1.789   3.883  15.094  0.2189  0.4719 -0.5156
 8464SOL    HW236852   1.842   3.817  14.974  1.5853  0.6752  1.5616
 8465SOL     OW36853   4.079   3.420  16.042  0.0837  0.1367 -0.1086
 8465SOL    HW136854   4.112   3.445  16.129  0.4902 -3.0964  0.7011
 8465SOL    HW236855   4.156   3.438  15.989 -0.3091 -0.2556 -0.8050
 8466SOL     OW36856   1.479   3.414   0.064  0.2828  0.2209  0.1474
 8466SOL    HW136857   1.485   3.413  17.676 -0.2194 -3.5563  0.1655
 8466SOL    HW236858   1.556   3.471   0.073  0.8147 -0.0730 -2.5565
 8467SOL     OW36859   3.454   3.320   4.179  0.4540  0.0551 -0.0610
 8467SOL    HW136860   3.432   3.233   4.146  1.8160 -0.6081  0.7664
 8467SOL    HW236861   3.405   3.329   4.260  1.1449  0.3004  0.3297
 8468SOL     OW36862   1.009   4.657   7.359  0.2136 -0.6682 -0.6793
 8468SOL    HW136863   0.983   4.564   7.356  0.5514 -0.7457 -1.2156
 8468SOL    HW236864   1.007   4.673   7.453 -0.8897 -1.6290 -0.5299
 8469SOL     OW36865   0.599   2.564   3.572 -0.1131  0.1395 -0.0358
 8469SOL    HW136866   0.563   2.649   3.597 -0.5700  0.0514 -0.3844
 8469SOL    HW236867   0.580   2.563   3.478 -0.0020  2.6077 -0.0735
 8470SOL     OW36868   3.148   4.485   2.215 -0.1514  0.3972  0.8732
 8470SOL    HW136869   3.053   4.484   2.225 -0.3573 -2.4193 -1.4826
 8470SOL    HW236870   3.191   4.514   2.295  1.2038 -0.8004  0.5760
 8471SOL     OW36871   4.533   1.537   6.403 -0.5418  0.0292 -0.4498
 8471SOL    HW136872   4.543   1.471   6.472 -2.7566  0.7850  0.5999
 8471SOL    HW236873   4.511   1.616   6.453  2.8480 -0.8890  2.5332
 8472SOL     OW36874   1.955   0.822   0.520 -0.0034  0.4745  0.7896
 8472SOL    HW136875   2.047   0.843   0.505 -0.2487  1.7122  1.0437
 8472SOL    HW236876   1.958   0.728   0.537 -1.6034  0.5339  1.3943
 8473SOL     OW36877   0.525   0.153   7.224  0.3068  0.2712  0.9361
 8473SOL    HW136878   0.599   0.113   7.270  0.1075  0.0937  1.1048
 8473SOL    HW236879   0.574   0.207   7.163 -1.9820  1.5818  0.2449
 8474SOL     OW36880   3.788   2.387   6.946  0.0689  0.2352  0.5085
 8474SOL    HW136881   3.831   2.303   6.960 -0.5791 -0.4491 -1.4933
 8474SOL    HW236882   3.855   2.425   6.890  0.8851  0.5754  1.7235
 8475SOL     OW36883   1.495   1.063  13.030 -0.0580  0.1181 -0.0466
 8475SOL    HW136884   1.433   1.133  13.008 -2.6121 -2.2084 -0.1963
 8475SOL    HW236885   1.572   1.117  13.047  0.9391 -0.9234 -1.3732
 8476SOL     OW36886   1.089   0.703   9.021 -0.4926 -0.6679  0.2652
 8476SOL    HW136887   1.149   0.633   9.044  1.0178  0.7890  0.8192
 8476SOL    HW236888   1.092   0.749   9.105 -1.4380  0.8883 -0.5386
 8477SOL     OW36889   3.644   1.817   9.255 -0.0915  0.0207 -0.2418
 8477SOL    HW136890   3.716   1.855   9.305 -1.8178  3.8173 -0.6529
 8477SOL    HW236891   3.637   1.727   9.285 -0.8296  0.0893 -0.2105
 8478SOL     OW36892   4.066   2.301   5.961 -0.0642 -0.1022 -0.1714
 8478SOL    HW136893   4.018   2.258   5.889 -0.7445 -0.2036  0.3380
 8478SOL    HW236894   4.046   2.247   6.038 -0.9734  0.0892 -0.2648
 8479SOL     OW36895   4.285   1.037   2.337 -0.0770  0.1439  0.0766
 8479SOL    HW136896   4.214   0.973   2.343  1.6971 -1.7135  1.6424
 8479SOL    HW236897   4.328   1.038   2.423  1.6642 -0.1116 -0.7880
 8480SOL     OW36898   2.378   2.703  10.480 -0.0214 -0.0600 -0.0074
 8480SOL    HW136899   2.473   2.717  10.470 -0.1630  1.3515  0.5950
 8480SOL    HW236900   2.344   2.791  10.465  0.0409  0.1450  1.0807
 8481SOL     OW36901   1.078   4.656   0.088 -0.5596 -0.0982 -0.0881
 8481SOL    HW136902   1.004   4.650   0.148 -0.2229  0.5502  0.3975
 8481SOL    HW236903   1.029   4.664   0.006 -1.8853  0.6475  0.7555
 8482SOL     OW36904   0.928   0.707   5.540 -0.0332  0.7020 -0.0316
 8482SOL    HW136905   0.970   0.645   5.479 -0.3002  1.5141 -1.0457
 8482SOL    HW236906   0.851   0.660   5.571  0.6756 -1.4353 -1.4488
 8483SOL     OW36907   1.813   1.110  11.017 -0.4344 -0.1343 -0.0192
 8483SOL    HW136908   1.814   1.112  11.112  1.3162 -1.4225 -0.0135
 8483SOL    HW236909   1.778   1.022  11.002 -2.3761  0.6363 -0.0134
 8484SOL     OW36910   1.593   1.455   8.960 -0.2016 -0.0057  0.7176
 8484SOL    HW136911   1.677   1.455   9.007 -0.0502  0.4430  0.4540
 8484SOL    HW236912   1.625   1.456   8.869  0.9322  1.2312  1.1358
 8485SOL     OW36913   0.443   0.235  15.324 -0.1205  0.2550 -0.2417
 8485SOL    HW136914   0.407   0.163  15.272  5.3109 -2.4622 -0.1607
 8485SOL    HW236915   0.537   0.220  15.332 -0.0598 -0.8807 -3.2366
 8486SOL     OW36916   0.413   1.822   5.660 -0.4789  0.2196  0.0923
 8486SOL    HW136917   0.447   1.733   5.653 -1.5864 -0.3370  1.8524
 8486SOL    HW236918   0.435   1.835   5.752 -1.6092 -1.2892  0.5887
 8487SOL     OW36919   0.796   3.259   3.479 -0.0358  0.0032  0.0537
 8487SOL    HW136920   0.752   3.295   3.556 -0.6867 -0.0490 -0.3009
 8487SOL    HW236921   0.863   3.211   3.528  0.9565  0.3233 -0.9662
 8488SOL     OW36922   1.803   0.715   7.556  0.0283  0.6160  0.3257
 8488SOL    HW136923   1.863   0.670   7.496  0.3058  2.3832 -0.7382
 8488SOL    HW236924   1.716   0.677   7.546  0.3179 -0.2022  0.9044
 8489SOL     OW36925   1.267   2.396   9.636  0.8448 -0.6556 -0.2411
 8489SOL    HW136926   1.238   2.318   9.684  0.3695  0.6335  1.5976
 8489SOL    HW236927   1.261   2.463   9.704 -0.7659  0.0357 -1.0549
 8490SOL     OW36928   2.356   4.172   4.147 -0.0266 -0.1866  0.3049
 8490SOL    HW136929   2.312   4.250   4.115  2.1959  0.9794  0.0983
 8490SOL    HW236930   2.423   4.213   4.202 -0.4299 -1.4293  1.7118
 8491SOL     OW36931   0.493   0.363   2.869 -0.7781  0.3626  0.3463
 8491SOL    HW136932   0.535   0.446   2.890  0.4626  0.4834 -2.5915
 8491SOL    HW236933   0.568   0.304   2.875 -1.3951 -0.4506 -0.0299
 8492SOL     OW36934   1.342   0.313   1.992 -0.1340 -0.1210 -0.3421
 8492SOL    HW136935   1.366   0.318   1.899 -0.3872 -0.0893 -0.4055
 8492SOL    HW236936   1.408   0.251   2.025  0.1930 -0.2212 -1.1670
 8493SOL     OW36937   2.020   0.988   4.455 -0.0661  0.4387 -0.4223
 8493SOL    HW136938   2.072   1.055   4.499 -0.5828  0.6867 -0.1926
 8493SOL    HW236939   1.933   1.029   4.457  0.4313  1.4836  0.0716
 8494SOL     OW36940   4.521   4.470   1.295 -1.3640 -0.3970 -0.6153
 8494SOL    HW136941   4.462   4.426   1.234 -0.7170  0.1154 -1.6083
 8494SOL    HW236942   4.536   4.403   1.363  2.5019  2.4035  1.2944
 8495SOL     OW36943   1.203   0.972  11.895  0.5516 -0.1774  0.1169
 8495SOL    HW136944   1.243   0.917  11.827  1.7856  0.0854  0.6236
 8495SOL    HW236945   1.196   0.911  11.968 -2.4014 -0.4230 -0.3792
 8496SOL     OW36946   0.415   1.184   8.917  0.4406  0.1555 -0.3764
 8496SOL    HW136947   0.404   1.149   8.829  0.0362  1.6993 -0.9370
 8496SOL    HW236948   0.348   1.251   8.920  2.4864  2.2200 -0.9647
 8497SOL     OW36949   1.732   4.086  15.129 -0.4876  0.0716  0.6405
 8497SOL    HW136950   1.809   4.089  15.073  1.0687  2.0369  2.8250
 8497SOL    HW236951   1.656   4.078  15.072 -2.3968 -0.1761  3.2001
 8498SOL     OW36952   1.888   1.594   3.381 -0.3797 -0.1731 -0.3099
 8498SOL    HW136953   1.937   1.648   3.320  0.4268 -0.4594  0.0781
 8498SOL    HW236954   1.851   1.527   3.322  2.2106 -0.8694 -1.1282
 8499SOL     OW36955   2.815   4.052   5.106 -0.4045  0.3935 -0.4315
 8499SOL    HW136956   2.728   4.083   5.083 -0.6114  0.6507  0.7472
 8499SOL    HW236957   2.821   3.993   5.031  0.2645 -0.9846  0.7061
 8500SOL     OW36958   4.638   1.950   6.933 -0.3036  0.3708 -0.3431
 8500SOL    HW136959   4.604   2.036   6.955  1.1046  0.6615  0.7234
 8500SOL    HW236960   4.667   1.961   6.842 -1.0651 -2.5950 -0.9650
 8501SOL     OW36961   3.306   2.347   7.918 -0.5105 -0.1100  0.4255
 8501SOL    HW136962   3.391   2.324   7.953 -1.1841 -0.6940  1.6720
 8501SOL    HW236963   3.326   2.337   7.825  0.6480  2.0425  0.4380
 8502SOL     OW36964   2.602   3.905   1.625 -0.1045  0.3838  0.0327
 8502SOL    HW136965   2.675   3.909   1.687  0.2162  1.4621 -0.4009
 8502SOL    HW236966   2.645   3.901   1.540 -0.6920 -1.5516 -0.1510
 8503SOL     OW36967   1.972   3.560   7.161  0.2137  0.3175  0.2208
 8503SOL    HW136968   1.962   3.468   7.187 -1.5153  0.1160 -1.2004
 8503SOL    HW236969   1.898   3.563   7.101 -0.5075  0.5592  1.1305
 8504SOL     OW36970   4.593   4.413   3.514 -0.0083  0.7562  0.0195
 8504SOL    HW136971   4.597   4.493   3.566 -0.4873  0.5459  0.3817
 8504SOL    HW236972   4.669   4.369   3.554 -0.7641 -0.1181  0.4951
 8505SOL     OW36973   1.798   0.478  16.277 -0.2124  0.3099 -0.6348
 8505SOL    HW136974   1.776   0.397  16.322 -0.3059  0.4604 -0.4095
 8505SOL    HW236975   1.722   0.520  16.236  0.8450 -1.6634 -4.6665
 8506SOL     OW36976   3.079   1.448   2.882 -0.1087 -0.3169 -0.1147
 8506SOL    HW136977   3.096   1.354   2.872  1.0314 -0.0780 -0.3857
 8506SOL    HW236978   3.010   1.464   2.947  1.9316  1.2431  1.6611
 8507SOL     OW36979   1.351   3.214  12.148 -0.3378 -0.4549 -0.1254
 8507SOL    HW136980   1.431   3.183  12.106  0.8775  1.4926  0.7049
 8507SOL    HW236981   1.344   3.156  12.224 -0.0055 -0.5795 -0.1887
 8508SOL     OW36982   0.968   1.945  15.732  0.6077 -0.2703 -0.9658
 8508SOL    HW136983   0.938   1.855  15.721  1.9096 -0.7634 -0.4933
 8508SOL    HW236984   0.980   1.939  15.826  0.5351 -2.5248 -1.1060
 8509SOL     OW36985   4.590   1.156   3.167  0.1324 -0.6946  0.1466
 8509SOL    HW136986   4.584   1.187   3.257  0.6948 -0.2202  0.0245
 8509SOL    HW236987   4.569   1.242   3.130  0.3539 -1.9417 -2.8738
 8510SOL     OW36988   1.217   2.362   1.478 -0.5726 -0.3606  0.3917
 8510SOL    HW136989   1.270   2.381   1.400 -0.1912  2.6824  1.4113
 8510SOL    HW236990   1.269   2.407   1.545 -2.1918  0.1428  1.3063
 8511SOL     OW36991   1.403   3.182  15.336  0.0845 -0.3951 -0.5202
 8511SOL    HW136992   1.329   3.240  15.321 -0.9388 -1.8579 -1.1856
 8511SOL    HW236993   1.412   3.127  15.258 -1.3548 -2.4492  0.7763
 8512SOL     OW36994   4.581   0.102  15.768 -0.2969 -0.2594  0.1921
 8512SOL    HW136995   4.535   0.043  15.708  1.1347 -1.6649  0.4744
 8512SOL    HW236996   4.616   0.152  15.695  3.8654 -2.3980  0.7561
 8513SOL     OW36997   0.772   2.263  11.740  0.2777 -0.0016 -0.4179
 8513SOL    HW136998   0.808   2.214  11.666 -0.7383 -1.6727  0.2013
 8513SOL    HW236999   0.776   2.356  11.718 -2.4678  0.0632 -0.6356
 8514SOL     OW37000   0.037   1.285   6.430  0.0156  0.8492 -0.1086
 8514SOL    HW137001   0.047   1.201   6.386  1.9282  1.2228 -0.3997
 8514SOL    HW237002   4.702   1.313   6.362 -0.6746  1.1015  0.6229
 8515SOL     OW37003   4.016   2.081  11.023  0.2590  0.0430 -0.1904
 8515SOL    HW137004   3.945   2.097  11.085 -1.8588 -1.2446 -2.2862
 8515SOL    HW237005   3.970   2.076  10.939 -0.2012  0.0643  0.0604
 8516SOL     OW37006   2.332   3.643   2.351 -0.1791  0.3181  0.4574
 8516SOL    HW137007   2.349   3.592   2.430 -1.4006  1.4344  1.4446
 8516SOL    HW237008   2.239   3.665   2.358 -0.4156 -0.7229  0.6894
 8517SOL     OW37009   1.764   0.294  13.093  0.4385  0.3969 -0.5205
 8517SOL    HW137010   1.681   0.251  13.074  0.4227 -0.1841  0.8674
 8517SOL    HW237011   1.743   0.380  13.055  2.2056  0.8893 -0.3789
 8518SOL     OW37012   3.459   1.355   3.317  0.1311 -0.1419 -0.4991
 8518SOL    HW137013   3.375   1.398   3.298  0.9368  1.7301  0.1431
 8518SOL    HW237014   3.522   1.387   3.253  2.3977  3.4648  3.5659
 8519SOL     OW37015   1.278   3.047   9.592  0.2085 -0.6897  0.0789
 8519SOL    HW137016   1.332   3.046   9.671  0.3164  0.1679  0.0152
 8519SOL    HW237017   1.278   3.136   9.556 -1.4250  0.0590  1.8636
 8520SOL     OW37018   1.537   3.360   1.746  0.0094  0.4397 -0.0297
 8520SOL    HW137019   1.551   3.270   1.776  0.9728  0.1107 -1.4830
 8520SOL    HW237020   1.448   3.361   1.713  0.2290 -0.3758 -0.6253
 8521SOL     OW37021   3.116   0.858  12.498  1.2951  0.2055  0.6106
 8521SOL    HW137022   3.045   0.909  12.538  1.1769 -0.5198  1.3220
 8521SOL    HW237023   3.059   0.786  12.469 -1.4926  1.9785  1.6728
 8522SOL     OW37024   1.635   3.320   8.288 -0.4471 -0.3270  0.4926
 8522SOL    HW137025   1.704   3.377   8.320  0.1273 -0.7945  0.0906
 8522SOL    HW237026   1.678   3.238   8.264 -1.2251 -0.0422 -1.8882
 8523SOL     OW37027   0.771   0.962   2.813 -0.1028  0.0187 -0.1952
 8523SOL    HW137028   0.843   0.980   2.752  0.1527  1.8175  0.6335
 8523SOL    HW237029   0.778   1.040   2.868  0.2215  0.4591 -0.8625
 8524SOL     OW37030   1.972   1.767   3.149  0.1494 -0.3859 -0.0989
 8524SOL    HW137031   1.928   1.824   3.087  2.6596  0.7651 -0.8372
 8524SOL    HW237032   2.045   1.818   3.185  0.0527 -0.0070 -0.4542
 8525SOL     OW37033   3.003   4.642   4.598  0.3901  0.2025 -0.5505
 8525SOL    HW137034   2.933   4.706   4.613 -0.5662 -1.6181  2.7813
 8525SOL    HW237035   3.023   4.666   4.508  0.1731 -1.9620 -1.1780
 8526SOL     OW37036   2.959   3.833   2.967 -0.1129 -0.9417  0.0975
 8526SOL    HW137037   3.002   3.917   2.981  0.6183 -1.3858  0.5589
 8526SOL    HW237038   2.908   3.826   3.047  0.3285 -1.1803  0.3592
 8527SOL     OW37039   1.951   0.470   0.756  0.8313  0.0097  0.2338
 8527SOL    HW137040   1.873   0.525   0.756 -0.4988 -1.8497 -0.0942
 8527SOL    HW237041   1.988   0.497   0.672  1.1412  0.5446  0.5463
 8528SOL     OW37042   2.213   0.861   8.734  0.0942 -0.4257  0.2371
 8528SOL    HW137043   2.180   0.928   8.673  2.2199 -0.6608 -1.1714
 8528SOL    HW237044   2.135   0.810   8.756 -0.8968  1.5085  1.1991
 8529SOL     OW37045   2.470   3.539   4.198  0.1472  0.3958 -0.4490
 8529SOL    HW137046   2.565   3.535   4.209  0.1335  3.5678  0.8827
 8529SOL    HW237047   2.443   3.450   4.220  1.7110 -0.2134 -0.9786
 8530SOL     OW37048   1.612   1.618   4.762  0.1786  0.6907 -0.3541
 8530SOL    HW137049   1.569   1.611   4.847 -1.4523  3.2946 -0.9847
 8530SOL    HW237050   1.584   1.530   4.737 -0.9872  0.5074  1.5691
 8531SOL     OW37051   0.947   0.607   4.507 -0.0441 -0.3791 -0.6731
 8531SOL    HW137052   0.864   0.622   4.552  0.2634 -1.2454  0.1817
 8531SOL    HW237053   1.004   0.636   4.579 -0.8966  1.3015 -0.6706
 8532SOL     OW37054   3.862   1.921   6.815  0.4591  0.3173 -0.1941
 8532SOL    HW137055   3.852   1.828   6.837 -1.6594  0.2422 -1.4821
 8532SOL    HW237056   3.888   1.910   6.723 -0.9960 -1.8417 -0.3360
 8533SOL     OW37057   2.549   4.506   3.985 -0.0484 -0.1684  0.1828
 8533SOL    HW137058   2.525   4.536   4.072  2.2875 -0.3317  0.8959
 8533SOL    HW237059   2.580   4.591   3.955 -2.2351  0.4217 -0.3845
 8534SOL     OW37060   1.755   2.038   4.667 -0.4092  0.0297  0.1046
 8534SOL    HW137061   1.692   2.026   4.596 -0.0851  0.8912 -0.3269
 8534SOL    HW237062   1.741   2.130   4.689 -0.5527 -0.2251  1.1098
 8535SOL     OW37063   1.979   4.497  17.220 -0.0004  0.1176  0.1815
 8535SOL    HW137064   1.974   4.509  17.125  2.2013 -1.6955 -0.1627
 8535SOL    HW237065   2.072   4.518  17.226  0.8786 -3.5220 -0.6290
 8536SOL     OW37066   1.051   0.518   6.854  0.4998  0.0695  0.0399
 8536SOL    HW137067   1.079   0.435   6.892 -0.1122 -0.9603 -1.7480
 8536SOL    HW237068   1.093   0.576   6.917  1.1365  0.6026 -0.8604
 8537SOL     OW37069   3.922   1.533   7.985 -0.1281 -0.0461 -0.0295
 8537SOL    HW137070   3.984   1.505   8.052 -0.1553 -0.8555 -0.3311
 8537SOL    HW237071   3.842   1.521   8.036 -0.4064  0.9134 -0.2490
 8538SOL     OW37072   2.127   1.841   4.405 -0.2427  0.6847 -0.4090
 8538SOL    HW137073   2.216   1.860   4.434  0.4337 -0.6625 -1.6545
 8538SOL    HW237074   2.079   1.847   4.488  0.5131 -2.0388  0.2315
 8539SOL     OW37075   1.314   1.198   7.597  0.1819  0.2152 -0.4064
 8539SOL    HW137076   1.265   1.184   7.517 -0.8521 -0.5732  0.3690
 8539SOL    HW237077   1.346   1.107   7.602 -1.1188 -0.2946 -1.5060
 8540SOL     OW37078   1.413   1.579  11.987 -0.4138 -0.4937  0.6813
 8540SOL    HW137079   1.359   1.548  12.059 -0.5892 -1.5337  0.0957
 8540SOL    HW237080   1.445   1.495  11.953 -1.7631 -1.4299  1.7328
 8541SOL     OW37081   4.412   3.718   4.404  0.4322 -0.2296 -0.1097
 8541SOL    HW137082   4.418   3.780   4.476  1.3044 -0.4524  0.0038
 8541SOL    HW237083   4.331   3.758   4.371  1.4051 -0.1678 -2.4281
 8542SOL     OW37084   0.582   4.275   7.426 -0.0520 -0.0467 -0.1064
 8542SOL    HW137085   0.527   4.335   7.477  1.0259  1.3120 -0.5470
 8542SOL    HW237086   0.640   4.228   7.486  0.7945  1.6270  0.3680
 8543SOL     OW37087   1.295   4.167   6.339 -0.3703 -0.4832 -0.3040
 8543SOL    HW137088   1.288   4.160   6.434 -0.9937 -0.9259 -0.3850
 8543SOL    HW237089   1.245   4.092   6.306 -1.0224 -0.1493 -0.0886
 8544SOL     OW37090   4.276   2.779  17.609 -0.0738  0.0465 -0.2183
 8544SOL    HW137091   4.212   2.847  17.627  1.9653  2.2677 -1.2446
 8544SOL    HW237092   4.288   2.737  17.694  0.2573 -1.1138 -0.8383
 8545SOL     OW37093   3.783   1.119   4.483 -0.2221 -0.0660 -0.0058
 8545SOL    HW137094   3.803   1.079   4.399 -1.1614  1.5839 -1.0057
 8545SOL    HW237095   3.729   1.048   4.516  1.3456 -0.7225  1.1503
 8546SOL     OW37096   2.491   1.319   3.348 -0.1898 -0.2762  0.3980
 8546SOL    HW137097   2.438   1.271   3.411 -2.0676  1.4940  0.1432
 8546SOL    HW237098   2.582   1.309   3.378 -0.7168  0.8871  2.3620
 8547SOL     OW37099   0.628   1.398   4.507 -0.9628 -0.4741 -0.0491
 8547SOL    HW137100   0.649   1.484   4.472 -1.1173  0.0611  1.1798
 8547SOL    HW237101   0.610   1.351   4.425 -0.9886 -2.0121  0.8499
 8548SOL     OW37102   2.112   1.320  11.524  1.0157  0.1445  0.6334
 8548SOL    HW137103   2.155   1.297  11.441  0.1094 -3.8551  1.3211
 8548SOL    HW237104   2.165   1.396  11.548  0.5069  0.4496  0.7875
 8549SOL     OW37105   0.283   4.123   4.296  0.2835 -0.2662  0.6944
 8549SOL    HW137106   0.211   4.176   4.330  0.2494  1.5517 -2.1933
 8549SOL    HW237107   0.250   4.111   4.207  0.0983 -1.2855  0.9032
 8550SOL     OW37108   2.841   1.654   9.944 -0.3635 -0.2866  0.2273
 8550SOL    HW137109   2.798   1.737   9.922 -0.7548 -0.0435  1.9318
 8550SOL    HW237110   2.929   1.686   9.964  0.0906 -2.1702  1.2258
 8551SOL     OW37111   3.246   2.045   4.383  0.2068 -0.4368 -0.0599
 8551SOL    HW137112   3.237   1.959   4.426  2.2014 -0.7893 -0.3276
 8551SOL    HW237113   3.320   2.029   4.324 -0.2713 -1.2135 -0.4552
 8552SOL     OW37114   0.614   3.517   5.224 -0.4457  0.4786  0.5160
 8552SOL    HW137115   0.623   3.558   5.138 -3.7675 -0.7983 -0.4367
 8552SOL    HW237116   0.699   3.547   5.258 -0.4992 -1.0884  2.0324
 8553SOL     OW37117   0.367   0.536  10.494  0.1246 -0.5769  0.1213
 8553SOL    HW137118   0.398   0.562  10.581 -2.5176 -1.7957  1.4234
 8553SOL    HW237119   0.351   0.620  10.450 -0.9465 -0.3996  0.8288
 8554SOL     OW37120   0.597   3.443   8.964  0.6438  0.1409 -0.5658
 8554SOL    HW137121   0.556   3.402   8.888 -1.1969 -0.5464  0.7917
 8554SOL    HW237122   0.650   3.371   8.999 -1.5874 -1.1687  0.0943
 8555SOL     OW37123   2.257   2.384   3.709 -0.4036  0.2583  0.3478
 8555SOL    HW137124   2.236   2.441   3.783 -1.4642  0.3892 -0.0565
 8555SOL    HW237125   2.245   2.451   3.643  1.0019  0.7698  0.6080
 8556SOL     OW37126   1.806   1.268   8.460 -0.5635  0.4090  0.2674
 8556SOL    HW137127   1.887   1.257   8.410 -0.3562  0.1959  0.6521
 8556SOL    HW237128   1.755   1.187   8.463 -0.5932  0.3512 -1.3697
 8557SOL     OW37129   0.875   1.079   3.556  0.1351 -0.5416  0.1241
 8557SOL    HW137130   0.797   1.134   3.548  0.4333 -0.1272  0.0533
 8557SOL    HW237131   0.882   1.032   3.473  0.3807  0.6468 -0.5284
 8558SOL     OW37132   3.098   2.047   9.296 -0.2115 -0.3434 -0.2560
 8558SOL    HW137133   3.040   2.002   9.235 -0.2424  0.6664 -0.9808
 8558SOL    HW237134   3.054   2.026   9.378  2.2791 -1.1358  0.8764
 8559SOL     OW37135   2.452   3.956  12.204 -0.4930  0.2754 -0.0353
 8559SOL    HW137136   2.484   3.868  12.184  3.6600  1.7262  0.2530
 8559SOL    HW237137   2.425   3.945  12.295  0.1018  0.8512  0.2071
 8560SOL     OW37138   2.050   4.557   9.993 -0.2656  0.0621  0.3684
 8560SOL    HW137139   1.991   4.506  10.049  4.0893 -0.8048  4.1892
 8560SOL    HW237140   2.108   4.487   9.966  2.5855  2.5621  0.0103
 8561SOL     OW37141   0.722   1.236   5.456  0.5964 -0.0294  0.1319
 8561SOL    HW137142   0.677   1.281   5.528 -2.9885 -3.1067 -0.2123
 8561SOL    HW237143   0.800   1.201   5.500  0.7799 -0.2116 -0.3475
 8562SOL     OW37144   0.181   4.122   8.617 -0.5772  0.3858 -0.0682
 8562SOL    HW137145   0.141   4.188   8.673  0.8729 -0.3772  1.8801
 8562SOL    HW237146   0.243   4.179   8.571 -1.5084 -0.0831 -1.9310
 8563SOL     OW37147   0.795   3.363   0.574 -0.7290  0.1445 -0.2753
 8563SOL    HW137148   0.793   3.318   0.659  1.1769 -1.2049 -0.9420
 8563SOL    HW237149   0.712   3.407   0.595 -0.1702  1.1854 -0.2594
 8564SOL     OW37150   3.868   4.061  17.399  0.6168 -0.0721  0.1737
 8564SOL    HW137151   3.818   3.981  17.379 -0.3726  0.3761  0.8753
 8564SOL    HW237152   3.898   4.073  17.309 -0.8092  1.1902 -0.1276
 8565SOL     OW37153   3.772   2.710  13.074  0.5099  0.1541 -0.7068
 8565SOL    HW137154   3.863   2.723  13.100 -0.4627  2.4860  1.4894
 8565SOL    HW237155   3.789   2.626  13.031 -0.6436 -0.4362 -0.0183
 8566SOL     OW37156   2.408   0.849  16.314  0.2155  0.1232 -0.0311
 8566SOL    HW137157   2.457   0.909  16.258  1.4773 -0.9485 -0.0594
 8566SOL    HW237158   2.368   0.798  16.244  0.6515 -1.4790  0.8922
 8567SOL     OW37159   2.036   2.532   9.680  0.0400  0.3699 -0.0206
 8567SOL    HW137160   1.980   2.609   9.686 -2.0792 -1.1584 -0.1151
 8567SOL    HW237161   2.124   2.568   9.691  0.1159  0.4464 -0.8592
 8568SOL     OW37162   3.031   3.900   4.690 -0.9129 -0.0218 -0.5410
 8568SOL    HW137163   3.030   3.857   4.776  0.2185 -0.2628 -0.6553
 8568SOL    HW237164   3.099   3.966   4.701 -0.2347 -0.8341  0.1628
 8569SOL     OW37165   1.206   2.354   6.924  0.1040 -0.2574 -0.0791
 8569SOL    HW137166   1.216   2.314   7.010 -0.0715 -0.8344 -0.3323
 8569SOL    HW237167   1.233   2.278   6.873  0.4371 -0.7636  0.8560
 8570SOL     OW37168   1.381   4.037   0.896  0.3590 -0.2511 -0.1038
 8570SOL    HW137169   1.430   4.068   0.972 -2.0576 -0.1007  1.4214
 8570SOL    HW237170   1.425   4.085   0.827  0.9695  1.6229  1.5721
 8571SOL     OW37171   2.489   0.744  11.238 -0.0338 -0.1793 -0.0324
 8571SOL    HW137172   2.538   0.822  11.266 -1.0516  0.7989 -1.0216
 8571SOL    HW237173   2.547   0.707  11.171 -0.4417 -0.8495 -0.0210
 8572SOL     OW37174   0.755   1.396   1.410  0.9790 -0.2578  0.3077
 8572SOL    HW137175   0.704   1.363   1.483 -1.1226 -0.1589 -1.1386
 8572SOL    HW237176   0.675   1.420   1.364  1.3445  1.2092  0.4033
 8573SOL     OW37177   3.555   2.335   1.650  0.6068  0.2194 -0.2828
 8573SOL    HW137178   3.550   2.405   1.585  0.8953  0.7274  0.2433
 8573SOL    HW237179   3.631   2.289   1.616  1.0266  1.5634 -1.1284
 8574SOL     OW37180   2.618   2.822   7.952 -0.3226  0.3204 -0.1050
 8574SOL    HW137181   2.593   2.818   8.044 -2.4982  0.2287 -0.7007
 8574SOL    HW237182   2.619   2.916   7.934 -0.1993  0.4830  0.7871
 8575SOL     OW37183   1.289   3.215   2.787  0.1829  0.1167 -0.5746
 8575SOL    HW137184   1.374   3.237   2.825 -0.7765  1.5135  0.7466
 8575SOL    HW237185   1.304   3.123   2.763  0.9794  0.0967  0.0010
 8576SOL     OW37186   2.537   1.780   9.950  0.0292 -0.6263  0.6393
 8576SOL    HW137187   2.557   1.787   9.857  2.2762  0.5016  1.2143
 8576SOL    HW237188   2.464   1.843   9.950  0.3481 -0.2584  0.7040
 8577SOL     OW37189   1.740   2.079   7.515  0.7953 -0.2727  0.0700
 8577SOL    HW137190   1.776   2.159   7.553 -0.2055  0.5833 -0.7854
 8577SOL    HW237191   1.731   2.036   7.600 -1.5343  0.7566  0.3476
 8578SOL     OW37192   1.500   0.027   0.052  0.0824 -0.0514  0.1573
 8578SOL    HW137193   1.528   0.048   0.141 -3.8208  1.1531  1.1079
 8578SOL    HW237194   1.579   4.708   0.022  0.2460 -0.4233  1.1357
 8579SOL     OW37195   2.866   1.639   3.606  0.0055 -0.0661  0.2438
 8579SOL    HW137196   2.839   1.554   3.641  0.5470 -0.1745  0.3910
 8579SOL    HW237197   2.944   1.599   3.568 -0.5866  0.5223 -1.6095
 8580SOL     OW37198   3.331   1.589   6.032 -0.0146 -0.0361 -0.7526
 8580SOL    HW137199   3.274   1.522   5.994  0.8168 -0.4674 -1.2367
 8580SOL    HW237200   3.385   1.546   6.099  0.5542 -0.7840 -1.6930
 8581SOL     OW37201   0.495   2.051   6.049  0.2744 -0.3575  0.3851
 8581SOL    HW137202   0.458   1.977   6.001 -0.5409  0.1042  0.3037
 8581SOL    HW237203   0.449   2.120   6.004  2.0327  0.6208  0.0750
 8582SOL     OW37204   2.721   4.001  11.937 -0.1140  0.3006  0.0303
 8582SOL    HW137205   2.734   3.970  11.847  1.0023 -1.4995  0.8234
 8582SOL    HW237206   2.796   4.061  11.940  0.6874 -0.7039 -0.0389
 8583SOL     OW37207   4.249   1.724   4.620  0.5614  0.2118  0.0002
 8583SOL    HW137208   4.314   1.655   4.607  0.7152  0.3107  0.2493
 8583SOL    HW237209   4.205   1.717   4.535  2.9700 -1.1111 -1.1196
 8584SOL     OW37210   4.531   2.456   3.791 -0.7545 -0.0732  0.1202
 8584SOL    HW137211   4.547   2.372   3.749 -0.3750  0.3987 -0.6773
 8584SOL    HW237212   4.436   2.458   3.808 -0.4207  2.2490  1.8049
 8585SOL     OW37213   0.064   1.949   7.869 -0.3838  0.2503 -0.3453
 8585SOL    HW137214   0.089   1.867   7.827  3.0980  1.5746 -0.8217
 8585SOL    HW237215   4.716   1.971   7.812  1.9655 -0.9753 -3.9142
 8586SOL     OW37216   1.162   3.337   6.875  0.2721 -0.3474  0.5732
 8586SOL    HW137217   1.183   3.286   6.954 -4.0639  0.6201  2.3818
 8586SOL    HW237218   1.191   3.286   6.800  0.0591 -1.0149  0.9425
 8587SOL     OW37219   0.764   0.044   7.273  0.5508 -0.6268  0.2061
 8587SOL    HW137220   0.858   0.026   7.278  0.8162  0.5576 -0.6849
 8587SOL    HW237221   0.755   0.019   7.181  2.1392  0.0373 -0.1317
 8588SOL     OW37222   1.617   4.167  11.494  0.0236 -0.1061  0.0193
 8588SOL    HW137223   1.692   4.186  11.551 -0.0796 -0.1811  0.1798
 8588SOL    HW237224   1.550   4.143  11.558 -2.1669  0.1829 -2.1608
 8589SOL     OW37225   4.656   0.684  10.107  0.4530 -0.0997  0.5408
 8589SOL    HW137226   4.587   0.636  10.062 -0.1733  2.1252 -0.8932
 8589SOL    HW237227   4.703   0.733  10.039 -0.5553  1.0542  0.6844
 8590SOL     OW37228   1.543   2.690   2.598 -0.1988 -0.2681 -0.6495
 8590SOL    HW137229   1.449   2.671   2.605 -0.1187 -0.9370 -1.4403
 8590SOL    HW237230   1.579   2.607   2.569  0.5285 -0.0976 -0.2218
 8591SOL     OW37231   3.469   0.906  12.731 -0.0934  0.0694 -0.7876
 8591SOL    HW137232   3.470   0.841  12.801  3.6406 -1.4076 -2.1922
 8591SOL    HW237233   3.551   0.872  12.695  0.7632  0.1029  1.1485
 8592SOL     OW37234   3.515   0.442   6.486 -0.1860  0.3013  0.3635
 8592SOL    HW137235   3.469   0.450   6.402  1.9530 -1.0508 -0.9528
 8592SOL    HW237236   3.449   0.448   6.555  0.6551 -0.4951  1.2247
 8593SOL     OW37237   3.206   0.467   4.103 -0.0724  0.4613  0.0750
 8593SOL    HW137238   3.256   0.522   4.163 -3.0828  1.5481  1.5444
 8593SOL    HW237239   3.143   0.529   4.068 -0.6889  0.1419  0.6346
 8594SOL     OW37240   4.577   0.995  16.510  0.9209 -0.1532  0.0465
 8594SOL    HW137241   4.520   1.036  16.575  0.1052 -2.0377  0.5049
 8594SOL    HW237242   4.637   0.949  16.570  1.9581  0.4247 -0.5415
 8595SOL     OW37243   2.005   4.658  12.097  0.2829 -0.0683 -0.2585
 8595SOL    HW137244   1.952   4.586  12.061 -1.2416  0.9560 -0.0495
 8595SOL    HW237245   2.091   4.619  12.080  0.3448  1.1332 -2.6411
 8596SOL     OW37246   0.721   2.576   4.565 -0.1281  0.7277  0.2802
 8596SOL    HW137247   0.627   2.587   4.551 -0.0988  0.0918 -0.4162
 8596SOL    HW237248   0.729   2.610   4.654 -0.3334  0.3405  0.4437
 8597SOL     OW37249   2.484   4.691  14.472  0.2209  0.4233  0.0792
 8597SOL    HW137250   2.463   4.620  14.532  0.4435 -0.0936 -0.4599
 8597SOL    HW237251   2.467   4.651  14.387 -0.1620  0.6902  0.0282
 8598SOL     OW37252   2.482   3.905   7.692 -0.0420  0.0006  0.6636
 8598SOL    HW137253   2.501   3.992   7.727 -0.0984 -0.5177  1.9834
 8598SOL    HW237254   2.440   3.860   7.765 -2.3865  1.2231  0.0388
 8599SOL     OW37255   0.384   2.645  14.628 -0.2249 -0.3955 -0.0043
 8599SOL    HW137256   0.391   2.606  14.540  2.5434  0.8110 -0.3193
 8599SOL    HW237257   0.301   2.691  14.617  0.4868  0.3036 -2.4981
 8600SOL     OW37258   1.325   3.623   5.796  0.0948 -0.1734 -0.5400
 8600SOL    HW137259   1.249   3.580   5.835 -1.2010 -0.3265 -3.2282
 8600SOL    HW237260   1.293   3.710   5.773 -0.3848  0.2382  1.6475
 8601SOL     OW37261   0.185   2.129   7.351  0.1580 -0.7521 -0.5497
 8601SOL    HW137262   0.169   2.082   7.433  0.3557  0.6389  0.2784
 8601SOL    HW237263   0.242   2.195   7.389 -0.5767 -1.2203  1.3949
 8602SOL     OW37264   3.148   0.954   3.406 -0.1091 -0.3414 -0.4543
 8602SOL    HW137265   3.155   0.883   3.342 -0.7644 -0.6825 -0.1407
 8602SOL    HW237266   3.230   0.937   3.452  0.1894  0.6148 -0.6336
 8603SOL     OW37267   2.489   4.283   6.672 -0.6321  0.3249  0.5524
 8603SOL    HW137268   2.426   4.354   6.658  1.4473  1.8557 -0.9190
 8603SOL    HW237269   2.516   4.263   6.582  0.4072 -0.2434  0.9993
 8604SOL     OW37270   3.743   1.446   3.759 -0.0874 -0.4631 -0.0191
 8604SOL    HW137271   3.692   1.512   3.806  0.9846  1.1882 -1.1863
 8604SOL    HW237272   3.706   1.445   3.671  1.5206  0.5274 -0.7071
 8605SOL     OW37273   4.366   1.457  13.018 -0.8719 -0.2531 -0.4384
 8605SOL    HW137274   4.428   1.464  13.091 -1.2363  0.0709 -0.1636
 8605SOL    HW237275   4.343   1.549  13.005 -3.0545 -0.6803  0.4209
 8606SOL     OW37276   2.194   1.087   6.119 -0.3833 -0.1827 -0.2358
 8606SOL    HW137277   2.154   1.008   6.155 -1.7610  0.4791 -0.3504
 8606SOL    HW237278   2.177   1.146   6.192 -1.5345  2.0287 -2.2866
 8607SOL     OW37279   4.580   2.462  10.823  0.1975  0.0628 -0.0867
 8607SOL    HW137280   4.557   2.532  10.884 -1.7495  0.4512 -1.2578
 8607SOL    HW237281   4.549   2.390  10.878 -0.8912 -0.6245 -1.5712
 8608SOL     OW37282   3.647   1.224   0.798 -0.2520 -0.1182  0.2367
 8608SOL    HW137283   3.705   1.149   0.808 -0.8657 -1.0951 -3.3723
 8608SOL    HW237284   3.642   1.258   0.887 -2.5509  0.3678 -0.0822
 8609SOL     OW37285   0.393   0.677   5.945  0.0331  0.5472 -0.3160
 8609SOL    HW137286   0.455   0.659   6.015  1.4906 -0.7032 -1.9243
 8609SOL    HW237287   0.310   0.643   5.978 -0.2917 -0.6209 -2.3425
 8610SOL     OW37288   4.508   2.221  11.906 -0.3036 -0.3955  0.3810
 8610SOL    HW137289   4.466   2.307  11.906  0.4728 -0.0300 -1.4936
 8610SOL    HW237290   4.496   2.205  11.813  2.2023 -0.4677  0.0719
 8611SOL     OW37291   2.387   3.990   1.764  0.2094 -0.5141 -0.2843
 8611SOL    HW137292   2.459   3.947   1.717  1.7877  1.1139  0.6336
 8611SOL    HW237293   2.366   3.939   1.842 -0.1054 -0.8060 -0.5588
 8612SOL     OW37294   0.459   0.786   1.157 -0.0930  0.1594  0.3021
 8612SOL    HW137295   0.411   0.846   1.214 -2.0840 -0.1528 -1.0396
 8612SOL    HW237296   0.504   0.736   1.225  0.1609  3.6134  2.6640
 8613SOL     OW37297   2.741   3.540   4.132  0.3180 -0.3328 -0.0385
 8613SOL    HW137298   2.771   3.571   4.046 -2.3302  0.4304 -0.7150
 8613SOL    HW237299   2.740   3.448   4.108 -1.2010 -0.0602 -1.0511
 8614SOL     OW37300   1.900   1.064   2.243 -0.2291 -0.0212  0.8380
 8614SOL    HW137301   1.898   0.978   2.201 -1.0579  0.3645  0.0741
 8614SOL    HW237302   1.810   1.063   2.276  0.1297  1.9454  1.8825
 8615SOL     OW37303   1.283   1.260  17.640 -0.2265  0.6608 -0.5875
 8615SOL    HW137304   1.324   1.189  17.689  1.9434  3.3939  1.5662
 8615SOL    HW237305   1.201   1.231  17.600 -0.3618  2.3887 -1.5440
 8616SOL     OW37306   1.494   2.358   7.061 -0.0686  0.2445  0.3575
 8616SOL    HW137307   1.477   2.452   7.056  0.9986  0.4439  0.3957
 8616SOL    HW237308   1.566   2.349   6.998 -0.1736 -1.2196  0.4350
 8617SOL     OW37309   2.364   2.618  12.308 -0.0786  0.4159  0.0387
 8617SOL    HW137310   2.299   2.556  12.274  2.6241 -0.0666 -4.1540
 8617SOL    HW237311   2.303   2.689  12.328  1.4774  1.8396 -0.2775
 8618SOL     OW37312   3.896   2.407  11.024 -0.3723 -0.2572  0.2012
 8618SOL    HW137313   3.841   2.477  11.058 -0.7260  0.6073 -2.1492
 8618SOL    HW237314   3.840   2.330  11.011  3.2892 -2.8426 -0.3314
 8619SOL     OW37315   1.752   1.211   5.296 -0.5300  0.4004 -0.2324
 8619SOL    HW137316   1.675   1.268   5.301 -0.7601  0.2404 -2.3635
 8619SOL    HW237317   1.812   1.261   5.352 -0.2837  1.9232 -1.8602
 8620SOL     OW37318   3.866   3.843   4.307  0.6408 -0.5633 -0.6652
 8620SOL    HW137319   3.849   3.919   4.363  0.1321  0.7536 -2.6070
 8620SOL    HW237320   3.868   3.887   4.222 -0.9186 -2.9661 -1.9496
 8621SOL     OW37321   3.277   0.435   8.626 -0.4242 -0.4264  0.2760
 8621SOL    HW137322   3.290   0.508   8.686  0.7260 -0.1333 -0.3266
 8621SOL    HW237323   3.249   0.483   8.548 -1.8937  0.8128  1.5652
 8622SOL     OW37324   3.635   2.735  15.034  0.3560  0.2520 -0.4285
 8622SOL    HW137325   3.677   2.819  15.051  0.5986 -0.0965  0.6945
 8622SOL    HW237326   3.549   2.764  15.063  0.4881  0.2961 -0.0829
 8623SOL     OW37327   0.796   1.992  12.750  0.1561  0.1048  0.4595
 8623SOL    HW137328   0.769   2.081  12.774 -0.9528 -0.0495 -0.2405
 8623SOL    HW237329   0.804   1.950  12.836  2.1433  0.4404  0.4526
 8624SOL     OW37330   0.788   1.171   2.980  0.2759 -0.2094  0.4134
 8624SOL    HW137331   0.867   1.210   3.018 -0.1523  2.0580 -1.0108
 8624SOL    HW237332   0.766   1.238   2.916  2.3298  0.2164  0.1439
 8625SOL     OW37333   1.221   4.055   2.563  0.4112 -0.1540 -0.0196
 8625SOL    HW137334   1.248   4.147   2.571  3.1788 -1.2000  2.3785
 8625SOL    HW237335   1.138   4.075   2.520  0.4135  0.3024  0.1823
 8626SOL     OW37336   3.774   2.325  17.260  0.5733  0.7675  0.6893
 8626SOL    HW137337   3.866   2.325  17.233  0.8044 -1.4675  1.4253
 8626SOL    HW237338   3.776   2.324  17.355 -0.0415  0.9064  0.7042
 8627SOL     OW37339   1.504   0.262   9.683  0.0270 -0.0756  0.4676
 8627SOL    HW137340   1.530   0.343   9.727 -0.5347 -0.0980  0.8363
 8627SOL    HW237341   1.438   0.300   9.625  0.4742 -1.2438 -0.8262
 8628SOL     OW37342   0.670   3.467   1.811 -0.2294  0.3975  0.4960
 8628SOL    HW137343   0.694   3.448   1.902  0.4889  0.9156  0.4183
 8628SOL    HW237344   0.750   3.511   1.783 -0.1993  0.6333  0.9593
 8629SOL     OW37345   4.401   2.044   5.470 -0.0788  0.4592 -0.0158
 8629SOL    HW137346   4.415   1.987   5.546  2.3196  2.4954  1.0815
 8629SOL    HW237347   4.408   1.985   5.395  1.5992 -0.3286  0.7658
 8630SOL     OW37348   2.595   2.049   4.903  0.7336 -0.3214 -0.4142
 8630SOL    HW137349   2.627   2.126   4.951 -0.6507 -0.9493  1.5271
 8630SOL    HW237350   2.566   2.090   4.822  2.5273 -0.4070 -1.0994
 8631SOL     OW37351   1.824   4.345   1.617  0.2699  0.5177  0.7484
 8631SOL    HW137352   1.882   4.324   1.690 -0.3939 -1.6135  0.6764
 8631SOL    HW237353   1.757   4.398   1.661 -2.3759 -2.4957  0.3631
 8632SOL     OW37354   2.674   1.342   7.729 -0.2466  0.3708  0.0653
 8632SOL    HW137355   2.635   1.310   7.811  0.2522 -0.9681 -0.2240
 8632SOL    HW237356   2.767   1.325   7.741 -0.6304 -1.8365 -0.0434
 8633SOL     OW37357   1.618   0.244   7.843  0.7756  0.1626  0.6072
 8633SOL    HW137358   1.688   0.278   7.899  3.4062 -2.9202 -0.8053
 8633SOL    HW237359   1.675   0.234   7.766  0.1875 -1.2218  0.3542
 8634SOL     OW37360   0.515   2.144  13.339  0.0304  0.5713  0.2526
 8634SOL    HW137361   0.553   2.176  13.257 -0.9154  0.3877 -0.2516
 8634SOL    HW237362   0.549   2.055  13.335 -2.6671 -0.4593  0.6282
 8635SOL     OW37363   1.153   2.847   3.055 -0.4284 -0.0218  0.4575
 8635SOL    HW137364   1.223   2.867   3.117 -1.3854 -0.6136  1.7375
 8635SOL    HW237365   1.150   2.751   3.058  0.5970 -0.0581  0.0360
 8636SOL     OW37366   1.995   2.077   8.856 -0.2053 -0.4853 -0.1167
 8636SOL    HW137367   2.066   2.125   8.814  0.2316  0.0193  1.2108
 8636SOL    HW237368   2.031   1.997   8.891  0.6537 -0.4296 -0.8738
 8637SOL     OW37369   3.936   3.091   5.087  0.2801 -0.1861  0.0932
 8637SOL    HW137370   3.932   3.164   5.150  1.6712 -0.8676  0.9761
 8637SOL    HW237371   3.859   3.102   5.032  0.3166 -0.5296 -0.0246
 8638SOL     OW37372   0.590   2.294  12.106  0.0793 -0.1077 -0.0406
 8638SOL    HW137373   0.655   2.292  12.176 -0.1442 -0.2297  0.1632
 8638SOL    HW237374   0.544   2.211  12.116 -1.7002  1.0222  1.2636
 8639SOL     OW37375   0.343   0.885  11.375 -0.8498  0.4542  0.2018
 8639SOL    HW137376   0.321   0.889  11.282 -1.6570  0.3543  0.3864
 8639SOL    HW237377   0.370   0.977  11.375  0.4797  0.0665  1.7195
 8640SOL     OW37378   2.435   3.599   6.056  0.1377  0.8371  0.0988
 8640SOL    HW137379   2.466   3.651   5.982 -1.2343 -0.9389 -1.7024
 8640SOL    HW237380   2.342   3.612   6.041  0.0391  1.3736  1.1799
 8641SOL     OW37381   0.021   2.753  14.818  0.9148  0.1381 -0.3818
 8641SOL    HW137382   0.096   2.697  14.837 -0.9148 -2.3551 -0.4173
 8641SOL    HW237383   4.710   2.748  14.906 -0.1193  0.4243 -0.8028
 8642SOL     OW37384   2.635   0.357   2.429  0.2432  0.0346 -0.5095
 8642SOL    HW137385   2.551   0.330   2.393  0.7947 -0.0083 -1.7424
 8642SOL    HW237386   2.630   0.450   2.405  0.3946  0.1081 -0.2604
 8643SOL     OW37387   2.602   3.044  16.310  0.1137  0.0568 -0.6577
 8643SOL    HW137388   2.568   3.004  16.390  0.1650  1.3072 -0.0110
 8643SOL    HW237389   2.670   3.103  16.344  0.0982  0.2659 -0.9957
 8644SOL     OW37390   3.889   0.874   4.922 -0.0883  0.3080 -0.3036
 8644SOL    HW137391   3.929   0.937   4.862  0.1071 -1.1894 -1.7612
 8644SOL    HW237392   3.851   0.938   4.982  3.2565  0.5286  1.5579
 8645SOL     OW37393   1.275   1.749   8.048  0.6712 -0.7780  0.0977
 8645SOL    HW137394   1.301   1.657   8.053  1.4116 -0.4697  2.2311
 8645SOL    HW237395   1.337   1.785   7.985 -0.2107  1.8235  0.6889
 8646SOL     OW37396   3.688   4.271   7.620  0.8485 -0.0873  0.2493
 8646SOL    HW137397   3.727   4.354   7.593  1.3749 -0.1763  0.7196
 8646SOL    HW237398   3.614   4.296   7.675  0.8653 -1.1870  0.7838
 8647SOL     OW37399   3.533   1.171   4.720  0.4070  0.5136  0.1694
 8647SOL    HW137400   3.438   1.159   4.720  0.1468  2.8262 -2.0766
 8647SOL    HW237401   3.569   1.089   4.686  1.9353  0.8241  1.0251
 8648SOL     OW37402   1.884   0.978   5.428  0.2009  0.2309  0.2289
 8648SOL    HW137403   1.819   1.022   5.373  0.9627  0.5002 -0.4499
 8648SOL    HW237404   1.915   0.911   5.366  2.2040  0.3895  1.0510
 8649SOL     OW37405   1.019   4.313   9.055  0.2967 -0.0678 -0.2126
 8649SOL    HW137406   0.957   4.288   9.123 -0.6258 -1.7444 -1.6588
 8649SOL    HW237407   0.973   4.309   8.971  1.5010  3.1792 -1.0360
 8650SOL     OW37408   4.358   3.469   2.749  0.0265  0.3711  0.2160
 8650SOL    HW137409   4.442   3.492   2.789  0.7210  1.6485 -1.9541
 8650SOL    HW237410   4.298   3.529   2.793 -0.1348  0.7150 -0.4744
 8651SOL     OW37411   4.431   4.049   6.577 -0.8767  0.1824  0.1796
 8651SOL    HW137412   4.379   4.009   6.646  1.4824 -0.9624  1.3232
 8651SOL    HW237413   4.520   4.026   6.606 -0.5969 -1.0282 -1.6342
 8652SOL     OW37414   1.383   3.290   1.162 -0.2344 -0.4018 -0.2273
 8652SOL    HW137415   1.393   3.273   1.255  1.2674 -1.3471 -0.5678
 8652SOL    HW237416   1.293   3.259   1.152 -0.1483 -1.2385  1.7245
 8653SOL     OW37417   1.772   3.647   6.426 -0.8230  0.2369  0.2869
 8653SOL    HW137418   1.727   3.646   6.341  0.5383 -1.6018 -0.4192
 8653SOL    HW237419   1.837   3.713   6.403  1.0892 -1.3288  1.2893
 8654SOL     OW37420   3.400   0.094   8.118  0.6203 -0.3139 -0.1442
 8654SOL    HW137421   3.448   0.042   8.052  1.2754 -0.3615  0.3746
 8654SOL    HW237422   3.442   0.070   8.200 -2.2040  1.4291  1.7825
 8655SOL     OW37423   1.674   0.800   3.191  0.1438  0.5229 -0.5893
 8655SOL    HW137424   1.700   0.714   3.224 -0.4797  0.5884  0.0564
 8655SOL    HW237425   1.658   0.852   3.270 -0.2356 -3.3690  1.8549
 8656SOL     OW37426   4.369   4.196   1.608 -0.0807  0.2840  0.3111
 8656SOL    HW137427   4.293   4.242   1.572 -1.5776 -0.7428  2.1750
 8656SOL    HW237428   4.431   4.182   1.536  0.1115  0.7445  0.3874
 8657SOL     OW37429   4.056   2.848   3.507 -0.4840 -0.5569  0.3608
 8657SOL    HW137430   3.997   2.847   3.582 -0.1392  0.1101  0.6400
 8657SOL    HW237431   4.004   2.868   3.429 -0.2417  1.6778  0.7916
 8658SOL     OW37432   4.432   2.981   4.852  0.1854  0.4668 -0.2072
 8658SOL    HW137433   4.445   2.925   4.776  0.8152 -0.6342  0.7083
 8658SOL    HW237434   4.504   2.956   4.909 -0.9775 -2.0363  0.2016
 8659SOL     OW37435   0.485   4.629   9.033 -0.2542  0.2429 -0.2005
 8659SOL    HW137436   0.577   4.603   9.027  0.1305  1.5723 -0.0052
 8659SOL    HW237437   0.437   4.557   8.992  1.2357 -0.5977 -0.4718
 8660SOL     OW37438   0.040   0.800   1.009  0.2952  0.3982  0.1810
 8660SOL    HW137439   0.079   0.819   1.095 -1.6629 -2.2156  1.6353
 8660SOL    HW237440   0.105   0.749   0.962 -0.0896  0.4791 -0.4349
 8661SOL     OW37441   2.408   0.294  16.866  0.1756 -0.7468  0.0549
 8661SOL    HW137442   2.348   0.223  16.845 -1.0106 -0.5277  2.6166
 8661SOL    HW237443   2.490   0.273  16.823  0.8419  0.5879  0.6711
 8662SOL     OW37444   2.286   2.766   7.554  0.1029 -0.1794  0.2514
 8662SOL    HW137445   2.273   2.853   7.517  0.5976  0.1384  0.8277
 8662SOL    HW237446   2.362   2.783   7.610  0.2817 -1.1083  0.2949
 8663SOL     OW37447   1.223   3.837   1.058 -0.1616 -0.5842 -0.1487
 8663SOL    HW137448   1.233   3.909   0.995 -1.9507  1.3875  1.8408
 8663SOL    HW237449   1.208   3.765   0.997 -3.8764  0.7134 -0.7295
 8664SOL     OW37450   2.718   2.706   6.703 -0.3538 -0.1022 -0.6410
 8664SOL    HW137451   2.742   2.772   6.768 -0.9147 -0.2554 -0.2734
 8664SOL    HW237452   2.622   2.712   6.705 -0.3859 -0.9619  0.2314
 8665SOL     OW37453   1.485   0.295  15.815  0.3951 -0.0303  0.1863
 8665SOL    HW137454   1.469   0.310  15.722 -1.5801  0.0594  0.5448
 8665SOL    HW237455   1.482   0.199  15.810 -0.2776 -0.0955  1.8202
 8666SOL     OW37456   4.437   2.279   6.854 -0.6524  0.1901  0.0391
 8666SOL    HW137457   4.497   2.308   6.786 -0.8758  0.0275 -0.2307
 8666SOL    HW237458   4.497   2.271   6.928  0.0486 -1.1817 -0.6798
 8667SOL     OW37459   1.199   2.294  10.696  0.7650  0.1019  0.2915
 8667SOL    HW137460   1.216   2.224  10.759 -1.3276 -0.5702  0.1278
 8667SOL    HW237461   1.267   2.289  10.628  0.3772  2.3258 -0.2649
 8668SOL     OW37462   3.521   4.685   2.905  0.1395  0.1305 -0.0199
 8668SOL    HW137463   3.462   4.656   2.975 -0.3907  1.3538  0.0391
 8668SOL    HW237464   3.491   0.045   2.880  0.4946  0.7841  1.8461
 8669SOL     OW37465   2.691   3.292   8.212 -0.4913 -0.7409 -0.3497
 8669SOL    HW137466   2.749   3.216   8.205 -0.6086 -0.7122 -1.6160
 8669SOL    HW237467   2.671   3.293   8.305  0.6983 -2.1903 -0.0810
 8670SOL     OW37468   4.538   2.883  11.710  0.9767  0.0503  0.2373
 8670SOL    HW137469   4.477   2.872  11.783 -0.4649  2.4461 -0.6233
 8670SOL    HW237470   4.549   2.978  11.705  0.4422  0.0693 -0.5511
 8671SOL     OW37471   4.703   2.259   6.413  0.3108 -0.0696  0.4540
 8671SOL    HW137472   4.717   2.342   6.367 -0.4742 -1.1563 -1.7425
 8671SOL    HW237473   0.063   2.248   6.451 -0.0144 -2.7294  0.4276
 8672SOL     OW37474   0.996   0.030   3.026  0.2171  0.0386 -0.2423
 8672SOL    HW137475   1.080   0.063   2.994 -0.2417  1.6247  0.2271
 8672SOL    HW237476   0.941   0.004   2.952 -1.8362  1.5332  0.7776
 8673SOL     OW37477   3.474   1.702   3.371  0.3809  0.0728 -0.1978
 8673SOL    HW137478   3.560   1.664   3.356 -0.6280 -3.3220  2.5584
 8673SOL    HW237479   3.473   1.725   3.464 -0.1570  0.4052 -0.2788
 8674SOL     OW37480   3.639   2.412  16.132  0.6978  0.5541  0.0517
 8674SOL    HW137481   3.698   2.340  16.155  1.1315  1.0099  0.3792
 8674SOL    HW237482   3.627   2.400  16.038  0.4680 -2.9674  0.5311
 8675SOL     OW37483   0.542   2.754  10.608  0.4406 -0.2616  0.0634
 8675SOL    HW137484   0.625   2.706  10.611  0.1466 -0.7209  0.8444
 8675SOL    HW237485   0.496   2.710  10.679  1.3654 -0.9626  0.2335
 8676SOL     OW37486   1.622   0.287  16.123  0.3187 -0.0100  0.1512
 8676SOL    HW137487   1.698   0.338  16.094  2.0449 -1.9647  1.1754
 8676SOL    HW237488   1.624   0.290  16.218 -0.2764 -2.9119  0.2537
 8677SOL     OW37489   1.553   3.200  13.068  0.8551 -0.0546 -0.3965
 8677SOL    HW137490   1.548   3.123  13.125 -1.7489  0.0580 -0.4630
 8677SOL    HW237491   1.590   3.258  13.135  0.6344 -0.7353  0.3120
 8678SOL     OW37492   1.412   0.321   0.687  0.1346  0.2328  0.8699
 8678SOL    HW137493   1.505   0.339   0.671 -0.0192  0.3640  0.1639
 8678SOL    HW237494   1.370   0.392   0.640 -0.2760 -1.1154 -0.8021
 8679SOL     OW37495   3.803   4.653  14.165  0.1192 -0.0641  0.2833
 8679SOL    HW137496   3.815   4.575  14.110  0.0191 -0.4661  0.8342
 8679SOL    HW237497   3.889   4.693  14.158  1.1561 -1.9568  2.1622
 8680SOL     OW37498   0.303   2.262  15.144 -0.0389 -0.3158  0.1447
 8680SOL    HW137499   0.320   2.185  15.199  2.5098 -0.4844 -0.9021
 8680SOL    HW237500   0.390   2.289  15.114  0.2587 -1.7016 -0.2807
 8681SOL     OW37501   0.867   0.183   0.210  0.2102  0.2847  0.0056
 8681SOL    HW137502   0.829   0.261   0.250 -2.1645 -0.6101 -0.5488
 8681SOL    HW237503   0.962   0.191   0.223 -0.1831  0.0076  2.9558
 8682SOL     OW37504   3.492   4.510   9.174 -0.5648 -0.2555  0.1449
 8682SOL    HW137505   3.496   4.472   9.262 -0.7961 -1.1104 -0.2144
 8682SOL    HW237506   3.505   4.435   9.116  0.2140 -0.6523  0.8254
 8683SOL     OW37507   4.640   4.209   9.160 -0.3172  0.0436 -0.1348
 8683SOL    HW137508   4.545   4.195   9.153 -0.1985 -0.2919 -1.0973
 8683SOL    HW237509   4.669   4.205   9.069 -1.6713  2.1971 -0.6852
 8684SOL     OW37510   3.008   1.449   9.859 -0.5749  0.2055 -0.2899
 8684SOL    HW137511   3.064   1.487   9.791 -1.4326 -0.8857 -1.6092
 8684SOL    HW237512   2.942   1.518   9.871 -1.0802 -0.4527  0.6587
 8685SOL     OW37513   0.062   4.316   2.924  0.2290 -0.1561  0.1543
 8685SOL    HW137514   0.149   4.338   2.956  0.2002 -0.8221  0.6758
 8685SOL    HW237515   0.018   4.398   2.901  0.9828 -0.4488 -2.3027
 8686SOL     OW37516   0.871   0.160  10.680 -0.1226 -0.0021 -0.2234
 8686SOL    HW137517   0.873   0.065  10.682 -0.3560  0.0236  1.0324
 8686SOL    HW237518   0.929   0.188  10.608  0.9130 -1.1209  0.1752
 8687SOL     OW37519   0.406   0.857   8.490 -0.5365 -0.1667  0.0553
 8687SOL    HW137520   0.464   0.932   8.483 -1.7547  0.6482 -1.1821
 8687SOL    HW237521   0.364   0.858   8.576 -0.3806  2.2253  0.0995
 8688SOL     OW37522   3.348   4.306  12.632  0.0815 -0.2636  0.0890
 8688SOL    HW137523   3.311   4.240  12.691  2.0827 -0.0985  1.5003
 8688SOL    HW237524   3.411   4.263  12.575  0.2212 -0.6610  0.5427
 8689SOL     OW37525   4.669   1.036   5.337  0.2404 -0.5733  0.2782
 8689SOL    HW137526   0.019   1.064   5.288 -0.3750  0.5461 -0.0219
 8689SOL    HW237527   4.694   0.949   5.369  1.2439 -0.7120 -0.9071
 8690SOL     OW37528   0.699   3.783   5.948  0.0899 -0.2553 -0.2768
 8690SOL    HW137529   0.705   3.843   6.022  1.0755 -3.2341  2.0039
 8690SOL    HW237530   0.630   3.728   5.983 -0.2790  0.0945 -0.4450
 8691SOL     OW37531   0.748   2.183   7.694  0.0669  0.0631  0.2678
 8691SOL    HW137532   0.794   2.235   7.760  1.3633 -1.8502  0.8719
 8691SOL    HW237533   0.788   2.098   7.713  0.4750  0.0919 -0.4795
 8692SOL     OW37534   1.663   1.906   4.900  0.0182  0.0057  0.2592
 8692SOL    HW137535   1.582   1.889   4.851 -0.2958 -3.7460  2.0488
 8692SOL    HW237536   1.707   1.959   4.833 -0.5119  1.3239  0.9446
 8693SOL     OW37537   3.359   1.137   1.899 -0.4205  0.0132 -0.4210
 8693SOL    HW137538   3.425   1.068   1.902 -0.2223  0.3283  2.9987
 8693SOL    HW237539   3.388   1.181   1.819  1.1177  1.7163  1.0670
 8694SOL     OW37540   2.471   2.379   7.513 -0.0590 -0.5065 -0.5011
 8694SOL    HW137541   2.430   2.376   7.599 -2.2123  1.9376 -1.4410
 8694SOL    HW237542   2.417   2.317   7.463 -0.0714 -0.1852 -0.8816
 8695SOL     OW37543   0.482   2.843   4.238  0.1660  0.6239  0.0062
 8695SOL    HW137544   0.416   2.790   4.283  1.3283  0.7331  1.8439
 8695SOL    HW237545   0.548   2.856   4.306 -1.1934  1.2792  1.1909
 8696SOL     OW37546   1.569   2.357   3.171  0.2951  0.4855  0.3099
 8696SOL    HW137547   1.591   2.408   3.093  1.6297 -1.1525 -0.3773
 8696SOL    HW237548   1.652   2.342   3.214  0.8339  1.7958 -0.2795
 8697SOL     OW37549   4.509   1.744  11.658  0.3167  0.3723 -0.2261
 8697SOL    HW137550   4.518   1.658  11.700  1.2919  0.9679  0.7799
 8697SOL    HW237551   4.426   1.740  11.611  0.5302 -2.5737 -0.3740
 8698SOL     OW37552   0.667   1.678   6.074  0.1198 -0.1978  0.0503
 8698SOL    HW137553   0.642   1.645   6.161 -2.5784 -1.4790 -1.2032
 8698SOL    HW237554   0.625   1.611   6.019 -1.6337  0.1961  0.8938
 8699SOL     OW37555   2.573   4.350  17.672  0.1405  0.1329  0.6635
 8699SOL    HW137556   2.634   4.389   0.026  0.3194 -0.0506  0.6035
 8699SOL    HW237557   2.621   4.326  17.593 -0.9821 -2.1154  0.6792
 8700SOL     OW37558   3.931   4.467   1.441  0.5792  0.5733 -0.1865
 8700SOL    HW137559   3.920   4.505   1.528  0.2566 -2.9185  1.3042
 8700SOL    HW237560   4.025   4.455   1.427  0.0599 -0.3130 -2.9475
 8701SOL     OW37561   3.236   1.907   8.245  0.3951 -0.1611 -0.1610
 8701SOL    HW137562   3.223   1.997   8.215 -1.2881  0.1911  1.5761
 8701SOL    HW237563   3.144   1.886   8.265  0.4955 -0.6353 -0.2101
 8702SOL     OW37564   0.901   2.075  15.173 -0.4434 -0.1781  0.3595
 8702SOL    HW137565   0.980   2.064  15.225  1.1623  0.3616 -1.9695
 8702SOL    HW237566   0.860   2.146  15.223  1.6323  0.0157  1.7843
 8703SOL     OW37567   1.542   1.022   2.610  0.4929  0.2714  0.0864
 8703SOL    HW137568   1.516   0.972   2.688 -2.1691  0.2456 -0.8054
 8703SOL    HW237569   1.461   1.023   2.558 -0.6309 -0.4435  1.8344
 8704SOL     OW37570   2.174   1.380   2.293  0.4257 -0.2437  0.1529
 8704SOL    HW137571   2.156   1.301   2.345 -0.1390 -0.1766  0.0567
 8704SOL    HW237572   2.086   1.388   2.256 -1.1677 -1.1323  3.7062
 8705SOL     OW37573   0.892   3.437  12.189  0.2388 -0.4116 -0.0458
 8705SOL    HW137574   0.925   3.522  12.218 -0.8796 -0.4364  1.3134
 8705SOL    HW237575   0.882   3.444  12.094 -3.4986 -0.2854  0.3639
 8706SOL     OW37576   0.416   1.584  17.542 -0.0676 -0.3248 -0.2719
 8706SOL    HW137577   0.354   1.521  17.505  1.0010 -1.8656  0.5803
 8706SOL    HW237578   0.410   1.574  17.637 -4.7281  1.5180 -0.3588
 8707SOL     OW37579   0.487   3.700  16.584  0.1349  0.3022  0.8623
 8707SOL    HW137580   0.409   3.713  16.531  0.0134  0.5447  1.0985
 8707SOL    HW237581   0.457   3.716  16.673 -0.0229 -1.7674  1.1708
 8708SOL     OW37582   0.509   1.380   2.616  0.6614 -0.3498 -0.3798
 8708SOL    HW137583   0.571   1.376   2.689  0.9694  0.8557 -0.5758
 8708SOL    HW237584   0.438   1.332   2.659  0.1423  0.2658 -0.5749
 8709SOL     OW37585   2.131   0.416   6.605 -0.0086  0.1565 -0.0012
 8709SOL    HW137586   2.099   0.365   6.680  0.0348 -1.3156 -0.9919
 8709SOL    HW237587   2.064   0.484   6.607 -2.2268 -1.9756 -0.4775
 8710SOL     OW37588   1.107   0.372   8.829 -0.3131  0.0478  0.6792
 8710SOL    HW137589   1.054   0.304   8.788  2.6038 -0.9173 -1.4871
 8710SOL    HW237590   1.087   0.353   8.920  1.2283 -2.7987  0.4146
 8711SOL     OW37591   1.582   2.074  11.523 -0.0291  0.4010 -0.3228
 8711SOL    HW137592   1.523   1.999  11.528  0.2089  0.1352 -1.4614
 8711SOL    HW237593   1.541   2.141  11.579  2.0853  0.7549  0.8250
 8712SOL     OW37594   0.676   1.344   7.811  0.1341 -0.5076 -0.3302
 8712SOL    HW137595   0.629   1.297   7.742  0.3696 -1.0791 -0.0968
 8712SOL    HW237596   0.731   1.409   7.766 -1.4578  0.4888 -0.8399
 8713SOL     OW37597   3.692   3.565  14.152  0.0951  0.6102  0.1672
 8713SOL    HW137598   3.777   3.580  14.194 -0.7921  1.1456  1.7544
 8713SOL    HW237599   3.711   3.535  14.063 -2.8523 -0.1338 -0.1952
 8714SOL     OW37600   3.939   0.964   0.005 -0.3959  0.2211 -0.0220
 8714SOL    HW137601   4.010   1.020   0.038 -0.6254  1.7201 -2.0860
 8714SOL    HW237602   3.913   0.914   0.082  1.5355 -0.2632  0.3271
 8715SOL     OW37603   0.002   0.554   3.104  0.1372 -0.6695  0.0102
 8715SOL    HW137604   0.011   0.625   3.041 -0.2716  0.9136  1.7295
 8715SOL    HW237605   4.635   0.537   3.104  0.0371 -0.1235 -1.4168
 8716SOL     OW37606   1.093   2.223   4.995  0.1398  0.3287  0.0808
 8716SOL    HW137607   1.114   2.245   5.086 -2.9658  1.8823  0.4272
 8716SOL    HW237608   1.141   2.143   4.976 -0.3717  0.4251 -1.6230
 8717SOL     OW37609   2.857   3.435   6.694 -0.2282 -0.2377  0.8326
 8717SOL    HW137610   2.762   3.425   6.686  0.0281 -0.8495 -1.2783
 8717SOL    HW237611   2.878   3.449   6.602 -1.0005 -3.9199  0.0975
 8718SOL     OW37612   0.927   1.409   9.557  0.0198 -0.3314  0.2401
 8718SOL    HW137613   0.841   1.378   9.528  0.3261  0.8942 -1.9768
 8718SOL    HW237614   0.990   1.381   9.490 -0.9275 -2.2714  0.1415
 8719SOL     OW37615   4.266   2.286   4.722  0.2818 -0.1100 -0.2333
 8719SOL    HW137616   4.262   2.371   4.678  1.8765  0.2056  0.2199
 8719SOL    HW237617   4.309   2.311   4.804  0.8091  2.8929 -1.4544
 8720SOL     OW37618   1.984   4.538   7.094  0.8907  0.4736 -0.0993
 8720SOL    HW137619   1.892   4.536   7.121  1.5461  0.7044  2.2235
 8720SOL    HW237620   1.999   4.631   7.074  1.5217  0.3661 -0.1494
 8721SOL     OW37621   1.428   3.559   6.556 -0.3174 -0.3057  0.2245
 8721SOL    HW137622   1.513   3.550   6.599 -0.2498  0.3200  0.2230
 8721SOL    HW237623   1.404   3.651   6.564  0.2823 -0.0414 -1.0564
 8722SOL     OW37624   2.855   3.376  12.701  1.0978 -0.5190 -0.2124
 8722SOL    HW137625   2.823   3.304  12.754 -2.3800 -0.5501 -2.3727
 8722SOL    HW237626   2.793   3.379  12.628 -1.7044 -1.5168  2.1564
 8723SOL     OW37627   2.872   3.150  17.473  0.2942 -0.1456  0.2301
 8723SOL    HW137628   2.919   3.096  17.536  3.1050  0.9397 -0.9330
 8723SOL    HW237629   2.948   3.196  17.436  1.5928 -0.0324  3.0574
 8724SOL     OW37630   4.436   0.718  16.522 -0.5572  0.1418  0.2267
 8724SOL    HW137631   4.357   0.758  16.487 -0.6429 -0.3458 -0.1424
 8724SOL    HW237632   4.452   0.776  16.596 -0.9672  1.9210 -1.0961
 8725SOL     OW37633   1.803   1.878   2.077  0.2609 -0.2124  0.6407
 8725SOL    HW137634   1.755   1.824   2.014  0.6281 -0.2458  0.3893
 8725SOL    HW237635   1.804   1.963   2.033  3.7667  0.7443  2.6124
 8726SOL     OW37636   3.750   2.044  10.402 -0.3504 -0.1943  0.0610
 8726SOL    HW137637   3.657   2.050  10.423 -0.9383 -0.1309 -2.5840
 8726SOL    HW237638   3.735   1.996  10.320  1.5642 -0.5964 -0.0538
 8727SOL     OW37639   4.326   2.845   7.302  0.8311  0.0847 -0.2463
 8727SOL    HW137640   4.266   2.774   7.323  0.1202  0.1882 -1.8912
 8727SOL    HW237641   4.273   2.887   7.235  0.8033  0.7699  0.2044
 8728SOL     OW37642   2.475   3.524   9.374 -0.3273  0.1911  0.6147
 8728SOL    HW137643   2.469   3.447   9.318 -0.6753 -0.6905  1.8621
 8728SOL    HW237644   2.394   3.514   9.425 -0.2151  1.3097  1.0261
 8729SOL     OW37645   2.352   4.105   8.045  0.2604 -1.1600  0.2933
 8729SOL    HW137646   2.433   4.118   7.996 -0.6582 -0.7426 -1.1396
 8729SOL    HW237647   2.290   4.095   7.972  2.8128 -0.8022 -1.9056
 8730SOL     OW37648   0.811   3.329   5.006  0.8605  0.4895  0.1674
 8730SOL    HW137649   0.752   3.311   5.079  1.9234 -0.5325  0.7747
 8730SOL    HW237650   0.795   3.423   4.996 -1.2185  0.1196 -0.0102
 8731SOL     OW37651   3.546   0.593   0.852 -0.1591 -0.5925  0.6851
 8731SOL    HW137652   3.603   0.554   0.786 -0.6007 -0.8110  0.4255
 8731SOL    HW237653   3.464   0.564   0.811 -0.5381  0.9355  0.3910
 8732SOL     OW37654   2.524   0.532   6.266  0.1555  0.0162  0.6013
 8732SOL    HW137655   2.433   0.540   6.295 -0.4899 -0.7362 -1.2168
 8732SOL    HW237656   2.556   0.621   6.277 -1.6334  0.7718 -0.2955
 8733SOL     OW37657   1.202   0.331   6.993 -0.7242  0.4132 -0.4548
 8733SOL    HW137658   1.284   0.333   6.944 -0.2068  2.0334  0.4653
 8733SOL    HW237659   1.237   0.372   7.072 -0.4541 -1.4469  0.3856
 8734SOL     OW37660   3.601   2.259   4.065 -0.0471 -0.5321 -0.0564
 8734SOL    HW137661   3.596   2.176   4.017 -0.2213 -0.6345  0.1380
 8734SOL    HW237662   3.506   2.271   4.075 -0.0792 -1.3140  0.5903
 8735SOL     OW37663   1.461   1.683   1.104  0.1551  0.3543 -0.5579
 8735SOL    HW137664   1.476   1.713   1.194 -1.2728 -1.0997  0.1585
 8735SOL    HW237665   1.368   1.665   1.093 -0.0413  1.2356 -0.2938
 8736SOL     OW37666   0.830   2.927   3.632 -0.1465  0.0958  0.2436
 8736SOL    HW137667   0.850   2.928   3.539 -1.3708 -1.0867 -0.0250
 8736SOL    HW237668   0.735   2.916   3.634 -0.2357  0.7908 -0.2826
 8737SOL     OW37669   3.116   3.556   4.240 -0.5089  0.4117 -0.6307
 8737SOL    HW137670   3.117   3.496   4.315 -0.4320 -1.4363 -2.1333
 8737SOL    HW237671   3.180   3.622   4.268 -0.7312  0.7041 -0.8014
 8738SOL     OW37672   1.392   3.084   5.734 -0.0685  0.2135 -0.3528
 8738SOL    HW137673   1.331   3.125   5.673 -1.3665 -1.1760  0.0088
 8738SOL    HW237674   1.342   3.083   5.816  0.7163  0.6258  0.1337
 8739SOL     OW37675   4.282   4.418   8.956  0.0670 -0.0828  0.1831
 8739SOL    HW137676   4.201   4.443   9.001 -1.1680 -1.3356 -1.3338
 8739SOL    HW237677   4.322   4.364   9.024 -1.8715  0.6627  1.9278
 8740SOL     OW37678   0.142   4.073   8.084 -0.1728  0.1341  0.0955
 8740SOL    HW137679   0.076   4.067   8.014  0.4715  2.0450 -0.6682
 8740SOL    HW237680   0.084   4.057   8.158  2.6036  0.5074  2.3381
 8741SOL     OW37681   1.555   2.744   5.332 -0.0391  0.0576  0.1784
 8741SOL    HW137682   1.523   2.702   5.411  1.3917  0.7251  1.1291
 8741SOL    HW237683   1.645   2.765   5.357 -0.5500  1.7445  0.6164
 8742SOL     OW37684   0.210   4.576   4.754 -0.1790 -0.0957 -0.8809
 8742SOL    HW137685   0.238   4.515   4.686  0.4273 -1.2163  0.3879
 8742SOL    HW237686   0.295   4.592   4.794 -1.2319  0.1529  1.2617
 8743SOL     OW37687   3.442   2.146  10.803  0.2736 -0.2238  0.1801
 8743SOL    HW137688   3.390   2.085  10.751 -0.1116 -0.1844  0.5181
 8743SOL    HW237689   3.441   2.101  10.887  1.5121  0.4731  0.5800
 8744SOL     OW37690   2.230   0.248   6.158 -0.7784 -0.4337 -0.1836
 8744SOL    HW137691   2.196   0.225   6.245  0.0089  0.0220  0.2506
 8744SOL    HW237692   2.293   0.176   6.154  0.8990  0.8844  2.2487
 8745SOL     OW37693   0.627   1.503   1.799  0.7938  0.1788 -0.1608
 8745SOL    HW137694   0.654   1.448   1.872 -1.2776 -0.6003  0.0152
 8745SOL    HW237695   0.645   1.446   1.724 -0.1105  1.6203 -1.4797
 8746SOL     OW37696   3.311   4.681   6.886 -0.3174  0.3131 -0.0118
 8746SOL    HW137697   3.312   4.590   6.858 -1.0985 -0.2580  1.7871
 8746SOL    HW237698   3.382   4.685   6.950  0.1259 -0.6085 -0.4676
 8747SOL     OW37699   4.265   3.865   3.094  0.0514 -0.1154 -0.5275
 8747SOL    HW137700   4.298   3.935   3.151  3.1465 -1.0464 -1.1816
 8747SOL    HW237701   4.331   3.799   3.115 -0.2806  0.3306  2.0035
 8748SOL     OW37702   3.370   3.985   7.305 -0.2565 -0.3099 -0.2049
 8748SOL    HW137703   3.368   4.079   7.322 -0.8673 -0.4947  0.8256
 8748SOL    HW237704   3.447   3.944   7.345  0.8846  0.6940 -1.4002
 8749SOL     OW37705   1.185   3.626  12.038 -0.3070 -0.0403  0.3519
 8749SOL    HW137706   1.200   3.537  12.006  5.2460  0.9895  0.1218
 8749SOL    HW237707   1.205   3.671  11.956  2.2775  0.3236  1.2046
 8750SOL     OW37708   0.931   4.053  12.418 -0.1860  0.6495  0.2439
 8750SOL    HW137709   0.923   3.973  12.366  0.0408 -0.5922  2.1254
 8750SOL    HW237710   0.933   4.026  12.510 -2.5149 -0.8628 -0.1546
 8751SOL     OW37711   1.060   2.223   5.283  0.0414  0.5684 -1.0068
 8751SOL    HW137712   1.069   2.135   5.319  0.1546  0.5476 -1.0848
 8751SOL    HW237713   0.978   2.213   5.235  0.2534 -1.9101 -0.8188
 8752SOL     OW37714   0.896   0.532   8.712 -0.1906 -0.3241  1.1497
 8752SOL    HW137715   0.806   0.557   8.731 -0.3052 -0.1166  0.3583
 8752SOL    HW237716   0.901   0.481   8.793 -1.1290 -1.6357  0.3843
 8753SOL     OW37717   1.083   2.345   2.978 -0.2501  0.1553  0.1772
 8753SOL    HW137718   1.091   2.409   2.908 -2.7294  2.2669  1.8343
 8753SOL    HW237719   1.151   2.286   2.945  1.0197  2.3733 -1.1607
 8754SOL     OW37720   4.257   3.741   5.016 -0.5191  0.6088 -0.0225
 8754SOL    HW137721   4.325   3.733   4.949  0.7505 -0.4298  1.3863
 8754SOL    HW237722   4.300   3.708   5.095 -0.6570  1.2853  0.3403
 8755SOL     OW37723   2.362   3.487  12.214  0.1945  0.1159  0.0611
 8755SOL    HW137724   2.437   3.518  12.164  0.4137 -0.1082  0.2497
 8755SOL    HW237725   2.310   3.567  12.221  0.8392  0.7288 -2.2518
 8756SOL     OW37726   2.788   4.151  16.250  0.1180  0.2118  0.3232
 8756SOL    HW137727   2.733   4.145  16.329 -1.1522  1.5324 -0.4677
 8756SOL    HW237728   2.742   4.083  16.202  2.0599  0.8989 -2.5127
 8757SOL     OW37729   0.433   1.593   7.746  0.2972 -1.2842  0.1864
 8757SOL    HW137730   0.414   1.512   7.794  2.9638  0.1338  3.6285
 8757SOL    HW237731   0.479   1.641   7.815  2.3522 -1.0570 -1.3631
 8758SOL     OW37732   1.850   3.978   3.852 -0.3069 -0.4304  0.2326
 8758SOL    HW137733   1.911   4.050   3.872  1.3468 -1.4713 -1.0483
 8758SOL    HW237734   1.825   4.005   3.764 -1.7984 -0.3773  0.6718
 8759SOL     OW37735   4.523   3.037   9.688  0.3210  0.0386  0.5350
 8759SOL    HW137736   4.435   2.999   9.684  1.4098 -2.4370  0.3821
 8759SOL    HW237737   4.580   2.961   9.690  0.1152 -0.2116 -2.0925
 8760SOL     OW37738   2.017   4.210  11.273  0.6894 -0.1411  0.3332
 8760SOL    HW137739   2.037   4.201  11.366 -1.9810 -0.5312  0.8802
 8760SOL    HW237740   2.059   4.130  11.240 -0.9438 -1.2641  0.9762
 8761SOL     OW37741   2.251   1.718   5.308  0.1124 -0.4613  0.3320
 8761SOL    HW137742   2.335   1.744   5.344 -0.2977  2.0137 -0.5063
 8761SOL    HW237743   2.242   1.784   5.239  1.3889 -1.1966 -0.5332
 8762SOL     OW37744   0.603   3.026  10.676  0.1767  0.1240 -0.4917
 8762SOL    HW137745   0.597   2.938  10.638 -1.3501 -0.1532  0.3809
 8762SOL    HW237746   0.659   3.009  10.753  0.6003 -1.1212 -1.0646
 8763SOL     OW37747   2.969   4.260   1.077 -0.0294 -0.1935 -0.9985
 8763SOL    HW137748   2.983   4.173   1.116  2.6896  0.1362 -1.2375
 8763SOL    HW237749   3.011   4.262   0.991 -1.1684  1.5756 -1.5221
 8764SOL     OW37750   2.225   2.683  17.439 -0.0832  0.1639 -0.1012
 8764SOL    HW137751   2.167   2.753  17.468 -2.5032 -2.1252  0.5843
 8764SOL    HW237752   2.306   2.718  17.475 -0.2775 -0.3007  0.7945
 8765SOL     OW37753   1.930   1.352   5.429  0.1540 -0.8771 -0.6005
 8765SOL    HW137754   1.968   1.440   5.439 -1.2612 -0.3464  0.0660
 8765SOL    HW237755   1.960   1.311   5.510  3.1596  0.4994 -1.0103
 8766SOL     OW37756   2.094   3.103   1.232  0.1102  0.3935 -0.6567
 8766SOL    HW137757   2.147   3.052   1.171  2.4046  0.8664  0.9661
 8766SOL    HW237758   2.167   3.114   1.293 -0.1072 -3.5777  0.3060
 8767SOL     OW37759   0.434   0.121   8.653  0.2854 -0.6846 -0.7509
 8767SOL    HW137760   0.436   0.114   8.748  0.7379  4.2535 -0.4036
 8767SOL    HW237761   0.496   0.191   8.633  1.9993 -1.6763  1.1654
 8768SOL     OW37762   1.956   1.328   1.141 -0.0954 -0.4610 -0.2571
 8768SOL    HW137763   1.931   1.411   1.181  0.9140 -0.3331  0.0983
 8768SOL    HW237764   1.980   1.276   1.217  2.1098  0.9384 -0.0035
 8769SOL     OW37765   0.111   0.734  15.649 -0.2874  0.8300  0.4515
 8769SOL    HW137766   0.136   0.704  15.736 -0.7026  2.6363  1.1841
 8769SOL    HW237767   0.034   0.787  15.668 -1.2077 -0.3008 -0.0813
 8770SOL     OW37768   1.768   3.707  17.538  0.0710  0.3772 -0.2017
 8770SOL    HW137769   1.821   3.757  17.477 -2.6176  2.3099 -0.9742
 8770SOL    HW237770   1.747   3.625  17.494  1.4299  0.5449 -1.1315
 8771SOL     OW37771   0.775   2.532   3.158  0.0978  0.3660  0.4055
 8771SOL    HW137772   0.805   2.582   3.082  0.1411  1.3084  1.0429
 8771SOL    HW237773   0.732   2.455   3.119 -0.9623  0.7592  0.7905
 8772SOL     OW37774   2.668   0.501  12.104  0.0784 -0.2384  0.2457
 8772SOL    HW137775   2.675   0.584  12.152 -1.8034 -0.7970  1.4466
 8772SOL    HW237776   2.762   0.488  12.091 -0.7006 -4.4012 -1.1593
 8773SOL     OW37777   3.918   2.678  16.071  0.0676 -0.5327  0.5947
 8773SOL    HW137778   4.006   2.703  16.098 -0.7376  2.5931  0.2433
 8773SOL    HW237779   3.924   2.647  15.980  2.7419 -1.7589  1.1917
 8774SOL     OW37780   2.740   1.484  15.209 -0.1814  0.4233  0.0761
 8774SOL    HW137781   2.680   1.476  15.135 -2.5682 -0.4975  2.0787
 8774SOL    HW237782   2.813   1.526  15.164 -0.5342 -0.1765 -1.0411
 8775SOL     OW37783   0.655   4.105  12.340  0.1670  0.1393  0.6336
 8775SOL    HW137784   0.730   4.158  12.313 -0.7549  0.1562 -1.8185
 8775SOL    HW237785   0.661   4.027  12.286  1.2965  1.1413 -0.6970
 8776SOL     OW37786   2.109   2.239  17.502 -0.6726 -0.0706  0.0647
 8776SOL    HW137787   2.093   2.320  17.551  2.3790 -0.5960  1.8984
 8776SOL    HW237788   2.160   2.268  17.426 -3.0797  0.0025 -1.5189
 8777SOL     OW37789   4.566   1.750  13.755 -0.0998 -0.6498 -0.1522
 8777SOL    HW137790   4.493   1.801  13.790  1.2392  0.7469  0.6239
 8777SOL    HW237791   4.608   1.822  13.708 -0.2905 -0.1664  0.4087
 8778SOL     OW37792   4.300   4.188   4.470 -0.7575 -0.3514  0.4450
 8778SOL    HW137793   4.335   4.128   4.536  0.5642 -0.0255  0.0345
 8778SOL    HW237794   4.341   4.265   4.509  1.7392 -0.6582 -1.6192
 8779SOL     OW37795   2.486   2.558   9.958  0.1989  0.0054  0.1814
 8779SOL    HW137796   2.433   2.557  10.037  0.9999  1.3200  0.7492
 8779SOL    HW237797   2.535   2.639   9.975 -0.8719  0.6062  0.3793
 8780SOL     OW37798   0.806   4.698  11.638  0.0682 -0.6410 -0.4671
 8780SOL    HW137799   0.878   0.034  11.626  1.2866 -1.4757  2.5870
 8780SOL    HW237800   0.739   0.014  11.584 -2.2827 -2.2580  1.2282
 8781SOL     OW37801   3.766   2.950   1.676 -0.3023  0.1762  0.3722
 8781SOL    HW137802   3.761   2.902   1.758 -2.7872  0.5808  0.4662
 8781SOL    HW237803   3.748   2.886   1.607  0.5833  0.9630 -0.5977
 8782SOL     OW37804   4.459   0.250   8.834  0.1853 -1.0738 -0.3392
 8782SOL    HW137805   4.508   0.257   8.752 -2.5841 -2.1959 -2.1060
 8782SOL    HW237806   4.460   0.155   8.841 -0.0911 -1.2552 -2.7442
 8783SOL     OW37807   1.653   2.171  12.614 -0.3612  0.0143  0.5743
 8783SOL    HW137808   1.731   2.206  12.569  0.2470 -2.5919 -0.4008
 8783SOL    HW237809   1.619   2.106  12.553  0.5995  1.1442 -1.1618
 8784SOL     OW37810   0.474   0.695   5.499  0.1384  0.4838  0.9019
 8784SOL    HW137811   0.511   0.610   5.522  2.9849  1.9886  1.9076
 8784SOL    HW237812   0.554   0.748   5.500 -0.3110  1.1433  1.4141
 8785SOL     OW37813   0.773   3.980   3.213 -0.2291 -0.1157  0.4971
 8785SOL    HW137814   0.838   3.956   3.279 -0.5841  1.0392  1.2692
 8785SOL    HW237815   0.817   3.969   3.128 -1.7839  0.2745 -0.3565
 8786SOL     OW37816   0.485   1.934   7.420 -0.5481  0.6564  0.6022
 8786SOL    HW137817   0.422   1.947   7.491 -0.3166  0.3001  0.8747
 8786SOL    HW237818   0.425   1.944   7.346  0.5224 -1.0713 -0.4935
 8787SOL     OW37819   1.025   3.251   2.718 -0.3708 -0.4596 -0.1303
 8787SOL    HW137820   1.119   3.249   2.738 -0.2847  0.0112 -0.4746
 8787SOL    HW237821   1.029   3.227   2.625 -0.2206  1.7316 -0.6977
 8788SOL     OW37822   3.937   1.349   9.980 -0.7550 -0.2778  0.1555
 8788SOL    HW137823   3.924   1.380   9.891 -3.1287  0.6208  0.8126
 8788SOL    HW237824   3.949   1.430  10.030  0.8468  0.0808 -0.8142
 8789SOL     OW37825   2.952   4.164  11.934  0.4314  0.5407  0.2980
 8789SOL    HW137826   2.920   4.249  11.966  2.3942  0.5429  2.2646
 8789SOL    HW237827   3.027   4.192  11.883  0.6599 -1.1635 -0.3104
 8790SOL     OW37828   1.395   4.493  15.673  0.4863  0.0706 -0.4084
 8790SOL    HW137829   1.465   4.430  15.655 -1.6035 -1.9238 -1.5438
 8790SOL    HW237830   1.322   4.433  15.669 -0.3397  1.1010 -0.9200
 8791SOL     OW37831   2.600   4.119   6.841  0.1706  0.3428  0.1591
 8791SOL    HW137832   2.571   4.169   6.917 -2.2502  1.4367 -1.4526
 8791SOL    HW237833   2.581   4.185   6.773  1.6158  1.0014  0.3897
 8792SOL     OW37834   0.851   4.518   5.058  0.1046  0.1729  0.0117
 8792SOL    HW137835   0.877   4.465   4.983  1.8320  1.6232 -0.3883
 8792SOL    HW237836   0.905   4.491   5.133 -0.5654 -1.5403 -0.1132
 8793SOL     OW37837   3.372   1.684   8.243 -0.1930 -0.8614  0.0435
 8793SOL    HW137838   3.410   1.690   8.331  0.8646 -0.3787 -0.4508
 8793SOL    HW237839   3.313   1.759   8.245 -1.2560 -1.7126  1.4958
 8794SOL     OW37840   2.081   2.122  11.264 -0.7983  0.0373  0.1880
 8794SOL    HW137841   2.174   2.102  11.264 -1.2551 -2.0123  2.5347
 8794SOL    HW237842   2.074   2.214  11.239  1.5569 -0.1809 -1.2585
 8795SOL     OW37843   2.929   0.211  13.355 -0.1484  0.0744 -0.4627
 8795SOL    HW137844   2.957   0.148  13.289  2.4247  1.5140 -0.7505
 8795SOL    HW237845   3.009   0.240  13.401  0.2236 -1.0277 -0.4240
 8796SOL     OW37846   0.364   2.127   1.585  0.2341  0.4692  0.3064
 8796SOL    HW137847   0.282   2.171   1.561 -0.3880 -1.1192 -0.5068
 8796SOL    HW237848   0.409   2.146   1.502  0.3192 -3.3765 -0.5233
 8797SOL     OW37849   4.593   0.162   6.765  0.3166 -0.8232  0.1576
 8797SOL    HW137850   4.647   0.115   6.828  2.0962  0.5849 -0.3190
 8797SOL    HW237851   4.606   0.113   6.684 -0.2579 -2.0194  0.8010
 8798SOL     OW37852   0.587   0.843   7.038 -0.1348  0.0410 -0.0303
 8798SOL    HW137853   0.680   0.832   7.058 -0.1790 -0.7249 -0.2425
 8798SOL    HW237854   0.540   0.820   7.118  0.8691 -0.8746  0.2935
 8799SOL     OW37855   1.486   3.739   8.135  0.6935 -0.6518 -0.1111
 8799SOL    HW137856   1.513   3.665   8.080 -2.0935 -0.0951 -2.2295
 8799SOL    HW237857   1.393   3.716   8.136  0.9976 -1.7269  2.0458
 8800SOL     OW37858   0.750   0.340   6.337 -0.3595  0.0676  0.4252
 8800SOL    HW137859   0.663   0.358   6.373 -0.2408 -0.9749  1.2527
 8800SOL    HW237860   0.788   0.427   6.341 -0.4648  0.2475 -2.7886
 8801SOL     OW37861   3.107   2.843   4.478  0.1770 -0.8954  0.3520
 8801SOL    HW137862   3.069   2.868   4.562 -1.4882 -1.8359 -0.1331
 8801SOL    HW237863   3.028   2.793   4.457 -0.5865  0.3690  0.1938
 8802SOL     OW37864   4.689   0.839  12.282  0.0401 -0.1903  0.2899
 8802SOL    HW137865   4.706   0.933  12.269 -1.0091 -0.1463 -0.8156
 8802SOL    HW237866   4.705   0.834  12.376 -0.1702  0.2624  0.3503
 8803SOL     OW37867   2.820   2.111   3.747  0.6316 -0.2940  0.0486
 8803SOL    HW137868   2.882   2.059   3.695  4.0629  1.9919  1.8527
 8803SOL    HW237869   2.883   2.137   3.813  1.8095 -0.0496 -1.1642
 8804SOL     OW37870   1.512   0.803  13.691  0.3425  0.0451  0.4411
 8804SOL    HW137871   1.473   0.851  13.618 -0.8558 -0.5606  0.6798
 8804SOL    HW237872   1.473   0.868  13.749 -2.3974 -2.9746  1.9958
 8805SOL     OW37873   3.686   0.528   6.671  0.3162  0.4289 -0.5273
 8805SOL    HW137874   3.710   0.441   6.703 -1.1992 -0.2080 -1.1228
 8805SOL    HW237875   3.647   0.513   6.585 -1.5865 -0.9079  0.5498
 8806SOL     OW37876   1.478   2.617   7.042 -0.3295 -0.3346 -0.0115
 8806SOL    HW137877   1.546   2.638   6.978 -1.5717 -2.6728 -2.1012
 8806SOL    HW237878   1.501   2.670   7.118 -3.2905 -0.0996  0.7100
 8807SOL     OW37879   3.744   2.860   4.483  0.1344 -0.4946 -0.3808
 8807SOL    HW137880   3.733   2.866   4.388  3.1318 -2.2898 -0.8326
 8807SOL    HW237881   3.723   2.952   4.502  0.1776 -0.7598  0.9785
 8808SOL     OW37882   2.146   2.949   6.031 -0.5136 -0.1411  0.2198
 8808SOL    HW137883   2.143   2.979   6.121  0.8082 -1.3306  0.6645
 8808SOL    HW237884   2.197   2.869   6.044  0.7243  0.0560 -3.2332
 8809SOL     OW37885   3.445   2.797   5.373  0.5337  0.0696 -0.2691
 8809SOL    HW137886   3.440   2.707   5.341  0.1620 -0.5097  1.4148
 8809SOL    HW237887   3.514   2.792   5.440 -1.0857 -2.2461  1.2351
 8810SOL     OW37888   2.371   4.235   5.876 -0.2815 -0.0940 -0.2126
 8810SOL    HW137889   2.316   4.300   5.919  1.6148  0.5313  1.2396
 8810SOL    HW237890   2.457   4.243   5.918  0.1273  0.5025 -1.1654
 8811SOL     OW37891   4.514   0.869   6.847  0.6334 -0.4775 -0.5039
 8811SOL    HW137892   4.456   0.796   6.869  1.2940 -0.6679  0.6399
 8811SOL    HW237893   4.520   0.916   6.930  0.6370  0.5586 -1.0980
 8812SOL     OW37894   2.838   1.636  16.324 -0.8106 -0.3472  0.2690
 8812SOL    HW137895   2.925   1.610  16.292 -1.1649 -2.1407  0.7769
 8812SOL    HW237896   2.836   1.608  16.416  0.0782 -2.8644 -0.4916
 8813SOL     OW37897   1.337   1.808   8.415 -0.3391 -0.5407  0.2475
 8813SOL    HW137898   1.415   1.831   8.466 -0.2921 -0.1041 -0.0280
 8813SOL    HW237899   1.293   1.885   8.380  1.2734 -0.5177 -1.7678
 8814SOL     OW37900   3.633   4.036   5.236  0.3718 -0.0962  0.1071
 8814SOL    HW137901   3.667   3.983   5.308  1.4517  0.0913 -0.2595
 8814SOL    HW237902   3.707   4.021   5.178  1.0270 -1.0620  1.2133
 8815SOL     OW37903   1.606   1.541   2.707  0.0364 -0.6715 -0.8340
 8815SOL    HW137904   1.589   1.626   2.665 -0.9145 -0.2164  0.4858
 8815SOL    HW237905   1.646   1.492   2.634  0.1856  0.1635 -1.3211
 8816SOL     OW37906   3.966   2.267   0.135 -0.2184  0.0260  0.7007
 8816SOL    HW137907   3.873   2.269   0.155 -0.8643  0.7921 -2.3475
 8816SOL    HW237908   3.976   2.345   0.080 -0.7624  0.2220  0.8793
 8817SOL     OW37909   0.884   2.940   1.668 -0.0861 -0.3156 -0.4781
 8817SOL    HW137910   0.873   3.025   1.709  2.6036 -0.9676  1.5789
 8817SOL    HW237911   0.802   2.891   1.676 -2.0303  3.0468  0.0129
 8818SOL     OW37912   4.137   4.381   9.488 -0.2096  0.2331  0.2864
 8818SOL    HW137913   4.194   4.396   9.412  0.0121 -0.0634  0.3973
 8818SOL    HW237914   4.200   4.388   9.560  0.1063 -0.1848  0.0515
 8819SOL     OW37915   4.051   0.612   6.902  0.6703 -0.0349 -0.4018
 8819SOL    HW137916   4.038   0.621   6.807 -0.8214 -1.9127 -0.3767
 8819SOL    HW237917   3.985   0.670   6.939 -0.4563 -2.0305  0.6963
 8820SOL     OW37918   4.099   1.151  13.538 -0.5583 -0.3453 -0.2132
 8820SOL    HW137919   4.073   1.071  13.585  1.3287  0.2823  1.9205
 8820SOL    HW237920   4.075   1.210  13.609  2.5321 -1.0067  1.4106
 8821SOL     OW37921   3.341   0.797  15.014 -0.7517 -0.2988  0.4361
 8821SOL    HW137922   3.258   0.807  15.060 -0.4196  1.6935  0.6000
 8821SOL    HW237923   3.341   0.704  14.991  1.8681 -0.2294  0.2124
 8822SOL     OW37924   2.505   2.895   5.762 -0.5419  0.2397  0.3917
 8822SOL    HW137925   2.564   2.844   5.707 -0.5783  3.0746 -2.2707
 8822SOL    HW237926   2.574   2.954   5.792 -0.1836  0.4453 -0.8162
 8823SOL     OW37927   2.427   0.831   6.978 -0.1661 -0.3168  0.3084
 8823SOL    HW137928   2.450   0.739   6.961 -0.1774 -0.0804 -0.9614
 8823SOL    HW237929   2.371   0.831   7.055 -1.5563 -0.6675 -0.7041
 8824SOL     OW37930   2.708   4.352   4.630  0.1469 -0.0886 -0.5098
 8824SOL    HW137931   2.711   4.426   4.691  0.7970 -0.9396  0.4866
 8824SOL    HW237932   2.760   4.281   4.667  3.1932  2.4758  0.1235
 8825SOL     OW37933   1.161   1.646   5.343 -0.3436  0.0160  0.2221
 8825SOL    HW137934   1.173   1.606   5.429  1.7217 -0.9864 -0.5461
 8825SOL    HW237935   1.254   1.663   5.327 -0.4193  0.5966  0.3886
 8826SOL     OW37936   0.940   4.023  12.938 -0.1868  0.1502  0.1704
 8826SOL    HW137937   0.869   3.986  12.991 -1.2338 -0.3433 -1.5637
 8826SOL    HW237938   0.999   3.949  12.921 -1.1728  0.1038 -3.0983
 8827SOL     OW37939   3.600   2.541   5.152  0.0937  0.5474 -0.0012
 8827SOL    HW137940   3.580   2.589   5.072  1.5482  1.5627  0.2533
 8827SOL    HW237941   3.604   2.450   5.120  2.2340  0.6722 -0.0476
 8828SOL     OW37942   2.572   4.165   5.034 -0.1879 -0.4029  0.6744
 8828SOL    HW137943   2.502   4.100   5.044  0.5061 -1.3759 -0.8380
 8828SOL    HW237944   2.523   4.242   5.063  0.4949 -0.1048  1.0319
 8829SOL     OW37945   2.494   1.155  13.642  0.6933 -0.4808  0.7120
 8829SOL    HW137946   2.475   1.062  13.646 -1.6469 -0.0171  0.4342
 8829SOL    HW237947   2.589   1.163  13.631  0.3027 -0.5105 -2.6633
 8830SOL     OW37948   2.105   1.991   7.298 -0.1818 -0.4038 -0.3510
 8830SOL    HW137949   2.125   1.921   7.235  0.9672 -0.5771  0.2168
 8830SOL    HW237950   2.019   2.018   7.265  0.5924  0.3679 -1.7261
 8831SOL     OW37951   2.074   4.084  11.499 -0.0093 -0.4168  0.2191
 8831SOL    HW137952   2.077   3.988  11.504 -0.7094 -0.4305  0.3641
 8831SOL    HW237953   2.039   4.114  11.583 -0.5112 -1.8670  0.5421
 8832SOL     OW37954   3.134   1.177   2.832  0.2988 -0.3345 -0.5649
 8832SOL    HW137955   3.095   1.115   2.771 -1.2672  1.5089 -1.4444
 8832SOL    HW237956   3.142   1.129   2.914 -0.0385 -0.6207 -0.7043
 8833SOL     OW37957   2.389   3.643  16.562  0.1128  0.3924  0.4822
 8833SOL    HW137958   2.440   3.617  16.485 -1.6125 -0.7720 -0.2545
 8833SOL    HW237959   2.414   3.591  16.638 -2.6801  0.3401  1.3698
 8834SOL     OW37960   2.359   4.518  12.866  0.0335  0.3898 -0.5786
 8834SOL    HW137961   2.393   4.511  12.956 -2.4274 -2.0921  0.1588
 8834SOL    HW237962   2.384   4.608  12.847  4.4298 -1.1049 -1.8740
 8835SOL     OW37963   3.722   3.862   5.429 -0.3135 -0.1717  0.3691
 8835SOL    HW137964   3.814   3.855   5.403 -1.1652  0.1082 -2.7437
 8835SOL    HW237965   3.739   3.869   5.523 -1.1442  2.1275  0.3506
 8836SOL     OW37966   1.998   0.451   3.810  0.0901 -0.1374 -0.2036
 8836SOL    HW137967   2.029   0.511   3.877  0.6715 -0.4895 -0.1553
 8836SOL    HW237968   2.078   0.446   3.757  0.2721  1.6352 -0.1085
 8837SOL     OW37969   3.120   2.107   3.198 -0.2250  0.4929  0.3397
 8837SOL    HW137970   3.190   2.086   3.260  0.6065  0.6073 -0.5661
 8837SOL    HW237971   3.038   2.083   3.241 -1.7193  2.5421 -1.3453
 8838SOL     OW37972   0.401   4.671   9.309 -0.1879  0.4255  0.0163
 8838SOL    HW137973   0.472   4.616   9.342  1.0066  0.8570 -1.8188
 8838SOL    HW237974   0.433   4.674   9.219 -0.3925 -0.9574 -0.1019
 8839SOL     OW37975   4.287   1.758   3.018 -0.2732  0.1817 -0.1422
 8839SOL    HW137976   4.331   1.682   2.978  1.7692  0.5504  1.3846
 8839SOL    HW237977   4.285   1.733   3.111  2.7182  1.4185  0.2525
 8840SOL     OW37978   2.575   3.412  13.606 -0.2511 -0.2482 -0.7315
 8840SOL    HW137979   2.627   3.423  13.526  0.8923 -1.3867 -0.1646
 8840SOL    HW237980   2.489   3.413  13.565 -1.4889 -0.7560  1.8983
 8841SOL     OW37981   3.166   4.003   6.273  0.4120 -0.5522 -0.0243
 8841SOL    HW137982   3.172   4.022   6.367  0.3917  0.7231 -0.2860
 8841SOL    HW237983   3.095   3.940   6.261  1.8126 -2.6841  2.7669
 8842SOL     OW37984   0.050   0.114   5.053 -0.5389  0.1604 -0.4299
 8842SOL    HW137985   0.024   0.071   5.135  0.2334  0.2443 -0.1398
 8842SOL    HW237986   4.703   0.175   5.044  0.9647  2.2060  0.9813
 8843SOL     OW37987   3.303   3.277  12.805 -0.0446  0.1320 -0.4217
 8843SOL    HW137988   3.271   3.287  12.895  0.7976 -0.2072 -0.0847
 8843SOL    HW237989   3.397   3.292  12.813 -0.1924 -0.3597  2.1083
 8844SOL     OW37990   0.328   1.979   7.166  0.3267 -0.4268 -0.3492
 8844SOL    HW137991   0.258   1.994   7.230 -0.0711  0.6731 -1.0364
 8844SOL    HW237992   0.266   1.981   7.093 -0.5154  1.6244  0.4006
 8845SOL     OW37993   2.837   3.387   8.746 -0.4601 -0.3748  0.5630
 8845SOL    HW137994   2.908   3.450   8.758 -1.6245  1.0250  0.2059
 8845SOL    HW237995   2.884   3.313   8.783  0.5962  0.1647  0.3204
 8846SOL     OW37996   3.773   3.317   7.485 -0.5765 -0.4812  0.3178
 8846SOL    HW137997   3.695   3.262   7.478 -0.0260 -1.1430 -0.7953
 8846SOL    HW237998   3.742   3.400   7.450 -4.3187 -0.8830  2.7358
 8847SOL     OW37999   0.660   1.526   8.734 -0.6580  0.1043  0.2583
 8847SOL    HW138000   0.567   1.523   8.759 -0.6192  1.6263  0.5717
 8847SOL    HW238001   0.678   1.432   8.739 -1.4727 -0.1119 -0.8561
 8848SOL     OW38002   0.219   2.885   7.300  0.0193 -0.5397 -0.3074
 8848SOL    HW138003   0.275   2.876   7.378 -0.9319 -0.5419  0.3672
 8848SOL    HW238004   0.191   2.975   7.315  0.0490 -0.9170  1.9160
 8849SOL     OW38005   1.005   1.023   5.172 -0.4045  0.1212 -0.0218
 8849SOL    HW138006   1.061   0.970   5.229 -0.1760  1.3582  0.9010
 8849SOL    HW238007   1.057   1.103   5.163  0.8701 -0.4578  2.3194
 8850SOL     OW38008   3.623   1.241   3.963 -0.1905 -0.0245  0.4348
 8850SOL    HW138009   3.616   1.325   4.009 -0.5772  2.1034 -3.5599
 8850SOL    HW238010   3.594   1.272   3.877  1.1908 -1.2169 -0.4560
 8851SOL     OW38011   4.288   2.538   5.571 -0.0741  0.4462 -0.7300
 8851SOL    HW138012   4.352   2.471   5.548  0.8029  1.1336 -0.2718
 8851SOL    HW238013   4.219   2.485   5.611  0.0967  1.3010  0.6966
 8852SOL     OW38014   1.878   0.648   4.811  0.1592  0.4076  0.3309
 8852SOL    HW138015   1.799   0.626   4.761  1.6290  0.1192 -1.8704
 8852SOL    HW238016   1.857   0.740   4.829  1.2951  0.7183  0.0618
 8853SOL     OW38017   0.313   2.605   9.956 -0.2302  0.0499  0.1848
 8853SOL    HW138018   0.249   2.601   9.885 -0.1406 -0.4904  0.1367
 8853SOL    HW238019   0.349   2.694   9.950  0.6299 -0.2031  1.6563
 8854SOL     OW38020   3.014   2.584   0.846 -0.0013  0.3739 -0.1977
 8854SOL    HW138021   3.088   2.552   0.897  0.7416 -0.5065 -1.7987
 8854SOL    HW238022   3.052   2.615   0.764  1.9646  2.3962  1.5019
 8855SOL     OW38023   4.401   1.866   0.211 -0.1229 -0.5980  0.0863
 8855SOL    HW138024   4.439   1.868   0.299  0.5150 -0.5267 -0.1908
 8855SOL    HW238025   4.311   1.866   0.244  0.1424  1.7326  0.8752
 8856SOL     OW38026   2.448   3.266   4.235 -0.0985  0.3655  0.0733
 8856SOL    HW138027   2.366   3.263   4.283 -0.0755 -0.3545  0.0719
 8856SOL    HW238028   2.510   3.240   4.304  1.0498 -1.1534 -1.5159
 8857SOL     OW38029   4.407   1.642   3.586 -0.0927  0.0655 -0.1984
 8857SOL    HW138030   4.500   1.661   3.597 -0.1722  0.0402  0.4888
 8857SOL    HW238031   4.374   1.731   3.570  0.2277 -0.2197 -2.4414
 8858SOL     OW38032   0.081   2.178   4.795  0.7015  0.7668  0.0660
 8858SOL    HW138033   0.156   2.126   4.767 -1.3378 -1.4258 -1.3056
 8858SOL    HW238034   0.065   2.150   4.885 -2.1624  2.3051  0.0368
 8859SOL     OW38035   0.537   3.380   8.701 -0.4703  0.3640  0.2692
 8859SOL    HW138036   0.546   3.328   8.621 -0.1724 -1.7785  1.6897
 8859SOL    HW238037   0.453   3.423   8.687 -1.2358 -0.9674  0.7987
 8860SOL     OW38038   3.864   4.006   3.229  0.1586  0.1178  0.6008
 8860SOL    HW138039   3.929   3.954   3.181  0.0893 -0.6793  1.3690
 8860SOL    HW238040   3.864   3.964   3.314 -0.9838 -1.1570 -0.0348
 8861SOL     OW38041   3.150   2.440  13.486 -0.9655 -0.0109  0.1746
 8861SOL    HW138042   3.087   2.369  13.484 -1.5152  0.4773  0.1717
 8861SOL    HW238043   3.120   2.483  13.405  1.1090  1.0144 -0.0713
 8862SOL     OW38044   1.265   3.849   4.722  0.2951  0.1335  0.3404
 8862SOL    HW138045   1.332   3.794   4.762 -1.0808 -1.2211  0.7290
 8862SOL    HW238046   1.320   3.876   4.648  2.7766 -0.6252  1.8879
 8863SOL     OW38047   0.771   3.929   1.335 -0.5234 -0.8829 -0.1211
 8863SOL    HW138048   0.680   3.930   1.365 -0.7415 -0.2110 -0.8017
 8863SOL    HW238049   0.795   4.019   1.314 -2.6184  0.3874  2.8317
 8864SOL     OW38050   0.420   2.773   8.584 -0.0052  0.0661 -0.5265
 8864SOL    HW138051   0.369   2.730   8.515  2.7710 -2.7980 -0.7864
 8864SOL    HW238052   0.350   2.813   8.636 -1.8185 -0.2992 -2.6639
 8865SOL     OW38053   1.260   2.129   7.531  0.0008 -0.2665  0.5084
 8865SOL    HW138054   1.276   2.041   7.498 -2.5593 -0.4939 -0.1456
 8865SOL    HW238055   1.233   2.180   7.454  0.7241  2.3942  2.0046
 8866SOL     OW38056   0.570   1.076   5.648  0.0088 -0.5372 -0.2606
 8866SOL    HW138057   0.560   1.044   5.737  3.4534 -0.6752  0.1027
 8866SOL    HW238058   0.539   1.167   5.653  0.8420 -0.2896  0.4471
 8867SOL     OW38059   1.648   1.990  11.263  0.2352 -0.3337  0.0762
 8867SOL    HW138060   1.657   2.071  11.313 -0.0027  0.0148 -0.4384
 8867SOL    HW238061   1.570   2.013  11.213  1.1530 -0.6901 -1.5415
 8868SOL     OW38062   2.010   0.238   2.356  1.1994  0.6891 -0.2149
 8868SOL    HW138063   2.077   0.207   2.294  0.6442  1.1490 -1.0505
 8868SOL    HW238064   1.947   0.166   2.360  2.1221 -0.1697 -0.9005
 8869SOL     OW38065   0.928   3.558   6.139  0.1109 -0.1882  0.2473
 8869SOL    HW138066   0.891   3.488   6.085 -0.5194  0.4989 -0.2168
 8869SOL    HW238067   0.853   3.617   6.145 -0.5329 -1.0143  0.2130
 8870SOL     OW38068   2.003   3.626   1.189  0.0437 -0.1949  0.0402
 8870SOL    HW138069   1.996   3.539   1.150  0.0918  0.0826 -0.5856
 8870SOL    HW238070   1.911   3.652   1.197  0.7412  2.6307 -1.1426
 8871SOL     OW38071   0.459   1.659   3.494 -0.0200  0.2502 -0.1555
 8871SOL    HW138072   0.388   1.644   3.431  0.6076 -0.4769 -0.6928
 8871SOL    HW238073   0.417   1.723   3.551 -0.8530 -0.1516 -0.3167
 8872SOL     OW38074   4.072   1.012   0.824  0.4054  0.6025  0.5316
 8872SOL    HW138075   4.004   0.947   0.842  0.8410  0.3014  1.1032
 8872SOL    HW238076   4.154   0.962   0.822  0.2692  0.4268 -0.4859
 8873SOL     OW38077   3.794   3.358  14.871 -0.3826  0.2567  0.2069
 8873SOL    HW138078   3.887   3.346  14.887 -0.7933 -1.5811  1.2689
 8873SOL    HW238079   3.786   3.435  14.927 -1.0694  0.9819 -0.8881
 8874SOL     OW38080   0.768   3.288   0.839  0.1349 -0.0035  0.2635
 8874SOL    HW138081   0.819   3.275   0.918 -1.3087 -0.4410  1.1270
 8874SOL    HW238082   0.709   3.212   0.840 -3.3692  2.7254  0.8984
 8875SOL     OW38083   2.559   3.854   6.218  0.4273  0.5533  0.1973
 8875SOL    HW138084   2.527   3.891   6.135 -0.0252  0.0903  0.1702
 8875SOL    HW238085   2.518   3.913   6.280  2.1126  1.6127  0.3128
 8876SOL     OW38086   3.977   1.614   8.818 -0.4849  0.5164 -0.0076
 8876SOL    HW138087   3.924   1.564   8.880  1.1577  1.2259  1.9569
 8876SOL    HW238088   4.059   1.565   8.825 -0.7416 -0.1240 -1.4354
 8877SOL     OW38089   4.644   4.002   7.046  0.2378 -0.3903 -0.1937
 8877SOL    HW138090   4.638   3.984   7.140  1.0539  2.5341  0.4136
 8877SOL    HW238091   0.004   4.041   7.037  0.5319 -0.7595  1.1102
 8878SOL     OW38092   1.719   2.933   7.546  0.4238 -0.2349 -0.0214
 8878SOL    HW138093   1.644   2.982   7.580  0.9677  0.0871  0.7305
 8878SOL    HW238094   1.772   2.925   7.625 -1.4222  0.1780  1.2536
 8879SOL     OW38095   2.809   1.334   5.411  0.1319  0.2632  0.2643
 8879SOL    HW138096   2.847   1.253   5.446  0.4008  0.5710  0.6786
 8879SOL    HW238097   2.721   1.334   5.447 -0.5139  0.6304 -1.3243
 8880SOL     OW38098   3.280   3.003   5.722 -0.0387  0.0445  0.7077
 8880SOL    HW138099   3.207   3.011   5.660 -1.1771  1.4836  2.2446
 8880SOL    HW238100   3.305   2.911   5.709 -0.2174  0.1865 -0.6727
 8881SOL     OW38101   4.365   2.808   5.605 -0.3516  0.3368 -0.3689
 8881SOL    HW138102   4.337   2.717   5.596 -2.0234  0.7747  0.3062
 8881SOL    HW238103   4.413   2.809   5.522 -1.7169  0.7020 -1.1690
 8882SOL     OW38104   1.091   4.421   7.868 -0.4231 -0.7758  0.0775
 8882SOL    HW138105   1.176   4.379   7.879 -0.7672 -1.3465  0.5512
 8882SOL    HW238106   1.104   4.506   7.909  0.7456 -0.3511 -1.1838
 8883SOL     OW38107   2.256   3.225   3.015  0.8122 -0.5997 -0.1289
 8883SOL    HW138108   2.295   3.199   2.931 -0.9907  0.5865 -1.3490
 8883SOL    HW238109   2.277   3.318   3.010 -0.7531 -0.3004 -1.4866
 8884SOL     OW38110   2.889   3.353   2.337  0.0878 -0.3835 -0.1861
 8884SOL    HW138111   2.936   3.431   2.309 -0.6799 -0.4097 -1.5550
 8884SOL    HW238112   2.866   3.372   2.428 -0.7292  3.3663 -1.1868
 8885SOL     OW38113   0.855   3.624  13.953  0.1227  0.1690 -0.1801
 8885SOL    HW138114   0.913   3.602  13.880  2.2465  1.6273  1.0328
 8885SOL    HW238115   0.772   3.637  13.908  0.6150 -1.0327 -1.4366
 8886SOL     OW38116   3.978   1.238   1.629  0.1752 -0.0120  0.2025
 8886SOL    HW138117   4.022   1.320   1.649  1.6315 -0.4819 -0.9995
 8886SOL    HW238118   4.049   1.174   1.617  0.2442  0.3547 -1.3189
 8887SOL     OW38119   1.471   1.820  12.314 -0.2527  0.3309  1.1060
 8887SOL    HW138120   1.417   1.831  12.236  0.3306  0.5342  0.7261
 8887SOL    HW238121   1.488   1.726  12.313 -0.7502  0.2213  2.3216
 8888SOL     OW38122   4.443   2.786   7.545 -0.6473 -0.3139 -0.1617
 8888SOL    HW138123   4.410   2.805   7.457 -0.9897  2.9466  0.6480
 8888SOL    HW238124   4.361   2.789   7.595 -1.4843 -3.4436 -1.3721
 8889SOL     OW38125   0.214   0.966  15.024 -0.5797 -0.2330  0.4983
 8889SOL    HW138126   0.215   0.876  15.056 -0.8449 -0.7575 -0.9790
 8889SOL    HW238127   0.228   1.006  15.110  0.9956 -2.0626  1.0822
 8890SOL     OW38128   1.300   2.669   5.625  0.3731 -0.2787 -0.0880
 8890SOL    HW138129   1.344   2.615   5.559 -2.1833  2.7797 -4.2797
 8890SOL    HW238130   1.364   2.739   5.640 -1.0671  0.5782  1.9610
 8891SOL     OW38131   2.789   3.843   5.824  0.2523  0.3150 -0.1417
 8891SOL    HW138132   2.856   3.793   5.871  0.2572 -0.1363 -0.6383
 8891SOL    HW238133   2.773   3.894   5.904  0.6825 -2.5875  1.7913
 8892SOL     OW38134   1.078   4.027   0.330  0.1864  0.3199 -0.2638
 8892SOL    HW138135   0.993   4.037   0.286 -0.8134 -1.8001  1.1570
 8892SOL    HW238136   1.133   3.984   0.264  0.0899 -0.1225 -0.0558
 8893SOL     OW38137   3.265   1.367   6.410  0.3020  0.8537 -0.3192
 8893SOL    HW138138   3.262   1.335   6.319  0.7799  1.4108 -0.5279
 8893SOL    HW238139   3.360   1.374   6.422  0.3609  0.6518 -0.6376
 8894SOL     OW38140   0.954   1.579   8.058 -0.4273 -0.0732 -0.2620
 8894SOL    HW138141   1.025   1.571   8.121  0.0099  1.3641 -0.5603
 8894SOL    HW238142   0.892   1.508   8.075 -0.8667  0.8354  1.9688
 8895SOL     OW38143   2.228   1.989   6.339  0.1029  0.2100  0.7635
 8895SOL    HW138144   2.233   2.014   6.247  0.3976 -1.6770  0.2698
 8895SOL    HW238145   2.140   2.011   6.367 -0.6972 -1.5979 -0.3339
 8896SOL     OW38146   2.353   3.325   6.148  0.4971 -0.1811  0.0684
 8896SOL    HW138147   2.294   3.355   6.217  0.2405  0.9462 -0.6511
 8896SOL    HW238148   2.407   3.403   6.140  0.9970 -0.6071 -0.7189
 8897SOL     OW38149   0.422   3.745   1.785 -0.2713  0.1565  0.1431
 8897SOL    HW138150   0.448   3.827   1.743  2.6045 -1.1370 -0.5795
 8897SOL    HW238151   0.426   3.771   1.877  0.7291  1.1604 -0.1801
 8898SOL     OW38152   3.177   3.465   7.783  0.5231 -0.3310 -0.2997
 8898SOL    HW138153   3.089   3.429   7.772 -0.7538  2.6365  0.0421
 8898SOL    HW238154   3.197   3.429   7.870 -0.2384  1.0675  0.4656
 8899SOL     OW38155   1.921   0.259   1.921 -0.2196  0.1270  0.3276
 8899SOL    HW138156   1.999   0.216   1.958  0.1704  0.8408  0.3362
 8899SOL    HW238157   1.918   0.221   1.834  0.3964  0.8517 -0.0202
 8900SOL     OW38158   4.100   1.485   9.504  0.3971 -0.1710  0.0089
 8900SOL    HW138159   4.141   1.422   9.563 -1.8415 -0.1631  1.5367
 8900SOL    HW238160   4.176   1.510   9.450 -0.0616 -3.4285 -2.1518
 8901SOL     OW38161   2.006   1.963  13.899 -0.0524 -0.0447  0.9622
 8901SOL    HW138162   2.069   1.971  13.828 -1.1204 -2.9866 -0.3139
 8901SOL    HW238163   2.060   1.934  13.972  0.3450  0.1129  0.7291
 8902SOL     OW38164   2.035   1.253   4.856  0.7021  0.4068  0.0522
 8902SOL    HW138165   1.971   1.294   4.915  0.9232 -0.9506  1.2253
 8902SOL    HW238166   2.106   1.265   4.919  0.2624  2.3747  0.1934
 8903SOL     OW38167   2.068   1.300   3.942  0.0627  0.2285 -0.4195
 8903SOL    HW138168   2.083   1.265   4.030 -2.8922  1.3227  0.5095
 8903SOL    HW238169   2.018   1.378   3.966  0.1847 -0.6110  2.5912
 8904SOL     OW38170   3.782   0.993   6.150 -0.0043  0.1686 -0.0601
 8904SOL    HW138171   3.716   0.951   6.095 -0.2674  1.5251 -0.7799
 8904SOL    HW238172   3.731   1.065   6.189 -4.1323 -2.4392 -0.6321
 8905SOL     OW38173   4.516   4.369   6.615  0.7958 -0.4919  0.4020
 8905SOL    HW138174   4.560   4.401   6.694  1.0615 -1.9700  0.8592
 8905SOL    HW238175   4.568   4.292   6.592  4.1277  2.3980 -1.6175
 8906SOL     OW38176   1.969   1.675  10.113 -0.6427 -0.2606 -0.2126
 8906SOL    HW138177   1.903   1.744  10.118  0.4692  0.7927 -0.0556
 8906SOL    HW238178   2.041   1.728  10.147 -0.7404 -0.6431  0.6020
 8907SOL     OW38179   4.106   0.646   0.029 -0.1997 -0.3848 -0.6520
 8907SOL    HW138180   4.108   0.570   0.087  1.0284 -0.5847 -0.9492
 8907SOL    HW238181   4.147   0.714   0.083  1.1870  1.1332 -3.6335
 8908SOL     OW38182   1.037   3.504  12.567 -0.2110  0.4459  0.2450
 8908SOL    HW138183   1.076   3.447  12.500  1.5982  0.9873  0.8249
 8908SOL    HW238184   1.098   3.495  12.640 -0.8974  0.7288  0.8484
 8909SOL     OW38185   4.144   0.930  17.092 -0.3959 -0.7543  0.0536
 8909SOL    HW138186   4.116   0.849  17.135  1.8588 -0.7586  1.4760
 8909SOL    HW238187   4.079   0.917  17.023 -1.0935  0.6644  0.4567
 8910SOL     OW38188   2.185   0.811   3.510 -0.1001  0.1935 -0.2782
 8910SOL    HW138189   2.141   0.817   3.595 -1.0749  1.6986 -0.8846
 8910SOL    HW238190   2.110   0.787   3.456 -1.4689  0.1082  1.6758
 8911SOL     OW38191   0.649   1.469   9.322  0.2656 -0.5619 -0.2950
 8911SOL    HW138192   0.709   1.487   9.250  1.8058  1.2396  1.4424
 8911SOL    HW238193   0.623   1.553   9.359  0.1543 -0.2584 -1.0813
 8912SOL     OW38194   2.926   4.175  14.114  0.1808  0.4749  0.2358
 8912SOL    HW138195   2.930   4.098  14.170  2.0466 -0.5099 -1.2611
 8912SOL    HW238196   2.931   4.243  14.182 -2.2664 -1.3860  2.2565
 8913SOL     OW38197   1.196   2.660   7.637 -0.4663 -0.2730  0.1112
 8913SOL    HW138198   1.130   2.712   7.683 -1.7827 -0.3731 -1.6876
 8913SOL    HW238199   1.142   2.596   7.590  0.1565 -1.7019  1.3338
 8914SOL     OW38200   0.773   3.711   8.891  0.4173 -0.5172 -0.2927
 8914SOL    HW138201   0.821   3.629   8.877 -0.1139 -0.5657 -1.9277
 8914SOL    HW238202   0.687   3.670   8.890  1.1098 -2.0085  1.4937
 8915SOL     OW38203   1.814   0.260   7.652  0.2723 -0.1613  0.0713
 8915SOL    HW138204   1.834   0.231   7.564 -1.3525 -1.2267  0.0458
 8915SOL    HW238205   1.899   0.265   7.694  1.0966 -1.5481 -1.4668
 8916SOL     OW38206   2.133   1.106   2.371 -0.3048  0.0408  0.6376
 8916SOL    HW138207   2.150   1.012   2.361 -1.1180 -0.0312 -0.0161
 8916SOL    HW238208   2.054   1.112   2.317  0.2926 -0.2382 -0.2649
 8917SOL     OW38209   1.137   0.282  16.153  0.3913 -0.3289  0.3585
 8917SOL    HW138210   1.186   0.207  16.186 -0.6514 -0.6315  1.2313
 8917SOL    HW238211   1.213   0.333  16.124  1.2038 -0.7558  1.7281
 8918SOL     OW38212   1.881   3.746   0.169  0.4591  0.0562 -0.4493
 8918SOL    HW138213   1.912   3.782   0.086 -0.9490  1.3583 -0.4119
 8918SOL    HW238214   1.800   3.701   0.143 -0.5831  1.7816 -0.2303
 8919SOL     OW38215   3.141   0.340  13.496  0.2639  0.0501 -0.1197
 8919SOL    HW138216   3.236   0.328  13.492  0.9427  5.3185 -0.3435
 8919SOL    HW238217   3.124   0.332  13.590  0.8061  1.8709  0.1312
 8920SOL     OW38218   3.812   2.180   5.004 -0.0637 -0.2341  0.2445
 8920SOL    HW138219   3.803   2.229   4.923  0.9800  1.2908  1.0365
 8920SOL    HW238220   3.723   2.189   5.038 -0.0391 -1.4163  0.6222
 8921SOL     OW38221   1.486   3.035  10.331 -0.0363 -0.0043  0.4932
 8921SOL    HW138222   1.471   3.027  10.425 -0.7904  0.3912  0.4099
 8921SOL    HW238223   1.424   2.970  10.296 -1.5494  1.6178  0.1654
 8922SOL     OW38224   4.591   0.916   7.338 -0.5225 -0.0929  0.3468
 8922SOL    HW138225   4.673   0.912   7.388 -0.7829 -2.6758  0.5478
 8922SOL    HW238226   4.619   0.873   7.257 -0.9418 -0.0347  0.1721
 8923SOL     OW38227   1.943   3.135  14.063  0.4786 -0.5014 -0.1827
 8923SOL    HW138228   1.900   3.051  14.079 -0.7281  0.0666 -0.4411
 8923SOL    HW238229   1.920   3.157  13.973  1.3280  0.4647 -0.1609
 8924SOL     OW38230   1.619   0.568   9.985  0.7384  0.3185 -0.1614
 8924SOL    HW138231   1.693   0.623   9.961  0.2765 -0.3206 -2.9990
 8924SOL    HW238232   1.658   0.520  10.059  1.2046 -0.3467 -0.8393
 8925SOL     OW38233   1.633   4.177   0.534  0.2037  0.0856  0.1567
 8925SOL    HW138234   1.558   4.215   0.580 -0.1417 -0.5631  0.1196
 8925SOL    HW238235   1.659   4.105   0.592  0.2230  1.0171  1.3318
 8926SOL     OW38236   3.374   3.851   3.060 -0.0128 -0.3499 -0.0038
 8926SOL    HW138237   3.375   3.836   2.966 -2.5370 -2.0661  0.2213
 8926SOL    HW238238   3.444   3.916   3.058 -0.1404 -0.2145 -0.0464
 8927SOL     OW38239   2.352   2.755   8.349 -0.2579 -0.8144  0.8696
 8927SOL    HW138240   2.280   2.693   8.363 -1.5735  0.9692  2.0881
 8927SOL    HW238241   2.315   2.839   8.379  0.1356  0.3182 -1.8566
 8928SOL     OW38242   4.122   3.208  15.152 -0.3855 -1.0349 -0.2735
 8928SOL    HW138243   4.119   3.250  15.067  2.0625  0.2994  0.3143
 8928SOL    HW238244   4.211   3.228  15.181 -0.3360 -1.5228 -0.0901
 8929SOL     OW38245   2.710   1.470   6.686 -0.0525 -0.2915 -0.5958
 8929SOL    HW138246   2.696   1.564   6.674 -1.6587 -0.2744  1.5067
 8929SOL    HW238247   2.689   1.460   6.778 -2.1758 -0.6356 -1.1078
 8930SOL     OW38248   0.929   1.717   3.551  0.5673 -0.6318  0.9997
 8930SOL    HW138249   0.937   1.810   3.532  0.5737 -1.2870 -2.2337
 8930SOL    HW238250   0.845   1.717   3.596  0.4042  0.3557  0.6834
 8931SOL     OW38251   3.662   4.228   2.291 -0.1649 -0.0999  0.3378
 8931SOL    HW138252   3.644   4.138   2.317 -0.9647  1.2275  4.3587
 8931SOL    HW238253   3.757   4.224   2.289 -0.0259  3.2584 -0.2353
 8932SOL     OW38254   1.512   1.161   4.776  0.5040 -0.1592 -0.4422
 8932SOL    HW138255   1.500   1.244   4.823  0.5392 -1.1900  1.3922
 8932SOL    HW238256   1.606   1.155   4.796  1.1179 -0.2229 -3.2684
 8933SOL     OW38257   0.750   1.575   0.250  0.2054  0.1449  0.3659
 8933SOL    HW138258   0.843   1.560   0.267  0.6295  1.8565 -0.5002
 8933SOL    HW238259   0.772   1.649   0.193 -1.9123  0.8537  0.4825
 8934SOL     OW38260   1.846   3.301  17.223  0.4597  0.0700  0.1558
 8934SOL    HW138261   1.940   3.295  17.206  0.4078  0.7551 -0.4192
 8934SOL    HW238262   1.818   3.211  17.211  0.2111  0.0520  0.8987
 8935SOL     OW38263   1.764   2.002  12.935  0.7808 -0.0328 -0.2779
 8935SOL    HW138264   1.765   1.906  12.931 -0.5131 -0.1338  2.3462
 8935SOL    HW238265   1.847   2.020  12.980  0.7490 -1.3672  0.3133
 8936SOL     OW38266   2.353   1.681  17.385 -0.3684  0.2896  0.1988
 8936SOL    HW138267   2.259   1.672  17.398 -0.4772  0.6639 -0.3565
 8936SOL    HW238268   2.385   1.665  17.474  0.3269  0.2255 -0.0576
 8937SOL     OW38269   1.130   3.455   6.294  0.0757 -0.5358 -0.1532
 8937SOL    HW138270   1.088   3.493   6.217 -1.2020 -1.7023 -0.0359
 8937SOL    HW238271   1.048   3.417   6.326 -1.0235  2.1464  0.2184
 8938SOL     OW38272   1.357   3.341   2.510  0.1966  0.5990  0.4370
 8938SOL    HW138273   1.321   3.377   2.429  2.3532 -2.4204 -1.8566
 8938SOL    HW238274   1.278   3.323   2.561 -1.0805  0.4326 -1.6136
 8939SOL     OW38275   3.469   4.130  13.305 -0.2764 -0.3693  0.1744
 8939SOL    HW138276   3.431   4.215  13.327  0.3607 -0.4584  1.6231
 8939SOL    HW238277   3.501   4.098  13.390  1.6327  0.4370 -0.2243
 8940SOL     OW38278   4.679   2.524  14.554 -0.1023 -0.2814 -0.0203
 8940SOL    HW138279   4.624   2.449  14.574  0.6704 -1.1399 -1.1197
 8940SOL    HW238280   0.037   2.480  14.549 -0.4082 -0.9048  0.3748
 8941SOL     OW38281   1.325   2.697   8.764  0.4279  0.5002 -0.6299
 8941SOL    HW138282   1.372   2.779   8.749 -0.1307  0.3960 -2.9913
 8941SOL    HW238283   1.393   2.639   8.799  0.2604  0.1260 -0.9268
 8942SOL     OW38284   2.642   0.940   2.932 -0.4972 -0.5866  0.8673
 8942SOL    HW138285   2.655   0.965   3.023 -1.3600 -3.3708  1.7680
 8942SOL    HW238286   2.624   0.846   2.938 -1.6500 -0.3147  1.7857
 8943SOL     OW38287   0.134   1.608  13.375 -0.2465 -0.6795  0.1750
 8943SOL    HW138288   0.065   1.659  13.417 -0.9639 -0.6949 -0.9899
 8943SOL    HW238289   0.075   1.533  13.384  0.4901 -1.0492  1.9873
 8944SOL     OW38290   3.495   2.513   7.228 -0.2416  0.0999 -0.0820
 8944SOL    HW138291   3.477   2.535   7.137  2.0238  0.9796 -0.3279
 8944SOL    HW238292   3.589   2.502   7.215 -0.7315 -0.7763 -2.9061
 8945SOL     OW38293   2.928   4.069   8.383  0.3643 -0.5119 -0.2189
 8945SOL    HW138294   2.848   4.018   8.390  1.2342 -1.7119  0.8777
 8945SOL    HW238295   2.932   4.078   8.288 -3.5497  1.9021 -0.1505
 8946SOL     OW38296   0.991   0.981   6.889  0.1662  0.0802 -0.1247
 8946SOL    HW138297   0.951   1.064   6.865  2.0302  0.9967 -0.0838
 8946SOL    HW238298   0.976   0.934   6.806 -1.3713 -0.1431  0.2887
 8947SOL     OW38299   4.679   0.243  14.320 -0.5680 -0.4607 -0.2025
 8947SOL    HW138300   4.666   0.336  14.339 -0.8751 -0.5228 -0.1006
 8947SOL    HW238301   0.029   0.242  14.377  0.1952 -0.8686 -1.2274
 8948SOL     OW38302   2.478   2.485  16.943  0.2291 -0.1489 -0.2246
 8948SOL    HW138303   2.535   2.438  17.003  1.7786  0.2160 -1.4199
 8948SOL    HW238304   2.482   2.426  16.867 -0.0612 -0.9371  0.3795
 8949SOL     OW38305   1.777   1.105  16.938  0.8254  0.2882 -0.9275
 8949SOL    HW138306   1.782   1.196  16.969 -1.9167 -0.0477  0.5679
 8949SOL    HW238307   1.692   1.102  16.893  0.7429  1.3070 -0.8416
 8950SOL     OW38308   2.643   3.080   4.393 -0.0495  0.4966 -0.1320
 8950SOL    HW138309   2.736   3.072   4.374 -0.3203 -1.9203 -0.3771
 8950SOL    HW238310   2.630   3.161   4.443  0.2482 -0.1817  1.0299
 8951SOL     OW38311   1.598   0.303   4.283  0.6797  0.4793  0.9433
 8951SOL    HW138312   1.558   0.216   4.281  0.9435  0.3581  0.9613
 8951SOL    HW238313   1.552   0.354   4.349  2.5031  2.6321  0.5511
 8952SOL     OW38314   3.107   0.083   6.784 -0.3418  1.1206  0.5910
 8952SOL    HW138315   3.054   0.004   6.770 -0.6685  1.7407 -1.7114
 8952SOL    HW238316   3.192   0.046   6.807 -0.2563  0.9436 -0.0232
 8953SOL     OW38317   0.372   2.469   6.512 -0.5625 -0.5855 -0.0996
 8953SOL    HW138318   0.322   2.547   6.538  0.8413 -0.0113  0.9245
 8953SOL    HW238319   0.462   2.488   6.540 -0.6035 -0.2766 -0.1832
 8954SOL     OW38320   1.218   2.811  12.451  0.0657  0.5107  0.1006
 8954SOL    HW138321   1.267   2.735  12.484  1.8171  1.5260 -0.1516
 8954SOL    HW238322   1.177   2.766  12.377  1.3670 -0.0986 -0.2520
 8955SOL     OW38323   0.453   2.375  14.831  0.4947  0.0361 -0.3325
 8955SOL    HW138324   0.383   2.312  14.815 -0.5712  1.4797 -1.3043
 8955SOL    HW238325   0.497   2.336  14.907 -1.1752 -1.8940 -0.3636
 8956SOL     OW38326   2.087   3.520   0.030 -0.5531 -0.1395 -1.1515
 8956SOL    HW138327   2.071   3.459  17.666 -1.8457 -2.4507  1.0918
 8956SOL    HW238328   2.121   3.603  17.705  0.2794  0.2619  0.6963
 8957SOL     OW38329   1.733   2.285  15.938  0.2838 -0.1421 -0.0240
 8957SOL    HW138330   1.669   2.214  15.941  3.1895 -2.6591  2.2619
 8957SOL    HW238331   1.690   2.348  15.881  0.2309 -1.6510 -1.6739
 8958SOL     OW38332   0.706   0.567   3.442 -0.7097  0.1747 -0.0137
 8958SOL    HW138333   0.662   0.587   3.524 -0.6155  0.0389  0.0690
 8958SOL    HW238334   0.634   0.536   3.387 -1.2597  0.7347  0.3947
 8959SOL     OW38335   4.584   0.475   2.175 -0.5886 -0.1943 -0.4311
 8959SOL    HW138336   4.641   0.549   2.195  2.2783 -2.1304 -1.4465
 8959SOL    HW238337   4.643   0.402   2.154  0.3798  0.7448 -0.9559
 8960SOL     OW38338   3.149   1.972   2.449 -0.1047  0.1364 -0.4128
 8960SOL    HW138339   3.173   1.880   2.439 -1.5936 -0.3829  0.7085
 8960SOL    HW238340   3.132   2.007   2.361  2.3706  0.2736 -0.8335
 8961SOL     OW38341   0.094   2.963  12.590 -0.4540 -0.4330  0.4939
 8961SOL    HW138342   0.080   2.969  12.495 -0.9568 -3.3142  0.3777
 8961SOL    HW238343   0.097   3.057  12.606 -0.3389  0.1685 -3.0293
 8962SOL     OW38344   2.543   4.173  10.922 -0.1605 -0.2342 -0.2996
 8962SOL    HW138345   2.461   4.176  10.873 -1.4583 -1.8793  1.8101
 8962SOL    HW238346   2.563   4.080  10.935 -0.5936 -0.4851 -1.4089
 8963SOL     OW38347   1.960   3.044   7.163 -0.3707 -0.5018  0.2296
 8963SOL    HW138348   1.952   2.964   7.111 -1.8985  0.2371 -0.6433
 8963SOL    HW238349   1.932   3.016   7.250 -2.4095  1.7239  0.2901
 8964SOL     OW38350   1.330   3.813   6.652  0.2609  0.4121 -0.1089
 8964SOL    HW138351   1.277   3.874   6.601 -0.1320 -1.6421 -2.1444
 8964SOL    HW238352   1.398   3.873   6.684  0.6316  0.4300 -0.9370
 8965SOL     OW38353   0.108   4.263   6.023 -0.0389  0.0638 -0.2029
 8965SOL    HW138354   0.123   4.288   5.931 -2.1013  1.8462 -0.0740
 8965SOL    HW238355   0.027   4.215   6.002  1.8013 -2.3304 -1.7968
 8966SOL     OW38356   0.988   2.306   5.856 -0.6425 -0.6692 -0.0184
 8966SOL    HW138357   0.936   2.227   5.840 -1.8152  0.4632 -1.7162
 8966SOL    HW238358   1.067   2.267   5.894 -1.6770 -1.9548  0.7713
 8967SOL     OW38359   0.872   3.554  16.362 -0.1817  0.9067 -0.3138
 8967SOL    HW138360   0.840   3.616  16.428 -2.9791 -0.4730 -0.3994
 8967SOL    HW238361   0.815   3.484  16.393  0.7563 -0.0058 -0.6271
 8968SOL     OW38362   1.683   2.337   2.168  0.0059  0.3774 -0.2746
 8968SOL    HW138363   1.663   2.420   2.124 -0.7221  0.3378 -0.0183
 8968SOL    HW238364   1.769   2.317   2.131 -0.4698  1.9816 -2.2690
 8969SOL     OW38365   4.422   1.759   6.079  0.3177 -0.6593  0.0423
 8969SOL    HW138366   4.382   1.683   6.121 -1.3445 -0.7116 -1.6447
 8969SOL    HW238367   4.350   1.800   6.031  1.0388  1.6773  0.9536
 8970SOL     OW38368   2.228   2.825   5.053 -0.3240 -0.7995  0.8504
 8970SOL    HW138369   2.273   2.879   5.119  0.6847 -0.8957  0.2441
 8970SOL    HW238370   2.263   2.738   5.073  1.8342 -0.6104 -2.2045
 8971SOL     OW38371   4.003   2.590   2.771 -0.2135 -0.2424 -0.2934
 8971SOL    HW138372   4.098   2.590   2.759 -0.4363 -0.7293 -2.0267
 8971SOL    HW238373   3.982   2.684   2.765 -0.0414  0.0568  3.5666
 8972SOL     OW38374   1.367   1.337  13.662  0.3219  0.2419 -0.5904
 8972SOL    HW138375   1.288   1.390  13.648 -0.9669 -2.1260 -2.2275
 8972SOL    HW238376   1.416   1.356  13.582  0.3346  2.0154 -0.1574
 8973SOL     OW38377   3.089   2.234   0.946  0.1417  0.0314  0.0042
 8973SOL    HW138378   3.123   2.316   0.910  2.8085 -1.2361 -0.3679
 8973SOL    HW238379   3.075   2.186   0.864 -3.8688 -0.2974  0.8899
 8974SOL     OW38380   3.221   3.978  17.477  0.1531  0.2882  0.7560
 8974SOL    HW138381   3.270   3.916  17.423 -0.3475 -0.8624  1.6144
 8974SOL    HW238382   3.266   4.056  17.443 -0.1340 -0.7519 -1.9738
 8975SOL     OW38383   2.445   0.369  12.853  0.2512 -0.0026  0.1508
 8975SOL    HW138384   2.473   0.380  12.943 -0.5628  2.4737  0.1160
 8975SOL    HW238385   2.366   0.319  12.870  1.0617 -1.3898 -0.1553
 8976SOL     OW38386   2.753   4.067   4.765 -0.4821 -0.0003 -0.2680
 8976SOL    HW138387   2.830   4.121   4.778 -1.2535  1.2487 -0.9370
 8976SOL    HW238388   2.784   3.993   4.818  2.3728  1.1007 -0.3866
 8977SOL     OW38389   2.865   4.166   3.354  0.0184 -0.2112 -0.3730
 8977SOL    HW138390   2.877   4.144   3.446  0.7853  1.1686 -0.1487
 8977SOL    HW238391   2.831   4.255   3.361  0.4853  0.2387 -3.6488
 8978SOL     OW38392   3.629   3.407   7.794 -0.4393  0.2862 -0.2270
 8978SOL    HW138393   3.556   3.468   7.790  0.2169  1.0564 -0.3246
 8978SOL    HW238394   3.594   3.330   7.748  0.2681 -0.8856  1.1816
 8979SOL     OW38395   1.976   3.731  14.464 -0.4376 -0.0462  0.3489
 8979SOL    HW138396   1.884   3.714  14.444 -0.5675  1.4024 -0.3005
 8979SOL    HW238397   1.983   3.684  14.547  0.5437 -1.3236 -0.4660
 8980SOL     OW38398   2.091   2.559   2.758  0.1691  0.3199  0.1048
 8980SOL    HW138399   2.034   2.558   2.680  1.6207 -2.6073 -0.9467
 8980SOL    HW238400   2.138   2.479   2.736 -1.1352 -0.6188  0.7419
 8981SOL     OW38401   0.474   4.639   1.123 -0.0489  0.0424 -0.3652
 8981SOL    HW138402   0.555   4.604   1.085 -0.8100 -2.9573  0.7904
 8981SOL    HW238403   0.475   4.579   1.197  1.3707  1.4785  0.7988
 8982SOL     OW38404   4.396   2.013   2.991  0.1320  0.4790  0.3964
 8982SOL    HW138405   4.318   2.045   3.035 -1.6043 -1.1394 -1.4865
 8982SOL    HW238406   4.366   1.922   2.993  0.6145  0.3266  0.9804
 8983SOL     OW38407   2.004   4.707   0.620  0.2082  0.2102 -0.4521
 8983SOL    HW138408   1.978   4.615   0.624 -0.7961  0.5195  0.0614
 8983SOL    HW238409   2.058   4.708   0.541 -0.6194  2.3586 -1.0122
 8984SOL     OW38410   1.670   3.162   2.186  0.1037  0.0107 -0.2706
 8984SOL    HW138411   1.752   3.200   2.218 -1.4675 -0.0579  3.8631
 8984SOL    HW238412   1.643   3.121   2.268 -0.5480  0.7698 -0.1066
 8985SOL     OW38413   1.554   2.610   6.552 -0.4415  0.3616  0.6128
 8985SOL    HW138414   1.488   2.565   6.606 -1.3925  1.3774  0.2938
 8985SOL    HW238415   1.503   2.669   6.497 -0.7610  0.7369  1.3202
 8986SOL     OW38416   0.202   2.965   2.130  0.0694  0.0253  0.0744
 8986SOL    HW138417   0.179   3.029   2.198  0.3572 -1.3414  1.4676
 8986SOL    HW238418   0.114   2.934   2.109  0.8833 -2.2894  0.1519
 8987SOL     OW38419   2.616   0.827  17.409  0.1664 -0.5616  0.0838
 8987SOL    HW138420   2.592   0.749  17.360 -2.3178 -0.8645  1.7520
 8987SOL    HW238421   2.575   0.799  17.491 -0.0165  1.0914  0.5698
 8988SOL     OW38422   1.228   1.839  15.005  0.0377 -0.5291  0.4831
 8988SOL    HW138423   1.230   1.744  15.002  2.0036 -0.4542 -0.4336
 8988SOL    HW238424   1.286   1.854  15.080 -0.8439 -0.0070  1.0623
 8989SOL     OW38425   2.660   1.781  12.443 -0.1680 -0.3526 -0.8331
 8989SOL    HW138426   2.731   1.761  12.505 -0.4892  0.3814 -0.2325
 8989SOL    HW238427   2.612   1.848  12.491  1.5423 -0.8367  1.5724
 8990SOL     OW38428   3.520   3.694   9.249 -0.1936  0.1314  0.0626
 8990SOL    HW138429   3.550   3.621   9.303  0.0050 -1.8197 -2.6878
 8990SOL    HW238430   3.444   3.723   9.299 -1.5777 -1.5594 -1.0623
 8991SOL     OW38431   1.362   2.151   9.754  0.2946  0.0396  0.0757
 8991SOL    HW138432   1.446   2.187   9.724 -0.7822  1.7542 -0.8661
 8991SOL    HW238433   1.397   2.120   9.837 -0.7348  0.0886  0.5184
 8992SOL     OW38434   4.191   0.798   6.173  0.3102 -0.7512 -0.1419
 8992SOL    HW138435   4.235   0.773   6.254  1.8981  0.7362 -0.5299
 8992SOL    HW238436   4.108   0.828   6.211 -0.4467 -1.5645 -1.1418
 8993SOL     OW38437   0.412   4.573   8.381  0.2301 -0.3070 -0.0080
 8993SOL    HW138438   0.395   4.585   8.475 -1.9679  0.9067 -0.5549
 8993SOL    HW238439   0.399   4.661   8.345  2.5571  0.0508  0.0605
 8994SOL     OW38440   1.868   3.624   9.944 -0.2385 -0.0824 -0.4105
 8994SOL    HW138441   1.864   3.530   9.961 -3.5431  0.3748  1.2017
 8994SOL    HW238442   1.802   3.630   9.875  0.8201  1.5737 -1.2628
 8995SOL     OW38443   0.323   4.527   2.777  0.5434 -0.6125 -0.1294
 8995SOL    HW138444   0.385   4.595   2.804  1.6455 -1.7586  0.2467
 8995SOL    HW238445   0.292   4.491   2.860  2.4609 -0.6285  0.5812
 8996SOL     OW38446   0.388   2.227  13.028  0.3109 -0.0780  0.2787
 8996SOL    HW138447   0.312   2.207  12.974 -0.6544 -0.5267  1.8109
 8996SOL    HW238448   0.374   2.319  13.052  3.1205  1.1577 -2.8625
 8997SOL     OW38449   3.560   4.063   5.923 -0.2110  0.0644  0.1756
 8997SOL    HW138450   3.492   4.023   5.868  2.1557 -0.4111 -2.3942
 8997SOL    HW238451   3.573   3.994   5.988 -0.6351 -0.4443 -0.2721
 8998SOL     OW38452   3.148   2.091   5.824  0.5823 -0.0535 -0.5275
 8998SOL    HW138453   3.214   2.056   5.883 -0.9095  0.2907  1.3499
 8998SOL    HW238454   3.191   2.060   5.745 -0.8819 -0.3567 -1.2080
 8999SOL     OW38455   0.089   0.963   6.498  0.3805  0.6461  0.0928
 8999SOL    HW138456   0.040   0.939   6.577  0.5242 -1.7869 -0.5554
 8999SOL    HW238457   0.036   0.928   6.426  0.4540 -1.6052  1.1033
 9000SOL     OW38458   1.121   3.995   1.448  0.0064  0.1180 -0.2047
 9000SOL    HW138459   1.134   3.901   1.455 -0.6189  0.0528  0.1130
 9000SOL    HW238460   1.210   4.025   1.431  0.7809 -1.2621  1.4319
 9001SOL     OW38461   1.451   3.332   4.349 -0.2790 -0.1613  0.1775
 9001SOL    HW138462   1.457   3.318   4.254 -0.0067 -2.3155  0.5029
 9001SOL    HW238463   1.539   3.365   4.370 -0.1465 -0.5626  0.2540
 9002SOL     OW38464   4.469   1.850  10.106 -0.7465  0.7336  0.3032
 9002SOL    HW138465   4.468   1.943  10.083 -0.6377 -0.3764 -4.1863
 9002SOL    HW238466   4.511   1.843  10.191 -0.3549 -2.1966 -0.1361
 9003SOL     OW38467   1.125   1.928   3.789  0.2066 -0.0468  0.3509
 9003SOL    HW138468   1.217   1.900   3.785  0.6702  1.5882 -0.4598
 9003SOL    HW238469   1.125   2.007   3.735  0.3212 -1.9822 -2.5087
 9004SOL     OW38470   0.169   1.405   8.119 -0.5543 -0.4989 -0.2176
 9004SOL    HW138471   0.174   1.492   8.158  2.8208 -1.0437  0.5620
 9004SOL    HW238472   0.085   1.411   8.073  0.3454  1.8720 -1.5334
 9005SOL     OW38473   4.173   1.849   0.388  0.6943  0.5424 -0.4698
 9005SOL    HW138474   4.150   1.821   0.477  1.7204 -0.6737 -0.5868
 9005SOL    HW238475   4.128   1.778   0.342 -0.3838  0.1147  1.2242
 9006SOL     OW38476   4.065   2.178   3.593 -0.3014 -0.3334  0.2488
 9006SOL    HW138477   4.153   2.183   3.555 -1.4387  0.1725 -2.2855
 9006SOL    HW238478   4.015   2.172   3.512 -1.9769 -0.2042  1.2822
 9007SOL     OW38479   0.995   1.924   4.553  0.2995 -0.1768 -0.0961
 9007SOL    HW138480   1.042   1.979   4.490 -0.4980  2.4522  1.6181
 9007SOL    HW238481   0.919   1.916   4.495  0.7794  2.8160 -1.1233
 9008SOL     OW38482   2.237   3.111  10.292 -0.0634 -0.3663  0.4416
 9008SOL    HW138483   2.329   3.104  10.318 -0.0096  0.4173  0.4634
 9008SOL    HW238484   2.205   3.085  10.378 -0.5054  1.7787  0.9228
 9009SOL     OW38485   3.592   2.876  11.768 -0.0827 -0.1698 -0.2045
 9009SOL    HW138486   3.684   2.875  11.741 -0.1941 -1.4801 -0.5451
 9009SOL    HW238487   3.581   2.930  11.846  0.7118 -0.0686 -0.1721
 9010SOL     OW38488   1.989   2.594   9.026 -0.0114 -0.0225 -0.1734
 9010SOL    HW138489   2.012   2.637   9.108 -0.1568  3.2592 -1.8549
 9010SOL    HW238490   1.894   2.598   9.038  0.3392 -0.8375  2.7571
 9011SOL     OW38491   3.132   1.310   1.310  0.3907  1.1253 -0.1146
 9011SOL    HW138492   3.133   1.304   1.215 -0.5281  1.1798 -0.1187
 9011SOL    HW238493   3.061   1.373   1.314 -0.0679  0.8077 -3.3571
 9012SOL     OW38494   1.692   1.372   7.175  0.1333  0.0690  0.5156
 9012SOL    HW138495   1.712   1.375   7.269  1.3409  0.5984  0.2329
 9012SOL    HW238496   1.611   1.320   7.178 -0.6865  1.3466  0.2160
 9013SOL     OW38497   0.832   3.357   7.874  0.1785 -0.3308  0.1434
 9013SOL    HW138498   0.794   3.317   7.796 -1.8902  1.1877  0.3595
 9013SOL    HW238499   0.915   3.377   7.832 -0.0276  2.5017  1.0690
 9014SOL     OW38500   2.897   4.675   5.671  0.1537  0.5603  0.5662
 9014SOL    HW138501   2.882   0.025   5.727 -0.0144  0.0855  1.1820
 9014SOL    HW238502   2.912   4.722   5.589 -0.3042  0.5093  0.4527
 9015SOL     OW38503   2.512   0.446  10.126  0.0979  0.3986  1.0090
 9015SOL    HW138504   2.468   0.403  10.199  1.0242  0.2208  1.4564
 9015SOL    HW238505   2.604   0.420  10.125 -0.4137 -1.3609  0.1838
 9016SOL     OW38506   2.091   2.492   4.135 -0.5924 -0.0085  0.4246
 9016SOL    HW138507   2.148   2.419   4.157 -0.7263  0.1495  1.3056
 9016SOL    HW238508   2.149   2.534   4.071 -0.8483  1.7636  1.3583
 9017SOL     OW38509   3.742   1.044   5.505 -0.0770  0.0941 -0.5511
 9017SOL    HW138510   3.776   1.098   5.576  1.4558  0.6517 -1.6833
 9017SOL    HW238511   3.724   0.962   5.550  2.2812 -1.0539 -1.6429
 9018SOL     OW38512   3.151   0.884   0.616  0.0756 -0.6101 -0.3977
 9018SOL    HW138513   3.069   0.867   0.662  0.7971 -4.4166 -0.5330
 9018SOL    HW238514   3.126   0.868   0.525 -0.8850 -0.3392 -0.1834
 9019SOL     OW38515   1.226   3.078   4.682  0.2368  0.4740 -0.6295
 9019SOL    HW138516   1.182   3.048   4.603 -1.1614  1.9390 -0.4046
 9019SOL    HW238517   1.281   3.003   4.708 -1.6295 -1.0261 -1.0034
 9020SOL     OW38518   2.667   4.284  14.394  0.1089  0.2776 -0.5744
 9020SOL    HW138519   2.757   4.303  14.365 -0.1524  2.2440 -0.1130
 9020SOL    HW238520   2.612   4.324  14.326  0.7928  0.1048 -1.2364
 9021SOL     OW38521   4.177   1.860  11.023  0.2742  0.0643  0.0977
 9021SOL    HW138522   4.100   1.804  11.038  0.1483 -0.0267 -0.8722
 9021SOL    HW238523   4.138   1.945  10.999 -2.8435 -1.3053  0.2988
 9022SOL     OW38524   4.273   0.409   3.452 -0.2306 -0.2974  0.1354
 9022SOL    HW138525   4.344   0.363   3.499 -1.3103 -2.9657 -0.8567
 9022SOL    HW238526   4.192   0.373   3.489 -0.7598 -0.1809 -0.9358
 9023SOL     OW38527   3.703   1.403   7.410 -0.3768 -0.3375 -0.5484
 9023SOL    HW138528   3.617   1.367   7.391 -1.4497  1.9086  0.0043
 9023SOL    HW238529   3.699   1.484   7.359  0.5242 -0.0870 -0.2360
 9024SOL     OW38530   4.479   4.616   2.795 -0.0120  0.4150 -0.9208
 9024SOL    HW138531   4.461   4.601   2.702 -0.2312  0.4255 -0.8814
 9024SOL    HW238532   4.561   4.576   2.822 -0.5498  0.4165  0.7164
 9025SOL     OW38533   0.703   3.081   6.701  0.0051  0.3456 -0.5495
 9025SOL    HW138534   0.787   3.036   6.690 -0.6906 -0.8269 -0.9775
 9025SOL    HW238535   0.651   3.002   6.712 -0.7184  0.9194  0.1507
 9026SOL     OW38536   4.199   0.586   2.485  0.5554  0.3677 -0.0636
 9026SOL    HW138537   4.294   0.599   2.494  0.7210 -0.3413 -0.7609
 9026SOL    HW238538   4.201   0.519   2.416 -0.5486 -1.6034  1.8245
 9027SOL     OW38539   2.523   3.390   2.464  0.0146  0.5910 -0.5524
 9027SOL    HW138540   2.538   3.459   2.399 -2.1566 -0.4852 -2.2164
 9027SOL    HW238541   2.442   3.348   2.433  0.8405 -0.7456 -0.8717
 9028SOL     OW38542   1.197   0.021   2.392 -0.2581 -0.3059 -0.0023
 9028SOL    HW138543   1.184   0.030   2.298  1.4230 -1.3287 -0.3438
 9028SOL    HW238544   1.151   0.090   2.440 -1.5955  0.1095 -1.9151
 9029SOL     OW38545   4.448   3.151   6.700 -0.2798 -0.3808 -0.3686
 9029SOL    HW138546   4.413   3.239   6.688  2.4254  0.8271  0.5625
 9029SOL    HW238547   4.370   3.097   6.710  0.3307 -1.3084 -0.5827
 9030SOL     OW38548   0.442   0.824   0.886 -0.3228  0.4155 -0.2741
 9030SOL    HW138549   0.438   0.794   0.977 -1.8607  0.0075 -0.4693
 9030SOL    HW238550   0.412   0.746   0.839  0.0849 -0.5470  1.0643
 9031SOL     OW38551   4.197   3.370  12.823  0.4684  0.1388  0.2504
 9031SOL    HW138552   4.132   3.438  12.838  0.6785  0.2653  0.5742
 9031SOL    HW238553   4.279   3.421  12.818 -0.8875  2.5769  3.4923
 9032SOL     OW38554   1.304   1.307  15.675  0.5015  0.5048  0.0033
 9032SOL    HW138555   1.262   1.224  15.651  1.6364  0.1230 -0.6344
 9032SOL    HW238556   1.302   1.294  15.770  0.8522 -1.0197 -0.1982
 9033SOL     OW38557   2.394   2.147   3.049  0.5296  0.6395 -0.0550
 9033SOL    HW138558   2.440   2.149   2.965  1.4016 -1.2993  0.3849
 9033SOL    HW238559   2.322   2.087   3.030 -0.9614  2.2602  0.5041
 9034SOL     OW38560   1.189   3.748  12.953 -0.5812  0.3285  0.0307
 9034SOL    HW138561   1.253   3.681  12.933 -1.3149  0.1156 -1.6387
 9034SOL    HW238562   1.234   3.807  13.013 -0.9669 -0.5531  1.1721
 9035SOL     OW38563   4.389   0.363   7.938 -0.1852  0.1533  0.1262
 9035SOL    HW138564   4.431   0.283   7.906 -2.9381 -1.5738  0.7703
 9035SOL    HW238565   4.331   0.370   7.862 -1.0947 -1.6165  0.6495
 9036SOL     OW38566   0.497   0.661  11.463  0.6938 -0.3153  0.2573
 9036SOL    HW138567   0.453   0.599  11.406 -0.4504  0.1446  0.6503
 9036SOL    HW238568   0.443   0.738  11.447  1.8025  0.0690 -1.6403
 9037SOL     OW38569   0.376   1.345  10.540 -0.4894 -0.3029 -0.3603
 9037SOL    HW138570   0.328   1.341  10.458  0.0627  1.1660 -0.7585
 9037SOL    HW238571   0.445   1.406  10.513  0.0190 -0.7873 -0.1637
 9038SOL     OW38572   1.054   4.538  13.471  0.2142 -0.0858  0.1760
 9038SOL    HW138573   1.145   4.521  13.496 -0.5366  0.9983  3.6808
 9038SOL    HW238574   1.055   4.503  13.383  1.9359  0.2697  0.0415
 9039SOL     OW38575   1.835   0.652   8.590 -0.2344  0.1901 -0.9073
 9039SOL    HW138576   1.902   0.616   8.532  1.9927  2.5270  0.2637
 9039SOL    HW238577   1.753   0.630   8.546 -0.8006 -2.4170  1.4320
 9040SOL     OW38578   4.141   0.579   5.480 -0.1751  0.0886  0.4397
 9040SOL    HW138579   4.052   0.610   5.501  0.0854 -0.4351  2.3743
 9040SOL    HW238580   4.132   0.484   5.494 -0.5693 -0.3815 -3.1242
 9041SOL     OW38581   3.849   4.352   5.030  0.3283 -0.1291  0.3506
 9041SOL    HW138582   3.927   4.408   5.033 -0.7642  1.2763  2.1423
 9041SOL    HW238583   3.899   4.271   5.021 -0.9943 -1.1839  2.5755
 9042SOL     OW38584   1.242   2.293   3.299  0.1567 -0.1084  0.0877
 9042SOL    HW138585   1.337   2.282   3.300  0.0852 -0.8230 -1.0890
 9042SOL    HW238586   1.236   2.374   3.350  1.7476 -0.8191  1.4091
 9043SOL     OW38587   1.032   0.098  11.626  0.2418  0.4422  0.0546
 9043SOL    HW138588   1.091   0.057  11.689  0.6982  0.8053 -0.1383
 9043SOL    HW238589   1.082   0.112  11.546  3.2395 -0.8200  1.7078
 9044SOL     OW38590   3.575   3.843   7.118 -0.1840  0.4759 -0.1691
 9044SOL    HW138591   3.595   3.752   7.094  1.4393  0.3943  1.4254
 9044SOL    HW238592   3.604   3.847   7.210 -2.2969  1.4509  0.4534
 9045SOL     OW38593   3.755   4.053   1.123  0.5745 -0.2333  0.1967
 9045SOL    HW138594   3.750   4.001   1.203  0.8769 -0.0868  0.3104
 9045SOL    HW238595   3.825   4.115   1.140 -0.2689  0.7904 -0.0995
 9046SOL     OW38596   0.861   0.241   2.019  0.2276 -0.0895 -0.1505
 9046SOL    HW138597   0.956   0.245   2.025  0.3237 -1.8704 -0.3337
 9046SOL    HW238598   0.841   0.334   2.016 -1.5652 -0.4834 -0.4254
 9047SOL     OW38599   3.860   2.550  15.490 -0.1249  0.1834 -0.0017
 9047SOL    HW138600   3.844   2.628  15.544  0.3968  2.1326 -2.6472
 9047SOL    HW238601   3.789   2.560  15.427 -0.9097 -0.5403  0.7722
 9048SOL     OW38602   3.898   0.641  14.843  0.3854  0.5772  0.1630
 9048SOL    HW138603   3.818   0.650  14.895  0.5610  0.1863  0.5044
 9048SOL    HW238604   3.912   0.546  14.846 -0.8515  0.4424  2.0821
 9049SOL     OW38605   2.975   1.066   7.700 -0.5347  0.0545 -0.1105
 9049SOL    HW138606   2.934   1.143   7.660  1.6639  2.2769  1.8878
 9049SOL    HW238607   3.029   1.025   7.633  1.1138  1.6846  0.2179
 9050SOL     OW38608   2.768   1.609   3.323 -0.6569  0.4767  0.2473
 9050SOL    HW138609   2.822   1.624   3.400  0.0162 -0.0305 -0.1266
 9050SOL    HW238610   2.834   1.589   3.256  1.0063  1.2133  1.6800
 9051SOL     OW38611   2.644   3.867  11.696 -0.0834 -0.1009 -0.7128
 9051SOL    HW138612   2.630   3.773  11.709  0.4805  0.2680  2.4925
 9051SOL    HW238613   2.553   3.899  11.697 -0.8689 -2.3277  0.2990
 9052SOL     OW38614   0.445   1.793   8.788 -0.2713 -0.1166 -0.1111
 9052SOL    HW138615   0.420   1.845   8.864 -2.2371 -1.2004 -0.0010
 9052SOL    HW238616   0.540   1.786   8.799 -0.0927  1.0912 -0.8186
 9053SOL     OW38617   2.368   1.812   8.698  0.3682 -0.3888 -0.1079
 9053SOL    HW138618   2.307   1.840   8.766  0.2158 -0.4437 -0.2227
 9053SOL    HW238619   2.357   1.717   8.688 -0.0043 -0.2916 -0.6418
 9054SOL     OW38620   4.079   4.700   4.361  0.4008  0.4681  0.0033
 9054SOL    HW138621   4.162   4.665   4.395  1.9597  3.0479 -1.1533
 9054SOL    HW238622   4.016   4.629   4.372  1.7382 -0.8114 -0.6417
 9055SOL     OW38623   0.438   2.812   3.992  0.2595  0.1466  0.1929
 9055SOL    HW138624   0.343   2.817   3.986  0.3029  2.0752  1.5425
 9055SOL    HW238625   0.461   2.831   4.082 -0.2028  0.3090  0.2768
 9056SOL     OW38626   0.682   2.675   5.524 -0.2931  0.4582 -0.2886
 9056SOL    HW138627   0.640   2.600   5.566  0.6492  0.7587  1.1833
 9056SOL    HW238628   0.755   2.684   5.585 -0.5057  2.1110 -0.2759
 9057SOL     OW38629   2.759   3.881   6.442  0.6525 -0.1718  0.0542
 9057SOL    HW138630   2.739   3.970   6.412 -0.2248 -1.5385 -3.3788
 9057SOL    HW238631   2.732   3.871   6.533  1.8337 -2.0160  0.1884
 9058SOL     OW38632   0.876   4.540   9.248 -0.1739  0.4356 -0.2924
 9058SOL    HW138633   0.822   4.568   9.322 -1.2830  1.0104 -1.3141
 9058SOL    HW238634   0.967   4.549   9.275 -0.0356 -1.5298 -0.1098
 9059SOL     OW38635   2.370   1.715   8.146 -0.1729  0.6689  0.3480
 9059SOL    HW138636   2.378   1.770   8.224 -1.3827 -0.2096  1.1159
 9059SOL    HW238637   2.313   1.774   8.097 -0.2502 -0.3357 -0.7862
 9060SOL     OW38638   3.512   4.114  14.673 -0.0448 -1.0526  0.0454
 9060SOL    HW138639   3.552   4.075  14.750 -0.4400 -1.8373 -0.1501
 9060SOL    HW238640   3.581   4.124  14.608  0.8294 -0.7765  1.0246
 9061SOL     OW38641   3.624   1.800  11.049 -0.4060  0.5668 -0.0835
 9061SOL    HW138642   3.653   1.822  11.138  0.6000 -1.7030  0.1669
 9061SOL    HW238643   3.590   1.883  11.017  1.9124  1.2264 -0.8101
 9062SOL     OW38644   1.061   2.350   4.179  0.5861 -0.2701 -0.2476
 9062SOL    HW138645   0.995   2.339   4.248  0.1649  2.7467 -0.1941
 9062SOL    HW238646   1.010   2.404   4.119 -1.3712 -2.3891 -0.4899
 9063SOL     OW38647   2.980   0.342  14.556 -0.0837 -0.5649  0.2992
 9063SOL    HW138648   2.995   0.284  14.631 -0.7307 -1.9272 -0.6367
 9063SOL    HW238649   2.993   0.427  14.600 -1.5361 -0.2015  0.0298
 9064SOL     OW38650   4.197   4.466   2.646 -0.1817  0.3142  0.0023
 9064SOL    HW138651   4.191   4.376   2.614  1.3834  0.2059  0.0051
 9064SOL    HW238652   4.268   4.493   2.588  1.0337 -1.3444  0.7061
 9065SOL     OW38653   2.074   2.221   5.955  0.3350  0.1049  0.0552
 9065SOL    HW138654   2.137   2.265   5.898  0.3511  1.4466  1.1316
 9065SOL    HW238655   1.999   2.275   5.929  0.6487  0.6173  0.2163
 9066SOL     OW38656   4.668   3.560   9.579  0.1021  0.1072  0.9136
 9066SOL    HW138657   4.678   3.620   9.653  0.9586  1.2712 -0.1581
 9066SOL    HW238658   4.676   3.474   9.620 -0.5458 -0.5949 -0.4409
 9067SOL     OW38659   2.308   1.729   4.735  0.2614 -0.6085  0.2682
 9067SOL    HW138660   2.344   1.652   4.778  0.8113 -0.2169  0.5038
 9067SOL    HW238661   2.295   1.796   4.803 -1.8805 -0.5965 -0.1527
 9068SOL     OW38662   3.319   0.993   1.314 -0.1320  0.1357 -0.4611
 9068SOL    HW138663   3.266   1.018   1.239  1.1909  0.3167 -1.3262
 9068SOL    HW238664   3.372   0.927   1.269  0.6232  0.3895  0.0471
 9069SOL     OW38665   1.532   4.567   6.652 -0.3738  0.0427 -0.1931
 9069SOL    HW138666   1.578   4.588   6.571  0.4591 -0.9248  0.0122
 9069SOL    HW238667   1.553   4.473   6.650  1.2575  0.4230 -1.2425
 9070SOL     OW38668   1.118   4.690  13.031  0.0611  0.4903  0.2396
 9070SOL    HW138669   1.023   4.696  13.023 -0.1225 -1.7185  0.7121
 9070SOL    HW238670   1.128   0.057  13.044 -0.8437  0.9367 -2.2903
 9071SOL     OW38671   3.595   3.494   3.107  0.2583 -0.3447  0.6455
 9071SOL    HW138672   3.528   3.458   3.164  1.1795 -0.9112  1.3746
 9071SOL    HW238673   3.587   3.446   3.025  1.2140  1.3173 -0.4340
 9072SOL     OW38674   0.308   1.515   9.176  0.2805  0.3981 -0.5467
 9072SOL    HW138675   0.400   1.516   9.203  0.7845  0.1004 -2.2461
 9072SOL    HW238676   0.309   1.586   9.112 -1.0533  1.1441  0.2458
 9073SOL     OW38677   1.036   2.050  16.838 -0.1496 -0.2006  0.3019
 9073SOL    HW138678   0.971   2.012  16.779 -0.1552  0.7370 -0.2997
 9073SOL    HW238679   1.105   2.081  16.780 -1.2381 -1.9936 -1.9250
 9074SOL     OW38680   1.966   1.028   1.257  0.4965  0.5965  0.4537
 9074SOL    HW138681   1.874   1.006   1.270  0.6710 -0.2866  0.2219
 9074SOL    HW238682   1.989   0.959   1.194  0.0573  2.1270 -1.3866
 9075SOL     OW38683   1.294   0.918   7.879  0.4763  0.2167  0.3730
 9075SOL    HW138684   1.306   1.012   7.891  2.2402  0.2581 -1.8004
 9075SOL    HW238685   1.246   0.883   7.955 -1.0143 -1.5346 -1.3883
 9076SOL     OW38686   0.949   2.812   6.351 -0.2230  0.3115  0.0138
 9076SOL    HW138687   0.924   2.741   6.292 -0.4150 -0.1022  0.5921
 9076SOL    HW238688   1.044   2.816   6.343 -0.3773  0.4547 -1.6417
 9077SOL     OW38689   4.637   4.705   5.212 -0.2475 -0.1672 -0.5203
 9077SOL    HW138690   4.588   0.023   5.281 -2.5191  0.1122 -2.3604
 9077SOL    HW238691   4.685   4.644   5.268  2.8985  1.3622 -1.5480
 9078SOL     OW38692   1.718   2.823   5.820 -0.1640 -0.4756  0.2958
 9078SOL    HW138693   1.700   2.820   5.914  0.7503  0.7875  0.5141
 9078SOL    HW238694   1.778   2.897   5.822 -1.5022  0.6167  0.0862
 9079SOL     OW38695   3.929   1.411   6.629  0.0248 -0.0429  0.1579
 9079SOL    HW138696   3.955   1.474   6.563  1.0622 -0.5745  0.0570
 9079SOL    HW238697   4.015   1.375   6.652 -1.1222 -2.9413 -0.0837
 9080SOL     OW38698   3.531   0.406   8.464  0.5092  0.1947  0.7095
 9080SOL    HW138699   3.514   0.377   8.553 -0.6919  0.4571  0.5695
 9080SOL    HW238700   3.564   0.493   8.486 -0.3983  0.5910  0.5061
 9081SOL     OW38701   0.448   4.014   1.720 -0.3216  0.7667 -0.3393
 9081SOL    HW138702   0.506   4.054   1.784 -2.4344 -0.7997  2.5520
 9081SOL    HW238703   0.372   4.072   1.731  0.3279  1.5966 -0.2257
 9082SOL     OW38704   0.797   0.134   1.771  0.0157  0.2556 -0.3526
 9082SOL    HW138705   0.798   0.205   1.708 -0.5599  2.0197  1.6194
 9082SOL    HW238706   0.824   0.189   1.845 -2.9158  0.3747  0.6194
 9083SOL     OW38707   2.826   3.667   4.359 -0.1152 -0.1442  0.1295
 9083SOL    HW138708   2.921   3.660   4.350 -0.1168  0.2438 -0.1740
 9083SOL    HW238709   2.794   3.647   4.271 -0.4188  0.4027  0.1129
 9084SOL     OW38710   4.595   0.603  15.821  0.0927 -0.1299 -0.4017
 9084SOL    HW138711   4.574   0.559  15.738  0.6638 -0.9709 -0.1000
 9084SOL    HW238712   4.510   0.593  15.863 -0.0073 -0.7655 -0.7554
 9085SOL     OW38713   0.572   2.340   6.119  0.7354 -0.6022  0.0357
 9085SOL    HW138714   0.545   2.307   6.204 -0.4500 -0.2758 -0.2099
 9085SOL    HW238715   0.492   2.336   6.067  1.6423  0.9315 -1.5158
 9086SOL     OW38716   0.941   3.192   4.565  0.2537 -0.0114  0.3140
 9086SOL    HW138717   0.893   3.272   4.545 -3.3080 -1.8947  1.3371
 9086SOL    HW238718   0.915   3.175   4.656 -1.3535  0.4939 -0.0508
 9087SOL     OW38719   1.495   2.127   6.575  0.7580 -0.5026  0.4299
 9087SOL    HW138720   1.477   2.074   6.497 -0.3116  1.2755 -0.5164
 9087SOL    HW238721   1.559   2.073   6.623  1.5103  1.7688  1.9922
 9088SOL     OW38722   4.722   2.839   6.975  0.1282 -0.6385  1.0493
 9088SOL    HW138723   4.723   2.885   7.059  0.8546 -0.9117  1.1930
 9088SOL    HW238724   4.631   2.843   6.947  0.4483 -2.0658 -0.2329
 9089SOL     OW38725   1.626   2.519  16.589 -0.3965  0.0143 -0.3820
 9089SOL    HW138726   1.679   2.456  16.540  2.1583  3.2512 -1.7598
 9089SOL    HW238727   1.560   2.541  16.523 -1.6412 -0.5224  0.6797
 9090SOL     OW38728   1.205   3.996   4.174 -0.3037 -0.8534 -0.4122
 9090SOL    HW138729   1.129   3.967   4.123  0.1060 -0.3650 -1.3077
 9090SOL    HW238730   1.257   4.035   4.104  0.0097 -1.0751 -0.2993
 9091SOL     OW38731   0.966   1.191   5.930  0.3085  0.2154  1.1077
 9091SOL    HW138732   0.918   1.230   5.858  0.3841 -0.6037  0.6085
 9091SOL    HW238733   0.925   1.235   6.004 -1.0394  1.7100 -0.5335
 9092SOL     OW38734   2.628   4.227   8.982  0.1247  0.2683  0.0045
 9092SOL    HW138735   2.710   4.179   8.995 -0.6331 -1.6594 -2.3413
 9092SOL    HW238736   2.567   4.192   9.047  0.2075  0.0890 -0.0136
 9093SOL     OW38737   2.364   0.645   8.698 -0.1074  0.2303  0.1964
 9093SOL    HW138738   2.334   0.633   8.608  1.0864  0.2728 -0.2083
 9093SOL    HW238739   2.300   0.713   8.717 -0.3225  0.1932 -0.3753
 9094SOL     OW38740   3.732   2.257   2.341 -0.5908  0.6102 -0.0825
 9094SOL    HW138741   3.705   2.167   2.326 -0.7241  0.7027 -0.4038
 9094SOL    HW238742   3.760   2.257   2.433  1.6942 -1.7080 -0.7716
 9095SOL     OW38743   2.175   1.364   3.542 -0.1772 -0.5344 -0.1444
 9095SOL    HW138744   2.197   1.425   3.472  2.3973  0.5358  1.5585
 9095SOL    HW238745   2.247   1.300   3.544  1.0275  0.8374  0.1656
 9096SOL     OW38746   1.191   2.119   4.701 -0.4783 -0.1163 -0.5818
 9096SOL    HW138747   1.278   2.080   4.692 -0.5560 -0.0172 -1.7518
 9096SOL    HW238748   1.211   2.195   4.755 -0.1102  0.4753 -1.5565
 9097SOL     OW38749   3.392   2.807   7.291 -0.4252 -0.3754  0.0579
 9097SOL    HW138750   3.426   2.842   7.209  3.0198 -2.7629  0.4659
 9097SOL    HW238751   3.465   2.763   7.334 -0.1173 -1.6333 -1.7240
 9098SOL     OW38752   2.724   0.891   3.244 -0.5338 -0.0950  0.5534
 9098SOL    HW138753   2.806   0.923   3.284  0.3336 -1.6867  0.0452
 9098SOL    HW238754   2.676   0.969   3.218  1.1365  0.7189 -0.1247
 9099SOL     OW38755   0.527   3.238   8.415 -0.3220 -0.8165 -0.0049
 9099SOL    HW138756   0.485   3.179   8.478 -2.0059  1.6631  1.2354
 9099SOL    HW238757   0.480   3.211   8.336 -1.5013  0.2316  0.3240
 9100SOL     OW38758   2.293   1.164   8.158  0.0201  0.1811  0.0653
 9100SOL    HW138759   2.274   1.258   8.163  2.0616  0.7277 -2.2896
 9100SOL    HW238760   2.225   1.121   8.107 -0.4159 -0.0779  0.8737
 9101SOL     OW38761   1.172   0.321  10.460 -0.1701  0.1110  0.1617
 9101SOL    HW138762   1.199   0.323  10.368  1.1628  0.0734  0.5563
 9101SOL    HW238763   1.083   0.287  10.463 -1.0728  2.4865  0.1834
 9102SOL     OW38764   3.241   1.774   5.822 -0.3377 -0.5910  0.7300
 9102SOL    HW138765   3.210   1.831   5.893 -0.7097 -1.4960  1.2874
 9102SOL    HW238766   3.162   1.724   5.802 -0.5764  0.7526 -1.6541
 9103SOL     OW38767   2.668   1.594   4.059  0.3203 -0.0436 -0.2070
 9103SOL    HW138768   2.708   1.651   3.993 -1.0980 -0.2964 -1.2795
 9103SOL    HW238769   2.609   1.648   4.111  1.9088 -1.6828  3.3402
 9104SOL     OW38770   0.697   4.140   8.418 -0.4980  0.4327  0.4293
 9104SOL    HW138771   0.631   4.112   8.355  1.8774  2.3408 -2.8780
 9104SOL    HW238772   0.650   4.158   8.500 -1.5421 -1.2424  0.1947
 9105SOL     OW38773   3.595   2.250   1.233 -0.7559 -0.0007  0.3179
 9105SOL    HW138774   3.655   2.263   1.159 -1.5902  0.3585 -0.2915
 9105SOL    HW238775   3.604   2.154   1.233  1.3896  0.1853 -0.2003
 9106SOL     OW38776   3.269   0.208   9.170 -0.1193  0.7707  0.2518
 9106SOL    HW138777   3.356   0.179   9.197  0.6245  2.2906 -0.5170
 9106SOL    HW238778   3.217   0.194   9.249 -2.0078  1.8754 -0.7981
 9107SOL     OW38779   0.136   3.371   6.693 -0.2563 -0.1122 -0.3031
 9107SOL    HW138780   0.226   3.342   6.701 -0.7625 -0.7109  2.9904
 9107SOL    HW238781   0.088   3.306   6.744 -1.2001  1.5179  0.8680
 9108SOL     OW38782   3.298   0.179   9.515  0.3047 -0.3121  0.0405
 9108SOL    HW138783   3.386   0.200   9.484 -0.1439  0.7795 -0.4899
 9108SOL    HW238784   3.305   0.188   9.610  1.5230  0.4311 -0.1206
 9109SOL     OW38785   4.688   3.253   7.230 -0.2982 -0.0834 -0.2401
 9109SOL    HW138786   0.004   3.281   7.149 -1.4085 -0.3432 -0.9310
 9109SOL    HW238787   0.017   3.276   7.304  0.0155  0.1047 -0.5336
 9110SOL     OW38788   3.761   0.848   8.182 -0.5750 -0.7638  0.4090
 9110SOL    HW138789   3.773   0.843   8.087 -1.1117 -0.8548  0.3495
 9110SOL    HW238790   3.671   0.878   8.191 -0.6439 -0.7546 -0.3388
 9111SOL     OW38791   3.913   0.202   1.144  0.1098  1.0706  0.0503
 9111SOL    HW138792   3.938   0.265   1.076  0.7579 -1.6166 -2.1763
 9111SOL    HW238793   3.825   0.178   1.115  0.0039 -1.4930  2.4926
 9112SOL     OW38794   1.962   1.585  15.479 -0.4889  0.2984 -0.6181
 9112SOL    HW138795   1.949   1.674  15.510 -0.9537 -0.6982  2.0681
 9112SOL    HW238796   1.871   1.556  15.468 -0.8577  0.8816  0.9764
 9113SOL     OW38797   2.551   4.302   7.031  0.3726  0.2126  0.0521
 9113SOL    HW138798   2.514   4.309   7.119  3.6466 -0.7554  1.5245
 9113SOL    HW238799   2.527   4.392   7.010  0.3296  0.1619 -0.1128
 9114SOL     OW38800   2.536   2.918   6.866  0.0698 -0.3846 -0.2232
 9114SOL    HW138801   2.469   2.903   6.799 -0.7316  0.3691  0.4037
 9114SOL    HW238802   2.566   3.006   6.845  1.5874 -0.4411  1.7431
 9115SOL     OW38803   0.383   3.145  17.290  0.0052  0.0033 -0.2900
 9115SOL    HW138804   0.431   3.072  17.253 -1.6366 -0.9056 -0.6441
 9115SOL    HW238805   0.423   3.225  17.255  0.6568 -0.3056 -0.2335
 9116SOL     OW38806   3.355   4.359   5.154 -0.5146  0.4747  0.2865
 9116SOL    HW138807   3.350   4.454   5.166  4.2340  0.7397 -0.0913
 9116SOL    HW238808   3.435   4.345   5.104 -0.5728  1.1353  0.0053
 9117SOL     OW38809   3.320   2.491   2.247  0.6051 -0.0001 -0.1307
 9117SOL    HW138810   3.342   2.416   2.303 -1.1774 -1.1894 -1.0514
 9117SOL    HW238811   3.230   2.512   2.271  0.7327  0.8028 -0.3711
 9118SOL     OW38812   0.971   0.610   3.902 -0.0523  0.1314 -0.5672
 9118SOL    HW138813   0.898   0.547   3.900 -0.7084  0.7997  2.0473
 9118SOL    HW238814   0.995   0.605   3.995  1.0121 -2.5758 -0.9958
 9119SOL     OW38815   0.620   2.866   7.890 -0.7242  0.1339  0.3379
 9119SOL    HW138816   0.549   2.802   7.893 -0.9638  0.2847 -1.7367
 9119SOL    HW238817   0.578   2.944   7.855 -0.9836 -0.0588  0.2197
 9120SOL     OW38818   1.360   3.032   4.347 -0.6726  0.0958  0.2477
 9120SOL    HW138819   1.290   3.096   4.337 -0.3831  0.3808  0.0607
 9120SOL    HW238820   1.438   3.087   4.352 -0.9797  0.5712 -0.2052
 9121SOL     OW38821   4.140   3.997   5.574 -0.6787 -0.8379 -0.6414
 9121SOL    HW138822   4.176   4.075   5.615  1.9967 -1.6128 -1.5046
 9121SOL    HW238823   4.132   3.938   5.650 -0.8434  1.8362  1.4420
 9122SOL     OW38824   4.202   3.310   3.844 -0.4011 -0.5962 -0.1673
 9122SOL    HW138825   4.287   3.301   3.800 -0.2296  0.6652 -0.1030
 9122SOL    HW238826   4.218   3.320   3.938 -0.7079  1.8921 -0.3737
 9123SOL     OW38827   4.334   4.131   5.394  0.6587  0.7691  0.4946
 9123SOL    HW138828   4.338   4.056   5.336 -0.9306 -0.9308  2.5745
 9123SOL    HW238829   4.261   4.113   5.454 -0.1576  2.0500 -0.1144
 9124SOL     OW38830   0.881   0.791   7.483  0.2456 -0.2749 -0.5732
 9124SOL    HW138831   0.934   0.857   7.438  1.3472 -1.7658 -1.4500
 9124SOL    HW238832   0.800   0.839   7.502  0.1268 -0.5947 -0.2714
 9125SOL     OW38833   2.499   4.554  10.405 -0.3452  0.4417  0.5597
 9125SOL    HW138834   2.572   4.495  10.423 -0.0599  0.6841  0.2044
 9125SOL    HW238835   2.529   4.614  10.337  0.9144 -1.6279 -0.7143
 9126SOL     OW38836   1.220   4.054   6.618 -0.4128 -0.0966  0.0383
 9126SOL    HW138837   1.283   4.121   6.643 -1.0284 -0.2022  1.8444
 9126SOL    HW238838   1.163   4.063   6.694  0.9817 -2.8902  1.4345
 9127SOL     OW38839   2.867   1.345   8.702  0.0908  0.3773  0.1078
 9127SOL    HW138840   2.880   1.418   8.641  0.3790  0.6367  0.4777
 9127SOL    HW238841   2.924   1.371   8.775 -0.4785 -0.7531  0.9640
 9128SOL     OW38842   1.774   3.539  15.956 -0.0934  0.5274  0.0828
 9128SOL    HW138843   1.774   3.631  15.930  0.5147  0.5724  0.2576
 9128SOL    HW238844   1.686   3.514  15.928  0.3354 -1.2006  0.3174
 9129SOL     OW38845   0.657   2.290   3.162 -1.1741  0.0008 -0.3720
 9129SOL    HW138846   0.711   2.211   3.158  1.6985  1.9764 -1.0560
 9129SOL    HW238847   0.595   2.272   3.092  0.7909  1.0302 -2.3891
 9130SOL     OW38848   2.830   4.643   7.046 -0.1698 -0.2274 -0.0165
 9130SOL    HW138849   2.778   4.654   7.126  0.5154 -0.6213  0.4833
 9130SOL    HW238850   2.920   4.665   7.069 -1.4679  1.7099  3.2705
 9131SOL     OW38851   2.872   0.744   7.639  0.1107 -0.0465 -0.1791
 9131SOL    HW138852   2.954   0.782   7.605  0.4302  0.8841  1.5914
 9131SOL    HW238853   2.904   0.668   7.687  1.4529  1.6211  1.5788
 9132SOL     OW38854   4.393   2.940  11.934  0.1629  0.0910  0.2495
 9132SOL    HW138855   4.315   2.935  11.989 -0.8497 -1.7520 -1.3196
 9132SOL    HW238856   4.443   3.006  11.981  0.1860  1.1148 -1.2129
 9133SOL     OW38857   0.265   3.879   7.884 -0.4158 -0.5541 -0.5386
 9133SOL    HW138858   0.246   3.785   7.882 -0.1758 -0.6301  0.8612
 9133SOL    HW238859   0.219   3.908   7.963 -0.5944 -1.9203 -0.1366
 9134SOL     OW38860   4.292   0.356  11.912  0.2684 -0.6686 -0.4743
 9134SOL    HW138861   4.336   0.312  11.839 -2.1590  1.0785 -2.9753
 9134SOL    HW238862   4.253   0.278  11.952 -1.1584  0.6699  0.7206
 9135SOL     OW38863   3.374   0.168   9.775  0.1285 -0.1216  0.4566
 9135SOL    HW138864   3.455   0.120   9.762  0.7758  0.8843  0.8362
 9135SOL    HW238865   3.415   0.252   9.794 -0.7519  0.4212 -0.0317
 9136SOL     OW38866   0.397   2.222   5.866 -0.2537 -0.1050 -0.0155
 9136SOL    HW138867   0.302   2.215   5.867 -0.1868 -1.2379 -0.9600
 9136SOL    HW238868   0.402   2.249   5.774  0.7330 -0.0163  0.0661
 9137SOL     OW38869   2.098   3.956  11.198 -0.1659 -0.1149 -0.5450
 9137SOL    HW138870   2.155   3.883  11.219  0.2369  0.7039  1.1862
 9137SOL    HW238871   2.018   3.913  11.167 -1.7580  1.4317  1.3857
 9138SOL     OW38872   2.344   1.262   2.774  0.1397  0.0416  0.4023
 9138SOL    HW138873   2.320   1.185   2.724 -0.8096  1.1542 -0.8466
 9138SOL    HW238874   2.318   1.325   2.707 -1.5876 -3.1642 -1.9505
 9139SOL     OW38875   3.887   0.742   8.408  0.0881  0.0229 -0.3436
 9139SOL    HW138876   3.858   0.816   8.355 -0.7825  1.2094  1.7561
 9139SOL    HW238877   3.806   0.706   8.446 -0.1105  1.2380  0.4013
 9140SOL     OW38878   2.218   1.990  13.261 -0.0139 -0.0757  0.0122
 9140SOL    HW138879   2.224   1.967  13.354 -0.9650  0.1673  0.1357
 9140SOL    HW238880   2.242   1.908  13.219 -4.1408 -1.7562  0.9499
 9141SOL     OW38881   1.235   1.024   2.167 -0.2766  0.2326  0.1096
 9141SOL    HW138882   1.235   1.076   2.087 -0.9625  1.5979  1.0144
 9141SOL    HW238883   1.325   0.991   2.167 -0.9148 -1.5345  1.6500
 9142SOL     OW38884   0.634   3.978  10.091 -0.2310  0.1583 -0.3411
 9142SOL    HW138885   0.596   4.046  10.146 -0.2774  0.3522 -0.6106
 9142SOL    HW238886   0.725   3.981  10.120 -1.2793  0.8208  2.8189
 9143SOL     OW38887   0.722   3.719   1.514  0.3057 -0.2393 -0.1524
 9143SOL    HW138888   0.760   3.785   1.457 -1.6259 -2.3333 -3.8513
 9143SOL    HW238889   0.642   3.693   1.468 -0.2201 -0.6728  0.9964
 9144SOL     OW38890   3.967   2.219   3.833 -0.7476 -0.0256  0.4300
 9144SOL    HW138891   4.039   2.170   3.872 -1.1192 -1.6568 -0.9603
 9144SOL    HW238892   4.004   2.218   3.745 -1.1183 -0.3994  0.2776
 9145SOL     OW38893   0.471   4.289   2.982 -0.2490  0.3172 -0.0233
 9145SOL    HW138894   0.410   4.356   3.013 -0.6597 -0.7767  1.5569
 9145SOL    HW238895   0.464   4.227   3.055  0.3511 -0.4028 -0.5826
 9146SOL     OW38896   3.529   1.762   4.918  0.0899  0.5950 -0.2142
 9146SOL    HW138897   3.608   1.798   4.959  1.3124 -2.2708 -0.0263
 9146SOL    HW238898   3.484   1.845   4.905 -0.9095 -0.0044 -0.5449
 9147SOL     OW38899   1.258   2.802   2.392  0.0239  0.5123 -0.1179
 9147SOL    HW138900   1.296   2.890   2.396  2.8458 -0.6874 -0.4548
 9147SOL    HW238901   1.167   2.827   2.407  0.1756  0.4301  0.9236
 9148SOL     OW38902   1.718   4.590   3.658  0.9396  0.0164 -0.0847
 9148SOL    HW138903   1.721   4.594   3.562 -0.1744 -0.3456 -0.1420
 9148SOL    HW238904   1.717   4.494   3.662 -0.2071  0.1347  2.5135
 9149SOL     OW38905   1.025   1.207   8.050  0.0085 -0.6727 -0.2882
 9149SOL    HW138906   1.022   1.211   7.954 -2.2119  1.4823 -0.1339
 9149SOL    HW238907   0.941   1.244   8.077  1.1606  0.7439  1.2984
 9150SOL     OW38908   3.979   0.090  11.350 -0.5168  0.0626  0.0903
 9150SOL    HW138909   4.016   0.106  11.436 -0.5604  0.3187  0.0618
 9150SOL    HW238910   3.886   0.114  11.355 -0.9757 -1.3130 -1.6452
 9151SOL     OW38911   2.403   2.592   4.882  0.2560  0.3969  0.7614
 9151SOL    HW138912   2.386   2.687   4.880 -0.3708  0.2024 -2.2316
 9151SOL    HW238913   2.475   2.596   4.945  1.2378  0.9362 -0.4084
 9152SOL     OW38914   0.275   2.620   5.296  0.4679 -0.0170  0.4507
 9152SOL    HW138915   0.292   2.652   5.385  2.8802 -4.8711  1.7510
 9152SOL    HW238916   0.247   2.530   5.314 -1.3604  0.8741  2.1839
 9153SOL     OW38917   3.826   3.055   7.236  0.7108 -0.3686 -0.0593
 9153SOL    HW138918   3.843   3.111   7.311  1.3128 -0.5339 -0.0695
 9153SOL    HW238919   3.876   3.106   7.171 -0.1638  0.3479 -0.1682
 9154SOL     OW38920   1.774   2.059   1.141  0.1975 -0.0892 -0.4503
 9154SOL    HW138921   1.830   1.987   1.170 -1.2736  0.0758  2.7932
 9154SOL    HW238922   1.817   2.140   1.113  1.9968  0.0667  2.8732
 9155SOL     OW38923   0.706   4.290  11.656 -0.3383  0.0199  0.2594
 9155SOL    HW138924   0.675   4.206  11.622 -0.0545  0.0425 -0.0631
 9155SOL    HW238925   0.642   4.310  11.723  0.0419 -1.5833  1.0961
 9156SOL     OW38926   0.728   0.284   3.671 -0.2847 -0.5338  0.5278
 9156SOL    HW138927   0.817   0.303   3.641 -0.6293  0.4368  0.1130
 9156SOL    HW238928   0.671   0.332   3.611  0.0354  0.6379  1.1720
 9157SOL     OW38929   0.447   4.134   4.011  0.1858 -0.2645  0.0711
 9157SOL    HW138930   0.367   4.102   4.053 -0.5503 -1.5435 -2.3295
 9157SOL    HW238931   0.504   4.066   4.047  0.4994  1.2587  2.4730
 9158SOL     OW38932   4.418   1.787   1.348 -0.1949  0.6552 -0.3619
 9158SOL    HW138933   4.334   1.798   1.393 -1.2675 -0.2760 -2.1393
 9158SOL    HW238934   4.385   1.758   1.263 -0.2273  0.7339 -0.3758
 9159SOL     OW38935   2.590   4.065   4.533  0.2457 -0.2056 -0.1789
 9159SOL    HW138936   2.547   3.981   4.521 -1.2038  0.6103 -0.6993
 9159SOL    HW238937   2.623   4.055   4.622  1.5939  1.3524 -0.5027
 9160SOL     OW38938   0.610   1.407   2.904 -0.4343  0.4916  0.1114
 9160SOL    HW138939   0.696   1.431   2.869  0.1721 -0.7692  0.7190
 9160SOL    HW238940   0.600   1.462   2.982  0.3684 -0.9497  1.2533
 9161SOL     OW38941   4.632   1.591   3.751  0.0927  0.0116  0.7683
 9161SOL    HW138942   4.713   1.583   3.800  0.8869 -1.0884 -0.7135
 9161SOL    HW238943   4.593   1.503   3.755 -0.1384  0.1507  1.6625
 9162SOL     OW38944   1.625   2.942   3.693  0.2624  0.0058  0.7184
 9162SOL    HW138945   1.584   2.866   3.652  1.7002 -0.0597 -0.5789
 9162SOL    HW238946   1.560   3.000   3.654 -1.0131 -1.0804  1.1982
 9163SOL     OW38947   2.563   0.365   4.952 -0.4840 -0.1646 -0.0298
 9163SOL    HW138948   2.507   0.439   4.973  0.6107  1.4268 -2.6163
 9163SOL    HW238949   2.588   0.381   4.860  0.6344  0.6332  0.4057
 9164SOL     OW38950   3.994   3.559   5.357  0.5783  0.4531 -0.3521
 9164SOL    HW138951   4.000   3.644   5.401  0.0508 -1.0393  2.5465
 9164SOL    HW238952   4.082   3.526   5.374  0.4983  0.6188  0.3693
 9165SOL     OW38953   1.279   2.943   8.982  0.2073 -0.0005 -0.5243
 9165SOL    HW138954   1.219   2.965   8.910 -2.0333  0.2480  1.4149
 9165SOL    HW238955   1.289   3.032   9.015  0.6448  0.4810 -1.9699
 9166SOL     OW38956   3.698   0.042   4.528  0.3572  0.3055  0.1151
 9166SOL    HW138957   3.718   0.004   4.442 -0.3959  0.9798 -0.3696
 9166SOL    HW238958   3.732   0.131   4.518 -0.8881  0.4025 -3.3934
 9167SOL     OW38959   1.660   2.149   3.785  0.1096 -0.3125  0.2290
 9167SOL    HW138960   1.633   2.233   3.821  0.2498 -0.3596  0.4444
 9167SOL    HW238961   1.586   2.091   3.803 -2.1230  2.7613  0.9112
 9168SOL     OW38962   1.193   0.495   1.052 -0.3517 -0.4904 -0.0247
 9168SOL    HW138963   1.123   0.560   1.042 -0.1832 -0.1122  1.2956
 9168SOL    HW238964   1.139   0.421   1.078 -0.7341  0.1662  1.0371
 9169SOL     OW38965   4.292   1.709  11.499 -0.1813 -0.0539 -0.0066
 9169SOL    HW138966   4.317   1.698  11.407  0.1649 -0.4981  0.1371
 9169SOL    HW238967   4.257   1.621  11.510 -2.8610  0.9562 -0.5355
 9170SOL     OW38968   0.398   0.578   4.634 -0.1295 -0.0065 -0.3091
 9170SOL    HW138969   0.352   0.650   4.589 -0.2218 -1.0618 -1.8739
 9170SOL    HW238970   0.442   0.627   4.703 -0.0808  0.8960 -0.9752
 9171SOL     OW38971   4.290   4.541  11.100  0.2546 -0.2864 -0.0415
 9171SOL    HW138972   4.328   4.502  11.021 -0.9019 -3.0916  0.7757
 9171SOL    HW238973   4.217   4.601  11.086 -0.0096 -0.4240  0.7662
 9172SOL     OW38974   1.564   1.348   1.016  0.0173 -0.0854  0.1215
 9172SOL    HW138975   1.477   1.386   1.001  0.0737  0.6519  1.6813
 9172SOL    HW238976   1.623   1.421   0.995 -1.6817  0.8990 -1.2677
 9173SOL     OW38977   0.569   2.743   6.886  0.3175 -0.7458  0.0951
 9173SOL    HW138978   0.488   2.751   6.938 -0.9215  1.0104 -2.0888
 9173SOL    HW238979   0.548   2.786   6.803  0.4768 -0.0898  0.3896
 9174SOL     OW38980   0.413   0.153   8.916 -0.1704 -0.1259  0.3609
 9174SOL    HW138981   0.433   0.076   8.968 -0.6652  0.3353  1.2395
 9174SOL    HW238982   0.461   0.224   8.960  1.6892 -2.0860  1.4839
 9175SOL     OW38983   0.245   3.924  13.214 -0.3524 -0.7612 -0.2498
 9175SOL    HW138984   0.302   3.969  13.151  2.0689 -1.5221  1.4064
 9175SOL    HW238985   0.226   3.997  13.274 -1.5542 -0.7721 -0.6062
 9176SOL     OW38986   3.047   3.705   1.410 -0.4595 -0.0554 -0.1275
 9176SOL    HW138987   3.003   3.790   1.416 -0.1166 -0.0145  1.6597
 9176SOL    HW238988   3.044   3.687   1.316 -3.4336 -0.8811  0.1199
 9177SOL     OW38989   4.719   3.894   8.659 -0.1210  0.5142 -0.6266
 9177SOL    HW138990   0.014   3.895   8.752  1.4268  2.1551 -1.0155
 9177SOL    HW238991   0.084   3.889   8.632  0.6551 -2.4546  2.5250
 9178SOL     OW38992   2.153   3.417   7.976  0.4126  0.3930  0.3099
 9178SOL    HW138993   2.152   3.376   7.889 -1.3430 -1.4651  1.2062
 9178SOL    HW238994   2.152   3.506   7.943  0.4694  0.3768  0.2644
 9179SOL     OW38995   2.716   2.250  17.064  0.2926 -0.0213 -0.2837
 9179SOL    HW138996   2.764   2.222  17.143 -1.8896 -1.0668  0.6693
 9179SOL    HW238997   2.664   2.318  17.105  0.3578 -0.9847  1.4126
 9180SOL     OW38998   4.150   4.627   9.827  0.4341 -0.2219  0.4408
 9180SOL    HW138999   4.175   4.698   9.768  0.0662  0.6993  1.4005
 9180SOL    HW239000   4.205   4.550   9.808 -2.4738 -2.1097 -0.4346
 9181SOL     OW39001   0.477   1.600  14.553  0.4246 -0.1957 -0.2328
 9181SOL    HW139002   0.405   1.552  14.594 -0.8909  0.8524 -1.3448
 9181SOL    HW239003   0.547   1.536  14.570  2.3596  1.3873 -2.1883
 9182SOL     OW39004   1.803   4.023  14.733  0.4456 -0.4224 -0.2156
 9182SOL    HW139005   1.795   4.109  14.773  1.1242 -1.6704  2.6487
 9182SOL    HW239006   1.797   4.045  14.640  0.8455  2.4288  0.4400
 9183SOL     OW39007   3.513   0.383   2.422 -0.7509  0.2809  0.3451
 9183SOL    HW139008   3.444   0.402   2.486 -0.1802 -0.0858  1.0765
 9183SOL    HW239009   3.550   0.302   2.458  1.0885  1.8238  1.9617
 9184SOL     OW39010   2.945   3.037  13.269  0.1419  0.1718 -0.1458
 9184SOL    HW139011   3.024   3.067  13.225  0.6128  0.9406  1.2554
 9184SOL    HW239012   2.923   3.112  13.324 -1.5680 -0.7657  0.4381
 9185SOL     OW39013   2.981   0.223   9.281 -0.6067  0.3769  0.0736
 9185SOL    HW139014   2.901   0.172   9.275  0.1262 -0.8000  0.4301
 9185SOL    HW239015   2.966   0.290   9.347 -1.6334  0.1355  0.0764
 9186SOL     OW39016   0.406   4.163   5.448  0.0610  0.0898  0.2650
 9186SOL    HW139017   0.452   4.247   5.442 -0.3649  0.4041  1.5997
 9186SOL    HW239018   0.470   4.100   5.482 -0.2615 -0.0794  0.5541
 9187SOL     OW39019   2.441   1.294  13.144 -0.4139  0.0409 -0.6298
 9187SOL    HW139020   2.421   1.201  13.146 -0.1343 -0.0005  0.2174
 9187SOL    HW239021   2.364   1.340  13.178  0.2633 -0.2585  1.3232
 9188SOL     OW39022   0.477   1.704   2.487 -0.0366 -0.7816 -0.3543
 9188SOL    HW139023   0.393   1.664   2.507 -1.0053  1.8711  0.8842
 9188SOL    HW239024   0.459   1.780   2.431  1.8858 -1.0919 -1.4092
 9189SOL     OW39025   2.963   1.648   6.609  0.6025  0.5753 -1.1008
 9189SOL    HW139026   2.875   1.673   6.639 -1.1101 -2.7132 -3.3760
 9189SOL    HW239027   2.964   1.552   6.609 -0.7780  0.5575 -2.2274
 9190SOL     OW39028   3.589   0.579  12.244  0.1095  0.5040 -0.3261
 9190SOL    HW139029   3.673   0.557  12.204 -0.1091 -2.2722  0.7525
 9190SOL    HW239030   3.606   0.666  12.279 -1.7152  1.0045 -0.7043
 9191SOL     OW39031   0.454   1.786  16.623 -0.3740 -0.1930 -0.1457
 9191SOL    HW139032   0.362   1.811  16.606 -0.0969  1.2741  0.4677
 9191SOL    HW239033   0.482   1.850  16.688 -1.7313 -0.1022  0.3519
 9192SOL     OW39034   3.563   0.158   9.491  0.4457  0.7176 -0.2637
 9192SOL    HW139035   3.568   0.127   9.581  1.8583 -1.2366 -1.0232
 9192SOL    HW239036   3.648   0.202   9.494  0.5384  0.5392 -0.2952
 9193SOL     OW39037   3.150   3.224   3.681  0.2743  0.6642 -0.0764
 9193SOL    HW139038   3.087   3.166   3.724 -0.4797  0.6246 -1.2409
 9193SOL    HW239039   3.210   3.167   3.633  0.6431  1.6125 -0.7245
 9194SOL     OW39040   1.362   2.600  14.771  0.5814  0.2240 -0.3104
 9194SOL    HW139041   1.446   2.621  14.812 -0.1055 -0.9451  1.6969
 9194SOL    HW239042   1.369   2.653  14.692  1.3905  3.4206  1.9362
 9195SOL     OW39043   3.547   4.472   9.458 -0.2464 -0.1497  0.8293
 9195SOL    HW139044   3.585   4.385   9.469  3.1169  1.1353 -0.7800
 9195SOL    HW239045   3.616   4.522   9.501  1.3291 -1.4576 -0.1600
 9196SOL     OW39046   0.265   2.231   6.461 -0.8752 -0.3701 -0.4000
 9196SOL    HW139047   0.290   2.320   6.485 -1.2391 -0.6052  0.8634
 9196SOL    HW239048   0.269   2.237   6.366 -0.9271  3.9745 -0.1245
 9197SOL     OW39049   3.286   0.716   2.439  0.4582  0.3888 -0.2293
 9197SOL    HW139050   3.365   0.751   2.481 -0.2896 -0.4496  1.8861
 9197SOL    HW239051   3.268   0.629   2.477  0.4675  0.3385 -0.3397
 9198SOL     OW39052   1.130   4.436   5.678  0.1502 -0.6304  0.1791
 9198SOL    HW139053   1.063   4.422   5.612  0.1124 -1.1760  0.3302
 9198SOL    HW239054   1.116   4.371   5.747  1.3982  1.5881  2.5245
 9199SOL     OW39055   3.830   3.321   4.891 -0.1518 -0.2207  0.8163
 9199SOL    HW139056   3.790   3.334   4.805  0.4959 -1.2267  0.3674
 9199SOL    HW239057   3.922   3.294   4.880 -0.2906 -0.9293  1.4386
 9200SOL     OW39058   1.773   1.472  17.622  0.2476 -0.2086 -0.3876
 9200SOL    HW139059   1.704   1.489  17.687  0.3725  0.4021 -0.4132
 9200SOL    HW239060   1.852   1.472  17.677  1.5934  1.8089 -2.3068
 9201SOL     OW39061   0.668   3.167   8.980  0.2211  0.4382  0.0659
 9201SOL    HW139062   0.583   3.138   9.013  0.8256 -1.3872  0.0406
 9201SOL    HW239063   0.712   3.082   8.987 -0.4078  0.0204 -1.0304
 9202SOL     OW39064   1.544   3.292  10.322 -0.2587  0.1412  0.4032
 9202SOL    HW139065   1.487   3.336  10.386 -0.8523 -0.1157  0.0556
 9202SOL    HW239066   1.512   3.204  10.305 -1.9659  0.4051  2.2053
 9203SOL     OW39067   3.179   2.271   1.974 -0.2057 -0.2507 -0.4182
 9203SOL    HW139068   3.191   2.204   1.906  0.7784 -0.4742 -0.0375
 9203SOL    HW239069   3.169   2.349   1.919 -1.7779 -0.8776 -1.0123
 9204SOL     OW39070   0.321   3.124   7.361 -0.6948 -1.0088  0.2645
 9204SOL    HW139071   0.380   3.198   7.372 -1.6929 -0.1177 -0.3106
 9204SOL    HW239072   0.383   3.052   7.376 -0.3533 -0.4133  1.6553
 9205SOL     OW39073   0.392   1.560   5.617 -0.7650  0.0544  0.1405
 9205SOL    HW139074   0.315   1.533   5.667  0.3436 -2.8102  0.3168
 9205SOL    HW239075   0.354   1.600   5.540 -2.3936 -0.4854  0.6720
 9206SOL     OW39076   2.963   1.758   3.063 -0.1294  0.7142  0.5897
 9206SOL    HW139077   3.055   1.741   3.081  0.2065  0.7206 -1.1121
 9206SOL    HW239078   2.921   1.676   3.088  3.4396 -1.1315  0.4392
 9207SOL     OW39079   1.959   1.698   3.820 -0.2934 -0.1214 -0.0147
 9207SOL    HW139080   2.035   1.756   3.814  0.3142 -0.7356  1.6492
 9207SOL    HW239081   1.965   1.646   3.740  0.5984 -0.7368  0.4604
 9208SOL     OW39082   3.332   1.930   9.047  0.1042  0.1986  0.0967
 9208SOL    HW139083   3.401   1.905   8.987 -0.1265 -2.3274  0.8717
 9208SOL    HW239084   3.346   2.022   9.069 -1.3802  0.9914 -2.2495
 9209SOL     OW39085   3.561   0.786  17.681 -0.1486 -0.1880  0.0016
 9209SOL    HW139086   3.542   0.775   0.066  1.5182 -1.8974  0.1400
 9209SOL    HW239087   3.643   0.737  17.673 -0.7994 -1.3313  0.2884
 9210SOL     OW39088   1.072   2.329  17.257 -0.2920  0.1519 -0.0270
 9210SOL    HW139089   1.028   2.294  17.180 -1.1077 -0.7271  0.8408
 9210SOL    HW239090   1.129   2.253  17.270  1.9259  1.8379  0.1207
 9211SOL     OW39091   2.173   0.473   7.149 -0.2316 -0.4756  0.3938
 9211SOL    HW139092   2.147   0.565   7.153  0.7347 -0.2270  1.0177
 9211SOL    HW239093   2.243   0.480   7.215  0.5518 -0.4531 -0.4507
 9212SOL     OW39094   0.325   2.163   3.494  0.2062 -0.1550  0.6138
 9212SOL    HW139095   0.231   2.162   3.514  0.8921 -2.3103  3.7256
 9212SOL    HW239096   0.330   2.253   3.463  5.0446 -0.4544  0.5062
 9213SOL     OW39097   0.874   0.782  13.959  0.2910 -0.1755  0.3390
 9213SOL    HW139098   0.836   0.857  14.005  0.4240  1.1843 -1.7507
 9213SOL    HW239099   0.835   0.794  13.872  1.8669  0.8228 -0.2383
 9214SOL     OW39100   4.052   4.579   1.051 -0.1899 -0.2250  0.3118
 9214SOL    HW139101   4.064   4.657   0.996 -3.5384  0.1143  0.1152
 9214SOL    HW239102   4.121   4.597   1.116  0.5144  0.6571 -0.6732
 9215SOL     OW39103   1.343   2.505  13.916 -0.0645  0.3907  0.0220
 9215SOL    HW139104   1.284   2.487  13.843 -1.0753 -0.9575  1.1714
 9215SOL    HW239105   1.320   2.596  13.935  1.1753  0.6417  0.3002
 9216SOL     OW39106   2.772   1.966   7.598  0.3443  0.2715  0.2612
 9216SOL    HW139107   2.678   1.970   7.582  0.5064 -0.5989 -0.9016
 9216SOL    HW239108   2.778   2.062   7.600 -2.6493  0.4024  3.0862
 9217SOL     OW39109   1.221   3.009   8.510 -0.5895  0.0185  0.3764
 9217SOL    HW139110   1.297   2.995   8.568  0.4054  0.4003 -0.8444
 9217SOL    HW239111   1.202   3.098   8.537  0.3121  0.3955 -0.2473
 9218SOL     OW39112   1.177   3.641  17.396 -0.5718  0.4043 -0.0037
 9218SOL    HW139113   1.273   3.646  17.400 -0.6952  2.1179  0.6564
 9218SOL    HW239114   1.143   3.721  17.436 -1.1006  0.9029 -1.4435
 9219SOL     OW39115   0.912   3.049   7.375  0.2833  0.2467 -0.4332
 9219SOL    HW139116   0.901   3.029   7.282 -0.3785 -2.4206  0.2435
 9219SOL    HW239117   0.935   2.963   7.409 -0.6783  0.0554 -0.2672
 9220SOL     OW39118   1.737   3.416   3.925  0.0074 -0.1901 -0.1365
 9220SOL    HW139119   1.752   3.510   3.923  1.2555 -0.3891 -0.4098
 9220SOL    HW239120   1.810   3.368   3.885  1.6785  1.3874  1.0249
 9221SOL     OW39121   2.551   2.550   7.115  0.3192  0.3058  0.2822
 9221SOL    HW139122   2.637   2.521   7.143  0.2403 -0.0582  0.1510
 9221SOL    HW239123   2.572   2.638   7.083  1.0411  0.6734  1.7725
 9222SOL     OW39124   4.139   1.630   8.579 -0.0600  0.1513 -0.3086
 9222SOL    HW139125   4.049   1.619   8.610  0.1932  0.3213  0.4777
 9222SOL    HW239126   4.189   1.587   8.649  0.7551  1.3811 -0.1391
 9223SOL     OW39127   4.474   2.881   4.073 -0.6419  0.3407 -0.5718
 9223SOL    HW139128   4.489   2.972   4.047  0.5798  0.7331  1.4831
 9223SOL    HW239129   4.485   2.827   3.995  0.0690  1.9831 -1.5978
 9224SOL     OW39130   1.766   3.596   7.551  0.2408  0.4761 -0.4356
 9224SOL    HW139131   1.793   3.627   7.637  0.7490 -0.2127 -0.3444
 9224SOL    HW239132   1.851   3.603   7.508 -0.1283 -0.2355 -1.2878
 9225SOL     OW39133   2.920   0.374   4.255  0.5020 -0.4745  0.2624
 9225SOL    HW139134   2.969   0.375   4.337  2.7905 -0.0921 -1.1118
 9225SOL    HW239135   2.864   0.449   4.277  1.7479  0.8653 -1.1771
 9226SOL     OW39136   0.856   1.563   5.376  0.4254  0.0933 -0.0550
 9226SOL    HW139137   0.951   1.571   5.367  0.1555  1.1521 -1.9826
 9226SOL    HW239138   0.827   1.503   5.307  0.2230  1.2736 -0.9899
 9227SOL     OW39139   2.148   3.843  14.291  0.1756 -0.0748  0.2051
 9227SOL    HW139140   2.091   3.805  14.358 -0.0698  0.5687  0.3595
 9227SOL    HW239141   2.124   3.779  14.224  3.5223 -1.4751  0.3869
 9228SOL     OW39142   0.856   3.138   4.803  0.2196  0.4763  0.1697
 9228SOL    HW139143   0.838   3.191   4.881  0.1259  0.6651  0.0204
 9228SOL    HW239144   0.859   3.055   4.850 -1.0561  1.0048  1.1887
 9229SOL     OW39145   2.074   2.231   6.862  0.3486 -0.5793 -0.1084
 9229SOL    HW139146   1.986   2.267   6.875  0.7838  0.4301 -0.0192
 9229SOL    HW239147   2.076   2.162   6.929  1.8412 -1.2285 -0.8177
 9230SOL     OW39148   2.262   1.443  13.287 -0.0760  0.3354  0.2486
 9230SOL    HW139149   2.200   1.515  13.298  0.6557  0.7464  1.6758
 9230SOL    HW239150   2.275   1.414  13.377 -0.3801  0.9555  0.4878
 9231SOL     OW39151   4.552   3.912   7.787 -0.0162  0.1402 -0.3642
 9231SOL    HW139152   4.587   3.845   7.730  2.0777 -0.0310  1.1340
 9231SOL    HW239153   4.572   3.871   7.871  2.8044  0.3040 -0.9588
 9232SOL     OW39154   1.087   0.364  12.836 -0.0905  0.3444 -0.4646
 9232SOL    HW139155   0.997   0.351  12.809 -0.2963 -1.8230  1.3145
 9232SOL    HW239156   1.139   0.379  12.756 -0.7753 -2.1869 -1.3596
 9233SOL     OW39157   4.171   1.407   6.442 -0.3644  0.3752  0.2484
 9233SOL    HW139158   4.183   1.478   6.378 -1.0839 -0.3247 -0.6594
 9233SOL    HW239159   4.237   1.434   6.506  0.5224 -0.6264 -0.2417
 9234SOL     OW39160   0.717   0.021   2.101  0.0584 -0.1539  0.5398
 9234SOL    HW139161   0.773   0.097   2.086  1.1098 -1.1319 -0.4765
 9234SOL    HW239162   0.629   0.058   2.095  0.3811  0.1697 -2.0325
 9235SOL     OW39163   0.472   4.506   1.353 -0.0276  0.0255 -0.5998
 9235SOL    HW139164   0.553   4.474   1.393 -0.0057  0.8441  0.0127
 9235SOL    HW239165   0.435   4.568   1.416 -0.9729  0.1542 -1.2824
 9236SOL     OW39166   2.306   0.554   6.428 -0.3084 -0.4325 -0.5424
 9236SOL    HW139167   2.266   0.527   6.511  0.2387 -0.3226 -0.2460
 9236SOL    HW239168   2.228   0.555   6.372 -1.3108 -0.1183  0.8651
 9237SOL     OW39169   4.359   1.797   4.210 -0.1610 -0.4632  0.0678
 9237SOL    HW139170   4.271   1.792   4.249  0.5415 -0.0030  1.6953
 9237SOL    HW239171   4.410   1.854   4.268  1.0712  0.3332 -1.8007
 9238SOL     OW39172   3.500   1.346   7.238  0.3304 -0.1492 -0.2058
 9238SOL    HW139173   3.488   1.427   7.188 -0.6749  0.6314  1.2845
 9238SOL    HW239174   3.407   1.339   7.259 -0.0251  3.0299 -0.6986
 9239SOL     OW39175   4.165   1.366  15.141 -0.0927 -0.1069  0.4691
 9239SOL    HW139176   4.185   1.451  15.103 -1.2439 -0.8650 -1.8680
 9239SOL    HW239177   4.142   1.325  15.057 -1.1944 -2.2385  1.7923
 9240SOL     OW39178   0.673   0.179   9.343 -0.2373 -0.3117 -0.5423
 9240SOL    HW139179   0.753   0.221   9.375  0.3539 -1.5587 -0.3965
 9240SOL    HW239180   0.689   0.088   9.366  3.1123  0.3067 -0.4267
 9241SOL     OW39181   4.442   2.649   8.333  0.1740  0.4636 -0.0847
 9241SOL    HW139182   4.379   2.656   8.261 -1.7021  2.8152  1.7567
 9241SOL    HW239183   4.409   2.724   8.383  0.5859 -0.3320  1.3822
 9242SOL     OW39184   2.589   1.450   1.275  0.2312  0.4268 -0.1893
 9242SOL    HW139185   2.632   1.488   1.351  1.8249 -1.2473 -0.2415
 9242SOL    HW239186   2.573   1.527   1.220 -0.2145  0.9164  0.6312
 9243SOL     OW39187   0.099   1.102   3.403 -0.3933  0.4115  0.4037
 9243SOL    HW139188   0.024   1.153   3.434 -1.0129 -1.5621  2.1135
 9243SOL    HW239189   0.160   1.175   3.392  1.6674 -1.5491 -1.3034
 9244SOL     OW39190   0.326   3.996   6.438  0.1666 -1.2960  0.3823
 9244SOL    HW139191   0.275   4.036   6.367  1.8680  2.3441  1.1999
 9244SOL    HW239192   0.376   4.071   6.471  1.6326 -1.3481 -1.7499
 9245SOL     OW39193   2.095   3.814   5.847 -0.0131  0.1636 -0.3379
 9245SOL    HW139194   2.128   3.749   5.785  0.1759 -0.1918  0.1337
 9245SOL    HW239195   2.112   3.899   5.805 -0.2030  1.0228  1.2946
 9246SOL     OW39196   0.140   2.692  10.347 -0.0191 -0.2641 -0.1459
 9246SOL    HW139197   0.148   2.607  10.303 -0.8443 -0.8234  0.7720
 9246SOL    HW239198   0.222   2.735  10.323  0.6475 -0.7959  1.1703
 9247SOL     OW39199   1.060   4.498  14.691  0.7655  0.1371 -0.0514
 9247SOL    HW139200   1.084   4.502  14.784 -0.8100 -0.8048  0.4145
 9247SOL    HW239201   1.143   4.478  14.648  0.8988 -1.6364  0.9941
 9248SOL     OW39202   3.045   1.463  16.613 -0.1365  0.1640  0.0681
 9248SOL    HW139203   3.079   1.374  16.617 -3.1911 -1.1236 -2.4129
 9248SOL    HW239204   3.058   1.494  16.523  0.4600  3.5934  1.3369
 9249SOL     OW39205   0.886   2.465   2.081  0.3006  0.4917  0.4730
 9249SOL    HW139206   0.863   2.548   2.041 -1.1500  0.7375  1.8309
 9249SOL    HW239207   0.809   2.448   2.136 -0.7862 -3.0117 -2.1241
 9250SOL     OW39208   4.131   3.328   8.258 -0.0172  0.3884 -0.1184
 9250SOL    HW139209   4.082   3.372   8.188  0.2605  2.4536  0.9610
 9250SOL    HW239210   4.216   3.337   8.215  0.2446  4.0236  1.1152
 9251SOL     OW39211   2.315   2.745   2.036 -0.8632  0.6714 -0.6217
 9251SOL    HW139212   2.339   2.690   2.111 -2.1221  1.6377  0.5022
 9251SOL    HW239213   2.315   2.674   1.972  0.0436 -0.0983  0.2197
 9252SOL     OW39214   3.118   3.761   5.688  0.1510  0.5097  0.1103
 9252SOL    HW139215   3.115   3.818   5.765  0.8983 -0.4750  0.8722
 9252SOL    HW239216   3.093   3.675   5.721  0.8033 -0.1067 -0.9949
 9253SOL     OW39217   2.127   1.815   8.001 -0.4968  0.7140 -0.0941
 9253SOL    HW139218   2.168   1.811   7.914  0.3949 -1.7009  0.4406
 9253SOL    HW239219   2.036   1.833   7.977 -0.0946  0.7975 -1.5890
 9254SOL     OW39220   2.832   3.382   3.769 -0.5339  0.4785  0.6278
 9254SOL    HW139221   2.848   3.388   3.675  1.6563 -3.5833  0.7368
 9254SOL    HW239222   2.923   3.402   3.792 -0.0707  1.2526 -1.8804
 9255SOL     OW39223   0.094   0.790   9.432 -0.3740 -0.2866  0.3101
 9255SOL    HW139224   0.171   0.759   9.479  1.3988  0.3703 -2.1372
 9255SOL    HW239225   0.130   0.874   9.401 -0.7464  0.7069  2.5677
 9256SOL     OW39226   0.440   3.570   7.195 -0.5600 -0.3711 -0.5018
 9256SOL    HW139227   0.367   3.621   7.230  1.5779  0.0460  3.3046
 9256SOL    HW239228   0.401   3.505   7.137 -0.2375 -0.1704 -0.9401
 9257SOL     OW39229   1.772   1.639   5.316 -0.2817 -0.6558 -0.2956
 9257SOL    HW139230   1.763   1.664   5.224  0.5417  0.1985 -0.1436
 9257SOL    HW239231   1.711   1.567   5.334 -0.4089 -0.2295  0.9930
 9258SOL     OW39232   3.997   2.494   6.807 -0.5430 -0.5881  0.1607
 9258SOL    HW139233   4.025   2.511   6.718 -1.4949  0.4768  0.0646
 9258SOL    HW239234   4.079   2.502   6.855 -0.4220  1.7200 -0.4594
 9259SOL     OW39235   3.400   3.249  10.790 -0.2997  0.4425  0.5959
 9259SOL    HW139236   3.420   3.168  10.838 -1.2730 -0.1426  0.0180
 9259SOL    HW239237   3.366   3.215  10.707  1.1169  0.3759  0.0508
 9260SOL     OW39238   2.570   1.449   3.699  0.0902 -0.2713  0.9312
 9260SOL    HW139239   2.516   1.401   3.762 -1.1401 -0.7901 -0.5176
 9260SOL    HW239240   2.652   1.401   3.693  0.5888  0.8800 -1.3034
 9261SOL     OW39241   3.026   3.239   8.472  0.2893  0.4003 -0.2311
 9261SOL    HW139242   3.021   3.264   8.564  0.1147 -1.3703  0.2406
 9261SOL    HW239243   2.963   3.167   8.472  0.9748 -0.1967 -0.8379
 9262SOL     OW39244   4.117   0.339  11.042 -0.0694 -0.1016 -0.6792
 9262SOL    HW139245   4.029   0.311  11.067 -0.6900  2.6991  0.2965
 9262SOL    HW239246   4.113   0.384  10.957 -0.6548 -2.0214 -1.6656
 9263SOL     OW39247   2.926   0.647   2.899  0.2357 -0.0529  0.4388
 9263SOL    HW139248   2.925   0.633   2.993  0.1884  0.6763  0.5406
 9263SOL    HW239249   3.002   0.599   2.864  0.8391  2.1129 -1.2523
 9264SOL     OW39250   3.481   3.746   5.182 -0.0985  0.1317 -0.0796
 9264SOL    HW139251   3.570   3.756   5.217 -1.1533  2.6151  1.8618
 9264SOL    HW239252   3.483   3.816   5.117  1.2168  1.2130  1.1132
 9265SOL     OW39253   1.175   2.926   8.024 -0.3923 -0.4818  0.2997
 9265SOL    HW139254   1.247   2.982   8.052 -0.5088 -0.7553  1.1681
 9265SOL    HW239255   1.111   2.951   8.091  1.9847  1.0176  1.9752
 9266SOL     OW39256   2.234   4.300   9.949 -0.2918  0.0865  0.3789
 9266SOL    HW139257   2.298   4.319   9.881  0.6713 -0.2206  1.2057
 9266SOL    HW239258   2.173   4.235   9.916 -1.5468  1.2174  0.4477
 9267SOL     OW39259   1.739   1.311   5.694  0.0837  0.8410  0.1070
 9267SOL    HW139260   1.724   1.393   5.647  0.9304 -0.0751 -1.7863
 9267SOL    HW239261   1.827   1.291   5.662  0.0323  0.2283  0.3462
 9268SOL     OW39262   3.832   0.083   7.323  0.3320  0.5265  1.0232
 9268SOL    HW139263   3.776   0.153   7.356 -1.3262 -0.2046 -0.1994
 9268SOL    HW239264   3.884   0.063   7.401  1.2051 -0.9252  0.0772
 9269SOL     OW39265   0.124   1.667  10.063  0.6027  0.1687  0.0995
 9269SOL    HW139266   0.048   1.611  10.075 -0.9026  1.7659 -2.0277
 9269SOL    HW239267   0.104   1.716   9.983 -1.1823 -3.4676 -1.6935
 9270SOL     OW39268   3.987   3.203   3.522 -0.2164 -0.0816  0.4540
 9270SOL    HW139269   3.989   3.166   3.610 -1.7373  1.2722  1.0688
 9270SOL    HW239270   3.919   3.267   3.544 -0.1377 -0.3392  1.4528
 9271SOL     OW39271   3.897   3.901   5.653 -0.0900  0.0318 -0.2444
 9271SOL    HW139272   3.974   3.916   5.598 -0.7081 -1.3197 -1.4638
 9271SOL    HW239273   3.904   3.829   5.716  1.4410 -0.1525 -0.6269
 9272SOL     OW39274   3.350   3.844  10.268 -0.3959  0.2856 -0.0354
 9272SOL    HW139275   3.356   3.931  10.308 -0.9853  0.0538  0.5544
 9272SOL    HW239276   3.302   3.868  10.189 -0.2961  0.6252  0.0072
 9273SOL     OW39277   1.437   3.141   3.136  0.2954  0.5051 -0.4395
 9273SOL    HW139278   1.475   3.215   3.184 -1.6878  1.1205  0.1992
 9273SOL    HW239279   1.483   3.069   3.179 -1.1306  0.0308  0.3009
 9274SOL     OW39280   1.536   2.830  16.486 -0.0871 -0.2241  0.0563
 9274SOL    HW139281   1.627   2.836  16.516 -0.5984 -1.3589  1.8506
 9274SOL    HW239282   1.548   2.800  16.396  1.6999  0.5799  0.0256
 9275SOL     OW39283   1.271   1.667   6.441 -0.1699  0.2239  0.3012
 9275SOL    HW139284   1.255   1.752   6.400  0.7564  1.5680  2.7344
 9275SOL    HW239285   1.225   1.602   6.387 -1.4781  2.3712 -1.1481
 9276SOL     OW39286   1.565   1.987   6.900  0.0172  0.1916  0.4870
 9276SOL    HW139287   1.558   1.891   6.899  1.4099  0.0981  0.1354
 9276SOL    HW239288   1.557   1.997   6.995 -1.9875  1.8605  0.1538
 9277SOL     OW39289   3.356   2.625  13.887 -0.8814 -0.9471  0.8883
 9277SOL    HW139290   3.291   2.691  13.911  1.3691  1.6361 -0.2111
 9277SOL    HW239291   3.437   2.650  13.931 -0.2028  0.5780 -1.2559
 9278SOL     OW39292   2.594   2.026   4.536  0.3339  0.2071  0.4394
 9278SOL    HW139293   2.669   1.994   4.585 -0.1679 -0.6227  0.6701
 9278SOL    HW239294   2.538   2.076   4.596 -0.4207 -0.5631  0.3938
 9279SOL     OW39295   0.128   2.267   3.262  0.8199  0.1372  0.5969
 9279SOL    HW139296   0.188   2.343   3.259  0.5670  0.2880 -0.5377
 9279SOL    HW239297   0.085   2.269   3.176  1.2007  0.6291  0.4159
 9280SOL     OW39298   2.815   0.042   1.745  0.2007  0.3140  0.2466
 9280SOL    HW139299   2.878   0.093   1.694  0.6011  1.5341  1.9636
 9280SOL    HW239300   2.854   0.039   1.832  0.2319  2.0732  0.2997
 9281SOL     OW39301   0.070   2.318   9.916 -0.6666  0.7736 -0.0539
 9281SOL    HW139302   0.080   2.372   9.838 -0.9440  3.3449  1.6911
 9281SOL    HW239303   4.716   2.269   9.900 -0.1392 -0.2133  0.2924
 9282SOL     OW39304   2.953   3.594   7.403  0.5948 -0.1451 -0.3805
 9282SOL    HW139305   2.946   3.658   7.474 -0.1617  1.5322 -1.9482
 9282SOL    HW239306   3.044   3.600   7.372 -0.0656  0.4164 -2.2248
 9283SOL     OW39307   1.414   0.393   1.733 -0.0729  0.3550 -0.5756
 9283SOL    HW139308   1.348   0.414   1.667 -2.6800 -0.1992  1.9082
 9283SOL    HW239309   1.494   0.439   1.706  0.6735 -1.5788 -1.6602
 9284SOL     OW39310   3.160   0.861   2.262  0.0790  0.1836 -0.8181
 9284SOL    HW139311   3.202   0.816   2.335  1.4110  1.5559 -0.7466
 9284SOL    HW239312   3.178   0.951   2.289  0.8481  0.1865 -1.3404
 9285SOL     OW39313   2.504   1.583   3.465 -0.0779 -0.0126 -0.1857
 9285SOL    HW139314   2.537   1.521   3.530  0.0631  1.3769  1.0656
 9285SOL    HW239315   2.565   1.583   3.391  0.7448  0.6291  0.4940
 9286SOL     OW39316   1.240   2.655   3.653 -0.4153 -0.0202  0.2333
 9286SOL    HW139317   1.196   2.582   3.610 -3.2622  1.6335  0.2584
 9286SOL    HW239318   1.170   2.668   3.718 -1.4997 -2.8658 -0.3769
 9287SOL     OW39319   3.564   4.598   7.948  0.2519  0.4264 -0.3932
 9287SOL    HW139320   3.560   4.669   7.884 -1.1133 -0.6638 -1.5254
 9287SOL    HW239321   3.549   4.520   7.894  2.0569 -1.4816  1.8635
 9288SOL     OW39322   3.395   1.541   1.162 -0.4606 -0.0873  0.8527
 9288SOL    HW139323   3.347   1.528   1.080  0.4068 -0.1895  0.3636
 9288SOL    HW239324   3.330   1.596   1.205  0.9676  0.0972  2.7792
 9289SOL     OW39325   2.211   0.248   2.528  0.1288 -0.0676 -0.4204
 9289SOL    HW139326   2.177   0.196   2.601  2.6166 -0.4288  0.4455
 9289SOL    HW239327   2.140   0.238   2.464  1.2088 -2.2463 -1.2615
 9290SOL     OW39328   2.835   1.121  13.132  0.4658 -0.6367 -0.0687
 9290SOL    HW139329   2.801   1.111  13.044 -1.1459 -0.7357  0.5710
 9290SOL    HW239330   2.780   1.061  13.182 -0.7579  0.2990 -0.3037
 9291SOL     OW39331   4.516   2.066   6.441  0.5348  0.6671 -0.6004
 9291SOL    HW139332   4.567   2.144   6.419  1.2562 -0.2411 -2.1479
 9291SOL    HW239333   4.473   2.051   6.357 -0.2190 -0.6159  0.0240
 9292SOL     OW39334   2.246   1.601   0.489  0.2612  0.7518 -0.3717
 9292SOL    HW139335   2.214   1.516   0.459  0.7487  1.1691 -2.0594
 9292SOL    HW239336   2.238   1.586   0.583  1.8263 -0.8793 -0.5007
 9293SOL     OW39337   3.875   0.266  13.418  0.2573  0.1862  0.3121
 9293SOL    HW139338   3.896   0.174  13.407  2.0113  0.3252  2.3972
 9293SOL    HW239339   3.782   0.268  13.443  0.7587 -1.9002  2.3334
 9294SOL     OW39340   4.263   0.509   0.674  0.3401 -0.2751 -0.5702
 9294SOL    HW139341   4.211   0.523   0.594  1.2882 -0.4796 -1.2221
 9294SOL    HW239342   4.347   0.478   0.640  1.2430  2.9750 -1.3790
 9295SOL     OW39343   1.072   4.067   6.836 -0.0789  0.1652 -0.0496
 9295SOL    HW139344   1.037   3.999   6.893 -1.9150  1.6841  0.6532
 9295SOL    HW239345   1.023   4.147   6.856 -2.0076 -0.8861 -0.5674
 9296SOL     OW39346   1.482   0.031  16.073 -0.3029  0.0068  0.5530
 9296SOL    HW139347   1.536   0.109  16.082  0.5839 -0.4229 -0.9068
 9296SOL    HW239348   1.544   4.700  16.027 -0.5870 -0.5378  0.8581
 9297SOL     OW39349   3.080   1.174  12.216  0.1668 -0.5859  0.2098
 9297SOL    HW139350   3.174   1.177  12.231  0.2842  0.4436 -0.7713
 9297SOL    HW239351   3.044   1.222  12.291  0.8036  1.5800 -0.8538
 9298SOL     OW39352   2.930   3.302   0.246 -0.2906  0.2066  0.4882
 9298SOL    HW139353   2.923   3.377   0.188 -1.5210 -0.2414  0.0658
 9298SOL    HW239354   2.872   3.234   0.210  0.9639  0.1772 -1.4488
 9299SOL     OW39355   1.036   1.161  15.424 -0.4279 -0.0903  0.3226
 9299SOL    HW139356   0.966   1.178  15.488 -0.6461 -1.3463  0.4180
 9299SOL    HW239357   1.094   1.095  15.461 -0.9148 -1.2828 -1.0326
 9300SOL     OW39358   1.246   0.551  13.273  0.3987 -0.2594  0.0895
 9300SOL    HW139359   1.191   0.532  13.348 -0.2860 -1.2287 -0.6433
 9300SOL    HW239360   1.241   0.645  13.259 -1.6583 -0.3518  0.2255
 9301SOL     OW39361   2.830   4.393   9.390 -0.2803  0.0168  0.0375
 9301SOL    HW139362   2.863   4.311   9.353  0.8715  0.1105  0.8363
 9301SOL    HW239363   2.912   4.443   9.394  0.0544 -0.7492  3.0773
 9302SOL     OW39364   1.756   4.393  14.439 -0.2812  0.7004 -0.0624
 9302SOL    HW139365   1.799   4.336  14.374  3.1282  2.3706  0.7287
 9302SOL    HW239366   1.829   4.400  14.500 -0.6173  1.1976  0.2745
 9303SOL     OW39367   3.239   2.812   2.520  0.0326  0.5806 -0.1331
 9303SOL    HW139368   3.304   2.793   2.453 -0.1074 -1.0077  0.1842
 9303SOL    HW239369   3.160   2.786   2.472 -1.8263  2.5488  1.8677
 9304SOL     OW39370   2.818   2.542   1.061 -0.0386  0.2277  0.1044
 9304SOL    HW139371   2.874   2.569   0.989 -1.1598  0.1233 -0.8123
 9304SOL    HW239372   2.782   2.623   1.099  0.6932  0.1440  0.9846
 9305SOL     OW39373   1.208   3.699   8.126 -1.0540 -0.4548  0.1622
 9305SOL    HW139374   1.179   3.638   8.195  1.9595 -0.1296  1.7201
 9305SOL    HW239375   1.139   3.765   8.129  0.1018  0.7912 -0.5004
 9306SOL     OW39376   2.177   2.755  15.355 -0.6530 -0.0355  0.8205
 9306SOL    HW139377   2.264   2.774  15.319 -1.0254  0.2953  0.0892
 9306SOL    HW239378   2.128   2.747  15.273  0.9868  0.1575 -0.1924
 9307SOL     OW39379   1.863   1.691   4.694  0.8111  0.3527  0.1406
 9307SOL    HW139380   1.845   1.691   4.600  1.6808  0.4624 -0.0303
 9307SOL    HW239381   1.779   1.652   4.719  0.6140  0.0566 -0.9982
 9308SOL     OW39382   3.768   0.472   7.428 -0.2028 -0.7570  0.2388
 9308SOL    HW139383   3.756   0.476   7.523 -0.0690 -0.0917  0.2296
 9308SOL    HW239384   3.741   0.558   7.393  1.9645  0.5417  1.8340
 9309SOL     OW39385   2.939   1.903   9.110  0.2840 -0.1443 -0.4023
 9309SOL    HW139386   2.950   1.994   9.081  1.5750 -0.0132  0.5071
 9309SOL    HW239387   2.893   1.863   9.036 -2.2725  1.8440  0.1481
 9310SOL     OW39388   2.536   3.012   7.384 -0.1673  0.0127  0.2299
 9310SOL    HW139389   2.481   2.989   7.309  0.9195 -1.0360 -0.2495
 9310SOL    HW239390   2.471   3.009   7.455 -1.4797  0.1719 -0.9633
 9311SOL     OW39391   2.505   0.833  10.064  0.3497 -0.8555  0.5320
 9311SOL    HW139392   2.512   0.750  10.016  0.9670 -0.7412  0.4248
 9311SOL    HW239393   2.593   0.850  10.097  0.7201 -1.9964  0.1169
 9312SOL     OW39394   2.635   3.716   9.922 -0.3854 -0.2997 -0.1506
 9312SOL    HW139395   2.628   3.810   9.909  0.5961  0.0226  1.6264
 9312SOL    HW239396   2.647   3.716  10.017  2.0547  1.1862 -0.4624
 9313SOL     OW39397   3.060   1.617   4.726  0.1708  0.0405  0.2685
 9313SOL    HW139398   3.017   1.640   4.644  2.2076 -1.2397 -1.1644
 9313SOL    HW239399   3.146   1.587   4.695  0.5579  0.3076  1.0788
 9314SOL     OW39400   2.256   4.315  10.222 -0.3715  0.2815  0.0425
 9314SOL    HW139401   2.255   4.308  10.126 -0.2483  2.9487 -0.1535
 9314SOL    HW239402   2.336   4.262  10.225 -0.2373  0.5073  0.3950
 9315SOL     OW39403   0.388   4.487   5.746  0.1894 -0.1206 -0.0535
 9315SOL    HW139404   0.466   4.474   5.692  0.8123 -1.7091  1.2421
 9315SOL    HW239405   0.338   4.561   5.709 -0.3321 -0.8195 -0.7650
 9316SOL     OW39406   0.740   0.932   4.817 -0.4234 -0.1895  0.2655
 9316SOL    HW139407   0.810   0.867   4.830  0.0568  0.8739  2.9782
 9316SOL    HW239408   0.729   0.966   4.906  0.0785  1.9440 -0.4970
 9317SOL     OW39409   2.660   1.410  17.245  0.4674  0.9691  0.0517
 9317SOL    HW139410   2.617   1.415  17.330  0.8578  0.7212  0.2650
 9317SOL    HW239411   2.694   1.498  17.227  0.7145  1.1532  1.4004
 9318SOL     OW39412   2.520   4.533  15.650 -0.3688  0.1229  0.6706
 9318SOL    HW139413   2.432   4.541  15.612  0.2831  1.1352 -0.6007
 9318SOL    HW239414   2.560   4.615  15.623  1.4547 -0.6059  1.1188
 9319SOL     OW39415   4.436   0.920   3.208 -0.2614 -0.4913 -0.2931
 9319SOL    HW139416   4.492   0.994   3.183 -0.3309 -0.4637 -0.3653
 9319SOL    HW239417   4.375   0.905   3.136 -1.2508 -1.9545  0.8416
 9320SOL     OW39418   2.815   2.623   5.401  0.0939 -0.8650  0.0766
 9320SOL    HW139419   2.891   2.590   5.449  0.1450 -0.5309  0.2221
 9320SOL    HW239420   2.809   2.713   5.432  0.2089 -1.7147  2.5544
 9321SOL     OW39421   0.493   3.060   2.968 -0.4654  0.1130 -0.2135
 9321SOL    HW139422   0.423   2.995   2.956  0.6237 -1.3722  1.5461
 9321SOL    HW239423   0.455   3.140   2.931  1.0695  0.3296 -1.3299
 9322SOL     OW39424   0.892   3.646   2.046 -0.1928 -0.2769  0.2011
 9322SOL    HW139425   0.902   3.627   1.953  0.3809  1.9892 -0.2021
 9322SOL    HW239426   0.913   3.739   2.053  0.6450 -0.3499 -1.2952
 9323SOL     OW39427   2.019   2.396  14.949 -0.3543 -0.4707 -0.6645
 9323SOL    HW139428   2.092   2.458  14.949 -1.2662  0.5915 -1.3528
 9323SOL    HW239429   1.946   2.456  14.957 -0.1291 -0.5321  2.0348
 9324SOL     OW39430   0.479   0.651  10.707 -0.3843 -0.5021 -0.3655
 9324SOL    HW139431   0.560   0.645  10.658  0.9460  1.7167  1.5689
 9324SOL    HW239432   0.507   0.669  10.797  4.1716 -2.4091 -1.4258
 9325SOL     OW39433   1.244   4.460  15.960  0.2030 -0.0400  0.0305
 9325SOL    HW139434   1.247   4.375  16.004 -1.3144  0.8401  1.8022
 9325SOL    HW239435   1.293   4.442  15.879  3.1335 -0.2851  1.8666
 9326SOL     OW39436   1.274   1.508  17.291  0.1543  0.0808  0.0378
 9326SOL    HW139437   1.332   1.435  17.313 -1.8487 -2.0747 -1.7542
 9326SOL    HW239438   1.336   1.581  17.289  1.4484 -1.0346 -0.4218
 9327SOL     OW39439   2.174   4.704   2.878  0.1521 -0.2315 -0.5039
 9327SOL    HW139440   2.176   0.066   2.843 -2.6861  0.7267  1.8126
 9327SOL    HW239441   2.179   0.002   2.970 -0.7839 -1.3289 -0.1509
 9328SOL     OW39442   0.685   0.626  14.861 -0.1958 -0.0224 -0.4477
 9328SOL    HW139443   0.666   0.596  14.950 -2.3343  1.0656 -0.5271
 9328SOL    HW239444   0.596   0.653  14.837 -0.9900 -1.1116  1.2814
 9329SOL     OW39445   3.215   2.369   5.004  0.3871  0.4657  0.1697
 9329SOL    HW139446   3.302   2.370   4.966 -0.7213 -1.3424 -2.3776
 9329SOL    HW239447   3.178   2.453   4.976  0.1248  0.0220 -0.8047
 9330SOL     OW39448   2.086   3.271   7.377 -0.3552 -0.0296  0.3274
 9330SOL    HW139449   2.088   3.340   7.310 -1.3137 -0.7173 -0.3962
 9330SOL    HW239450   1.991   3.275   7.387 -0.5304  0.3142 -1.3960
 9331SOL     OW39451   1.343   2.618  10.729 -0.3329 -0.0368 -0.2460
 9331SOL    HW139452   1.382   2.532  10.713  0.3833  0.7420 -2.6457
 9331SOL    HW239453   1.346   2.633  10.823  0.2345  1.9827 -0.5964
 9332SOL     OW39454   3.606   1.461   4.675  0.1292 -0.0317 -0.2996
 9332SOL    HW139455   3.663   1.484   4.748  1.4252 -0.2025 -1.2793
 9332SOL    HW239456   3.596   1.368   4.692 -0.4049 -0.2947 -2.0397
 9333SOL     OW39457   2.415   3.303   6.812 -0.2088  0.3435 -0.0495
 9333SOL    HW139458   2.326   3.275   6.834  0.0040  0.3876  0.8668
 9333SOL    HW239459   2.407   3.382   6.759 -0.6484 -0.7299 -1.5915
 9334SOL     OW39460   4.159   0.675  13.727  0.4167 -0.1062  0.2620
 9334SOL    HW139461   4.146   0.604  13.665  1.4804 -0.8820  0.9321
 9334SOL    HW239462   4.228   0.633  13.779  1.6308  2.4128  0.6816
 9335SOL     OW39463   4.472   3.347   1.474 -0.5369 -0.2873 -0.0497
 9335SOL    HW139464   4.549   3.291   1.464 -1.0158 -0.8808 -0.4222
 9335SOL    HW239465   4.501   3.435   1.496 -0.7045 -0.1697 -0.3039
 9336SOL     OW39466   0.001   4.191  14.716  0.1340 -0.6927  0.5139
 9336SOL    HW139467   0.047   4.197  14.800 -1.8039  1.0929  1.4421
 9336SOL    HW239468   0.071   4.217  14.656 -0.3249 -0.9012 -0.1102
 9337SOL     OW39469   1.028   2.801   9.155 -0.3001 -0.9014  0.1598
 9337SOL    HW139470   1.078   2.722   9.176 -0.7304 -1.4007 -0.6849
 9337SOL    HW239471   0.972   2.762   9.088 -1.3198 -2.2208  1.7707
 9338SOL     OW39472   1.189   3.435   9.967 -0.1152  0.1126  0.2232
 9338SOL    HW139473   1.170   3.406   9.878 -0.7024 -0.9508  0.6948
 9338SOL    HW239474   1.110   3.401  10.009  0.0647 -0.7641 -0.1631
 9339SOL     OW39475   1.127   0.338   9.904  0.0647 -0.2334  0.4606
 9339SOL    HW139476   1.144   0.246   9.882  2.6516  0.2233  0.6126
 9339SOL    HW239477   1.032   0.347   9.904  0.0783 -0.0653  2.7434
 9340SOL     OW39478   0.801   0.663   2.662 -0.7928  0.2748 -0.4353
 9340SOL    HW139479   0.891   0.637   2.644 -0.3135 -0.3066  2.7552
 9340SOL    HW239480   0.820   0.757   2.663 -1.5490  0.4291 -0.5791
 9341SOL     OW39481   1.991   3.075   3.046 -0.2224  0.2185  0.2413
 9341SOL    HW139482   2.017   3.028   3.125 -0.2179  0.7123  0.5310
 9341SOL    HW239483   2.077   3.111   3.022 -0.3799  0.9759  0.8334
 9342SOL     OW39484   1.364   4.228   4.683  0.1242  0.3754 -0.4162
 9342SOL    HW139485   1.405   4.313   4.667  0.0618  0.5606  0.4353
 9342SOL    HW239486   1.342   4.233   4.776  1.1929  0.1752 -0.1569
 9343SOL     OW39487   0.071   2.297  15.684 -0.1647 -0.1551 -0.4090
 9343SOL    HW139488   4.715   2.249  15.681 -0.7525  0.9075 -1.3793
 9343SOL    HW239489   0.057   2.378  15.635 -0.1900 -0.1809 -0.4449
 9344SOL     OW39490   2.078   3.766   4.092 -0.1100 -0.5087  0.2713
 9344SOL    HW139491   2.093   3.859   4.111  1.0673 -0.7326  0.4236
 9344SOL    HW239492   2.085   3.744   4.184  1.0084  3.2808  1.1273
 9345SOL     OW39493   0.865   3.675   7.541 -0.0067 -0.2638  0.5496
 9345SOL    HW139494   0.805   3.601   7.549  1.5833 -1.5435  0.7098
 9345SOL    HW239495   0.804   3.743   7.513  0.2474 -0.8634 -1.4901
 9346SOL     OW39496   4.313   4.702  16.819  0.1010 -0.2324 -0.2852
 9346SOL    HW139497   4.362   4.704  16.737  0.4542 -1.8114 -0.1079
 9346SOL    HW239498   4.304   4.607  16.829  1.0482 -0.2453  0.5091
 9347SOL     OW39499   3.681   4.011   1.674 -0.3339 -0.2761 -0.6703
 9347SOL    HW139500   3.773   3.988   1.688 -0.3358  0.7839  1.0584
 9347SOL    HW239501   3.688   4.095   1.629  0.8560 -0.1066 -0.1709
 9348SOL     OW39502   0.284   1.214   4.056  0.0129  0.1869 -0.4074
 9348SOL    HW139503   0.226   1.252   4.122  0.0148 -2.1361  0.9278
 9348SOL    HW239504   0.292   1.126   4.091  0.2120  0.1182 -0.6242
 9349SOL     OW39505   0.900   1.270   4.610  0.1326 -0.5876  0.0682
 9349SOL    HW139506   0.814   1.312   4.603 -0.9063 -2.8235 -0.5101
 9349SOL    HW239507   0.900   1.199   4.545  0.5357 -1.3337  0.8891
 9350SOL     OW39508   3.490   0.451  14.108  0.7243 -0.3205  0.3909
 9350SOL    HW139509   3.584   0.446  14.125  1.3186  2.5073 -1.9364
 9350SOL    HW239510   3.453   0.438  14.196 -0.6058 -0.6263 -0.2126
 9351SOL     OW39511   0.748   1.041   5.072 -0.1333  0.1374  0.4370
 9351SOL    HW139512   0.837   1.038   5.107 -0.3108 -1.6535  0.7261
 9351SOL    HW239513   0.706   1.069   5.153  0.4767 -2.3095  1.6175
 9352SOL     OW39514   4.513   1.696   3.267  0.0774 -0.3518  0.0704
 9352SOL    HW139515   4.432   1.722   3.310 -0.6376 -0.7309 -1.0535
 9352SOL    HW239516   4.565   1.647   3.331 -0.6121 -0.0777  0.8510
 9353SOL     OW39517   1.490   3.735   7.066  0.3750 -0.7151  0.9266
 9353SOL    HW139518   1.571   3.765   7.025 -0.8776 -0.3530 -1.2802
 9353SOL    HW239519   1.443   3.701   6.990  1.4481 -5.4278  2.3899
 9354SOL     OW39520   1.487   3.618  12.426 -0.6957  0.0298  0.2032
 9354SOL    HW139521   1.457   3.566  12.352  0.4780 -0.0572 -0.2157
 9354SOL    HW239522   1.412   3.651  12.475  1.4569  2.0295  2.2234
 9355SOL     OW39523   3.526   4.212  12.402  0.3565  0.0033  0.0485
 9355SOL    HW139524   3.571   4.152  12.463 -1.9206 -2.9821 -1.1849
 9355SOL    HW239525   3.573   4.292  12.424  2.2034 -0.8607 -0.7476
 9356SOL     OW39526   1.631   3.511   5.324 -0.7296 -0.3555  0.4108
 9356SOL    HW139527   1.699   3.466   5.375  0.6672  1.1713 -0.1397
 9356SOL    HW239528   1.594   3.438   5.274  0.2760 -0.1014 -0.7038
 9357SOL     OW39529   4.312   4.571   4.043 -0.2815  0.3268 -0.2521
 9357SOL    HW139530   4.360   4.536   4.118 -0.4843 -0.4752 -0.4886
 9357SOL    HW239531   4.363   4.649   4.021  1.5825 -0.4299  1.4023
 9358SOL     OW39532   3.290   3.519   5.875  0.3586 -0.0480 -0.1162
 9358SOL    HW139533   3.318   3.434   5.841 -0.7010 -0.2711 -0.4516
 9358SOL    HW239534   3.197   3.521   5.851  0.4914 -0.5377 -0.6793
 9359SOL     OW39535   2.672   3.019   1.941  0.8230 -0.2390 -0.4300
 9359SOL    HW139536   2.657   3.005   1.848  0.1380 -0.4108 -0.2913
 9359SOL    HW239537   2.620   3.100   1.945 -0.4245 -0.9328 -2.5729
 9360SOL     OW39538   1.013   3.085   7.660  0.2445  0.5432  0.8294
 9360SOL    HW139539   1.016   2.995   7.693 -0.9665  0.0389 -0.4480
 9360SOL    HW239540   1.071   3.078   7.584 -1.6353  1.8427 -0.7247
 9361SOL     OW39541   3.167   0.213   4.145 -0.3860 -0.3629  0.7373
 9361SOL    HW139542   3.179   0.307   4.140  2.0247 -0.7214  0.0829
 9361SOL    HW239543   3.078   0.218   4.180 -0.0905 -0.8153  1.5415
 9362SOL     OW39544   1.081   2.276   7.315 -0.4877  0.1136  0.3428
 9362SOL    HW139545   1.129   2.275   7.232  2.5338  3.3948  1.9922
 9362SOL    HW239546   1.032   2.195   7.321  0.6365 -0.5985 -0.1733
 9363SOL     OW39547   0.751   3.228  13.517 -0.4810 -0.1798  0.0891
 9363SOL    HW139548   0.825   3.228  13.578 -1.9123  0.7771  1.7988
 9363SOL    HW239549   0.692   3.295  13.551  1.7611  0.7349  2.1727
 9364SOL     OW39550   0.506   4.257   2.625  0.3908  0.4326 -0.5441
 9364SOL    HW139551   0.453   4.322   2.670  1.6153  2.0519 -1.4688
 9364SOL    HW239552   0.509   4.301   2.540  0.9755  0.4460 -0.5182
 9365SOL     OW39553   2.501   0.146   9.441  0.2077  0.0716  0.2058
 9365SOL    HW139554   2.450   0.105   9.372  1.2772 -0.2810 -0.3784
 9365SOL    HW239555   2.436   0.195   9.492 -1.5981 -0.1114 -1.9333
 9366SOL     OW39556   0.167   1.975  10.399  0.2279  0.4360 -0.5831
 9366SOL    HW139557   0.169   2.069  10.383 -1.2529  0.4629 -0.5697
 9366SOL    HW239558   0.173   1.974  10.495 -0.1345  0.7935 -0.5569
 9367SOL     OW39559   1.560   1.717   6.826 -0.4729  0.3017 -0.1740
 9367SOL    HW139560   1.470   1.712   6.794 -0.6476 -1.8097  0.6718
 9367SOL    HW239561   1.596   1.630   6.837  0.6044  0.8197  0.3890
 9368SOL     OW39562   0.363   3.586   2.552 -0.0334  0.3828 -0.3420
 9368SOL    HW139563   0.301   3.577   2.479  0.2723  2.9360 -0.9163
 9368SOL    HW239564   0.305   3.562   2.624 -0.0704 -2.0233 -1.1544
 9369SOL     OW39565   1.293   3.361   6.059  0.6443 -0.1230 -0.1717
 9369SOL    HW139566   1.260   3.432   6.004  0.8596 -0.0928 -0.2622
 9369SOL    HW239567   1.296   3.399   6.147 -2.7105  0.6668 -0.4086
 9370SOL     OW39568   1.754   3.826  10.784 -0.0826  0.2060  0.1300
 9370SOL    HW139569   1.704   3.794  10.858 -1.6437  0.4187 -0.8183
 9370SOL    HW239570   1.817   3.754  10.777 -1.4143 -0.9778  0.5294
 9371SOL     OW39571   1.541   0.100  10.768 -0.2944  0.1008  0.2041
 9371SOL    HW139572   1.586   0.178  10.734  0.0523 -0.2815 -0.2201
 9371SOL    HW239573   1.487   0.064  10.697 -1.0844  0.7491  0.4750
 9372SOL     OW39574   4.624   1.619   5.975 -0.5917 -0.3987  0.1448
 9372SOL    HW139575   4.591   1.554   5.913 -1.9571 -0.1450  0.5971
 9372SOL    HW239576   4.540   1.658   6.002 -1.7645 -2.3057 -0.7515
 9373SOL     OW39577   3.175   2.748   5.670 -0.2184  0.3037  0.1642
 9373SOL    HW139578   3.084   2.731   5.697 -0.5381 -3.4429 -3.2318
 9373SOL    HW239579   3.165   2.771   5.578  0.4514 -3.0691 -0.7704
 9374SOL     OW39580   4.639   3.029   1.025 -0.6124  0.2334  0.2122
 9374SOL    HW139581   4.656   3.067   0.939  0.0931  0.0476  0.2673
 9374SOL    HW239582   0.001   3.027   1.061 -1.0002 -0.5809  1.1207
 9375SOL     OW39583   3.739   4.632   2.627 -0.2408 -0.4620  0.3926
 9375SOL    HW139584   3.775   4.613   2.540 -0.1761 -0.8072  0.4945
 9375SOL    HW239585   3.796   4.704   2.653 -0.8938 -0.2566  1.2386
 9376SOL     OW39586   4.727   2.877   4.887  0.4281  0.3366  0.0751
 9376SOL    HW139587   0.028   2.861   4.977 -1.5715 -1.7788  0.3405
 9376SOL    HW239588   0.014   2.797   4.836  2.2596  0.9355 -0.3570
 9377SOL     OW39589   0.603   0.617   6.845 -0.2285 -0.5595 -0.6084
 9377SOL    HW139590   0.570   0.555   6.910  0.4533 -0.0019  0.2482
 9377SOL    HW239591   0.555   0.694   6.876 -0.3761 -0.0682 -2.0399
 9378SOL     OW39592   3.452   1.059   4.389  0.4987  0.6394 -0.0038
 9378SOL    HW139593   3.481   1.027   4.475 -2.0071  0.8353  0.9041
 9378SOL    HW239594   3.415   1.144   4.413  0.1665 -0.2855  2.8296
 9379SOL     OW39595   4.157   4.660  12.481  0.1757 -0.2508 -0.2156
 9379SOL    HW139596   4.230   4.707  12.441  1.3633 -2.4693 -0.6791
 9379SOL    HW239597   4.172   4.678  12.574  1.2140 -2.0611 -0.0345
 9380SOL     OW39598   4.077   4.093   4.572  0.7630  0.0912 -0.4633
 9380SOL    HW139599   4.131   4.125   4.499  1.1704 -0.8669 -0.5795
 9380SOL    HW239600   4.064   4.168   4.630 -0.6074 -0.3340 -0.2269
 9381SOL     OW39601   2.472   2.307  16.748  0.6570 -0.3408  0.9893
 9381SOL    HW139602   2.380   2.317  16.771  1.1613  0.0789  2.8137
 9381SOL    HW239603   2.471   2.268  16.660  0.6627 -0.1088  0.8855
 9382SOL     OW39604   2.740   2.552   4.691  0.3221 -0.7117 -0.4757
 9382SOL    HW139605   2.769   2.569   4.601  1.7208 -3.3768 -0.5239
 9382SOL    HW239606   2.762   2.634   4.734 -3.5482  0.4934 -0.7452
 9383SOL     OW39607   3.393   3.348   3.228  0.3502 -0.0989 -0.0089
 9383SOL    HW139608   3.429   3.334   3.316 -0.9092 -0.8286  0.3895
 9383SOL    HW239609   3.328   3.417   3.235 -0.8430 -1.3360  0.9862
 9384SOL     OW39610   3.311   1.631   4.231 -0.1022  0.7414  0.2392
 9384SOL    HW139611   3.235   1.573   4.220 -0.4245  1.1491  0.3121
 9384SOL    HW239612   3.284   1.688   4.302 -2.3113 -1.0697  0.8617
 9385SOL     OW39613   2.757   0.039   4.930 -0.2858 -0.6708 -0.1978
 9385SOL    HW139614   2.817   0.114   4.930 -0.0378 -0.8691 -0.1578
 9385SOL    HW239615   2.669   0.077   4.929  1.4225  3.3107 -0.7557
 9386SOL     OW39616   1.037   1.596   3.820 -0.2748 -0.0148 -0.1478
 9386SOL    HW139617   1.005   1.631   3.737 -0.1442 -0.3968 -0.3559
 9386SOL    HW239618   1.112   1.546   3.789 -0.2669  0.4047 -0.8125
 9387SOL     OW39619   2.090   3.904   8.171  0.0979 -0.0246  0.0012
 9387SOL    HW139620   2.066   3.884   8.261 -0.0639 -0.0832 -0.0564
 9387SOL    HW239621   2.147   3.980   8.183  0.4229 -0.0736 -1.1862
 9388SOL     OW39622   2.619   3.870   4.057 -0.8555 -0.3662 -0.4314
 9388SOL    HW139623   2.689   3.825   4.009 -0.3869 -0.4378  0.3228
 9388SOL    HW239624   2.664   3.954   4.070 -0.5123 -0.5396 -0.4964
 9389SOL     OW39625   2.911   1.652   8.110  0.1460  0.3811 -0.0685
 9389SOL    HW139626   2.953   1.577   8.068 -1.1034 -0.3298 -0.0371
 9389SOL    HW239627   2.822   1.626   8.090  0.5108 -0.7040 -0.2881
 9390SOL     OW39628   0.624   3.505   5.801  0.2419 -0.2174 -0.2236
 9390SOL    HW139629   0.559   3.439   5.775 -0.0517  0.3525 -0.9340
 9390SOL    HW239630   0.604   3.571   5.735  3.1221  1.5150  0.6643
 9391SOL     OW39631   1.111   0.039  15.758  0.4038  0.3408 -0.5459
 9391SOL    HW139632   1.188   4.710  15.746 -0.5212 -0.7574 -1.3956
 9391SOL    HW239633   1.127   0.062  15.850  1.4884 -1.7414 -0.2012
 9392SOL     OW39634   2.842   1.367  16.455  0.2485 -0.1508 -0.6628
 9392SOL    HW139635   2.896   1.307  16.404  0.8023 -0.7315  0.6267
 9392SOL    HW239636   2.890   1.381  16.536 -0.1562  2.2819 -0.8372
 9393SOL     OW39637   0.301   3.534  10.927  0.1604 -0.2351  0.1462
 9393SOL    HW139638   0.370   3.510  10.866  3.4464 -1.3689  4.3576
 9393SOL    HW239639   0.347   3.564  11.005 -1.0826  0.8776  0.4554
 9394SOL     OW39640   0.747   1.129  10.114  0.1302  0.4679 -0.0407
 9394SOL    HW139641   0.725   1.081  10.034 -1.3988  1.2009 -0.0533
 9394SOL    HW239642   0.668   1.178  10.136 -0.7190 -0.5075 -0.9686
 9395SOL     OW39643   0.694   3.580   7.296  0.2684 -0.6213 -0.1116
 9395SOL    HW139644   0.602   3.566   7.275  1.0317 -2.2107 -2.3156
 9395SOL    HW239645   0.686   3.540   7.383 -2.9132 -1.0516 -0.5945
 9396SOL     OW39646   1.465   0.734   4.827 -0.0345  0.8057 -0.0041
 9396SOL    HW139647   1.522   0.794   4.780  1.7011 -0.0736  0.9856
 9396SOL    HW239648   1.400   0.793   4.866 -0.8822  1.3840 -2.3224
 9397SOL     OW39649   4.282   3.524  17.308 -0.5187 -0.0738 -0.2174
 9397SOL    HW139650   4.262   3.608  17.348  0.6140  0.5362 -0.9382
 9397SOL    HW239651   4.376   3.535  17.292 -0.5120  1.9558  1.2554
 9398SOL     OW39652   3.832   4.208  11.613  0.5781  0.4082  0.3910
 9398SOL    HW139653   3.806   4.294  11.581 -0.3742  0.7668  2.1807
 9398SOL    HW239654   3.749   4.181  11.652  0.9538  0.8327  1.4800
 9399SOL     OW39655   4.719   2.617   1.057 -0.0225 -0.6084  0.5532
 9399SOL    HW139656   4.698   2.651   1.144 -1.4841 -1.4893  0.5337
 9399SOL    HW239657   4.647   2.658   1.011 -0.1878 -0.9246  0.5322
 9400SOL     OW39658   1.875   0.181  13.606  0.0299  0.5488 -0.2411
 9400SOL    HW139659   1.916   0.098  13.582  0.2391  0.3105  0.9627
 9400SOL    HW239660   1.785   0.149  13.617 -0.6955  1.0684 -4.7263
 9401SOL     OW39661   0.620   2.722  14.418  0.1392  0.1341  0.1775
 9401SOL    HW139662   0.635   2.664  14.344  1.8908 -0.4314  0.9636
 9401SOL    HW239663   0.707   2.756  14.438  0.2865  0.1620 -0.5118
 9402SOL     OW39664   0.375   0.410   7.618 -0.1663  0.4495  0.0475
 9402SOL    HW139665   0.326   0.340   7.660  0.9018 -0.1123  0.3670
 9402SOL    HW239666   0.341   0.494   7.649 -2.6248 -0.3541 -0.4942
 9403SOL     OW39667   2.061   0.062   4.375  0.5462 -0.0925  0.2850
 9403SOL    HW139668   1.976   0.107   4.367  1.3354  1.4654  0.7673
 9403SOL    HW239669   2.066   0.046   4.469 -0.3483  1.1627  0.5626
 9404SOL     OW39670   2.248   2.171  15.657  0.0661  0.3204 -0.1165
 9404SOL    HW139671   2.314   2.181  15.588 -0.3046  0.2345 -0.4834
 9404SOL    HW239672   2.296   2.114  15.718  0.1579  2.3265  1.6919
 9405SOL     OW39673   3.363   0.744   7.511  0.2857 -0.2374 -0.1493
 9405SOL    HW139674   3.422   0.696   7.452 -0.5309 -0.6635 -0.6109
 9405SOL    HW239675   3.293   0.681   7.530  0.6319 -0.0586  1.7123
 9406SOL     OW39676   0.571   3.292  12.578  0.0143  0.4849  0.0719
 9406SOL    HW139677   0.513   3.216  12.579 -0.1074  0.5598 -1.3441
 9406SOL    HW239678   0.659   3.258  12.592  0.7508  1.8333 -1.2207
 9407SOL     OW39679   3.582   0.710   9.241 -0.3777  0.0658 -0.5050
 9407SOL    HW139680   3.620   0.644   9.299 -0.7241  0.3569  0.0593
 9407SOL    HW239681   3.567   0.669   9.155 -1.9801 -2.5997  1.0294
 9408SOL     OW39682   4.565   4.261  15.756  0.2352  0.5186 -0.2275
 9408SOL    HW139683   4.555   4.244  15.850  1.2553 -0.9982 -0.3919
 9408SOL    HW239684   4.654   4.231  15.737  0.8198  1.6637  0.6632
 9409SOL     OW39685   0.636   0.616   8.726  0.2560  0.0968  0.0416
 9409SOL    HW139686   0.580   0.574   8.792  0.7827  0.3229  0.6358
 9409SOL    HW239687   0.628   0.707   8.757  2.7557  1.1430 -2.3751
 9410SOL     OW39688   0.084   3.790   1.907  0.0722  0.0012  0.2970
 9410SOL    HW139689   0.063   3.859   1.969 -1.6679  0.1561 -0.4581
 9410SOL    HW239690   0.151   3.748   1.960 -1.1408  0.1551  1.9381
 9411SOL     OW39691   3.573   0.750  17.114 -0.2778  0.1918 -0.5644
 9411SOL    HW139692   3.617   0.800  17.183  0.3823 -0.9335 -0.1738
 9411SOL    HW239693   3.630   0.673  17.115 -0.3242  0.1576 -0.5650
 9412SOL     OW39694   3.959   0.811   5.374  0.5866  0.5462  0.1131
 9412SOL    HW139695   3.941   0.860   5.454  2.8849  0.1939  0.8338
 9412SOL    HW239696   3.875   0.818   5.328  0.7820 -1.4222 -0.5513
 9413SOL     OW39697   0.941   1.462  16.999  0.3606  0.2239 -0.8015
 9413SOL    HW139698   0.891   1.419  17.069 -0.8177  0.5572 -1.4428
 9413SOL    HW239699   0.933   1.396  16.929  1.6132 -1.2786  0.4570
 9414SOL     OW39700   4.119   3.845   8.072  0.3570  0.1595  0.2525
 9414SOL    HW139701   4.071   3.869   7.992  0.4571  1.2729  0.5412
 9414SOL    HW239702   4.191   3.906   8.060  0.5827 -0.0408  0.6163
 9415SOL     OW39703   1.407   4.529  11.928 -1.0215 -0.1659  0.2114
 9415SOL    HW139704   1.322   4.561  11.960 -1.6924 -1.7836  0.0788
 9415SOL    HW239705   1.393   4.530  11.834  0.5678 -0.9747 -0.0258
 9416SOL     OW39706   2.783   3.199   7.402 -0.0438 -1.0505 -0.6154
 9416SOL    HW139707   2.777   3.111   7.439  0.5020  0.2150  2.4334
 9416SOL    HW239708   2.718   3.196   7.331 -1.6456 -0.8987  0.8535
 9417SOL     OW39709   0.062   2.844   9.900 -0.6685  0.2945 -0.3001
 9417SOL    HW139710   0.035   2.823   9.990  1.2299 -0.1635  0.1607
 9417SOL    HW239711   0.102   2.931   9.910  1.3308 -0.7685  0.8890
 9418SOL     OW39712   4.116   1.133   0.077  0.1297 -0.1499 -0.0431
 9418SOL    HW139713   4.186   1.141   0.143  2.0200  0.9998 -2.2019
 9418SOL    HW239714   4.132   1.209   0.021 -0.1534  0.1515  0.2787
 9419SOL     OW39715   0.463   2.506   2.908  0.1567  0.0680 -0.3093
 9419SOL    HW139716   0.532   2.470   2.853 -0.2399  1.7802 -1.9689
 9419SOL    HW239717   0.396   2.444   2.881  0.6349 -1.1320  1.3166
 9420SOL     OW39718   1.641   1.574  10.021  0.3521 -0.1422  0.0702
 9420SOL    HW139719   1.600   1.502  10.069  0.6516 -0.5653 -0.3014
 9420SOL    HW239720   1.601   1.651  10.059 -1.7443 -0.9042 -0.5997
 9421SOL     OW39721   4.305   1.637  17.496 -0.1804 -0.1469 -0.0388
 9421SOL    HW139722   4.361   1.690  17.552 -0.7066  0.1941  0.1650
 9421SOL    HW239723   4.238   1.606  17.558 -0.0445 -2.1379 -0.8866
 9422SOL     OW39724   0.765   0.505   4.183  0.6788 -0.1646  0.0628
 9422SOL    HW139725   0.763   0.463   4.097 -3.3285  1.4384 -0.6004
 9422SOL    HW239726   0.713   0.439   4.229 -0.1427 -0.0198 -0.6653
 9423SOL     OW39727   0.911   0.201   3.203  0.0721  0.4733 -0.4492
 9423SOL    HW139728   0.943   0.164   3.121  0.8143  1.3100 -0.5386
 9423SOL    HW239729   0.953   0.146   3.269 -1.1148  1.7939  1.3984
 9424SOL     OW39730   2.391   0.149   8.152 -0.8042 -0.2623 -0.4574
 9424SOL    HW139731   2.401   0.057   8.175  0.5908 -0.5966 -2.4110
 9424SOL    HW239732   2.423   0.203   8.225 -1.9935 -0.6216  0.3282
 9425SOL     OW39733   2.673   4.130   9.305  0.6468 -0.2611  0.1393
 9425SOL    HW139734   2.750   4.164   9.350  1.6480 -3.6647  1.0499
 9425SOL    HW239735   2.716   4.079   9.236 -1.4393 -0.6123 -0.9014
 9426SOL     OW39736   0.164   2.502   2.156  0.2315  0.4141 -0.0719
 9426SOL    HW139737   0.228   2.552   2.105 -1.7205  2.9500 -0.0504
 9426SOL    HW239738   0.103   2.468   2.091 -0.4622  0.5417  0.5116
 9427SOL     OW39739   0.820   0.750   2.344  0.0587  0.3691  0.4102
 9427SOL    HW139740   0.731   0.720   2.363 -0.4998  1.5059 -0.3613
 9427SOL    HW239741   0.819   0.736   2.249  2.1945  0.1725  0.4298
 9428SOL     OW39742   1.171   0.213   6.276  0.1726 -0.6034  0.1512
 9428SOL    HW139743   1.223   0.135   6.259  0.2697 -0.2931 -0.9655
 9428SOL    HW239744   1.082   0.183   6.255  0.7984 -1.5355 -1.1446
 9429SOL     OW39745   1.308   2.625   0.920 -0.1034  0.1395 -0.0987
 9429SOL    HW139746   1.273   2.624   1.009  0.1279  2.6488  0.0165
 9429SOL    HW239747   1.247   2.565   0.877  0.9168  0.1908 -1.6202
 9430SOL     OW39748   0.181   3.725   3.360 -0.4574 -0.0624 -0.6510
 9430SOL    HW139749   0.243   3.669   3.314 -2.2422 -0.6006 -2.4322
 9430SOL    HW239750   0.165   3.779   3.283 -2.7299 -0.7069 -0.6393
 9431SOL     OW39751   1.713   0.997   6.512 -0.4190 -0.0687  0.1609
 9431SOL    HW139752   1.724   1.056   6.587  0.2461  0.8376 -0.6429
 9431SOL    HW239753   1.762   1.035   6.439  1.0420  0.2959  1.3209
 9432SOL     OW39754   3.589   1.224   2.574  0.3563  0.1932 -0.5370
 9432SOL    HW139755   3.607   1.309   2.533  0.6954  0.3043 -0.1660
 9432SOL    HW239756   3.502   1.247   2.607  0.4565 -2.1527  1.3447
 9433SOL     OW39757   1.618   4.654   5.197 -0.4519 -0.7344  0.4221
 9433SOL    HW139758   1.557   4.631   5.127  0.7118 -0.2836 -0.7507
 9433SOL    HW239759   1.679   4.713   5.152  0.3204  0.0023  2.4235
 9434SOL     OW39760   1.837   0.023   5.578  0.0440 -0.0657  0.2052
 9434SOL    HW139761   1.911   0.039   5.520 -0.3114 -0.5151 -0.3798
 9434SOL    HW239762   1.784   0.095   5.543 -0.5121  0.8168  2.8285
 9435SOL     OW39763   1.062   3.648   6.721 -0.1619  0.5258 -0.1679
 9435SOL    HW139764   1.156   3.658   6.706 -0.4548  1.0500 -1.6468
 9435SOL    HW239765   1.029   3.637   6.632  1.9357 -0.0782 -0.8614
 9436SOL     OW39766   0.378   3.872   7.297  0.6282 -0.6280 -0.2251
 9436SOL    HW139767   0.379   3.952   7.246  2.3398 -0.8800 -0.5736
 9436SOL    HW239768   0.473   3.863   7.302  0.7666  0.8596 -0.1497
 9437SOL     OW39769   4.328   4.237   8.496 -0.5264 -0.0269  0.4547
 9437SOL    HW139770   4.337   4.307   8.431  0.4277  0.3019  0.9437
 9437SOL    HW239771   4.254   4.185   8.463 -0.5270  0.9994 -1.1666
 9438SOL     OW39772   2.685   2.873   2.721 -0.1128 -0.0104  0.2927
 9438SOL    HW139773   2.674   2.945   2.783 -2.6514 -2.0237  2.1893
 9438SOL    HW239774   2.640   2.896   2.640 -2.1389 -2.0643  0.7984
 9439SOL     OW39775   0.841   2.102   9.018  0.2959 -0.0126 -0.0277
 9439SOL    HW139776   0.862   2.072   9.107 -2.1903 -1.7117  0.0034
 9439SOL    HW239777   0.749   2.121   9.035  0.4801  0.1366  0.7992
 9440SOL     OW39778   2.424   3.047  11.288  0.2644 -0.4485  0.0816
 9440SOL    HW139779   2.344   3.013  11.246  0.4876  0.0704 -0.7567
 9440SOL    HW239780   2.493   2.988  11.257 -0.5055 -0.2725 -1.9906
 9441SOL     OW39781   3.379   1.514   3.070  0.5985 -0.0917  0.4584
 9441SOL    HW139782   3.405   1.593   3.022 -0.4573  0.1509  0.2751
 9441SOL    HW239783   3.334   1.463   3.002  3.1623 -0.1965 -1.1590
 9442SOL     OW39784   1.216   2.782   9.682  0.6278  0.2886  0.2205
 9442SOL    HW139785   1.124   2.803   9.667 -0.0298 -3.0627 -0.4433
 9442SOL    HW239786   1.259   2.864   9.659  2.0319  0.1725  2.4166
 9443SOL     OW39787   3.175   4.468   3.480 -0.4578  0.3447 -0.2951
 9443SOL    HW139788   3.155   4.412   3.556 -1.7688 -0.0828 -0.9525
 9443SOL    HW239789   3.239   4.412   3.437  0.7219 -0.7581  2.8605
 9444SOL     OW39790   3.266   1.317  16.360 -0.3146  0.5112 -0.0176
 9444SOL    HW139791   3.291   1.243  16.304  2.4377  1.0501  0.5165
 9444SOL    HW239792   3.184   1.276  16.389  0.0811 -0.8072 -0.7369
 9445SOL     OW39793   0.311   2.869   9.649 -0.0781 -0.3782  1.2612
 9445SOL    HW139794   0.276   2.823   9.572  2.7257  0.7808 -0.7249
 9445SOL    HW239795   0.395   2.825   9.664  1.3355  1.6838 -0.5679
 9446SOL     OW39796   4.221   1.217   8.973 -0.3156 -0.3084 -0.0565
 9446SOL    HW139797   4.128   1.196   8.983 -0.5009  0.4183 -0.2302
 9446SOL    HW239798   4.260   1.136   8.939 -1.4923 -0.1718 -1.7557
 9447SOL     OW39799   3.375   4.600   3.150  0.0411 -0.2341  0.8866
 9447SOL    HW139800   3.283   4.615   3.174  0.0365  1.4612 -0.1522
 9447SOL    HW239801   3.422   4.639   3.223  2.0493 -1.0556  0.0199
 9448SOL     OW39802   0.601   3.386   4.615  0.1138 -0.4790  0.8408
 9448SOL    HW139803   0.533   3.432   4.665 -0.6610 -2.3110  1.5013
 9448SOL    HW239804   0.587   3.301   4.657  0.8366  0.3898  2.8721
 9449SOL     OW39805   1.439   4.009   4.541 -0.3043  0.4681 -0.0661
 9449SOL    HW139806   1.398   4.082   4.586 -0.3502  0.6609 -0.4195
 9449SOL    HW239807   1.532   4.033   4.548 -0.4541  1.0411 -0.0349
 9450SOL     OW39808   1.788   1.104   4.836 -0.3266 -0.6463  0.1063
 9450SOL    HW139809   1.872   1.149   4.840 -0.8080  0.0637  2.6055
 9450SOL    HW239810   1.781   1.050   4.915 -1.2033  0.7993  1.0056
 9451SOL     OW39811   3.637   3.256  14.648  0.5256  0.4307 -0.1879
 9451SOL    HW139812   3.709   3.255  14.585 -0.6464 -1.1529 -1.4950
 9451SOL    HW239813   3.671   3.310  14.719  0.6603 -1.6138  1.3212
 9452SOL     OW39814   1.244   0.326   5.183 -0.2774 -0.5365  0.0700
 9452SOL    HW139815   1.266   0.385   5.110 -0.5687 -0.2835  0.1842
 9452SOL    HW239816   1.150   0.329   5.170 -0.7307  1.2056  3.5975
 9453SOL     OW39817   3.395   3.243  15.794 -0.3801 -0.6016 -0.2710
 9453SOL    HW139818   3.455   3.209  15.727 -1.4819 -0.1011 -1.4976
 9453SOL    HW239819   3.442   3.240  15.878 -1.1232 -1.9614  0.0982
 9454SOL     OW39820   0.513   0.703   7.267  0.0234  0.1242 -0.3634
 9454SOL    HW139821   0.606   0.681   7.269 -0.6417 -2.5197  1.1443
 9454SOL    HW239822   0.472   0.616   7.258 -1.4502  0.9857 -1.9863
 9455SOL     OW39823   1.651   0.929   5.839  0.5924  0.0318  0.1801
 9455SOL    HW139824   1.679   0.844   5.804  0.2488 -0.5817  1.3703
 9455SOL    HW239825   1.556   0.923   5.826  0.3318  2.8002  0.7976
 9456SOL     OW39826   3.088   2.892   3.429  0.2127 -0.3065 -0.3036
 9456SOL    HW139827   3.089   2.979   3.390 -1.6576 -0.5573 -0.8869
 9456SOL    HW239828   3.098   2.832   3.355 -0.0520 -1.5252  0.6439
 9457SOL     OW39829   4.380   3.498   1.189 -0.2536 -0.1037 -0.4822
 9457SOL    HW139830   4.428   3.580   1.192  1.1893 -1.0189  1.0637
 9457SOL    HW239831   4.426   3.452   1.259  0.6368  0.0743 -0.9620
 9458SOL     OW39832   2.030   0.936   6.993 -0.5785 -0.0266  0.3558
 9458SOL    HW139833   2.056   0.974   6.909 -0.9164  0.8964  0.6706
 9458SOL    HW239834   1.944   0.974   7.007 -0.3275  0.8616 -0.4858
 9459SOL     OW39835   0.728   0.013   4.966 -0.3743  0.1278  0.1303
 9459SOL    HW139836   0.746   4.660   5.016  0.3064  0.7682  0.9167
 9459SOL    HW239837   0.744   4.715   4.874 -2.3141 -2.5010  0.5036
 9460SOL     OW39838   1.070   3.832   4.024  0.3598 -0.0933 -0.0741
 9460SOL    HW139839   1.063   3.754   3.969  0.1372 -0.3104  0.2637
 9460SOL    HW239840   0.978   3.850   4.048  0.6160  1.7358 -0.4211
 9461SOL     OW39841   4.489   3.602   6.837 -0.4761 -0.2251  0.5931
 9461SOL    HW139842   4.432   3.679   6.844 -1.8410 -1.2492  0.6938
 9461SOL    HW239843   4.559   3.616   6.901 -1.3479  0.6826  1.3448
 9462SOL     OW39844   0.928   3.181  13.307 -0.2490  0.0665  0.6161
 9462SOL    HW139845   0.890   3.220  13.228 -0.3478  1.3133  1.2826
 9462SOL    HW239846   0.870   3.221  13.372 -0.1230 -0.1468  0.8589
 9463SOL     OW39847   2.829   1.057   6.886  0.0956 -0.0210  0.0461
 9463SOL    HW139848   2.809   1.053   6.792 -1.4206  1.0017  0.3203
 9463SOL    HW239849   2.743   1.079   6.921 -1.4100 -2.4569 -2.0865
 9464SOL     OW39850   1.171   1.769  15.907 -0.3813  0.2988  0.0428
 9464SOL    HW139851   1.127   1.820  15.975  1.5508  1.4049  0.4729
 9464SOL    HW239852   1.170   1.675  15.923  1.1505  0.1622 -0.6246
 9465SOL     OW39853   3.733   0.958   3.223  0.5871  0.0659 -0.5869
 9465SOL    HW139854   3.693   0.878   3.187  1.4289 -0.6339  0.0181
 9465SOL    HW239855   3.773   0.921   3.302  1.3677  1.7348 -0.1967
 9466SOL     OW39856   1.353   3.051   6.030 -0.0084 -0.0270 -0.0011
 9466SOL    HW139857   1.378   2.964   5.998 -1.1115 -0.5832  0.6575
 9466SOL    HW239858   1.386   3.064   6.119  1.0885 -2.5229 -0.0343
 9467SOL     OW39859   0.094   3.901   8.929  0.0879  0.0565  0.0365
 9467SOL    HW139860   0.114   3.874   9.019  3.0341  1.4264 -0.2065
 9467SOL    HW239861   0.173   3.951   8.910 -1.0832  0.8159 -2.8957
 9468SOL     OW39862   2.352   3.917   4.015  0.2106 -1.0802  0.2553
 9468SOL    HW139863   2.446   3.904   4.024  0.1283 -0.5235  1.9097
 9468SOL    HW239864   2.328   3.986   4.076 -2.0780 -1.8672  0.2445
 9469SOL     OW39865   2.704   2.401   0.688 -0.1011  0.7859 -0.1162
 9469SOL    HW139866   2.700   2.342   0.764  0.5679 -0.8487 -1.3422
 9469SOL    HW239867   2.634   2.464   0.702  0.5890  1.1515  1.6702
 9470SOL     OW39868   2.201   2.857  14.132 -0.7243 -0.6548 -0.0201
 9470SOL    HW139869   2.265   2.789  14.114  0.0417 -0.1740  0.8512
 9470SOL    HW239870   2.116   2.812  14.142 -1.1973  0.2242 -0.0815
 9471SOL     OW39871   1.953   2.239   2.586 -0.2261 -0.1070  0.5049
 9471SOL    HW139872   1.920   2.164   2.537  2.5863  0.0435 -1.6100
 9471SOL    HW239873   2.041   2.206   2.602 -0.1817 -1.1039 -1.8452
 9472SOL     OW39874   3.392   0.455   7.030 -0.1004 -0.0765 -0.4541
 9472SOL    HW139875   3.360   0.400   6.958  1.6250 -0.0425 -1.2549
 9472SOL    HW239876   3.451   0.516   6.985 -2.8171  3.4074  0.6695
 9473SOL     OW39877   1.397   3.811   2.893 -1.1314 -0.0482 -0.3592
 9473SOL    HW139878   1.379   3.722   2.863 -2.4526  0.9054 -2.4116
 9473SOL    HW239879   1.414   3.793   2.986 -2.0511 -0.1326 -0.1994
 9474SOL     OW39880   0.954   1.963   3.462  0.8733 -0.1717 -0.3117
 9474SOL    HW139881   0.885   2.026   3.443 -0.2005 -0.5355  2.4714
 9474SOL    HW239882   1.023   2.023   3.489  3.0372 -3.0292  0.6184
 9475SOL     OW39883   1.868   1.970  14.735  0.2366  0.3028  0.1396
 9475SOL    HW139884   1.795   1.985  14.795 -0.1192 -0.0527 -0.2042
 9475SOL    HW239885   1.820   1.936  14.660  1.4910 -0.3724 -0.3676
 9476SOL     OW39886   1.840   3.181  10.857  0.0036  0.0321 -0.0035
 9476SOL    HW139887   1.898   3.109  10.833 -0.3839 -0.9506  1.9521
 9476SOL    HW239888   1.886   3.216  10.933  0.1422  0.3914 -0.2540
 9477SOL     OW39889   1.586   3.145   1.935 -0.5925 -0.0553  0.4834
 9477SOL    HW139890   1.625   3.141   2.022  0.7718 -0.7612 -0.1557
 9477SOL    HW239891   1.493   3.133   1.953 -0.8270  0.7422 -0.1801
 9478SOL     OW39892   2.372   3.215  17.054 -0.2584 -0.1922  0.3320
 9478SOL    HW139893   2.442   3.208  17.119 -1.1525 -0.6583  1.2513
 9478SOL    HW239894   2.365   3.126  17.019 -1.3003 -0.5151  1.3357
 9479SOL     OW39895   1.191   2.599  10.187 -0.0465 -0.4493 -0.1955
 9479SOL    HW139896   1.168   2.520  10.236 -0.6441  1.3491  2.4394
 9479SOL    HW239897   1.117   2.597  10.127 -1.7579 -0.6379  1.9102
 9480SOL     OW39898   0.250   4.710   3.155  0.0169 -0.2590 -0.8699
 9480SOL    HW139899   0.183   0.041   3.119  1.1239  1.0448 -0.8298
 9480SOL    HW239900   0.295   0.038   3.219  0.1247 -0.6886 -0.5743
 9481SOL     OW39901   3.157   2.817   5.414  0.0225  0.4240  0.0832
 9481SOL    HW139902   3.248   2.805   5.385  0.2118 -0.4782  1.0225
 9481SOL    HW239903   3.106   2.769   5.349  1.5196 -0.2558 -0.6078
 9482SOL     OW39904   4.331   0.024   7.689 -0.3501 -0.9293 -0.6740
 9482SOL    HW139905   4.255   0.019   7.747  0.0651 -1.3514 -0.1640
 9482SOL    HW239906   4.287   0.017   7.604 -0.8994  0.6143 -0.5109
 9483SOL     OW39907   2.176   3.858   3.796  0.3928  0.8160 -0.0384
 9483SOL    HW139908   2.242   3.814   3.743 -0.2251  1.1871 -1.1130
 9483SOL    HW239909   2.221   3.856   3.881 -1.8216 -2.0588  1.0581
 9484SOL     OW39910   0.562   2.221   7.492 -0.3031 -0.1172 -0.2676
 9484SOL    HW139911   0.624   2.216   7.564  0.7870  0.6809 -1.1511
 9484SOL    HW239912   0.545   2.127   7.483 -1.3370  0.2731 -2.2940
 9485SOL     OW39913   2.879   0.529   3.498  0.0512 -0.6034 -0.1715
 9485SOL    HW139914   2.871   0.623   3.482  0.0304  0.1179  3.8927
 9485SOL    HW239915   2.971   0.519   3.523  0.0266  0.4449  0.3468
 9486SOL     OW39916   3.800   0.520  13.743  0.0982 -0.7252 -0.2027
 9486SOL    HW139917   3.717   0.488  13.780 -0.4737 -0.6068 -1.3687
 9486SOL    HW239918   3.766   0.580  13.677  1.5744 -2.3724 -2.4763
 9487SOL     OW39919   3.022   3.198   8.826  0.7935  0.0975 -0.8893
 9487SOL    HW139920   3.082   3.174   8.896  0.3599  1.7894  0.0481
 9487SOL    HW239921   2.974   3.116   8.834  2.0072 -0.3180  2.0276
 9488SOL     OW39922   0.535   1.813   6.941 -0.3683  0.5659 -0.6375
 9488SOL    HW139923   0.445   1.807   6.973  0.0743 -0.5021  0.4243
 9488SOL    HW239924   0.566   1.904   6.944  1.6228 -0.1430  1.0245
 9489SOL     OW39925   2.486   2.190   4.695  0.0080  0.2865 -0.1922
 9489SOL    HW139926   2.430   2.213   4.770 -2.3834  1.7086 -2.4050
 9489SOL    HW239927   2.501   2.276   4.655  0.4962  0.0101 -0.5975
 9490SOL     OW39928   0.819   0.233   0.666 -0.3613 -0.5198 -0.4027
 9490SOL    HW139929   0.772   0.268   0.591 -0.7489 -1.0390 -0.4022
 9490SOL    HW239930   0.900   0.282   0.682 -0.4071 -0.8444  0.8870
 9491SOL     OW39931   4.500   2.912  17.096  0.4135  0.2556  0.1063
 9491SOL    HW139932   4.501   2.818  17.112 -1.4063  0.4331  1.2920
 9491SOL    HW239933   4.585   2.937  17.131  0.9357  1.4324 -2.0115
 9492SOL     OW39934   0.961   1.286  10.397  0.8638 -0.1366 -0.0829
 9492SOL    HW139935   0.910   1.327  10.466 -0.0417  1.0490 -1.4597
 9492SOL    HW239936   0.919   1.201  10.381  1.9009 -0.3458 -1.7270
 9493SOL     OW39937   4.601   0.583   7.362  0.1381 -0.2841  0.4271
 9493SOL    HW139938   4.697   0.579   7.363  0.1627  0.7118  1.6024
 9493SOL    HW239939   4.578   0.621   7.277 -0.0657 -0.7918  0.2488
 9494SOL     OW39940   2.128   1.607  17.505 -0.0268 -0.3846 -0.1370
 9494SOL    HW139941   2.177   1.566  17.576  1.3573  0.0859 -0.8187
 9494SOL    HW239942   2.064   1.653  17.559 -0.1212  1.6894 -1.9942
 9495SOL     OW39943   1.033   3.895   8.126  0.2727 -0.1356 -0.2364
 9495SOL    HW139944   0.943   3.865   8.110  1.0214 -1.6114 -1.6629
 9495SOL    HW239945   1.054   3.958   8.057  1.0628 -1.0429 -0.8258
 9496SOL     OW39946   1.240   3.386  12.421 -0.6060 -0.2921 -0.0566
 9496SOL    HW139947   1.303   3.357  12.487 -2.0329 -0.3730  1.2913
 9496SOL    HW239948   1.283   3.409  12.339  3.4062 -2.4229  1.4709
 9497SOL     OW39949   3.362   1.250  15.936  0.0307 -0.4553 -0.0476
 9497SOL    HW139950   3.358   1.193  16.014  0.3261 -0.8314 -0.3085
 9497SOL    HW239951   3.449   1.288  15.949  0.3448 -0.7190 -1.4179
 9498SOL     OW39952   4.357   4.403   7.321  0.3599  0.1665 -0.1422
 9498SOL    HW139953   4.437   4.421   7.370  1.9625 -1.2352 -2.1996
 9498SOL    HW239954   4.357   4.472   7.255 -1.5651  0.2170 -0.0855
 9499SOL     OW39955   1.060   0.189  10.879 -0.0175  0.0426 -0.3555
 9499SOL    HW139956   0.988   0.164  10.820  0.8502 -0.1233 -1.3531
 9499SOL    HW239957   1.109   0.244  10.818 -1.0399 -0.0837 -1.3068
 9500SOL     OW39958   3.451   4.089   7.930 -0.3484  0.3078  0.1829
 9500SOL    HW139959   3.490   4.045   8.006  0.8823 -1.1230 -1.2723
 9500SOL    HW239960   3.358   4.069   7.941 -0.8017  2.8996  1.2351
 9501SOL     OW39961   0.050   0.506   9.308  0.4467  0.5304  0.2798
 9501SOL    HW139962   0.092   0.458   9.379 -1.7186 -0.0190  1.1876
 9501SOL    HW239963   0.003   0.575   9.354 -1.2814  0.7514 -1.8224
 9502SOL     OW39964   1.576   4.469   3.903 -0.3845  0.2671  0.5902
 9502SOL    HW139965   1.665   4.460   3.868 -0.9739  0.4713 -0.9411
 9502SOL    HW239966   1.525   4.406   3.852 -0.7774 -0.2304  1.5954
 9503SOL     OW39967   1.673   1.885   5.603 -0.3557 -0.0813 -0.0624
 9503SOL    HW139968   1.760   1.923   5.588 -0.1791 -1.2680 -2.0359
 9503SOL    HW239969   1.619   1.961   5.582 -0.4426 -0.4125 -1.0440
 9504SOL     OW39970   1.957   4.407   0.631  0.5482  0.0798 -0.0904
 9504SOL    HW139971   1.972   4.314   0.644 -0.6494 -0.3762 -2.0823
 9504SOL    HW239972   1.891   4.412   0.562  0.4680 -2.6175 -0.1896
 9505SOL     OW39973   4.413   3.549  12.707 -0.5578 -0.3742  0.2412
 9505SOL    HW139974   4.464   3.630  12.701  0.1550 -0.8258  0.2429
 9505SOL    HW239975   4.492   3.497  12.721 -0.0545 -0.2192 -1.9559
 9506SOL     OW39976   3.255   1.224   6.172  0.2051  0.2809 -0.8373
 9506SOL    HW139977   3.183   1.219   6.109  0.5876 -1.7356 -1.1235
 9506SOL    HW239978   3.282   1.132   6.180 -1.0813  0.0337  0.6541
 9507SOL     OW39979   0.591   3.977   8.983 -0.2312 -0.4512  0.3983
 9507SOL    HW139980   0.586   3.883   9.003  2.9553 -0.3233  1.8156
 9507SOL    HW239981   0.679   3.984   8.947  0.3017  0.1641  1.8213
 9508SOL     OW39982   2.509   1.012   1.912  0.2986  0.0706  0.6610
 9508SOL    HW139983   2.492   0.918   1.926  0.9937  0.0718  1.5119
 9508SOL    HW239984   2.482   1.041   1.999 -0.6323  0.1091  0.3610
 9509SOL     OW39985   0.445   1.567  12.023 -0.2043  0.0862 -0.4779
 9509SOL    HW139986   0.471   1.615  12.102  1.0993 -0.9024 -0.3060
 9509SOL    HW239987   0.371   1.521  12.061 -0.9821  2.0116  0.3781
 9510SOL     OW39988   3.935   4.506   6.895 -0.2640 -0.1883 -0.2477
 9510SOL    HW139989   3.844   4.479   6.881 -0.3859  0.5181 -0.7930
 9510SOL    HW239990   3.938   4.489   6.989  1.6923 -1.2651 -0.5042
 9511SOL     OW39991   2.710   4.417  12.766  0.0610  0.0324 -0.2296
 9511SOL    HW139992   2.779   4.357  12.793  0.2984  0.2804 -0.2762
 9511SOL    HW239993   2.642   4.403  12.831 -0.1632  1.8209 -0.0790
 9512SOL     OW39994   3.077   2.561   5.230  0.0824 -0.3961  0.0511
 9512SOL    HW139995   3.170   2.538   5.231  0.3454  0.5763 -1.9534
 9512SOL    HW239996   3.079   2.639   5.175  3.5584 -0.2480  0.3967
 9513SOL     OW39997   1.020   2.591  14.114  0.2267 -0.2754 -0.3863
 9513SOL    HW139998   1.094   2.549  14.158  1.4334  0.4317 -1.7564
 9513SOL    HW239999   0.969   2.520  14.074  1.7884 -2.2747  1.1803
 9514SOL     OW40000   0.126   4.098   4.080 -0.9880  0.1924 -0.4005
 9514SOL    HW140001   0.098   4.037   4.013  0.5952 -0.5571 -0.3914
 9514SOL    HW240002   0.053   4.102   4.142 -1.5484 -0.3976 -1.0316
 9515SOL     OW40003   1.371   0.015  13.164 -0.1662 -0.4065 -0.6123
 9515SOL    HW140004   1.404   4.670  13.218  1.6956 -0.6173 -2.0355
 9515SOL    HW240005   1.302   4.705  13.109  0.0621 -1.4657 -0.1987
 9516SOL     OW40006   3.413   2.488   3.626 -0.0052  0.4094  0.3623
 9516SOL    HW140007   3.429   2.461   3.535  1.1475 -0.0736  0.7157
 9516SOL    HW240008   3.323   2.455   3.637  0.2507 -0.1985  0.6434
 9517SOL     OW40009   3.700   1.253   4.932 -0.3381 -0.1006  0.3371
 9517SOL    HW140010   3.632   1.228   4.870 -0.3714  2.4772 -0.6618
 9517SOL    HW240011   3.697   1.174   4.987  0.6427  0.3659  1.0532
 9518SOL     OW40012   2.782   0.157   7.954 -0.4911 -0.5063 -0.3181
 9518SOL    HW140013   2.844   0.228   7.939  0.4813 -1.3574 -0.3634
 9518SOL    HW240014   2.709   0.165   7.892 -0.2062  1.2482 -0.4282
 9519SOL     OW40015   0.818   0.876   8.089 -0.0014  0.4532  0.0763
 9519SOL    HW140016   0.842   0.871   8.181 -1.7349 -0.8044  0.4536
 9519SOL    HW240017   0.835   0.969   8.075  1.5947  0.3560  1.4609
 9520SOL     OW40018   3.715   2.019   2.762  0.0174  0.0691  0.1210
 9520SOL    HW140019   3.739   1.933   2.797  0.2182 -0.1569 -0.5801
 9520SOL    HW240020   3.624   1.998   2.740 -0.7282  0.1895  3.0594
 9521SOL     OW40021   3.916   0.396   2.875 -0.0721  0.9064  0.1406
 9521SOL    HW140022   3.968   0.356   2.945 -0.4926 -1.2841 -0.7913
 9521SOL    HW240023   3.988   0.447   2.838 -0.3731  0.4210 -1.1399
 9522SOL     OW40024   4.173   0.403  11.281 -0.0592  0.0356  0.3918
 9522SOL    HW140025   4.212   0.328  11.326 -1.2162 -1.0397 -0.4236
 9522SOL    HW240026   4.169   0.383  11.187 -0.8334  0.8341  0.2568
 9523SOL     OW40027   2.283   1.799  10.624 -0.3714  0.6926  0.1976
 9523SOL    HW140028   2.221   1.817  10.553 -1.5142 -0.2039  0.9687
 9523SOL    HW240029   2.353   1.857  10.592 -0.6928  0.9816  0.0139
 9524SOL     OW40030   2.170   0.917  16.710  0.6453 -0.3810  0.5021
 9524SOL    HW140031   2.079   0.948  16.705 -0.5738 -3.7039  1.5894
 9524SOL    HW240032   2.164   0.847  16.775  1.7983  1.6961  2.8451
 9525SOL     OW40033   4.243   2.043   7.110 -0.2708 -0.3620 -0.0147
 9525SOL    HW140034   4.229   2.066   7.018 -0.7216 -1.1785 -0.1492
 9525SOL    HW240035   4.162   2.077   7.148 -0.9878 -2.6934  0.5531
 9526SOL     OW40036   1.698   0.697   1.341 -0.3663 -0.6723  0.0380
 9526SOL    HW140037   1.793   0.689   1.355 -1.0035 -0.2246  4.5686
 9526SOL    HW240038   1.698   0.779   1.292 -3.8804 -0.9083 -0.3133
 9527SOL     OW40039   2.626   3.819  16.553  0.3511  0.5721  0.0071
 9527SOL    HW140040   2.611   3.816  16.648  0.1937  0.2690 -0.0285
 9527SOL    HW240041   2.647   3.727  16.536 -0.3435  1.0005 -3.0658
 9528SOL     OW40042   1.957   4.180   2.644  0.0607  0.6419 -0.0877
 9528SOL    HW140043   1.985   4.090   2.626 -1.9420 -0.0710  0.2839
 9528SOL    HW240044   1.998   4.235   2.578 -0.5252 -2.6022 -3.1424
 9529SOL     OW40045   0.067   1.418   9.243  0.2101  0.0195  0.0319
 9529SOL    HW140046   0.053   1.446   9.333 -1.5643 -0.1161 -0.2006
 9529SOL    HW240047   0.158   1.444   9.233  0.9231 -2.8606 -0.9995
 9530SOL     OW40048   2.465   1.081   5.466 -0.3826  0.0156  0.4317
 9530SOL    HW140049   2.474   0.994   5.506  0.3379 -0.4517 -0.7374
 9530SOL    HW240050   2.388   1.109   5.515  0.3996 -1.0560  2.2843
 9531SOL     OW40051   3.749   2.221   7.305 -0.0061  0.5474  0.4337
 9531SOL    HW140052   3.762   2.313   7.331 -0.8348  0.4183  1.3491
 9531SOL    HW240053   3.663   2.202   7.344 -0.2470  0.2293 -0.2611
 9532SOL     OW40054   2.218   3.012  11.107 -0.5149  0.5052 -0.0589
 9532SOL    HW140055   2.149   2.949  11.131 -0.4533  0.8324  0.9723
 9532SOL    HW240056   2.209   3.012  11.011  0.8121  1.4299 -0.1731
 9533SOL     OW40057   2.414   0.609   5.175  0.2277 -0.2660  0.4906
 9533SOL    HW140058   2.340   0.640   5.123  0.0847 -0.0945  0.7959
 9533SOL    HW240059   2.489   0.648   5.131  0.8894 -1.6876  0.3415
 9534SOL     OW40060   1.656   3.763   3.508  0.0659 -0.3838 -0.4599
 9534SOL    HW140061   1.586   3.699   3.523  0.0103 -0.1023  0.4533
 9534SOL    HW240062   1.596   3.837   3.511 -1.7942 -1.9709  2.0144
 9535SOL     OW40063   3.860   2.019   6.521 -0.5978 -0.1060 -0.2063
 9535SOL    HW140064   3.807   2.028   6.441 -0.5802  2.5378  0.0667
 9535SOL    HW240065   3.873   2.112   6.539  1.6216 -0.2061 -1.2583
 9536SOL     OW40066   2.614   0.674   3.702  0.3856  0.9157  0.3155
 9536SOL    HW140067   2.678   0.673   3.630  0.9920  1.9135  0.8414
 9536SOL    HW240068   2.541   0.649   3.646  1.0147 -0.6520  0.2026
 9537SOL     OW40069   4.546   0.597  13.041  0.0712  0.3651 -0.3277
 9537SOL    HW140070   4.554   0.650  12.962 -0.7100  1.9938  0.6837
 9537SOL    HW240071   4.567   0.663  13.108  1.9545  0.1499 -0.6909
 9538SOL     OW40072   0.240   2.090   1.870  0.0844 -0.0504 -0.6463
 9538SOL    HW140073   0.165   2.139   1.834 -0.4349  0.0557  0.5815
 9538SOL    HW240074   0.289   2.065   1.792 -0.6906  0.5132 -1.3154
 9539SOL     OW40075   0.170   3.656  13.326  0.3232 -0.0795 -0.7710
 9539SOL    HW140076   0.093   3.629  13.275  1.3566 -0.2111 -2.2658
 9539SOL    HW240077   0.212   3.722  13.272 -0.0204 -0.1437 -1.1188
 9540SOL     OW40078   4.508   3.056   3.072  0.2405 -0.6705  0.1924
 9540SOL    HW140079   4.524   3.132   3.128 -2.2737 -0.0210  0.0463
 9540SOL    HW240080   4.417   3.045   3.099 -0.6728  1.7891 -1.8278
 9541SOL     OW40081   2.268   0.917  12.495 -0.7395  0.3679 -0.0650
 9541SOL    HW140082   2.188   0.962  12.522 -0.5516  0.9584 -0.4930
 9541SOL    HW240083   2.335   0.977  12.530 -0.2154 -1.0250  1.3693
 9542SOL     OW40084   1.701   1.138  14.957 -1.3089 -0.5512 -0.0429
 9542SOL    HW140085   1.662   1.189  14.885 -0.4310  1.2727  0.7811
 9542SOL    HW240086   1.628   1.078  14.974 -0.2737 -1.3343  1.5658
 9543SOL     OW40087   3.500   1.676   5.835  0.0931  0.0520 -0.0454
 9543SOL    HW140088   3.458   1.672   5.920 -0.1544 -2.3163 -0.2856
 9543SOL    HW240089   3.421   1.689   5.783  0.4714  2.7969  0.0653
 9544SOL     OW40090   2.327   4.469  10.938  0.0320  0.8769  0.7910
 9544SOL    HW140091   2.306   4.562  10.929 -0.1638  0.8996  1.5560
 9544SOL    HW240092   2.407   4.469  10.990  0.5581 -0.0885 -0.0194
 9545SOL     OW40093   3.733   4.622  16.796 -0.4607  0.1384 -0.8259
 9545SOL    HW140094   3.699   4.711  16.793 -0.5514  0.1950  2.5753
 9545SOL    HW240095   3.693   4.586  16.875  1.4662 -2.0495 -0.8434
 9546SOL     OW40096   0.834   0.938   5.742  0.2016  0.4052  0.0940
 9546SOL    HW140097   0.878   0.906   5.820  3.0423  0.7206 -1.3736
 9546SOL    HW240098   0.743   0.940   5.774 -0.3291 -1.8813 -1.3190
 9547SOL     OW40099   0.414   2.488   9.670 -0.7120  0.3935 -0.3279
 9547SOL    HW140100   0.325   2.462   9.696 -0.0193  0.3289  1.9520
 9547SOL    HW240101   0.415   2.463   9.578  2.1258 -0.2122 -0.1274
 9548SOL     OW40102   0.156   2.693   9.464  0.2309  0.1169  0.2553
 9548SOL    HW140103   0.150   2.599   9.483  1.4454  0.6115  3.0699
 9548SOL    HW240104   0.100   2.702   9.387  0.9043  0.0095 -0.2462
 9549SOL     OW40105   2.366   1.332   4.689  0.3926 -0.4613  0.1995
 9549SOL    HW140106   2.431   1.378   4.742  1.8950 -0.0594 -2.0075
 9549SOL    HW240107   2.304   1.401   4.665  1.4498  0.1605 -0.7126
 9550SOL     OW40108   3.009   4.287   0.104  0.2524 -0.6788  0.1994
 9550SOL    HW140109   3.086   4.255   0.151  1.5176  1.0487 -0.6711
 9550SOL    HW240110   2.935   4.256   0.156 -2.7506  2.1720 -2.4029
 9551SOL     OW40111   2.106   4.031   4.150 -0.2902 -0.2501  0.2066
 9551SOL    HW140112   2.179   4.092   4.155  0.0460 -0.7776  1.8317
 9551SOL    HW240113   2.076   4.059   4.237  1.3001  1.4422  0.1975
 9552SOL     OW40114   4.611   3.160   5.721 -0.1615  0.6122  0.2766
 9552SOL    HW140115   4.684   3.141   5.779  2.6587  2.1477 -2.8009
 9552SOL    HW240116   4.641   3.111   5.644 -3.0204 -2.5625  1.1449
 9553SOL     OW40117   3.515   0.473  13.840 -0.5112  0.2451  0.0678
 9553SOL    HW140118   3.426   0.441  13.854 -0.6891  0.8902  0.4257
 9553SOL    HW240119   3.532   0.460  13.933  0.4041  0.3969 -0.0737
 9554SOL     OW40120   3.480   4.703   3.864 -0.3791 -0.3620 -0.1402
 9554SOL    HW140121   3.540   4.708   3.789 -0.5657 -0.2733 -0.2834
 9554SOL    HW240122   3.404   0.014   3.820 -1.1334  1.3432  2.7096
 9555SOL     OW40123   3.720   0.504   9.353 -0.1779  0.5313 -0.3982
 9555SOL    HW140124   3.751   0.445   9.285 -0.4936  1.4790 -1.3743
 9555SOL    HW240125   3.718   0.444   9.428 -0.4020  1.4787  0.3665
 9556SOL     OW40126   4.300   2.115  13.987  0.1278  0.4100  0.5104
 9556SOL    HW140127   4.347   2.166  13.920  0.9384  0.7617  1.3512
 9556SOL    HW240128   4.293   2.035  13.935  0.8944  0.5986  0.0997
 9557SOL     OW40129   0.868   1.359   5.720 -0.1892 -0.3563 -0.4072
 9557SOL    HW140130   0.930   1.300   5.676 -0.9092 -0.8597 -0.7446
 9557SOL    HW240131   0.781   1.336   5.687 -0.1898 -1.1365  0.1446
 9558SOL     OW40132   1.109   3.109  17.629 -0.0860 -0.2011  0.4937
 9558SOL    HW140133   1.196   3.083  17.600 -0.0202  0.8462 -0.2589
 9558SOL    HW240134   1.115   3.149   0.007 -1.6136 -2.3498  1.6099
 9559SOL     OW40135   2.989   4.725   6.513 -0.2114  0.3697  0.5751
 9559SOL    HW140136   2.989   4.668   6.590 -1.4626  0.0447  0.3339
 9559SOL    HW240137   2.921   0.061   6.537  0.9522  1.9444 -0.2696
 9560SOL     OW40138   4.526   4.313   5.326 -0.6676  0.4097 -0.7132
 9560SOL    HW140139   4.608   4.271   5.302  1.8146  2.8837  3.4901
 9560SOL    HW240140   4.472   4.240   5.357 -1.7906  1.5872  0.0991
 9561SOL     OW40141   0.310   3.416  16.712 -0.6334  0.2460 -0.0366
 9561SOL    HW140142   0.316   3.509  16.734 -3.0382  0.1405  1.1208
 9561SOL    HW240143   0.239   3.425  16.648 -1.6397 -0.9062  0.9147
 9562SOL     OW40144   4.415   4.557   2.522  0.1175 -0.0271 -0.5181
 9562SOL    HW140145   4.430   4.639   2.476  1.0015 -0.3909 -0.8771
 9562SOL    HW240146   4.485   4.510   2.478  0.9671  1.6262 -0.9557
 9563SOL     OW40147   2.063   0.922   6.631  0.0231  0.0654  0.3021
 9563SOL    HW140148   2.156   0.902   6.642 -0.0901  0.1720  1.4129
 9563SOL    HW240149   2.047   1.006   6.675  0.7385  1.5725 -2.3017
 9564SOL     OW40150   2.033   0.019  10.193  0.0240  0.7968  0.3939
 9564SOL    HW140151   2.113   4.706  10.228 -0.4158  2.1529  2.9996
 9564SOL    HW240152   2.026   4.687  10.118  1.6193  0.6924  0.3271
 9565SOL     OW40153   0.915   1.139   2.009 -0.1202  0.2280 -0.1967
 9565SOL    HW140154   0.918   1.043   2.002  3.2557  0.3367 -0.3162
 9565SOL    HW240155   1.001   1.167   1.980 -0.2415  1.0529  0.2613
   4.72682   4.72682  17.70821
