Membrane in water
40155
    1TCq1    O1    1   0.897   2.273  11.203  0.1761  0.5717 -0.1537
    1TCq1    C1    2   0.918   2.168  11.288  0.2322  0.5144  0.9918
    1TCq1    O2    3   0.977   2.179  11.399 -0.2349  0.0249 -0.6574
    1TCq1    C2    4   0.889   2.035  11.233  0.0101  1.3127  0.0625
    1TCq1    C3    5   0.794   2.022  11.131  0.3142  0.0291  0.3695
    1TCq1    C4    6   0.764   1.893  11.099  0.7125  0.2898 -0.3399
    1TCq1    C5    7   0.820   1.781  11.163 -0.1418 -0.1958 -0.3990
    1TCq1    C6    8   0.907   1.800  11.271 -0.2314 -0.5290 -0.0510
    1TCq1    C7    9   0.938   1.930  11.317  0.0063  0.1336  0.0920
    1TCq1    C8   10   0.974   1.684  11.330 -0.1685  0.1732  0.0415
    1TCq1    O4   11   1.057   1.713  11.414 -0.0214  0.1429 -0.1007
    1TCq1    C9   12   0.691   1.873  10.973 -0.2443 -0.1463  0.1208
    1TCq1    O5   13   0.658   1.974  10.908  0.1259 -0.4606 -0.0913
    1TCq1    O6   14   0.700   1.763  10.916 -0.0565  0.0760 -0.1839
    1TCq1    H1   15   0.853   2.236  11.124  0.0421  0.3750  0.0110
    1TCq1    H2   16   0.761   2.104  11.068  0.3787 -0.0540  0.2263
    1TCq1    H3   17   0.796   1.685  11.120 -1.4529 -0.2631  0.4660
    1TCq1    H4   18   1.017   1.949  11.389 -0.5619  1.1590  0.4464
    2MPD2     C   19   1.072   1.190  11.412  0.3657  0.7000  0.4416
    2MPD2    C1   20   1.064   1.292  11.505 -0.4303 -0.2621 -0.0792
    2MPD2    C2   21   1.033   1.418  11.461  0.3181  0.2243  0.1217
    2MPD2    C3   22   0.994   1.435  11.329  0.4473  0.1607  0.3638
    2MPD2    C4   23   0.993   1.328  11.239  0.1704 -0.1908  0.5721
    2MPD2    C5   24   1.033   1.212  11.286  0.5854 -0.9190 -0.1470
    2MPD2     H   25   1.019   1.499  11.531 -0.8644 -0.9829  1.2925
    2MPD2    H1   26   0.955   1.328  11.138 -0.3379 -2.0987  0.7541
    2MPD2    H2   27   1.109   1.092  11.441 -0.3921 -0.0759 -1.1903
    2MPD2    H3   28   1.051   1.129  11.218 -0.5197 -0.7445 -0.6583
    2MPD2     N   29   0.934   1.561  11.284  0.4229  0.7093 -0.8553
    2MPD2    H5   30   0.876   1.556  11.201 -0.2789  1.5684 -0.4126
    2MPD2    N1   31   1.087   1.279  11.644 -0.0260  0.1561 -0.9439
    2MPD2    H7   32   1.095   1.365  11.697  0.8293 -0.7346  0.3788
    3TCq1    O1   33   0.333   1.649  10.354 -0.5252 -0.5561  0.0656
    3TCq1    C1   34   0.294   1.744  10.270 -0.3290 -0.0061  0.1638
    3TCq1    O2   35   0.192   1.737  10.200  0.4782  0.1956 -0.8720
    3TCq1    C2   36   0.311   1.860  10.349  0.6881 -0.1083 -0.0177
    3TCq1    C3   37   0.431   1.902  10.398 -0.0339  0.0803  0.0633
    3TCq1    C4   38   0.439   2.009  10.484 -0.5648 -0.6879 -0.0471
    3TCq1    C5   39   0.325   2.081  10.516  0.3634  0.0544 -0.3200
    3TCq1    C6   40   0.208   2.040  10.461 -0.2334  0.4503 -0.0441
    3TCq1    C7   41   0.194   1.933  10.377 -0.4548  0.0843 -0.0477
    3TCq1    C8   42   0.094   2.126  10.475 -0.4936 -0.0393  0.5974
    3TCq1    O4   43   4.704   2.087  10.452  0.3107  0.0798  0.5440
    3TCq1    C9   44   0.564   2.054  10.541  0.2449 -0.4215 -0.3568
    3TCq1    O5   45   0.652   1.969  10.555  0.1958 -0.3159  0.0474
    3TCq1    O6   46   0.570   2.168  10.595 -0.7178  0.0629 -0.3451
    3TCq1    H1   47   0.401   1.666  10.422  2.2785 -0.2338 -2.8024
    3TCq1    H2   48   0.519   1.844  10.371 -0.7246 -1.1230  0.3982
    3TCq1    H3   49   0.328   2.163  10.586 -1.5111 -0.7416  0.7060
    3TCq1    H4   50   0.103   1.911  10.323 -1.0987  0.7459  0.7575
    4MPD2     C   51   4.588   2.584  10.526 -0.2958  0.2742 -0.2805
    4MPD2    C1   52   4.713   2.594  10.585 -0.8051 -0.4344 -0.2614
    4MPD2    C2   53   0.079   2.485  10.578  0.4089 -0.3581  0.0299
    4MPD2    C3   54   0.033   2.363  10.529 -0.3915 -0.6987 -0.3269
    4MPD2    C4   55   4.632   2.359  10.465  0.4213 -0.1048 -0.4388
    4MPD2    C5   56   4.550   2.468  10.465 -0.4878 -0.0378  0.4126
    4MPD2     H   57   0.176   2.495  10.624  0.4805 -0.7972 -0.0259
    4MPD2    H1   58   4.595   2.269  10.417  1.1711 -0.3513 -0.5577
    4MPD2    H2   59   4.522   2.670  10.531 -1.1155 -0.1760 -3.4809
    4MPD2    H3   60   4.457   2.458  10.412 -0.4876 -1.9249  0.7708
    4MPD2     N   61   0.123   2.257  10.518 -0.8552  0.2529  0.4026
    4MPD2    H5   62   0.221   2.276  10.537 -0.4726  0.0545 -1.4047
    4MPD2    N1   63   0.033   2.711  10.649 -0.4136  0.3803 -0.7605
    4MPD2    H7   64   0.130   2.731  10.667  0.7077 -3.9207 -1.8593
    5TCq1    O1   65   4.211   4.231  10.885 -0.8330 -0.3719  0.1796
    5TCq1    C1   66   4.276   4.138  10.949  0.2963 -0.7928 -0.0089
    5TCq1    O2   67   4.260   4.106  11.067 -0.0251  0.3565 -1.1100
    5TCq1    C2   68   4.343   4.047  10.859 -0.6117  0.2073  0.1145
    5TCq1    C3   69   4.274   3.995  10.756 -0.6033  0.6661 -0.5920
    5TCq1    C4   70   4.352   3.930  10.666 -0.7328  1.0469 -0.1986
    5TCq1    C5   71   4.482   3.897  10.683 -0.5305  0.4389 -0.1342
    5TCq1    C6   72   4.542   3.946  10.793 -0.2837 -0.2005 -0.3147
    5TCq1    C7   73   4.473   4.016  10.894  0.2586  0.0504 -0.4255
    5TCq1    C8   74   4.684   3.920  10.806 -0.6435  0.0116  0.6000
    5TCq1    O4   75   0.001   3.845  10.719  0.0542 -0.2585  0.4216
    5TCq1    C9   76   4.289   3.890  10.541  0.5727  0.1235  0.2627
    5TCq1    O5   77   4.171   3.931  10.526 -0.0100  0.5737  0.4251
    5TCq1    O6   78   4.363   3.834  10.458  0.1585  0.9213  0.5579
    5TCq1    H1   79   4.247   4.245  10.795 -0.5500 -1.0149  0.1918
    5TCq1    H2   80   4.170   4.019  10.734 -1.5026 -1.8580  0.8768
    5TCq1    H3   81   4.531   3.848  10.599 -2.4155 -0.8995 -0.4528
    5TCq1    H4   82   4.521   4.052  10.984  0.2049  2.3351 -1.3080
    6MPD2     C   83   0.201   4.123  11.013 -0.3038 -0.6417 -0.4243
    6MPD2    C1   84   0.162   4.028  10.922 -0.7854  0.0046 -0.7427
    6MPD2    C2   85   0.259   3.955  10.852  0.3754 -0.8612  0.0365
    6MPD2    C3   86   0.393   3.980  10.882  0.5201  0.6323 -1.0007
    6MPD2    C4   87   0.429   4.072  10.980  0.0932  0.3397  0.6400
    6MPD2    C5   88   0.331   4.145  11.040 -0.7824 -0.3019  0.0966
    6MPD2     H   89   0.232   3.881  10.777  0.1819  0.1699 -0.9132
    6MPD2    H1   90   0.529   4.100  11.012  1.2245 -1.7286 -1.0451
    6MPD2    H2   91   0.125   4.180  11.067 -1.6291 -0.4308 -2.5225
    6MPD2    H3   92   0.356   4.224  11.109  0.9545  0.0456 -0.9501
    6MPD2     N   93   0.491   3.904  10.819 -0.4844 -0.5103  0.6768
    6MPD2    H5   94   0.455   3.829  10.762  1.3780 -1.0572  0.2050
    6MPD2    N1   95   0.022   4.004  10.902 -0.2613 -0.3043 -0.0652
    6MPD2    H7   96   4.681   4.052  10.965 -0.0746  0.0219 -0.1219
    7TCq1    O1   97   3.322   4.323  13.058 -0.1949 -0.1236  0.0406
    7TCq1    C1   98   3.276   4.248  12.956 -0.6140 -0.6250 -0.7527
    7TCq1    O2   99   3.241   4.291  12.846 -0.1268 -0.0426 -0.3478
    7TCq1    C2  100   3.202   4.143  13.022  0.6419  0.4010  0.4126
    7TCq1    C3  101   3.070   4.161  13.043 -0.1125 -0.3232 -0.5283
    7TCq1    C4  102   3.002   4.063  13.108  0.4286 -0.1069 -0.2380
    7TCq1    C5  103   3.063   3.943  13.125  0.0170 -0.0088  0.5845
    7TCq1    C6  104   3.196   3.924  13.091  0.3892  0.1391 -0.5022
    7TCq1    C7  105   3.276   4.028  13.052 -0.7493  0.4457  0.1128
    7TCq1    C8  106   3.253   3.800  13.133 -0.8262  0.1611  0.1074
    7TCq1    O4  107   3.193   3.693  13.119 -0.0467  0.4377 -0.6252
    7TCq1    C9  108   2.867   4.068  13.123  0.0609  0.1329 -0.5304
    7TCq1    O5  109   2.796   4.154  13.069 -0.2346  0.2605 -0.4371
    7TCq1    O6  110   2.815   3.982  13.203  0.0257 -0.0217  0.5405
    7TCq1    H1  111   3.332   4.275  13.143 -0.5276 -2.4196 -1.2214
    7TCq1    H2  112   3.035   4.260  13.016  0.6774 -0.6578 -2.8052
    7TCq1    H3  113   3.012   3.858  13.168  0.5528 -1.3175 -1.3617
    7TCq1    H4  114   3.380   4.027  13.023 -0.1071  0.9210  2.3680
    8MPD2     C  115   3.566   3.503  13.405  0.4876 -0.0302  0.3035
    8MPD2    C1  116   3.436   3.482  13.376  0.5679 -0.1560  0.0753
    8MPD2    C2  117   3.364   3.583  13.309 -0.1988  0.6995 -0.0745
    8MPD2    C3  118   3.426   3.704  13.279 -0.3831 -0.8700 -0.1186
    8MPD2    C4  119   3.548   3.729  13.326  0.0031  0.2743 -0.4451
    8MPD2    C5  120   3.618   3.627  13.386  0.5134  0.5384  0.0883
    8MPD2     H  121   3.264   3.551  13.280  0.3026 -1.3510  0.4499
    8MPD2    H1  122   3.596   3.825  13.310  0.3364  0.1191 -0.3896
    8MPD2    H2  123   3.625   3.434  13.464  0.7388 -2.3645 -2.6694
    8MPD2    H3  124   3.716   3.650  13.427  0.2521  1.5650  0.1337
    8MPD2     N  125   3.372   3.814  13.199 -0.1172 -0.3654 -0.3536
    8MPD2    H5  126   3.414   3.905  13.212  0.4394 -0.5129 -1.1052
    8MPD2    N1  127   3.389   3.352  13.406  0.2733 -0.1071 -1.1045
    8MPD2    H7  128   3.453   3.298  13.462 -0.4884  1.7484  1.5495
    9TCq1    O1  129   0.229   2.623  11.042 -0.4225 -0.4066 -0.2518
    9TCq1    C1  130   0.250   2.519  11.124  0.7301 -0.9910  0.4598
    9TCq1    O2  131   0.158   2.449  11.168 -0.2279  0.2054  0.2996
    9TCq1    C2  132   0.386   2.504  11.154  0.5659  0.5352 -0.2677
    9TCq1    C3  133   0.467   2.612  11.163  0.0594 -0.4386  0.1215
    9TCq1    C4  134   0.586   2.600  11.227  0.4078 -0.0724 -0.0205
    9TCq1    C5  135   0.630   2.485  11.292 -0.4954 -0.1113 -0.2689
    9TCq1    C6  136   0.541   2.375  11.279 -0.6630  0.6276  0.5065
    9TCq1    C7  137   0.416   2.391  11.223  0.7758  0.6927 -0.6215
    9TCq1    C8  138   0.574   2.243  11.340  0.6506  0.0653  0.3041
    9TCq1    O4  139   0.534   2.141  11.284  0.0649  0.2923  0.0209
    9TCq1    C9  140   0.675   2.716  11.225 -0.6505  0.2186  0.6029
    9TCq1    O5  141   0.792   2.697  11.262  0.4163 -0.6545 -0.4279
    9TCq1    O6  142   0.622   2.833  11.208  0.1397  0.3807 -0.2486
    9TCq1    H1  143   0.310   2.676  11.026 -2.2252  2.2099 -0.8947
    9TCq1    H2  144   0.452   2.713  11.128  0.8904 -1.2973 -2.7180
    9TCq1    H3  145   0.732   2.473  11.327 -0.4400 -0.6467 -0.6140
    9TCq1    H4  146   0.357   2.301  11.205  1.3429 -0.1360  1.7057
   10MPD2     C  147   0.673   2.025  11.504 -0.1082  0.5109  0.1582
   10MPD2    C1  148   0.679   2.158  11.541 -0.2421 -0.0714 -0.8192
   10MPD2    C2  149   0.715   2.188  11.672  0.8779 -0.0149 -0.9923
   10MPD2    C3  150   0.749   2.091  11.767 -0.4027  0.8611  0.1059
   10MPD2    C4  151   0.739   1.961  11.726 -1.6488 -1.0428  0.4338
   10MPD2    C5  152   0.712   1.928  11.594  0.1805 -0.2487  0.1522
   10MPD2     H  153   0.699   2.293  11.694 -0.3058  0.1257 -2.5067
   10MPD2    H1  154   0.756   1.881  11.797  0.0953  1.4932  2.8731
   10MPD2    H2  155   0.647   1.981  11.409  0.7314 -1.7943  0.9696
   10MPD2    H3  156   0.706   1.823  11.567  0.9355 -0.1607 -0.3489
   10MPD2     N  157   0.767   2.108  11.906 -0.2214 -0.1163 -0.3279
   10MPD2    H5  158   0.779   2.025  11.962  0.2113 -0.2809 -0.6654
   10MPD2    N1  159   0.634   2.264  11.463 -0.1127 -0.0573  0.0063
   10MPD2    H7  160   0.652   2.357  11.500  0.8514  0.0594 -0.7590
   11TCq1    O1  161   2.005   2.431  13.750  0.0466 -0.5236 -0.0702
   11TCq1    C1  162   1.954   2.517  13.842 -0.8416 -0.5138  0.7290
   11TCq1    O2  163   1.935   2.639  13.824  0.7685 -0.0599 -0.0711
   11TCq1    C2  164   1.993   2.451  13.966  0.5811 -0.1644  0.3557
   11TCq1    C3  165   2.085   2.517  14.040  0.5701  0.2293 -0.6528
   11TCq1    C4  166   2.087   2.497  14.170 -1.5572  0.2528 -0.8213
   11TCq1    C5  167   2.005   2.407  14.239 -0.7070 -0.2371  0.1981
   11TCq1    C6  168   1.905   2.348  14.156 -0.5438 -0.2409  0.0592
   11TCq1    C7  169   1.898   2.367  14.022 -0.0736  0.2159  0.0713
   11TCq1    C8  170   1.819   2.250  14.220 -0.2644 -0.6253  0.1302
   11TCq1    O4  171   1.809   2.260  14.341  0.2204  0.0127  0.2243
   11TCq1    C9  172   2.201   2.551  14.245  0.4185  0.3985  0.3135
   11TCq1    O5  173   2.284   2.623  14.189  0.5103  0.1035  0.3726
   11TCq1    O6  174   2.185   2.548  14.374 -0.1782  1.1224  0.4265
   11TCq1    H1  175   2.042   2.351  13.793 -0.5167 -0.6371  0.1996
   11TCq1    H2  176   2.142   2.600  13.999  1.9996  0.3871  1.6509
   11TCq1    H3  177   2.015   2.404  14.347 -0.2955  1.5958  0.2154
   11TCq1    H4  178   1.824   2.321  13.957  0.7170 -1.9923  0.7093
   12MPD2     C  179   1.629   2.040  14.314 -0.0720  0.1143 -0.2000
   12MPD2    C1  180   1.671   2.055  14.180  0.9329 -0.1010 -0.7963
   12MPD2    C2  181   1.623   1.965  14.084  0.5000 -0.2770  0.3203
   12MPD2    C3  182   1.555   1.849  14.127  0.0365 -0.7626 -0.9648
   12MPD2    C4  183   1.537   1.821  14.263  0.1222 -0.0008 -0.7253
   12MPD2    C5  184   1.568   1.922  14.352  1.0222 -0.7546 -0.2257
   12MPD2     H  185   1.648   1.958  13.979  0.1143  0.2950  0.1942
   12MPD2    H1  186   1.490   1.730  14.298  1.2425  0.6436  2.5012
   12MPD2    H2  187   1.658   2.108  14.394 -1.4125  0.1281  0.2810
   12MPD2    H3  188   1.537   1.897  14.453 -0.5439  0.2812 -0.4465
   12MPD2     N  189   1.501   1.755  14.037 -0.3799 -0.2123  0.0730
   12MPD2    H5  190   1.474   1.670  14.085 -0.6226 -0.0510  0.2275
   12MPD2    N1  191   1.756   2.156  14.135 -0.1229 -0.5122  0.0110
   12MPD2    H7  192   1.786   2.146  14.038  0.2318  0.9979 -0.0384
   13TCq1    O1  193   0.547   1.174  12.203 -0.5308 -0.2909 -0.3612
   13TCq1    C1  194   0.673   1.135  12.249 -0.2731 -0.5478  0.0344
   13TCq1    O2  195   0.695   1.089  12.357  0.5235 -0.9548 -0.5201
   13TCq1    C2  196   0.728   1.079  12.127 -0.2168 -0.3111 -0.9165
   13TCq1    C3  197   0.782   0.952  12.113  0.4266 -0.3854  0.6168
   13TCq1    C4  198   0.828   0.907  11.992 -0.0881 -0.0162  0.2748
   13TCq1    C5  199   0.829   0.995  11.886  0.3280 -0.0746  0.0237
   13TCq1    C6  200   0.783   1.121  11.899  0.6211 -0.3029  0.2759
   13TCq1    C7  201   0.738   1.165  12.021  0.0813 -0.5998 -0.1680
   13TCq1    C8  202   0.772   1.207  11.786 -0.1722  0.5698  0.0089
   13TCq1    O4  203   0.760   1.325  11.812  0.0307  0.4385  0.1829
   13TCq1    C9  204   0.891   0.771  11.984 -0.6922 -0.5888  0.2165
   13TCq1    O5  205   0.955   0.737  11.880 -0.0452  0.2145 -0.0503
   13TCq1    O6  206   0.894   0.711  12.094  0.1707 -0.5299  0.5321
   13TCq1    H1  207   0.526   1.154  12.109 -2.1364 -1.7165  0.3142
   13TCq1    H2  208   0.782   0.892  12.203  0.0212 -1.8264 -0.3261
   13TCq1    H3  209   0.865   0.960  11.790 -1.6314  1.6870 -1.3500
   13TCq1    H4  210   0.684   1.259  12.019  0.5725 -0.2641  2.1731
   14MPD2     C  211   0.713   1.130  11.428  1.0628  0.4356 -0.3876
   14MPD2    C1  212   0.708   1.202  11.545 -0.9261 -0.6358  0.6790
   14MPD2    C2  213   0.671   1.341  11.537 -0.8169  0.2808  0.1658
   14MPD2    C3  214   0.648   1.403  11.413  0.2189 -0.0372  0.2461
   14MPD2    C4  215   0.650   1.318  11.301 -0.5518  0.1021  0.0716
   14MPD2    C5  216   0.690   1.190  11.310 -0.7613  0.8504  0.0199
   14MPD2     H  217   0.658   1.403  11.626 -1.6929  1.8902 -1.0805
   14MPD2    H1  218   0.625   1.356  11.202 -1.2071 -2.2026 -0.6520
   14MPD2    H2  219   0.741   1.025  11.428  1.1125  0.4485 -0.3248
   14MPD2    H3  220   0.704   1.122  11.226  0.3745  3.2185 -1.6975
   14MPD2     N  221   0.596   1.540  11.419 -0.1802  0.1483  0.3949
   14MPD2    H5  222   0.584   1.584  11.510 -1.1574 -0.5844  0.6250
   14MPD2    N1  223   0.755   1.136  11.668  0.0841  0.5364 -0.2884
   14MPD2    H7  224   0.762   1.035  11.675 -2.8559  0.3235 -0.1000
   15TCq1    O1  225   2.402   1.424   0.876  0.4114 -0.1333  0.1409
   15TCq1    C1  226   2.434   1.307   0.820  0.1848  0.6683  0.0563
   15TCq1    O2  227   2.444   1.287   0.701 -0.0469 -0.3154  0.1412
   15TCq1    C2  228   2.453   1.212   0.920  0.3230 -0.3702 -0.3527
   15TCq1    C3  229   2.392   1.216   1.042 -0.1754 -0.5004  0.0177
   15TCq1    C4  230   2.436   1.128   1.136 -0.0491  0.1327 -0.7941
   15TCq1    C5  231   2.528   1.029   1.110  0.3552  0.2526  0.1211
   15TCq1    C6  232   2.583   1.033   0.982 -0.5721 -0.0365  0.3900
   15TCq1    C7  233   2.549   1.122   0.884 -0.2186  0.1621  0.0966
   15TCq1    C8  234   2.659   0.917   0.946  0.3082 -0.5333 -0.2629
   15TCq1    O4  235   2.744   0.877   1.028  0.0138  0.6479 -0.1609
   15TCq1    C9  236   2.385   1.144   1.268 -0.6029 -0.4028  0.3929
   15TCq1    O5  237   2.442   1.074   1.358 -0.0022 -0.0381  0.1703
   15TCq1    O6  238   2.264   1.169   1.267 -0.4089 -0.5178  0.1127
   15TCq1    H1  239   2.412   1.427   0.973  3.0285 -0.3666 -0.1295
   15TCq1    H2  240   2.319   1.291   1.072 -0.2586 -0.1125 -1.1542
   15TCq1    H3  241   2.567   0.973   1.194 -1.1465  2.0915  2.0465
   15TCq1    H4  242   2.578   1.103   0.781 -0.2820  2.7432 -0.4012
   16MPD2     C  243   2.535   0.664   0.729  0.5832 -0.1408  0.8039
   16MPD2    C1  244   2.615   0.720   0.821 -0.4012  0.1118  0.1190
   16MPD2    C2  245   2.725   0.646   0.868 -0.8570  0.3381  0.1250
   16MPD2    C3  246   2.746   0.519   0.826 -0.1995  0.3903 -0.0555
   16MPD2    C4  247   2.663   0.460   0.734 -0.5197  0.0507  0.1115
   16MPD2    C5  248   2.559   0.533   0.688  0.3739  0.7067  0.3369
   16MPD2     H  249   2.802   0.673   0.940 -1.1980 -0.5878  0.8478
   16MPD2    H1  250   2.674   0.359   0.695 -1.3282 -0.5137  1.3363
   16MPD2    H2  251   2.462   0.720   0.672  1.6339  0.1959 -0.2232
   16MPD2    H3  252   2.500   0.476   0.617 -1.0044  1.6139  0.7391
   16MPD2     N  253   2.856   0.455   0.885  0.4739  0.3743 -0.0311
   16MPD2    H5  254   2.906   0.505   0.959  0.8664 -0.3445  0.1924
   16MPD2    N1  255   2.590   0.853   0.850  0.2113  0.7229  0.4274
   16MPD2    H7  256   2.517   0.910   0.808 -0.3008  0.4291  0.9050
   17TCq1    O1  257   0.765   1.935  10.316  0.0658 -0.0763 -0.1002
   17TCq1    C1  258   0.844   1.828  10.306 -0.4751 -1.0274  0.0733
   17TCq1    O2  259   0.870   1.756  10.208  0.1232 -0.3163 -0.0443
   17TCq1    C2  260   0.887   1.798  10.443  0.9583  0.0922 -0.0680
   17TCq1    C3  261   0.911   1.664  10.465  0.2261  0.2666  0.3593
   17TCq1    C4  262   0.949   1.627  10.593  0.2856  0.3116 -0.2846
   17TCq1    C5  263   0.974   1.723  10.691  0.6199  0.2118 -0.8706
   17TCq1    C6  264   0.952   1.853  10.659  0.1025  0.3924 -0.7783
   17TCq1    C7  265   0.916   1.894  10.532 -0.5152 -0.3362  0.0543
   17TCq1    C8  266   0.963   1.962  10.754  0.0919 -0.1123  0.0986
   17TCq1    O4  267   0.911   2.071  10.723 -0.2627 -0.8639 -0.4790
   17TCq1    C9  268   0.948   1.493  10.634  0.2397 -0.4447 -0.4654
   17TCq1    O5  269   1.000   1.459  10.744 -0.2920  0.0830  0.1042
   17TCq1    O6  270   0.931   1.415  10.542 -0.1092 -0.4930  0.1056
   17TCq1    H1  271   0.729   1.944  10.407 -0.5617 -1.5957 -0.1931
   17TCq1    H2  272   0.898   1.590  10.387 -2.5177  0.4138  0.6793
   17TCq1    H3  273   0.983   1.684  10.791  0.9656  0.8123 -0.6638
   17TCq1    H4  274   0.898   2.000  10.513 -1.3402 -0.7505 -1.4567
   18MPD2     C  275   1.098   2.139  10.937  1.0984  0.6711 -0.2633
   18MPD2    C1  276   1.091   2.005  10.955  0.3203 -0.1557 -0.1502
   18MPD2    C2  277   1.159   1.947  11.056  0.5179  0.8152  0.6160
   18MPD2    C3  278   1.219   2.030  11.148 -0.3175 -0.1773  0.0254
   18MPD2    C4  279   1.218   2.167  11.129 -1.0639 -0.4099  0.9048
   18MPD2    C5  280   1.157   2.224  11.020  0.1447  0.7624  0.2304
   18MPD2     H  281   1.154   1.840  11.066 -0.3154  0.8162  0.2075
   18MPD2    H1  282   1.272   2.226  11.203 -0.6240 -0.3487  0.5321
   18MPD2    H2  283   1.050   2.185  10.852  0.4034  2.1187  0.9175
   18MPD2    H3  284   1.163   2.331  11.009 -1.4334  0.9593  1.3526
   18MPD2     N  285   1.289   1.976  11.261 -0.4457  0.0720 -0.2548
   18MPD2    H5  286   1.318   2.051  11.323 -1.0425 -0.9813  1.2929
   18MPD2    N1  287   1.039   1.924  10.859 -0.3843  0.0809 -0.7173
   18MPD2    H7  288   1.065   1.826  10.870  0.4560  0.5437  1.3643
   19TMC2    C1  289   2.573   2.051  13.590 -0.2764  0.0424 -0.2684
   19TMC2    C2  290   2.516   2.093  13.470  0.6196  0.4461  0.1329
   19TMC2    C3  291   2.385   2.065  13.451 -0.1443  0.2607  0.0624
   19TMC2    C4  292   2.495   1.971  13.669  0.5300  0.5075  0.5806
   19TMC2    C5  293   2.369   1.958  13.649  0.0894 -1.1002  0.2239
   19TMC2    C6  294   2.303   2.005  13.540  1.2192 -0.2570  0.3887
   19TMC2     C  295   2.713   2.016  13.593 -0.0740  0.2117  0.1803
   19TMC2     O  296   2.771   2.006  13.488  0.4579 -0.1692 -0.3356
   19TMC2     H  297   2.585   2.139  13.400 -0.7795  0.9558 -0.9079
   19TMC2    H1  298   2.541   1.902  13.738 -1.2307 -1.6344 -0.3796
   19TMC2    H2  299   2.201   1.974  13.516  0.3618  2.4368  0.5743
   19TMC2    C7  300   2.325   1.827  13.702 -0.0544 -0.3979 -0.0621
   19TMC2    C8  301   2.310   2.124  13.337  0.6192  0.8720 -0.5359
   19TMC2    O1  302   2.362   1.728  13.635  0.5385  0.3261 -0.0863
   19TMC2    O2  303   2.194   2.155  13.350 -0.2764  0.0455 -0.0511
   19TMC2    O5  304   2.394   2.169  13.236 -0.4555 -0.2597  0.7561
   19TMC2    H5  305   2.482   2.127  13.238 -0.0147  0.6038 -0.4210
   20MPD2     C  306   2.979   1.894  13.674  0.1673 -1.1359 -0.0707
   20MPD2    C1  307   2.884   1.940  13.764  0.1083  0.4788  0.0867
   20MPD2    C2  308   2.890   1.910  13.893  0.6055  0.3223  0.4139
   20MPD2    C3  309   3.009   1.847  13.936  0.3173  0.1249  0.6155
   20MPD2    C4  310   3.111   1.818  13.846  0.3927 -0.1112  0.0020
   20MPD2    C5  311   3.091   1.832  13.713  0.4655 -0.5167  0.1190
   20MPD2     H  312   2.809   1.924  13.964 -0.6180 -0.5851 -0.8115
   20MPD2    H1  313   3.205   1.770  13.871  1.3901  1.3683 -0.8449
   20MPD2    H2  314   2.970   1.912  13.568 -2.5238  0.2419  0.4139
   20MPD2    H3  315   3.160   1.796  13.638  0.9316  0.0751  0.2608
   20MPD2     N  316   3.031   1.803  14.069  0.3487 -0.3648  0.4372
   20MPD2    H5  317   3.125   1.778  14.096  0.6629  0.8704  0.4660
   20MPD2    N1  318   2.757   1.992  13.722  0.4577  0.0889 -0.0190
   20MPD2    H7  319   2.694   2.017  13.798  0.6565  0.3387  0.0674
   21MPD2     C  320   0.294   1.947  14.039  0.1807 -0.0924  0.1753
   21MPD2    C1  321   0.353   1.983  14.157  0.1426 -1.0932 -0.4654
   21MPD2    C2  322   0.283   1.983  14.275  0.2317 -0.2063  0.1753
   21MPD2    C3  323   0.146   1.950  14.280 -0.6057  0.2220  0.6507
   21MPD2    C4  324   0.096   1.894  14.161  0.7026 -0.2579 -1.1444
   21MPD2    C5  325   0.168   1.902  14.043 -0.3805 -0.1906 -0.0774
   21MPD2     H  326   0.324   2.017  14.369 -0.4214 -0.0879  0.4233
   21MPD2    H1  327   0.001   1.843  14.156 -0.0081  0.9596 -0.1007
   21MPD2    H2  328   0.347   1.945  13.944 -1.2767  0.8782 -0.6654
   21MPD2    H3  329   0.135   1.862  13.948  2.2639 -1.2206 -0.5448
   21MPD2     N  330   0.080   1.941  14.403 -0.5539  0.1123  0.2549
   21MPD2    H5  331   0.131   1.961  14.489 -0.7468 -0.0963  0.4194
   21MPD2    N1  332   0.495   2.007  14.157 -0.4150  0.1558 -0.7220
   21MPD2    H7  333   0.537   1.976  14.070 -2.4044  1.6118 -2.2032
   22TCq2    C1  334   4.667   1.911  14.415 -0.4584  0.4380 -0.2861
   22TCq2    O2  335   4.580   1.904  14.328  0.4663 -0.1474 -0.1946
   22TCq2    C2  336   4.629   1.921  14.556  0.3769  0.7488  0.6734
   22TCq2    C3  337   4.690   1.826  14.633 -0.0525 -0.5311 -0.7170
   22TCq2    C4  338   4.616   1.780  14.741 -0.2772  0.5109  0.6597
   22TCq2    C5  339   4.501   1.836  14.780 -0.2739 -0.0008  0.3329
   22TCq2    C6  340   4.443   1.928  14.690 -0.5962  0.7679 -0.0389
   22TCq2    C7  341   4.497   1.965  14.576  0.1179  0.6050  0.2173
   22TCq2    C8  342   4.319   1.986  14.730 -0.9370  0.5881  0.3523
   22TCq2    O4  343   4.288   1.950  14.844  0.3869  0.1629  0.1666
   22TCq2    C9  344   4.677   1.669  14.815 -0.3110 -0.4318  0.2256
   22TCq2    O5  345   0.067   1.631  14.770 -0.4265 -0.2446 -0.1148
   22TCq2    O6  346   4.635   1.649  14.934 -0.1276 -0.5694  0.2693
   22TCq2    H2  347   0.063   1.789  14.600  0.4825 -1.1982  1.5519
   22TCq2    H3  348   4.461   1.803  14.875  0.4237 -0.8519  0.3380
   22TCq2    H4  349   4.439   2.014  14.498 -0.0667  0.1679  0.0790
   23MPD2     C  350   1.847   3.473  14.801 -0.5752 -0.3786  0.2941
   23MPD2    C1  351   1.770   3.385  14.877 -0.0176 -1.1673  0.4455
   23MPD2    C2  352   1.637   3.373  14.857  0.3848 -0.1837  0.1889
   23MPD2    C3  353   1.571   3.449  14.761 -0.5907 -0.2012  0.1392
   23MPD2    C4  354   1.649   3.532  14.687  0.5293  0.8448 -0.5428
   23MPD2    C5  355   1.784   3.549  14.701  0.0800 -0.2995  0.6982
   23MPD2     H  356   1.579   3.314  14.927  1.5193 -0.0936  1.1884
   23MPD2    H1  357   1.605   3.589  14.606 -0.3890  2.4408  1.0895
   23MPD2    H2  358   1.954   3.482  14.809 -0.5867  1.2489 -1.3170
   23MPD2    H3  359   1.841   3.622  14.645 -2.7642  1.0761 -0.4015
   23MPD2     N  360   1.430   3.446  14.736  0.3787  0.5271  0.1960
   23MPD2    H5  361   1.393   3.514  14.670  0.0912 -0.3116 -0.5222
   23MPD2    N1  362   1.842   3.318  14.978  0.2950 -0.6057  0.2210
   23MPD2    H7  363   1.942   3.334  14.987  0.3341 -0.1421 -1.0022
   24TCq2    C1  364   1.341   3.354  14.783 -0.0429 -0.5645 -0.0775
   24TCq2    O2  365   1.350   3.267  14.864  0.0044  0.1612 -0.7849
   24TCq2    C2  366   1.223   3.377  14.701 -0.0644  0.0320 -0.1144
   24TCq2    C3  367   1.175   3.500  14.716  0.7002  0.0305 -0.1560
   24TCq2    C4  368   1.082   3.551  14.626 -0.1650  0.1205  0.3422
   24TCq2    C5  369   1.037   3.474  14.520 -0.1084  0.3342  0.4150
   24TCq2    C6  370   1.088   3.346  14.516  0.1039 -0.4625  0.4626
   24TCq2    C7  371   1.181   3.295  14.604  0.3605 -0.0126 -0.1333
   24TCq2    C8  372   1.020   3.248  14.430  0.4093 -0.9793  0.4635
   24TCq2    O4  373   1.084   3.147  14.419  0.1065 -0.9458 -0.1487
   24TCq2    C9  374   1.030   3.689  14.640 -0.3315 -0.4828 -0.5661
   24TCq2    O5  375   1.106   3.770  14.700  0.0250  0.3245 -0.0822
   24TCq2    O6  376   0.947   3.727  14.556  0.0268  0.3840  0.0587
   24TCq2    H2  377   1.207   3.552  14.805 -2.4051 -1.3430  1.7249
   24TCq2    H3  378   0.967   3.517  14.449  0.9249 -0.4351 -1.0594
   24TCq2    H4  379   1.205   3.190  14.593  2.6142  0.3850  0.9313
   25TMC2    C1  380   0.865   0.336  11.290  0.3034 -0.3389  0.0021
   25TMC2    C2  381   0.981   0.407  11.306  0.8754 -0.1382 -0.3406
   25TMC2    C3  382   1.022   0.427  11.435  0.3246  0.1396 -0.8422
   25TMC2    C4  383   0.793   0.306  11.402 -0.3091 -0.2870  0.3769
   25TMC2    C5  384   0.833   0.343  11.526 -0.4207 -0.4494 -0.1463
   25TMC2    C6  385   0.950   0.408  11.542 -0.2173 -0.5837  0.3161
   25TMC2     C  386   0.808   0.341  11.158 -0.0925 -0.1229 -0.5339
   25TMC2     O  387   0.875   0.412  11.080  0.1511 -0.3109  0.0800
   25TMC2     H  388   1.046   0.416  11.219 -0.6084 -2.1920 -1.6580
   25TMC2    H1  389   0.692   0.268  11.387 -0.4636 -1.0239  3.2583
   25TMC2    H2  390   0.995   0.442  11.635  0.2157 -3.8572  1.3255
   25TMC2    C7  391   0.769   0.300  11.649 -0.3751  0.5962  0.4443
   25TMC2    C8  392   1.152   0.497  11.464  0.4726  0.7539 -0.4686
   25TMC2    O1  393   0.821   0.320  11.760 -0.1001  0.4177 -0.5268
   25TMC2    O2  394   1.187   0.517  11.582 -0.5055 -0.4058  0.0405
   25TMC2    O5  395   1.192   0.571  11.357 -0.2571 -0.2622 -0.4792
   25TMC2    H5  396   1.142   0.571  11.272 -1.1615 -1.2891  0.0656
   26MPD2     C  397   0.513   0.163  10.769 -0.0825 -0.1169  0.4849
   26MPD2    C1  398   0.468   0.111  10.886 -0.3807  0.6649  0.3918
   26MPD2    C2  399   0.531   0.143  11.007  0.4510 -0.8109  0.5508
   26MPD2    C3  400   0.648   0.221  11.006 -0.0213 -0.5459 -0.4953
   26MPD2    C4  401   0.698   0.268  10.890 -0.2963 -0.0063  0.2985
   26MPD2    C5  402   0.623   0.244  10.776  0.6859 -0.2486 -0.3709
   26MPD2     H  403   0.499   0.105  11.103  1.0944 -0.4774  0.8974
   26MPD2    H1  404   0.778   0.338  10.874 -2.4162  2.0928 -1.2403
   26MPD2    H2  405   0.470   0.152  10.670 -0.2656  2.1729  0.2959
   26MPD2    H3  406   0.663   0.300  10.693 -2.6142 -1.5300 -2.8066
   26MPD2     N  407   0.701   0.258  11.134  0.3056 -0.7421  0.2033
   26MPD2    H5  408   0.668   0.189  11.201 -0.6181 -0.6263 -0.1464
   26MPD2    N1  409   0.348   0.032  10.886  0.2538 -0.6241 -0.3060
   26MPD2    H7  410   0.301   0.020  10.797  0.8311  1.0593 -0.8239
   27TMC2    C1  411   3.985   2.211  11.932  0.4004  0.3351 -0.4063
   27TMC2    C2  412   3.889   2.161  11.851 -0.0951 -0.5084  0.0592
   27TMC2    C3  413   3.801   2.245  11.791 -0.8851  0.2997 -0.6166
   27TMC2    C4  414   3.991   2.341  11.957  0.6985  0.0065 -0.1692
   27TMC2    C5  415   3.907   2.427  11.898 -0.1362  0.2686 -0.3537
   27TMC2    C6  416   3.807   2.379  11.822 -0.1786 -0.3676  0.7021
   27TMC2     C  417   3.979   2.135  12.055 -0.1542  0.5655 -0.4816
   27TMC2     O  418   3.962   2.015  12.041 -0.2313  0.1016  0.0796
   27TMC2     H  419   3.875   2.053  11.846 -0.9970 -0.3650 -0.6820
   27TMC2    H1  420   4.070   2.388  12.014  0.8692 -1.5445  0.8758
   27TMC2    H2  421   3.724   2.445  11.797 -0.5232 -0.5499  1.3675
   27TMC2    C7  422   3.860   2.522  11.997 -0.1186  0.2265  0.4623
   27TMC2    C8  423   3.666   2.190  11.761  0.0413  0.0895  0.1504
   27TMC2    O1  424   3.886   2.483  12.108  0.5553  0.5606  0.0273
   27TMC2    O2  425   3.613   2.101  11.828 -0.6414  0.2098 -0.2423
   27TMC2    O5  426   3.601   2.277  11.683 -0.3733 -0.2513  0.3261
   27TMC2    H5  427   3.668   2.334  11.639 -1.3863 -0.7481 -1.8204
   28MPD2     C  428   3.739   2.083  12.496 -0.1231  0.0144 -0.2631
   28MPD2    C1  429   3.736   2.213  12.456 -0.3710  0.0037  0.4205
   28MPD2    C2  430   3.805   2.248  12.343  0.1931  0.1281  0.1821
   28MPD2    C3  431   3.885   2.163  12.278 -0.2738 -0.2049 -0.1458
   28MPD2    C4  432   3.891   2.035  12.322 -0.4619 -0.5132 -0.4546
   28MPD2    C5  433   3.819   1.994  12.430  0.0747  0.5624 -0.0297
   28MPD2     H  434   3.795   2.351  12.309  2.6661  0.1961 -0.3105
   28MPD2    H1  435   3.953   1.962  12.271  0.4748  0.1858 -0.3279
   28MPD2    H2  436   3.671   2.047  12.572  0.7082 -1.2981 -0.1409
   28MPD2    H3  437   3.815   1.892  12.466 -0.1366  0.5760 -0.0141
   28MPD2     N  438   3.932   2.210  12.158  0.4205  0.6349  0.6587
   28MPD2    H5  439   3.934   2.309  12.136  2.7157  0.5526  0.4990
   28MPD2    N1  440   3.648   2.297  12.533 -0.1140  0.2309 -0.2904
   28MPD2    H7  441   3.617   2.265  12.624  2.0769 -0.0442  0.3504
   29MPD2     C  442   3.745   0.094  13.624  0.5840  0.9808 -0.2652
   29MPD2    C1  443   3.853   0.049  13.687  0.2871  0.8404 -0.2387
   29MPD2    C2  444   3.910   0.129  13.785  0.2748  0.2885 -0.4085
   29MPD2    C3  445   3.869   0.255  13.825 -0.0333 -0.8513  0.4820
   29MPD2    C4  446   3.753   0.296  13.763  0.3132  0.0412 -0.1095
   29MPD2    C5  447   3.697   0.216  13.664 -0.0106  0.1919  0.3645
   29MPD2     H  448   3.994   0.085  13.837 -1.0089 -1.4913  0.1730
   29MPD2    H1  449   3.710   0.394  13.781 -0.7557 -0.6226  0.9253
   29MPD2    H2  450   3.697   0.052  13.536  2.3207 -1.7870  0.1016
   29MPD2    H3  451   3.608   0.253  13.615  0.6344  1.2615  0.0059
   29MPD2     N  452   3.930   0.337  13.916  0.1966 -0.2457 -0.0542
   29MPD2    H5  453   3.891   0.430  13.929  3.5558  1.1731 -0.0637
   29MPD2    N1  454   3.907   4.649  13.657 -0.3918 -0.0554  0.0025
   29MPD2    H7  455   3.999   4.637  13.700  0.0655 -0.8742 -1.2047
   30TCq2    C1  456   4.053   0.322  13.979 -0.0874  0.5759 -0.3209
   30TCq2    O2  457   4.135   0.229  13.963  0.0225  0.4804  0.6880
   30TCq2    C2  458   4.079   0.432  14.070 -0.3069 -0.2848  0.4007
   30TCq2    C3  459   3.976   0.514  14.110  0.1321 -0.3447  0.1421
   30TCq2    C4  460   4.018   0.646  14.135  0.2521 -0.0756 -0.1289
   30TCq2    C5  461   4.153   0.685  14.130 -1.1869  0.1646  0.4044
   30TCq2    C6  462   4.251   0.597  14.094 -0.5449  0.2376  0.2561
   30TCq2    C7  463   4.208   0.475  14.056 -0.3013  0.0801 -0.3963
   30TCq2    C8  464   4.378   0.653  14.049  0.3916  0.0585  0.2241
   30TCq2    O4  465   4.433   0.604  13.951 -0.1024 -0.4456  0.3730
   30TCq2    C9  466   3.914   0.741  14.185  0.0618  0.6089 -0.6333
   30TCq2    O5  467   3.954   0.860  14.202  0.0587 -0.1912  0.8300
   30TCq2    O6  468   3.794   0.698  14.178  0.6691  0.1916 -0.7279
   30TCq2    H2  469   3.875   0.486  14.136 -0.8061  0.7907 -2.3440
   30TCq2    H3  470   4.168   0.788  14.160 -1.8013  0.2980  0.2594
   30TCq2    H4  471   4.281   0.402  14.023  1.0624  1.4637 -0.4220
   31MPD2     C  472   2.343   4.090  14.800  0.5340  0.1307 -0.7692
   31MPD2    C1  473   2.225   4.104  14.730 -0.6979  0.4036 -0.7729
   31MPD2    C2  474   2.109   4.060  14.783 -0.2156 -0.3743 -0.2336
   31MPD2    C3  475   2.109   3.994  14.904  0.1527  0.1544  0.4382
   31MPD2    C4  476   2.222   3.988  14.976  0.1923  0.6080 -0.4030
   31MPD2    C5  477   2.345   4.024  14.922 -0.3545  0.4896 -0.2069
   31MPD2     H  478   2.014   4.073  14.732 -0.8138 -1.0679  0.6869
   31MPD2    H1  479   2.219   3.942  15.074  1.1435  0.6277 -0.3580
   31MPD2    H2  480   2.436   4.134  14.765  0.6102  0.6041  0.0363
   31MPD2    H3  481   2.435   4.013  14.981 -1.3981  0.9988  1.4871
   31MPD2     N  482   1.991   3.928  14.957 -0.2529 -0.4173  0.2151
   31MPD2    H5  483   1.994   3.890  15.051  0.3257 -1.9380 -0.4276
   31MPD2    N1  484   2.225   4.189  14.614  0.5245  0.1925  0.1325
   31MPD2    H7  485   2.311   4.238  14.590  0.8461 -0.7751 -0.6927
   32TCq2    C1  486   1.864   3.926  14.896  0.6897 -0.1449 -0.1686
   32TCq2    O2  487   1.830   3.957  14.779 -0.0776 -0.2175 -0.2574
   32TCq2    C2  488   1.769   3.843  14.975  0.9567  0.3818 -0.6574
   32TCq2    C3  489   1.637   3.833  14.932 -0.5079  0.0324  0.0360
   32TCq2    C4  490   1.555   3.735  14.985  0.1532 -0.6006 -0.3510
   32TCq2    C5  491   1.600   3.646  15.072  0.1226  0.3556 -0.0837
   32TCq2    C6  492   1.723   3.660  15.121  1.1002  0.0992  0.0581
   32TCq2    C7  493   1.813   3.759  15.076 -0.0267  0.0961  0.8112
   32TCq2    C8  494   1.757   3.598  15.246 -0.1347  0.0088  0.2165
   32TCq2    O4  495   1.873   3.601  15.287 -0.4013 -0.3462  0.5467
   32TCq2    C9  496   1.415   3.732  14.935 -0.6421 -0.2071  0.1525
   32TCq2    O5  497   1.383   3.810  14.847  0.3288  0.3445 -0.0038
   32TCq2    O6  498   1.328   3.691  15.016 -0.2276 -0.6426  0.3291
   32TCq2    H2  499   1.598   3.901  14.858 -1.5307 -2.4474 -1.6946
   32TCq2    H3  500   1.549   3.551  15.081 -0.1972  0.4662 -0.7398
   32TCq2    H4  501   1.913   3.757  15.118  0.5784 -1.8450 -0.7340
   33MPD2     C  502   1.749   2.014  10.951  0.5750 -0.4431 -0.5121
   33MPD2    C1  503   1.742   1.892  11.015 -0.6020 -0.1777  0.3195
   33MPD2    C2  504   1.735   1.783  10.933  0.2790 -0.2393  1.1536
   33MPD2    C3  505   1.755   1.795  10.796  0.4195 -0.3980 -0.3292
   33MPD2    C4  506   1.783   1.917  10.738 -0.9520 -0.2962  0.3577
   33MPD2    C5  507   1.774   2.028  10.822  0.6158  0.0169 -0.5570
   33MPD2     H  508   1.696   1.690  10.974 -0.9479  0.0335  0.6181
   33MPD2    H1  509   1.804   1.928  10.632 -2.3394 -1.0116  0.0119
   33MPD2    H2  510   1.724   2.104  11.005  1.9499 -1.6754  2.1714
   33MPD2    H3  511   1.790   2.128  10.785  2.4743 -0.6532 -1.5897
   33MPD2     N  512   1.739   1.688  10.710  0.0719 -0.3679  0.1854
   33MPD2    H5  513   1.718   1.702  10.612  2.0739  2.8111  0.2055
   33MPD2    N1  514   1.708   1.883  11.150  0.2367  0.2421  0.4224
   33MPD2    H7  515   1.691   1.973  11.195 -1.3872 -0.5647  1.4424
   34TCq2    C1  516   1.705   1.557  10.741  0.1617 -0.1043 -0.2262
   34TCq2    O2  517   1.695   1.500  10.851 -0.8802 -0.0440  0.3972
   34TCq2    C2  518   1.645   1.492  10.627 -0.4887  0.6232  0.1117
   34TCq2    C3  519   1.525   1.424  10.652  0.4827 -0.8567 -0.4209
   34TCq2    C4  520   1.454   1.375  10.541  0.0931  0.1832 -0.4796
   34TCq2    C5  521   1.493   1.393  10.416 -0.0400 -0.0836  0.4025
   34TCq2    C6  522   1.606   1.469  10.401 -0.7295  0.0963 -0.0411
   34TCq2    C7  523   1.687   1.517  10.502  0.0637 -1.1167  0.1901
   34TCq2    C8  524   1.653   1.495  10.263 -0.5303  0.1339 -0.5318
   34TCq2    O4  525   1.751   1.566  10.247 -0.0536  0.0285 -0.1324
   34TCq2    C9  526   1.323   1.322  10.566 -0.5288 -0.1754  0.4938
   34TCq2    O5  527   1.287   1.345  10.687  0.3889 -0.2966 -0.4510
   34TCq2    O6  528   1.252   1.296  10.470  0.3996 -0.2486 -0.4630
   34TCq2    H2  529   1.487   1.401  10.751  2.4196 -2.9332 -0.1610
   34TCq2    H3  530   1.444   1.336  10.338  1.6433 -0.6787 -0.2304
   34TCq2    H4  531   1.779   1.567  10.473 -1.1837  1.0725  0.0110
   35MPD2     C  532   3.236   3.186  11.754  0.0559  0.9367  0.1763
   35MPD2    C1  533   3.206   3.061  11.808 -0.8269 -0.2104  0.3942
   35MPD2    C2  534   3.084   3.000  11.764  0.3471  0.1308 -0.0380
   35MPD2    C3  535   2.999   3.078  11.685 -0.7350  1.1015 -0.5452
   35MPD2    C4  536   3.030   3.201  11.633 -0.7510 -0.2479  0.3875
   35MPD2    C5  537   3.154   3.251  11.670  0.6958 -0.2369 -0.0350
   35MPD2     H  538   3.062   2.901  11.802  0.2458  1.1040  2.4094
   35MPD2    H1  539   2.965   3.261  11.571  0.4968 -1.6673 -2.3210
   35MPD2    H2  540   3.327   3.240  11.776  1.0721 -0.3769 -0.8274
   35MPD2    H3  541   3.194   3.342  11.627 -0.8925 -0.2099 -1.4274
   35MPD2     N  542   2.866   3.026  11.671  0.5565 -0.5217 -0.0126
   35MPD2    H5  543   2.839   2.946  11.727  1.0649  0.4774  1.6694
   35MPD2    N1  544   3.293   2.994  11.895  0.1692 -0.3317 -0.1290
   35MPD2    H7  545   3.381   3.039  11.918  0.3845  0.4409 -2.5143
   36TCq2    C1  546   2.769   3.065  11.587  0.0547  0.0038 -0.0680
   36TCq2    O2  547   2.767   3.149  11.495  0.5706  0.2251  0.6795
   36TCq2    C2  548   2.648   2.982  11.605  0.6384  0.4801 -0.2143
   36TCq2    C3  549   2.577   2.946  11.493  0.5521  0.1838  0.0062
   36TCq2    C4  550   2.475   2.851  11.507 -0.6620 -0.4260 -0.0937
   36TCq2    C5  551   2.463   2.790  11.628 -0.3369 -0.0811  0.1042
   36TCq2    C6  552   2.544   2.821  11.732 -0.0214  0.3494 -0.1797
   36TCq2    C7  553   2.633   2.926  11.723  0.6522  0.0169  0.3444
   36TCq2    C8  554   2.577   2.709  11.814 -0.2684  1.0658  0.4872
   36TCq2    O4  555   2.512   2.608  11.807  0.0267  0.1536  0.2785
   36TCq2    C9  556   2.401   2.805  11.391  0.0111  0.4284  0.5322
   36TCq2    O5  557   2.295   2.743  11.407  0.3974 -0.5428 -0.3643
   36TCq2    O6  558   2.487   2.767  11.305  0.2164  0.2483 -0.0835
   36TCq2    H2  559   2.586   2.988  11.393 -1.0636  1.9092  0.6152
   36TCq2    H3  560   2.387   2.712  11.627 -0.2128 -0.1883 -0.9833
   36TCq2    H4  561   2.671   2.964  11.817  0.9466  0.8029 -0.0978
   37TMC2    C1  562   0.245   3.175  11.693 -1.4711 -0.0168  0.4667
   37TMC2    C2  563   0.252   3.268  11.598 -0.4053  0.2812  0.2894
   37TMC2    C3  564   0.369   3.302  11.542  0.7283 -0.0070  0.1574
   37TMC2    C4  565   0.361   3.130  11.750 -0.2803 -0.5459  0.0716
   37TMC2    C5  566   0.474   3.186  11.703  0.4123 -0.2512 -0.0332
   37TMC2    C6  567   0.485   3.269  11.594 -0.0507 -0.0830  1.0111
   37TMC2     C  568   0.126   3.179  11.772 -0.1135  0.4691  0.3212
   37TMC2     O  569   0.015   3.203  11.718 -0.2455 -0.6548  0.9351
   37TMC2     H  570   0.159   3.303  11.554  0.9681  0.6335 -2.2769
   37TMC2    H1  571   0.348   3.044  11.815 -0.7388  0.0687  0.7942
   37TMC2    H2  572   0.574   3.312  11.548 -0.5774  0.1758  0.2276
   37TMC2    C7  573   0.596   3.133  11.769 -0.3616 -0.7490 -0.3113
   37TMC2    C8  574   0.359   3.355  11.404 -0.0148 -0.1016  0.3300
   37TMC2    O1  575   0.587   3.074  11.875 -0.2374  0.4958 -0.0113
   37TMC2    O2  576   0.455   3.333  11.327  0.1288 -0.2144 -0.2370
   37TMC2    O5  577   0.251   3.436  11.384  0.1297 -0.0760  0.3167
   37TMC2    H5  578   0.191   3.457  11.458 -1.7080 -2.9235 -0.3313
   38MPD2     C  579   4.632   3.092  12.212 -0.3388 -0.0474 -0.2970
   38MPD2    C1  580   0.045   3.110  12.237 -0.5058 -0.0475  0.8154
   38MPD2    C2  581   0.124   3.145  12.134 -0.0743  0.0926  0.0279
   38MPD2    C3  582   0.069   3.176  12.013  0.4727 -0.6975  0.6405
   38MPD2    C4  583   4.654   3.182  11.998  0.3833 -0.4162  0.2915
   38MPD2    C5  584   4.574   3.144  12.102  0.3672 -0.3761  0.3085
   38MPD2     H  585   0.227   3.130  12.164 -0.1942  1.3434  1.0460
   38MPD2    H1  586   4.604   3.212  11.906 -0.4574  0.1613  0.9408
   38MPD2    H2  587   4.563   3.042  12.280 -0.2063  0.6135  0.3233
   38MPD2    H3  588   4.468   3.137  12.083  0.6447 -0.9993 -1.0155
   38MPD2     N  589   0.164   3.186  11.906 -0.0995 -0.3826 -0.7089
   38MPD2    H5  590   0.262   3.194  11.933 -0.5244 -0.2949  0.8483
   38MPD2    N1  591   0.110   3.061  12.353 -0.2997  0.1931 -0.4249
   38MPD2    H7  592   0.211   3.058  12.358 -0.4176 -0.6432  1.2524
   39MPD2     C  593   3.762   4.599   1.252 -0.4146  0.1092 -0.6448
   39MPD2    C1  594   3.676   4.687   1.314 -0.2457 -0.4493 -0.0112
   39MPD2    C2  595   3.544   4.703   1.278 -0.0881 -0.2840 -0.6184
   39MPD2    C3  596   3.495   4.619   1.174 -0.1177  0.4130 -0.4615
   39MPD2    C4  597   3.583   4.527   1.107  0.5106  1.1008  0.0919
   39MPD2    C5  598   3.710   4.512   1.158 -0.1026 -0.4963 -0.0920
   39MPD2     H  599   3.480   0.056   1.321 -1.3555 -0.3213 -2.4376
   39MPD2    H1  600   3.544   4.457   1.035  0.2698 -1.8467  3.0666
   39MPD2    H2  601   3.866   4.593   1.280 -0.3910  0.9718 -0.5644
   39MPD2    H3  602   3.780   4.443   1.114 -0.2362  0.4484 -1.7650
   39MPD2     N  603   3.361   4.624   1.126  0.1687 -0.1882 -0.6430
   39MPD2    H5  604   3.314   4.548   1.078 -0.5814 -0.5043  0.5974
   39MPD2    N1  605   3.738   0.048   1.418  0.5495 -0.4146 -0.2999
   39MPD2    H7  606   3.826   0.011   1.453  0.7373  1.7818  1.4975
   40TCq2    C1  607   3.665   0.148   1.491  0.3859 -0.4463 -0.3509
   40TCq2    O2  608   3.554   0.193   1.469  0.1828  0.0347 -0.3648
   40TCq2    C2  609   3.734   0.213   1.596  0.0712  0.4308 -0.0599
   40TCq2    C3  610   3.671   0.313   1.659  0.1400  0.3962  0.2479
   40TCq2    C4  611   3.739   0.392   1.749  0.7833 -0.3126  0.0570
   40TCq2    C5  612   3.874   0.388   1.757 -0.8147  0.2840 -0.0795
   40TCq2    C6  613   3.939   0.296   1.679 -0.4672  0.1160 -0.8436
   40TCq2    C7  614   3.873   0.219   1.588 -0.1519 -0.6313  0.6414
   40TCq2    C8  615   4.079   0.315   1.637 -0.0717 -0.7881  0.8091
   40TCq2    O4  616   4.121   0.253   1.539  0.2655  0.5473  0.2731
   40TCq2    C9  617   3.662   0.482   1.838  0.0323 -0.5320  0.6532
   40TCq2    O5  618   3.727   0.568   1.906  0.6350 -0.3320  0.7173
   40TCq2    O6  619   3.544   0.444   1.861 -0.3174  0.0758 -0.9803
   40TCq2    H2  620   3.568   0.344   1.648  0.4470  1.1539 -0.4256
   40TCq2    H3  621   3.928   0.447   1.830  0.4829  0.2201 -0.9919
   40TCq2    H4  622   3.929   0.134   1.550  0.4908 -0.3044  0.8553
   41TMC2    C1  623   2.432   3.434  12.876 -0.4532 -0.7875 -0.5473
   41TMC2    C2  624   2.455   3.568  12.895 -0.1857 -0.5790 -0.0263
   41TMC2    C3  625   2.556   3.618  12.821  0.0246  0.0617 -0.1058
   41TMC2    C4  626   2.486   3.357  12.778  0.4208  0.4949 -0.7497
   41TMC2    C5  627   2.585   3.414  12.711  0.3908 -0.2633 -0.0290
   41TMC2    C6  628   2.622   3.544  12.732 -0.1098  0.0834 -0.1755
   41TMC2     C  629   2.340   3.377  12.975 -0.0764  0.0086  0.0559
   41TMC2     O  630   2.252   3.307  12.930  0.1438 -1.1535  0.4155
   41TMC2     H  631   2.400   3.622  12.971 -0.5292 -0.6378 -0.2342
   41TMC2    H1  632   2.480   3.249  12.787  0.8868  0.2985 -2.9885
   41TMC2    H2  633   2.709   3.589  12.687 -1.9872  0.8127 -3.0935
   41TMC2    C7  634   2.688   3.329  12.653  0.1061 -0.3017  0.5696
   41TMC2    C8  635   2.572   3.763  12.827  0.4528  0.1994 -0.2042
   41TMC2    O1  636   2.803   3.368  12.670  0.0146  0.4351  0.0065
   41TMC2    O2  637   2.517   3.834  12.908 -0.5436  0.1779  0.4748
   41TMC2    O5  638   2.592   3.801  12.699 -0.6367  0.5625 -0.0296
   41TMC2    H5  639   2.622   3.732  12.636  1.1239 -0.0855  1.5078
   42MPD2     C  640   2.207   3.285  13.225 -0.4341  0.4231  0.2665
   42MPD2    C1  641   2.325   3.354  13.218 -0.1942  1.2428  0.0507
   42MPD2    C2  642   2.394   3.379  13.337  0.2116 -0.3665 -0.6129
   42MPD2    C3  643   2.347   3.339  13.463  0.3694 -0.1907 -0.0110
   42MPD2    C4  644   2.222   3.291  13.462  0.3763  0.5656  0.3506
   42MPD2    C5  645   2.154   3.256  13.352 -0.4610  0.1574  0.1078
   42MPD2     H  646   2.488   3.432  13.327 -0.5370  1.1386  0.4235
   42MPD2    H1  647   2.175   3.257  13.554 -0.2254 -2.6776 -1.1688
   42MPD2    H2  648   2.146   3.254  13.141 -1.7421  0.8913  1.0425
   42MPD2    H3  649   2.067   3.193  13.371  0.0716 -1.1742 -1.8515
   42MPD2     N  650   2.429   3.352  13.580 -0.1941  0.2182  0.7922
   42MPD2    H5  651   2.381   3.319  13.664 -1.0036  0.5688  0.4578
   42MPD2    N1  652   2.384   3.396  13.099 -0.4843  0.0787 -0.5759
   42MPD2    H7  653   2.465   3.457  13.104 -0.7417  0.3908 -0.1304
   43MPD2     C  654   3.979   1.608   0.662  0.3921  0.4844 -0.1145
   43MPD2    C1  655   4.039   1.590   0.789  0.5006 -0.3455  0.4460
   43MPD2    C2  656   3.957   1.580   0.899 -0.3278 -0.6312 -0.5655
   43MPD2    C3  657   3.817   1.572   0.889  0.4190  0.3021  0.7108
   43MPD2    C4  658   3.758   1.577   0.769  0.1887  0.4031 -0.3827
   43MPD2    C5  659   3.838   1.607   0.659 -0.2137  0.0683  0.0891
   43MPD2     H  660   4.002   1.561   0.995 -0.4129  0.8486 -0.2318
   43MPD2    H1  661   3.651   1.579   0.753 -0.1305  0.3272  1.7640
   43MPD2    H2  662   4.036   1.617   0.570 -0.0196  1.0312 -0.3181
   43MPD2    H3  663   3.805   1.630   0.559 -1.1380  0.1215  0.3995
   43MPD2     N  664   3.735   1.556   0.998  0.0394 -0.2126 -0.5446
   43MPD2    H5  665   3.642   1.521   0.976 -0.5307  1.2641 -0.4590
   43MPD2    N1  666   4.184   1.564   0.803 -0.1017 -0.2536 -0.3024
   43MPD2    H7  667   4.225   1.540   0.893  1.3689 -2.4401 -1.5689
   44TCq2    C1  668   3.673   1.580   1.595 -0.6352 -0.5347 -0.1604
   44TCq2    O2  669   3.787   1.614   1.600 -0.2169 -0.0732 -0.4195
   44TCq2    C2  670   3.624   1.553   1.460 -0.6379 -0.0452  0.1230
   44TCq2    C3  671   3.490   1.552   1.438  0.6231 -0.2614 -0.1598
   44TCq2    C4  672   3.444   1.552   1.303 -0.5713  0.2593  0.2129
   44TCq2    C5  673   3.534   1.556   1.202  0.0428 -0.2984 -0.5319
   44TCq2    C6  674   3.671   1.558   1.231 -0.0477  0.0888 -0.5562
   44TCq2    C7  675   3.718   1.562   1.361 -0.4846 -0.6146  0.2350
   44TCq2    C8  676   3.776   1.578   1.126 -0.0471  0.0696  0.2293
   44TCq2    O4  677   3.883   1.611   1.178 -0.3039 -0.5438  0.0873
   44TCq2    C9  678   3.305   1.553   1.271 -0.0287  0.0483  0.0426
   44TCq2    O5  679   3.221   1.563   1.367 -0.2042 -0.7987  0.1705
   44TCq2    O6  680   3.280   1.528   1.154 -0.0944  0.1347  0.6883
   44TCq2    H2  681   3.412   1.553   1.513 -0.2702  1.5896 -1.1114
   44TCq2    H3  682   3.494   1.572   1.103 -0.5081 -0.5017 -0.3404
   44TCq2    H4  683   3.826   1.561   1.376 -0.4154 -1.4057 -0.2965
   45TMC2    C1  684   4.520   3.179   9.314  0.2073  0.2353  0.1853
   45TMC2    C2  685   4.483   3.194   9.178  0.4703  0.2500 -0.6495
   45TMC2    C3  686   4.582   3.226   9.094 -0.3345 -0.1062  0.4650
   45TMC2    C4  687   4.646   3.223   9.351 -0.1318 -0.8305 -0.5949
   45TMC2    C5  688   0.014   3.263   9.259 -0.0748  0.3078 -0.3602
   45TMC2    C6  689   4.705   3.264   9.126  0.4564 -0.5109  0.1482
   45TMC2     C  690   4.454   3.064   9.385 -0.2861 -0.6693  0.2395
   45TMC2     O  691   4.489   3.059   9.504 -0.0733 -0.1986  0.6941
   45TMC2     H  692   4.381   3.178   9.145 -0.2694  0.5779  1.4626
   45TMC2    H1  693   4.667   3.228   9.458  0.6462 -2.9740 -0.6572
   45TMC2    H2  694   0.064   3.286   9.058  0.1912  0.3429  0.1114
   45TMC2    C7  695   0.132   3.332   9.305  0.4717 -0.0380  0.4569
   45TMC2    C8  696   4.563   3.203   8.945 -0.0173 -0.1230 -0.0198
   45TMC2    O1  697   0.216   3.346   9.215  0.1204  0.4811  0.1824
   45TMC2    O2  698   4.645   3.245   8.868  0.3708  0.0697  0.4719
   45TMC2    O5  699   4.441   3.168   8.920 -0.4082 -0.3317  0.4467
   45TMC2    H5  700   4.385   3.133   8.992  0.7520 -0.1862  1.4089
   46MPD2     C  701   4.342   2.811   9.473  0.1511  0.0850  0.0686
   46MPD2    C1  702   4.311   2.867   9.352 -0.2269 -0.7643 -0.3029
   46MPD2    C2  703   4.215   2.800   9.269  0.0647  0.3266 -0.3378
   46MPD2    C3  704   4.163   2.682   9.310  0.3507  0.4918  0.2996
   46MPD2    C4  705   4.202   2.623   9.427  0.6393  0.1206  1.0625
   46MPD2    C5  706   4.289   2.686   9.513 -0.0861  0.6654  0.2348
   46MPD2     H  707   4.189   2.831   9.168  0.3706  0.2225 -0.4494
   46MPD2    H1  708   4.156   2.531   9.463 -1.7255  1.5540  1.6902
   46MPD2    H2  709   4.413   2.853   9.544  3.4052 -1.5959 -2.1861
   46MPD2    H3  710   4.310   2.645   9.611  1.6024  1.8870  0.3783
   46MPD2     N  711   4.049   2.637   9.240  0.4358  0.0413  0.4582
   46MPD2    H5  712   4.000   2.698   9.176 -0.1696 -0.9173  0.0136
   46MPD2    N1  713   4.363   2.992   9.307 -0.1685 -0.0046 -0.4646
   46MPD2    H7  714   4.346   3.016   9.210  0.3183  0.3926 -0.4530
   47TMC2    C1  715   2.149   3.680   9.625 -0.4192  0.2502 -0.3302
   47TMC2    C2  716   2.131   3.813   9.604  0.3970 -0.8433 -0.5648
   47TMC2    C3  717   2.025   3.850   9.520 -0.4272 -0.2893  0.1546
   47TMC2    C4  718   2.073   3.586   9.560  0.6472  0.1316 -0.6799
   47TMC2    C5  719   1.975   3.629   9.479  0.4411  0.5107 -0.1966
   47TMC2    C6  720   1.947   3.757   9.458 -0.1322  1.0086  0.1093
   47TMC2     C  721   2.236   3.648   9.739  0.6434 -0.0581  0.0783
   47TMC2     O  722   2.286   3.742   9.799  0.1831 -0.8407 -0.7148
   47TMC2     H  723   2.188   3.883   9.664 -0.2284 -1.3046  0.5675
   47TMC2    H1  724   2.086   3.478   9.567  0.8481  0.1139 -1.4222
   47TMC2    H2  725   1.887   3.783   9.372 -1.4042  1.5390  1.1543
   47TMC2    C7  726   1.894   3.535   9.412 -0.2490  0.3064 -0.2793
   47TMC2    C8  727   1.971   3.981   9.532  0.0294  0.6133  0.1907
   47TMC2    O1  728   1.942   3.426   9.396  1.1116 -0.4196 -0.2916
   47TMC2    O2  729   2.038   4.065   9.594  0.5110  0.3719 -0.7685
   47TMC2    O5  730   1.834   3.969   9.549 -0.4278 -0.0502  0.3457
   47TMC2    H5  731   1.794   3.882   9.527 -0.3718 -0.1807  0.7550
   48MPD2     C  732   2.390   3.542   9.966  0.0262 -0.2852  0.1894
   48MPD2    C1  733   2.327   3.464   9.871 -0.8570 -0.2959 -0.3925
   48MPD2    C2  734   2.342   3.325   9.885  0.0306  0.2626 -0.0163
   48MPD2    C3  735   2.410   3.271   9.992  0.3170  0.2636  0.1494
   48MPD2    C4  736   2.469   3.354  10.080 -0.7488 -0.1237  0.4002
   48MPD2    C5  737   2.444   3.489  10.071 -0.8700  0.6576 -0.1410
   48MPD2     H  738   2.322   3.254   9.805 -0.3107  1.6207 -1.1413
   48MPD2    H1  739   2.521   3.317  10.167 -1.4708  0.3867  1.0519
   48MPD2    H2  740   2.384   3.651   9.965 -0.4769 -0.3008  3.4647
   48MPD2    H3  741   2.495   3.549  10.146 -0.2418  1.4168 -1.1708
   48MPD2     N  742   2.414   3.129   9.992  0.9273  0.0518 -0.1739
   48MPD2    H5  743   2.362   3.091   9.915 -0.0050 -0.0491  0.5084
   48MPD2    N1  744   2.248   3.515   9.764 -0.8915  0.1602  0.2277
   48MPD2    H7  745   2.207   3.445   9.703  0.7097  2.6928 -3.7654
   49MPD2     C  746   0.243   1.352   9.808  0.3067 -0.2332 -0.7001
   49MPD2    C1  747   0.224   1.243   9.891 -0.0713 -1.3658 -0.4037
   49MPD2    C2  748   0.263   1.248  10.018 -0.1278 -0.4000  0.0080
   49MPD2    C3  749   0.340   1.351  10.064  0.3568  0.5509  0.2936
   49MPD2    C4  750   0.362   1.461   9.980 -0.1704 -0.0612 -0.4927
   49MPD2    C5  751   0.304   1.462   9.860 -0.2176 -0.1477  0.2566
   49MPD2     H  752   0.240   1.161  10.079 -0.8986 -0.7337 -0.7548
   49MPD2    H1  753   0.423   1.544  10.016 -0.5819  0.3783 -0.7983
   49MPD2    H2  754   0.205   1.365   9.707  0.9006  0.6572 -0.8029
   49MPD2    H3  755   0.313   1.551   9.799 -2.2580 -0.1893 -0.1312
   49MPD2     N  756   0.404   1.350  10.192  0.1285  0.3005 -0.4614
   49MPD2    H5  757   0.466   1.428  10.210  0.5219  0.3896 -2.1790
   49MPD2    N1  758   0.174   1.117   9.839  0.2669  0.0776 -0.4304
   49MPD2    H7  759   0.162   1.038   9.902 -0.6483  1.3762  1.0154
   50TCq2    C1  760   0.139   1.089   9.707  0.6731 -0.4604  0.7070
   50TCq2    O2  761   0.112   1.170   9.620 -0.4699 -0.2556 -0.1282
   50TCq2    C2  762   0.105   0.949   9.687  0.6436  0.3379 -0.5271
   50TCq2    C3  763   0.033   0.930   9.575  0.6812  0.0417  0.4327
   50TCq2    C4  764   4.677   0.821   9.559 -0.1663 -0.8059  0.7885
   50TCq2    C5  765   4.664   0.734   9.665 -0.1362 -0.0030  0.1937
   50TCq2    C6  766   0.007   0.761   9.783  0.5809 -0.6126 -0.1053
   50TCq2    C7  767   0.096   0.867   9.797 -0.1498 -0.0766  0.2193
   50TCq2    C8  768   0.008   0.667   9.897 -0.4361 -0.0120 -0.2436
   50TCq2    O4  769   0.085   0.699   9.991 -0.4872 -0.2891 -0.2000
   50TCq2    C9  770   4.628   0.788   9.430  0.0706 -0.3550 -0.0913
   50TCq2    O5  771   4.594   0.672   9.399  0.7257  0.5566  0.0708
   50TCq2    O6  772   4.657   0.864   9.337  0.2352 -0.0772  0.3093
   50TCq2    H2  773   0.030   1.002   9.494  2.2727  0.3355  0.6377
   50TCq2    H3  774   4.599   0.649   9.647 -0.8233  0.6762 -0.5360
   50TCq2    H4  775   0.159   0.873   9.885  2.0405 -0.5062 -1.3063
   51MPD2     C  776   0.913   4.474   0.999  0.2323  0.1458  0.7084
   51MPD2    C1  777   0.889   4.342   0.968  0.1105  0.4028  0.1248
   51MPD2    C2  778   0.928   4.244   1.054 -0.3586 -0.2640  0.3124
   51MPD2    C3  779   0.998   4.265   1.170  0.5005  0.3997  0.3491
   51MPD2    C4  780   1.019   4.397   1.201  0.1835 -0.3874  0.3298
   51MPD2    C5  781   0.981   4.494   1.113 -0.9034  0.9145 -0.2558
   51MPD2     H  782   0.919   4.138   1.031 -1.6566 -0.3509  1.2630
   51MPD2    H1  783   1.079   4.421   1.287  0.8410 -2.1600  0.3514
   51MPD2    H2  784   0.916   4.552   0.924 -0.0851 -2.1378 -1.6747
   51MPD2    H3  785   1.002   4.596   1.142  1.4018 -0.0018  1.2677
   51MPD2     N  786   1.057   4.172   1.252  0.4879  0.4964 -0.5423
   51MPD2    H5  787   1.129   4.205   1.315 -1.1311 -0.9445  2.0768
   51MPD2    N1  788   0.845   4.289   0.842 -0.2177 -0.0001  0.0111
   51MPD2    H7  789   0.825   4.190   0.850 -0.7978  0.0941 -0.3186
   52TCq2    C1  790   1.026   4.035   1.245  0.2168  0.3396  0.0985
   52TCq2    O2  791   0.931   3.983   1.194 -0.5779 -0.0114 -0.2624
   52TCq2    C2  792   1.107   3.951   1.334 -0.4145 -0.5618  0.4885
   52TCq2    C3  793   1.057   3.826   1.369 -0.3581  0.3114  0.0643
   52TCq2    C4  794   1.144   3.747   1.438  0.2439  0.3377  0.5666
   52TCq2    C5  795   1.271   3.792   1.464 -0.0448  0.2885 -0.0082
   52TCq2    C6  796   1.318   3.911   1.418  0.1159 -0.1926 -0.8994
   52TCq2    C7  797   1.236   3.998   1.357  0.5292 -0.3797  0.1694
   52TCq2    C8  798   1.459   3.948   1.423 -0.3486 -0.8571 -0.2362
   52TCq2    O4  799   1.484   4.056   1.375  0.3199 -0.3073 -0.2392
   52TCq2    C9  800   1.096   3.627   1.501  0.0482 -0.6809 -0.0785
   52TCq2    O5  801   1.189   3.547   1.513 -0.0437  0.0134 -0.0614
   52TCq2    O6  802   0.974   3.612   1.517  0.8486  0.0746  0.1539
   52TCq2    H2  803   0.953   3.800   1.354  0.0053 -0.8161 -0.4506
   52TCq2    H3  804   1.332   3.721   1.520  0.2017  1.2590  0.9482
   52TCq2    H4  805   1.275   4.096   1.331 -0.7494 -0.2798 -1.4041
   53TMC2    C1  806   1.160   3.004  12.222 -0.3734 -0.2282  0.6771
   53TMC2    C2  807   1.196   2.881  12.270  0.5225  0.7697  0.7836
   53TMC2    C3  808   1.160   2.855  12.404  0.3896  0.4107  0.2912
   53TMC2    C4  809   1.094   3.096  12.301 -0.6053 -0.1533  0.4139
   53TMC2    C5  810   1.069   3.079  12.431  0.7695  0.3772  0.2700
   53TMC2    C6  811   1.090   2.952  12.481 -1.1521  0.1625 -0.2032
   53TMC2     C  812   1.160   3.008  12.078 -0.2268 -0.7650 -0.3646
   53TMC2     O  813   1.254   2.943  12.033  0.3366  0.4010  0.0596
   53TMC2     H  814   1.219   2.794  12.211  1.6709  0.7223  1.2957
   53TMC2    H1  815   1.073   3.188  12.248 -0.3844 -0.3060  0.0592
   53TMC2    H2  816   1.061   2.938  12.584 -0.3585  1.2276  0.1627
   53TMC2    C7  817   0.951   3.155  12.473  0.0124  0.2228 -0.6149
   53TMC2    C8  818   1.237   2.755  12.470 -0.4275 -0.3306 -0.7673
   53TMC2    O1  819   0.904   3.228  12.388  0.2883 -0.2206  0.1734
   53TMC2    O2  820   1.302   2.669  12.406  0.0747  0.0940  0.2076
   53TMC2    O5  821   1.207   2.764  12.608  0.6397 -0.0637 -0.2346
   53TMC2    H5  822   1.258   2.693  12.653  0.2848 -1.7295 -2.4151
   54MPD2     C  823   1.100   3.066  11.805 -0.2604  0.4587  0.5941
   54MPD2    C1  824   1.002   3.049  11.901 -0.2697 -0.2017 -0.3878
   54MPD2    C2  825   0.874   3.063  11.861 -0.5907  0.2742 -0.2408
   54MPD2    C3  826   0.838   3.105  11.730 -0.0237 -0.0977  0.6331
   54MPD2    C4  827   0.937   3.125  11.637  0.5017 -0.1066 -0.0943
   54MPD2    C5  828   1.065   3.097  11.674  0.9187 -0.2250 -0.2677
   54MPD2     H  829   0.800   3.040  11.938 -0.2065  0.9104  0.3174
   54MPD2    H1  830   0.919   3.152  11.533 -0.4825 -1.2635 -0.2240
   54MPD2    H2  831   1.205   3.048  11.825 -0.2269 -0.2434 -0.2208
   54MPD2    H3  832   1.156   3.128  11.623  0.6687  0.4649 -0.2874
   54MPD2     N  833   0.708   3.140  11.691  0.0624 -0.1793  0.2169
   54MPD2    H5  834   0.691   3.173  11.597  0.2206 -2.2302 -0.5325
   54MPD2    N1  835   1.034   3.039  12.032 -0.1191 -0.1232 -0.3292
   54MPD2    H7  836   0.961   3.037  12.102 -0.5415  0.3615 -0.7543
   55MPD2     C  837   1.987   0.750   0.008 -0.0597  0.7025  0.3758
   55MPD2    C1  838   1.899   0.688   0.099  0.9172 -0.6730  0.1868
   55MPD2    C2  839   1.800   0.769   0.161 -0.7947  0.2294  0.5321
   55MPD2    C3  840   1.785   0.901   0.118  1.0684  0.2176  1.4451
   55MPD2    C4  841   1.859   0.949   0.015  0.1882  0.0969 -0.0033
   55MPD2    C5  842   1.956   0.876  17.641  0.7662  0.1827 -0.0437
   55MPD2     H  843   1.745   0.741   0.250 -0.6668  0.9726  0.8529
   55MPD2    H1  844   1.842   1.049  17.669 -1.2226  0.1840  0.8611
   55MPD2    H2  845   2.069   0.693  17.659 -0.6075 -2.0758  3.1383
   55MPD2    H3  846   2.028   0.918  17.572 -0.3240 -0.0653 -1.3336
   55MPD2     N  847   1.685   0.983   0.172 -0.2280  0.4049  0.2628
   55MPD2    H5  848   1.614   0.936   0.227 -0.4149 -0.6686 -0.8993
   55MPD2    N1  849   1.943   0.569   0.143  0.6563 -0.5708  0.2951
   55MPD2    H7  850   2.035   0.540   0.113  0.7029  1.6481 -1.7653
   56TCq2    C1  851   1.864   0.481   0.207 -0.0914 -0.1795  0.3248
   56TCq2    O2  852   1.745   0.485   0.238 -0.2992 -0.0890  0.3456
   56TCq2    C2  853   1.939   0.358   0.236  0.7132 -0.2914 -0.2306
   56TCq2    C3  854   2.068   0.344   0.187  0.0616  0.2734 -0.3863
   56TCq2    C4  855   2.130   0.235   0.232 -0.1784  0.6977  0.5651
   56TCq2    C5  856   2.079   0.143   0.318 -0.6116  0.8782  0.3515
   56TCq2    C6  857   1.955   0.163   0.365  0.1054 -0.6891 -0.7152
   56TCq2    C7  858   1.883   0.275   0.326 -0.2840 -0.2620 -0.1085
   56TCq2    C8  859   1.894   0.062   0.447  0.9611  0.3699 -0.0008
   56TCq2    O4  860   1.938   4.670   0.428  0.1106  0.0278 -0.1032
   56TCq2    C9  861   2.268   0.213   0.184  0.0819  0.8415  0.2872
   56TCq2    O5  862   2.325   0.119   0.248 -0.3277 -0.4316  0.2088
   56TCq2    O6  863   2.316   0.308   0.111 -0.0004  0.2432 -0.1722
   56TCq2    H2  864   2.117   0.409   0.116  0.2323 -0.2771 -0.7734
   56TCq2    H3  865   2.143   0.063   0.354 -1.1615 -0.7279 -2.1792
   56TCq2    H4  866   1.782   0.290   0.363 -0.1152  0.7434 -0.0629
   57TMC2    C1  867   0.944   1.962  13.906 -0.4092 -0.1533 -0.2325
   57TMC2    C2  868   1.026   1.904  14.004  0.3522  0.1288 -0.4605
   57TMC2    C3  869   1.162   1.940  14.012  0.2544  0.8216 -0.7020
   57TMC2    C4  870   1.000   2.025  13.805  0.4544  0.0671  0.2839
   57TMC2    C5  871   1.139   2.040  13.803 -0.5595  0.1318  0.1791
   57TMC2    C6  872   1.216   2.011  13.909 -0.5958 -0.5206 -0.8296
   57TMC2     C  873   0.827   1.884  13.870 -0.4185  0.1924 -0.6122
   57TMC2     O  874   0.813   1.765  13.898  0.4553  0.4345 -0.4607
   57TMC2     H  875   0.985   1.830  14.071 -2.2515  0.5356 -1.6136
   57TMC2    H1  876   0.945   2.052  13.715  2.1147 -0.3597 -0.8556
   57TMC2    H2  877   1.310   2.058  13.935 -0.1223 -1.2227 -1.2672
   57TMC2    C7  878   1.196   2.094  13.679 -1.0056  0.0172  0.4957
   57TMC2    C8  879   1.232   1.934  14.145 -0.6471  0.0112  0.1504
   57TMC2    O1  880   1.128   2.157  13.601 -0.3415 -0.1158 -0.0380
   57TMC2    O2  881   1.200   1.863  14.235  0.1634  0.0119 -0.5154
   57TMC2    O5  882   1.274   2.061  14.170  0.3657 -0.3521 -0.4869
   57TMC2    H5  883   1.243   2.134  14.113  0.9231  0.5444  0.3785
   58MPD2     C  884   0.361   1.878  13.651 -0.4110 -0.2856 -0.6028
   58MPD2    C1  885   0.382   2.005  13.696  0.1173  0.3928  0.3654
   58MPD2    C2  886   0.506   2.038  13.759  0.7259  0.5166 -0.3574
   58MPD2    C3  887   0.601   1.941  13.771 -0.3959 -0.4546  0.1180
   58MPD2    C4  888   0.580   1.814  13.726 -0.1302 -0.6035 -0.2343
   58MPD2    C5  889   0.465   1.783  13.658  0.0404  0.0928 -0.0428
   58MPD2     H  890   0.522   2.134  13.807 -1.8686  0.7202  0.1012
   58MPD2    H1  891   0.657   1.738  13.721  0.3755 -0.1829  1.2071
   58MPD2    H2  892   0.278   1.835  13.596 -0.3816 -0.7391 -0.2949
   58MPD2    H3  893   0.458   1.685  13.612  2.2023  0.1323 -0.4510
   58MPD2     N  894   0.730   1.974  13.817 -0.3066  0.3549  0.5016
   58MPD2    H5  895   0.749   2.073  13.831  0.4740  0.1892  0.6159
   58MPD2    N1  896   0.276   2.104  13.676 -0.2681 -0.1098 -0.4586
   58MPD2    H7  897   0.194   2.065  13.631  0.6348  0.6039 -2.6850
   59MPD2     C  898   3.302   2.025  13.213  0.0372  0.5669  0.0574
   59MPD2    C1  899   3.385   2.038  13.106  0.4638 -0.1129  0.1089
   59MPD2    C2  900   3.503   2.107  13.117 -0.0969 -0.5624  0.5711
   59MPD2    C3  901   3.534   2.157  13.238  0.0251 -0.1948  1.0593
   59MPD2    C4  902   3.454   2.133  13.349  0.0166  0.1700 -0.2427
   59MPD2    C5  903   3.339   2.063  13.338  0.5400  0.5668 -0.1119
   59MPD2     H  904   3.574   2.113  13.036 -3.2211  0.3156 -2.1134
   59MPD2    H1  905   3.479   2.174  13.446 -1.2740 -0.9629  0.5798
   59MPD2    H2  906   3.215   1.961  13.204 -0.7332  1.6086  0.1669
   59MPD2    H3  907   3.269   2.034  13.415  0.4285  1.3126  0.0618
   59MPD2     N  908   3.656   2.232  13.258 -0.1947 -0.4212 -0.2290
   59MPD2    H5  909   3.653   2.292  13.341  1.0230  0.2919 -0.6956
   59MPD2    N1  910   3.367   1.982  12.977 -0.0701  0.7339 -0.1034
   59MPD2    H7  911   3.452   1.975  12.923 -1.5184 -1.3567 -2.1302
   60TCq2    C1  912   3.246   1.923  12.942  0.3616 -0.0282  0.6733
   60TCq2    O2  913   3.141   1.911  13.007 -0.1752 -0.4180  0.1154
   60TCq2    C2  914   3.231   1.881  12.809 -0.6829  0.1430  0.0632
   60TCq2    C3  915   3.117   1.808  12.782 -0.2688 -0.9752  0.0635
   60TCq2    C4  916   3.087   1.781  12.659 -0.4952  0.5645  0.2215
   60TCq2    C5  917   3.162   1.817  12.554 -0.4733  1.0420 -0.1292
   60TCq2    C6  918   3.273   1.895  12.579  0.2762 -0.4810 -0.0630
   60TCq2    C7  919   3.320   1.925  12.708 -0.2746  0.4993 -0.3053
   60TCq2    C8  920   3.361   1.924  12.468 -0.4663  0.5536 -0.2245
   60TCq2    O4  921   3.417   1.832  12.412  0.1940 -0.0099  0.0076
   60TCq2    C9  922   2.973   1.697  12.637 -0.1474 -0.2808  0.5102
   60TCq2    O5  923   2.891   1.686  12.735  0.4092  0.1689 -0.1295
   60TCq2    O6  924   2.963   1.649  12.523 -0.1180  0.2842  0.1283
   60TCq2    H2  925   3.061   1.762  12.863  0.7717  0.6497  1.7079
   60TCq2    H3  926   3.130   1.803  12.452 -2.5458 -2.0498  0.9346
   60TCq2    H4  927   3.404   1.991  12.727  0.0373  0.1760 -0.5717
   61MPD2     C  928   2.938   3.477  14.802 -0.0058 -0.1520  0.3671
   61MPD2    C1  929   3.013   3.577  14.845  0.5141 -0.0882 -0.3610
   61MPD2    C2  930   3.119   3.610  14.764 -0.0540 -0.5247  0.0067
   61MPD2    C3  931   3.146   3.546  14.639 -0.2516  0.0747  0.4315
   61MPD2    C4  932   3.052   3.464  14.593 -0.1573 -0.5788 -0.0833
   61MPD2    C5  933   2.948   3.428  14.678  0.7319  0.5387 -0.1089
   61MPD2     H  934   3.179   3.691  14.804  1.3221 -1.0771 -0.9316
   61MPD2    H1  935   3.038   3.429  14.491  1.1907  0.7649 -0.7289
   61MPD2    H2  936   2.842   3.456  14.848  1.3841 -0.4408  3.1192
   61MPD2    H3  937   2.859   3.376  14.644 -0.5489  2.1076  0.7688
   61MPD2     N  938   3.262   3.581  14.559 -0.5209 -0.0000  0.0699
   61MPD2    H5  939   3.259   3.548  14.463 -1.1037 -3.6961  1.3728
   61MPD2    N1  940   2.993   3.644  14.967 -0.5886 -0.6150 -0.4754
   61MPD2    H7  941   3.053   3.724  14.985 -1.1731 -0.5779  1.3549
   62TCq2    C1  942   2.909   3.602  15.067 -0.2869 -0.1669 -0.3079
   62TCq2    O2  943   2.863   3.491  15.081  0.0870 -0.1741 -0.0322
   62TCq2    C2  944   2.893   3.703  15.169 -0.4758  0.7557  0.1578
   62TCq2    C3  945   2.902   3.659  15.301 -0.4361 -0.9543  0.9929
   62TCq2    C4  946   2.924   3.754  15.397  0.1184 -0.0032  0.1112
   62TCq2    C5  947   2.954   3.887  15.363 -0.1898  0.7550 -0.4596
   62TCq2    C6  948   2.947   3.926  15.231 -0.0171 -0.8422 -0.1375
   62TCq2    C7  949   2.919   3.831  15.138 -0.2931  0.3607 -0.1451
   62TCq2    C8  950   2.946   4.070  15.196  0.6462 -0.7472  0.1581
   62TCq2    O4  951   2.981   4.161  15.271  0.0743  0.5521 -0.4396
   62TCq2    C9  952   2.930   3.716  15.532  0.2211 -0.1031  1.0787
   62TCq2    O5  953   2.932   3.810  15.613 -0.0473  0.2322  0.1532
   62TCq2    O6  954   2.921   3.592  15.557  0.5155  0.3145  0.5677
   62TCq2    H2  955   2.884   3.555  15.325  1.2363 -1.3849  0.3380
   62TCq2    H3  956   2.974   3.967  15.434 -0.8088 -1.6042  2.3317
   62TCq2    H4  957   2.910   3.854  15.033 -1.3320  0.1998 -0.0962
   63TMC2    C1  958   2.035   3.444  11.029  0.5469 -0.2544  0.3288
   63TMC2    C2  959   2.136   3.441  11.126 -0.5005 -0.0179 -0.1862
   63TMC2    C3  960   2.266   3.462  11.086 -0.8403 -0.7176  0.1078
   63TMC2    C4  961   2.059   3.473  10.899  0.4418  0.6940 -0.4115
   63TMC2    C5  962   2.192   3.497  10.868 -0.0497 -0.0726  0.3988
   63TMC2    C6  963   2.299   3.482  10.958 -0.7273  0.5134 -0.3691
   63TMC2     C  964   1.924   3.354  11.045  0.2793  0.4328 -0.7011
   63TMC2     O  965   1.871   3.299  10.946 -0.2531  0.4267 -0.8086
   63TMC2     H  966   2.118   3.427  11.231 -1.6499 -0.7464 -0.4814
   63TMC2    H1  967   1.984   3.464  10.821  0.6234 -0.3042 -0.4798
   63TMC2    H2  968   2.400   3.516  10.939 -0.9462  0.5404 -1.5175
   63TMC2    C7  969   2.218   3.532  10.731  0.6863 -0.4392  0.8433
   63TMC2    C8  970   2.362   3.501  11.183  0.4690  0.0278  0.5278
   63TMC2    O1  971   2.125   3.518  10.653  0.3471 -0.3347  0.0993
   63TMC2    O2  972   2.485   3.492  11.163  0.4157 -0.2918 -0.3292
   63TMC2    O5  973   2.309   3.594  11.266  0.1642 -0.0646  1.0333
   63TMC2    H5  974   2.225   3.629  11.230 -0.0428 -1.1423  0.4365
   64MPD2     C  975   1.760   2.950  11.314  0.2299 -0.1147 -0.3603
   64MPD2    C1  976   1.817   2.962  11.186 -0.3089 -0.3235  0.4544
   64MPD2    C2  977   1.850   3.090  11.147 -0.6524  0.0229 -0.1721
   64MPD2    C3  978   1.835   3.205  11.228  0.0604  0.2976 -0.1966
   64MPD2    C4  979   1.775   3.193  11.348 -0.5536  0.5986  0.1104
   64MPD2    C5  980   1.740   3.062  11.386 -0.0436 -0.3237  0.3897
   64MPD2     H  981   1.899   3.108  11.052  1.8197 -0.8167  0.9576
   64MPD2    H1  982   1.772   3.281  11.411  0.5851 -0.7688  2.0659
   64MPD2    H2  983   1.728   2.859  11.362 -1.2770 -0.0178 -1.1629
   64MPD2    H3  984   1.689   3.053  11.480  1.8630  3.4807  1.7829
   64MPD2     N  985   1.898   3.322  11.184 -0.6774  0.6112 -0.1426
   64MPD2    H5  986   1.927   3.393  11.250 -0.7941 -0.0047  0.5771
   64MPD2    N1  987   1.844   2.850  11.105  1.0108  0.4352 -0.6758
   64MPD2    H7  988   1.906   2.864  11.026  2.4584 -0.3815  0.3277
   65MPD2     C  989   3.351   3.084  15.866 -0.1409 -0.3359 -0.0672
   65MPD2    C1  990   3.388   3.052  15.735  0.3342 -0.1917 -0.4023
   65MPD2    C2  991   3.454   2.929  15.708  0.0229 -0.3882 -0.5271
   65MPD2    C3  992   3.465   2.838  15.815  0.1507  0.3214  0.3789
   65MPD2    C4  993   3.430   2.876  15.946  0.0918 -0.5549 -0.4236
   65MPD2    C5  994   3.376   3.000  15.968  0.4785  0.4167  0.1864
   65MPD2     H  995   3.494   2.911  15.610  1.9347  0.4025  0.1159
   65MPD2    H1  996   3.446   2.804  16.026  1.3813 -1.4104 -1.4558
   65MPD2    H2  997   3.309   3.176  15.903  0.2157 -0.6470  1.1058
   65MPD2    H3  998   3.341   3.033  16.065 -2.1148 -1.5577 -0.0541
   65MPD2     N  999   3.505   2.704  15.787 -0.3919 -0.3920  0.1276
   65MPD2    H5 1000   3.525   2.647  15.869  0.0159 -1.3832 -0.6521
   65MPD2    N1 1001   3.365   3.127  15.622 -0.7045  1.3350 -0.1821
   65MPD2    H7 1002   3.401   3.088  15.535 -1.7490  2.0028 -0.9034
   66TCq2    C1 1003   3.286   3.240  15.621 -0.0436 -0.7362  0.1582
   66TCq2    O2 1004   3.233   3.314  15.705  1.0549  0.2533  0.3976
   66TCq2    C2 1005   3.257   3.274  15.481 -0.3362  0.5578  0.4627
   66TCq2    C3 1006   3.253   3.185  15.385  0.6647 -0.6418 -0.1119
   66TCq2    C4 1007   3.221   3.228  15.258  0.2286  0.0591 -0.1659
   66TCq2    C5 1008   3.217   3.357  15.221  0.0533 -0.1008  0.4641
   66TCq2    C6 1009   3.241   3.450  15.320 -0.0086 -0.6987  0.3855
   66TCq2    C7 1010   3.260   3.410  15.454  0.6055 -0.5549 -0.1552
   66TCq2    C8 1011   3.282   3.585  15.276  0.2549  0.2483  0.3458
   66TCq2    O4 1012   3.260   3.615  15.162  0.3458 -0.6687  0.4300
   66TCq2    C9 1013   3.217   3.130  15.150 -0.4400 -0.0729 -0.2252
   66TCq2    O5 1014   3.188   3.171  15.034  0.0864  0.4402  0.0422
   66TCq2    O6 1015   3.267   3.013  15.169 -0.3050  0.0270 -0.2817
   66TCq2    H2 1016   3.249   3.080  15.410 -0.2128 -1.1336 -2.3737
   66TCq2    H3 1017   3.204   3.378  15.115 -1.0193 -0.9241  0.4335
   66TCq2    H4 1018   3.271   3.477  15.538 -0.0228 -0.7410  0.0779
   67MPD2     C 1019   3.471   2.406  14.227 -0.1468  0.4152 -0.3032
   67MPD2    C1 1020   3.410   2.520  14.261 -0.1934 -0.2289  0.1264
   67MPD2    C2 1021   3.310   2.578  14.177  0.6010 -0.0417 -0.0988
   67MPD2    C3 1022   3.277   2.520  14.053 -0.7654 -0.1496 -0.2950
   67MPD2    C4 1023   3.339   2.405  14.011  0.0304  0.0600  0.5928
   67MPD2    C5 1024   3.439   2.357  14.096 -0.8240 -0.6355  0.2174
   67MPD2     H 1025   3.250   2.666  14.200  1.7916  0.4442  1.1319
   67MPD2    H1 1026   3.308   2.357  13.919  1.3001  0.6922 -0.1624
   67MPD2    H2 1027   3.544   2.351  14.284 -1.3802  0.6308  1.4805
   67MPD2    H3 1028   3.495   2.266  14.078  0.4965  0.6535 -2.1758
   67MPD2     N 1029   3.165   2.563  13.988  0.3303 -0.5500  0.1136
   67MPD2    H5 1030   3.098   2.622  14.035 -2.2631 -1.5893 -2.3180
   67MPD2    N1 1031   3.421   2.584  14.387  0.0071 -0.0506 -0.0562
   67MPD2    H7 1032   3.387   2.679  14.398  0.6273  0.2003 -0.3057
   68TCq2    C1 1033   3.515   2.557  14.478 -0.5861  0.7676 -0.0359
   68TCq2    O2 1034   3.597   2.464  14.481  0.0766  0.3227 -0.4221
   68TCq2    C2 1035   3.507   2.637  14.598 -0.1749 -0.4067 -0.3185
   68TCq2    C3 1036   3.447   2.759  14.596 -0.1927 -0.6049  0.6264
   68TCq2    C4 1037   3.463   2.842  14.700 -0.4739  0.0730  0.5539
   68TCq2    C5 1038   3.547   2.807  14.805  0.5081  0.5618 -0.1729
   68TCq2    C6 1039   3.610   2.693  14.797 -0.2112 -0.2908 -0.3345
   68TCq2    C7 1040   3.591   2.604  14.702  1.1533  0.3348 -0.2541
   68TCq2    C8 1041   3.746   2.671  14.857 -0.3797  0.4392  0.4161
   68TCq2    O4 1042   3.830   2.630  14.779  0.3122  0.2707 -0.4474
   68TCq2    C9 1043   3.401   2.972  14.702 -0.2563  0.0870  0.1007
   68TCq2    O5 1044   3.373   3.015  14.588 -0.0919 -0.4240  0.1231
   68TCq2    O6 1045   3.387   3.025  14.816 -0.2410  1.0957  0.6557
   68TCq2    H2 1046   3.383   2.789  14.514  2.4058 -0.8663 -1.4686
   68TCq2    H3 1047   3.577   2.879  14.880 -0.0599  0.5685  0.0452
   68TCq2    H4 1048   3.641   2.508  14.709  3.2822  1.4093 -0.7217
   69TMC2    C1 1049   4.647   3.892  12.096 -0.0496 -0.8652  0.6062
   69TMC2    C2 1050   4.541   3.824  12.039  0.2900  0.2090 -0.4855
   69TMC2    C3 1051   4.510   3.857  11.906 -0.3074  0.1826 -0.8015
   69TMC2    C4 1052   4.709   3.995  12.038  0.6486  0.3241  0.0524
   69TMC2    C5 1053   4.680   4.027  11.907  0.6814  0.2209 -0.1830
   69TMC2    C6 1054   4.584   3.957  11.840 -0.0835  0.2150  0.0933
   69TMC2     C 1055   4.701   3.843  12.225  0.4338  0.3945 -0.5632
   69TMC2     O 1056   4.623   3.784  12.301 -0.0854  0.2626  0.2721
   69TMC2     H 1057   4.490   3.739  12.082  0.5191 -0.1813 -0.9758
   69TMC2    H1 1058   0.051   4.057  12.098 -0.4104  2.6479 -1.2372
   69TMC2    H2 1059   4.561   3.962  11.734  1.0761  0.3411 -0.1526
   69TMC2    C7 1060   0.080   4.061  11.836  0.0405 -0.4460 -0.0453
   69TMC2    C8 1061   4.426   3.771  11.825  0.5966  0.1441 -0.9068
   69TMC2    O1 1062   0.178   4.060  11.909 -0.2290 -0.0872  0.5696
   69TMC2    O2 1063   4.439   3.749  11.707  0.0141  0.2944  0.1875
   69TMC2    O5 1064   4.313   3.771  11.898  0.4848  0.1033  0.6312
   69TMC2    H5 1065   4.303   3.831  11.976  0.5994  0.7633  0.1409
   70MPD2     C 1066   0.337   3.837  12.287 -0.3368  0.4276 -0.0615
   70MPD2    C1 1067   0.205   3.816  12.315  0.3587  0.6583  0.1809
   70MPD2    C2 1068   0.168   3.753  12.431  0.0005  0.3536 -0.5575
   70MPD2    C3 1069   0.271   3.728  12.524  0.0580  0.7897  0.3914
   70MPD2    C4 1070   0.404   3.746  12.491 -0.1530  0.3579  0.0653
   70MPD2    C5 1071   0.439   3.798  12.367 -0.2099  0.3510  0.2052
   70MPD2     H 1072   0.069   3.712  12.444 -0.7144  1.7886 -1.4773
   70MPD2    H1 1073   0.494   3.734  12.549 -1.2315  0.6100  1.7992
   70MPD2    H2 1074   0.372   3.897  12.204  0.2616 -1.5062 -1.1968
   70MPD2    H3 1075   0.542   3.816  12.342  0.1395 -3.2272 -0.9722
   70MPD2     N 1076   0.239   3.673  12.653  0.8113  0.2097 -0.3640
   70MPD2    H5 1077   0.324   3.662  12.707 -1.0308 -0.5735  2.3661
   70MPD2    N1 1078   0.117   3.853  12.215 -0.0044  0.0929  0.8215
   70MPD2    H7 1079   0.156   3.886  12.127 -0.2391 -0.6755  0.4294
   71TMC2    C1 1080   3.555   3.619   1.701  0.2184  0.4298  0.2125
   71TMC2    C2 1081   3.644   3.596   1.793  0.1491 -0.2018 -0.8452
   71TMC2    C3 1082   3.601   3.566   1.922 -0.7568  0.6965 -0.1256
   71TMC2    C4 1083   3.416   3.612   1.723  0.3423 -1.2751 -0.3378
   71TMC2    C5 1084   3.374   3.576   1.847 -1.0119  1.1681  0.3825
   71TMC2    C6 1085   3.466   3.564   1.947  0.3534 -0.4168 -0.1515
   71TMC2     C 1086   3.588   3.663   1.572  0.3340 -0.3644  0.4523
   71TMC2     O 1087   3.493   3.708   1.508  0.0225  0.0275  0.3140
   71TMC2     H 1088   3.748   3.618   1.773 -0.5016  1.9602 -1.8791
   71TMC2    H1 1089   3.352   3.623   1.636  0.3635 -0.7248 -0.2784
   71TMC2    H2 1090   3.445   3.556   2.053 -1.9120 -1.6471 -0.7012
   71TMC2    C7 1091   3.230   3.582   1.881 -0.3905 -0.3377 -0.5668
   71TMC2    C8 1092   3.694   3.570   2.033  0.1281 -0.2764  0.6541
   71TMC2    O1 1093   3.195   3.584   2.001 -0.1279 -0.3109 -0.3800
   71TMC2    O2 1094   3.791   3.640   2.045 -0.2124  0.1635 -0.5208
   71TMC2    O5 1095   3.694   3.440   2.074  0.0293  0.2776  0.0932
   71TMC2    H5 1096   3.615   3.391   2.044  2.0777 -2.2718 -1.0832
   72MPD2     C 1097   3.932   3.809   1.209  0.0452 -0.2171 -0.0457
   72MPD2    C1 1098   3.790   3.803   1.209  0.6311  0.5362 -0.6225
   72MPD2    C2 1099   3.720   3.758   1.318  0.0428  0.3502 -0.1454
   72MPD2    C3 1100   3.778   3.707   1.428 -0.0398  0.2910  0.1447
   72MPD2    C4 1101   3.918   3.716   1.431 -0.4347 -0.5380 -0.5243
   72MPD2    C5 1102   3.989   3.763   1.327 -0.2841  0.0979  0.3553
   72MPD2     H 1103   3.611   3.753   1.318  0.1394 -1.7126  0.6125
   72MPD2    H1 1104   3.974   3.692   1.521 -0.2582  0.6791 -0.3099
   72MPD2    H2 1105   4.001   3.840   1.132 -2.1961  0.3621 -1.8186
   72MPD2    H3 1106   4.097   3.774   1.335 -0.1771 -2.0978  1.9894
   72MPD2     N 1107   3.720   3.655   1.543  0.0648 -0.5255 -0.1163
   72MPD2    H5 1108   3.790   3.615   1.605  2.1869  1.7037 -1.0797
   72MPD2    N1 1109   3.713   3.853   1.101  0.0778 -0.1970 -0.4674
   72MPD2    H7 1110   3.613   3.833   1.101  0.1266 -0.4762  0.9180
   73TMC2    C1 1111   2.669   1.506  13.828  0.3075 -0.0105  0.5352
   73TMC2    C2 1112   2.619   1.601  13.906 -0.5400  0.5015 -0.9922
   73TMC2    C3 1113   2.679   1.621  14.029  0.2704  0.7977 -0.1509
   73TMC2    C4 1114   2.764   1.423  13.880  0.3271  0.1754 -0.1670
   73TMC2    C5 1115   2.811   1.431  14.007 -0.7674 -0.2377 -0.2985
   73TMC2    C6 1116   2.770   1.538  14.080  0.5067 -0.1190  0.0157
   73TMC2     C 1117   2.724   1.560  13.709  1.2376 -0.3119 -0.1545
   73TMC2     O 1118   2.847   1.559  13.703  0.1081 -0.5784  0.5377
   73TMC2     H 1119   2.561   1.681  13.861  1.2962  1.6983 -1.2359
   73TMC2    H1 1120   2.801   1.344  13.815 -1.5039  1.0817 -2.3027
   73TMC2    H2 1121   2.806   1.562  14.179  0.5575  1.2653 -0.3472
   73TMC2    C7 1122   2.954   1.408  14.018 -0.3644 -0.1748  0.7842
   73TMC2    C8 1123   2.631   1.737  14.098 -0.5607 -0.0358  0.2707
   73TMC2    O1 1124   3.007   1.411  14.127 -0.8395 -0.7456  0.7196
   73TMC2    O2 1125   2.582   1.834  14.041  0.7180  0.0880  0.4818
   73TMC2    O5 1126   2.611   1.700  14.226  1.2298  0.6067  0.0129
   73TMC2    H5 1127   2.628   1.604  14.239 -2.6964 -0.3736 -2.0513
   74MPD2     C 1128   2.713   1.738  13.228 -0.1892  0.2305 -0.2689
   74MPD2    C1 1129   2.822   1.690  13.304 -0.6267  0.6120 -0.1942
   74MPD2    C2 1130   2.789   1.646  13.429  0.6589 -0.1317  0.9412
   74MPD2    C3 1131   2.663   1.641  13.483 -0.4341 -0.2114 -0.4326
   74MPD2    C4 1132   2.560   1.688  13.405  0.1642 -0.1779  0.3472
   74MPD2    C5 1133   2.587   1.730  13.281 -0.2153 -0.3769  0.5811
   74MPD2     H 1134   2.873   1.617  13.491  0.4027 -1.4206  0.6788
   74MPD2    H1 1135   2.458   1.677  13.439 -0.2321  1.7386 -0.2047
   74MPD2    H2 1136   2.732   1.782  13.131  2.9040  0.7328  0.5428
   74MPD2    H3 1137   2.501   1.752  13.218  0.0017  1.3508  0.8762
   74MPD2     N 1138   2.629   1.597  13.612 -0.5667 -0.0030  0.1821
   74MPD2    H5 1139   2.529   1.599  13.628 -0.3860  0.8633  1.2185
   74MPD2    N1 1140   2.957   1.700  13.258 -0.3706 -0.7193 -0.1714
   74MPD2    H7 1141   2.980   1.739  13.167  0.5112 -1.5086 -0.2946
   75TCq2    C1 1142   3.125   2.534  13.857 -0.0157 -0.0862 -0.5073
   75TCq2    O2 1143   3.185   2.478  13.768  0.1004  0.4370 -0.0803
   75TCq2    C2 1144   2.995   2.589  13.827 -0.4458  0.0609 -0.1158
   75TCq2    C3 1145   2.927   2.660  13.923 -0.1784 -0.0041 -0.1906
   75TCq2    C4 1146   2.808   2.717  13.891  0.2879 -0.1010  0.2117
   75TCq2    C5 1147   2.769   2.721  13.764 -0.4409 -0.0980 -0.1075
   75TCq2    C6 1148   2.841   2.654  13.668  0.1426 -0.3624  0.6700
   75TCq2    C7 1149   2.956   2.580  13.697 -0.0182 -0.6364 -0.3934
   75TCq2    C8 1150   2.808   2.682  13.529  0.5286 -0.0867  0.2013
   75TCq2    O4 1151   2.816   2.591  13.448 -0.2028  0.0098 -0.1980
   75TCq2    C9 1152   2.719   2.781  13.986 -0.0629 -0.4612 -0.6720
   75TCq2    O5 1153   2.761   2.795  14.104 -0.0722 -0.3079  0.4184
   75TCq2    O6 1154   2.598   2.797  13.946 -0.3943 -0.6387  0.4341
   75TCq2    H2 1155   2.949   2.657  14.029 -2.6133  1.9056  0.3645
   75TCq2    H3 1156   2.678   2.777  13.746  0.6188  1.7344  0.2807
   75TCq2    H4 1157   3.023   2.546  13.619 -2.1025 -0.0584 -2.4000
   76MPD2     C 1158   1.042   3.563  12.044  0.7142  0.4917  0.4714
   76MPD2    C1 1159   1.076   3.559  11.909  0.0096  0.6291 -0.9982
   76MPD2    C2 1160   1.180   3.476  11.863 -0.3733 -0.3220 -0.7375
   76MPD2    C3 1161   1.248   3.398  11.965 -0.4534 -0.3005 -0.3737
   76MPD2    C4 1162   1.210   3.403  12.100 -0.5033  0.1239  0.2546
   76MPD2    C5 1163   1.111   3.490  12.137  0.1937  0.0823 -0.1787
   76MPD2     H 1164   1.197   3.466  11.756 -0.3274 -2.0965 -0.5739
   76MPD2    H1 1165   1.266   3.340  12.168  0.7248  0.3007 -0.6062
   76MPD2    H2 1166   0.951   3.615  12.070  2.0116  2.3483  1.2252
   76MPD2    H3 1167   1.083   3.495  12.241  0.8636 -0.1309  0.0171
   76MPD2     N 1168   1.359   3.311  11.941 -0.4906 -0.3010  0.7661
   76MPD2    H5 1169   1.380   3.249  12.019 -0.1864  0.3195  1.1808
   76MPD2    N1 1170   1.011   3.641  11.813 -0.6958 -0.3397  0.0902
   76MPD2    H7 1171   1.036   3.625  11.715  1.0304  1.2114  0.2842
   77TCq2    C1 1172   1.435   3.317  11.822  0.7941  0.4976 -0.1151
   77TCq2    O2 1173   1.415   3.384  11.723 -0.1030 -0.5683  0.0287
   77TCq2    C2 1174   1.568   3.250  11.832 -0.4078 -0.1336  0.4755
   77TCq2    C3 1175   1.678   3.318  11.807  0.8022 -0.4006  0.1785
   77TCq2    C4 1176   1.798   3.248  11.818 -0.4649 -0.3682 -0.3426
   77TCq2    C5 1177   1.817   3.118  11.851 -0.1006  0.5871 -0.3421
   77TCq2    C6 1178   1.695   3.057  11.883  0.3259  0.4141  1.1633
   77TCq2    C7 1179   1.575   3.120  11.877 -0.6355 -0.7722 -0.3565
   77TCq2    C8 1180   1.693   2.920  11.930  0.1042 -0.4297  0.2377
   77TCq2    O4 1181   1.586   2.861  11.918  0.4425  0.7913  0.4719
   77TCq2    C9 1182   1.916   3.314  11.775  1.0534  0.2125  0.8155
   77TCq2    O5 1183   1.918   3.420  11.707 -0.2621 -0.1222 -1.0111
   77TCq2    O6 1184   2.025   3.251  11.799 -0.0739  0.1803 -0.5778
   77TCq2    H2 1185   1.671   3.425  11.792  1.2485 -0.5323 -0.9736
   77TCq2    H3 1186   1.911   3.069  11.830  0.2274  1.0267  0.1003
   77TCq2    H4 1187   1.482   3.064  11.888 -0.4639 -1.0369 -0.2515
   78MPD1     C 1188   2.534   3.272   1.800  0.0394 -0.6010 -0.6610
   78MPD1    C1 1189   2.584   3.221   1.682 -0.6375  0.3317  0.5566
   78MPD1    C2 1190   2.727   3.189   1.676  0.2024  0.3320 -0.1557
   78MPD1    C3 1191   2.814   3.228   1.774  0.4852  0.3110 -0.3494
   78MPD1    C4 1192   2.761   3.274   1.889 -0.3714 -0.1498  0.2610
   78MPD1    C5 1193   2.624   3.293   1.903 -0.3695 -0.0820  0.6558
   78MPD1     H 1194   2.765   3.141   1.587  0.0503  1.6115 -0.9156
   78MPD1    H1 1195   2.830   3.300   1.969 -0.0134 -1.3055  0.3275
   78MPD1    H2 1196   2.432   3.284   1.834  0.8106  1.3581  0.9803
   78MPD1    H3 1197   2.581   3.340   1.990  0.1507  2.8951 -0.7150
   78MPD1     N 1198   2.955   3.218   1.768 -0.1358 -0.8851 -0.0217
   78MPD1    H5 1199   2.998   3.243   1.857 -0.3254 -2.3406  0.4965
   78MPD1    N1 1200   2.490   3.167   1.592  0.0804  0.7159 -0.1170
   78MPD1    H6 1201   2.397   3.207   1.593 -0.5369 -0.7851  2.6101
   78MPD1    H7 1202   2.522   3.177   1.496  0.1953 -0.8150 -0.2386
   79TCq2    C1 1203   3.037   3.190   1.661  0.0056 -0.0392 -0.0639
   79TCq2    O2 1204   3.006   3.176   1.545  0.8113  0.1333  0.2981
   79TCq2    C2 1205   3.177   3.199   1.695  0.3475  1.1059 -0.4205
   79TCq2    C3 1206   3.216   3.190   1.829 -0.2423  0.4887 -0.5501
   79TCq2    C4 1207   3.348   3.227   1.863 -1.0819  0.3251  0.2459
   79TCq2    C5 1208   3.435   3.262   1.756  0.3199  0.3542 -0.6001
   79TCq2    C6 1209   3.389   3.251   1.627 -0.3572  0.4994 -0.1282
   79TCq2    C7 1210   3.265   3.218   1.592 -0.5508  0.2406  0.1907
   79TCq2    C8 1211   3.490   3.313   1.539 -0.0818 -0.5961  0.1882
   79TCq2    O4 1212   3.607   3.291   1.576  0.3118  0.0403 -0.7605
   79TCq2    C9 1213   3.397   3.227   2.000 -0.2652 -0.1764  0.7983
   79TCq2    O5 1214   3.507   3.275   2.037 -0.0145 -0.0590 -0.0380
   79TCq2    O6 1215   3.304   3.214   2.086  0.2374 -0.5465 -0.6252
   79TCq2    H2 1216   3.149   3.149   1.904  0.0626  2.5683  0.8396
   79TCq2    H3 1217   3.537   3.280   1.786 -0.1612  3.3214 -0.6972
   79TCq2    H4 1218   3.234   3.221   1.489 -0.0926  0.9135  0.0721
   80MPD2     C 1219   0.902   2.658  12.346  0.1695  0.2777  0.9203
   80MPD2    C1 1220   0.804   2.710  12.276 -0.8983  0.4784  0.7313
   80MPD2    C2 1221   0.696   2.757  12.344  0.0903 -0.3238  0.6306
   80MPD2    C3 1222   0.690   2.764  12.478 -0.6668  0.7589 -0.6009
   80MPD2    C4 1223   0.799   2.716  12.551  0.3734  0.3140 -0.2597
   80MPD2    C5 1224   0.904   2.663  12.483  0.2674 -0.2992 -0.3366
   80MPD2     H 1225   0.608   2.774  12.283  0.2822  0.5860  0.6089
   80MPD2    H1 1226   0.796   2.722  12.659 -0.2755 -0.9719 -0.2012
   80MPD2    H2 1227   0.980   2.594  12.307 -0.6750 -0.4362  0.3978
   80MPD2    H3 1228   0.982   2.610  12.538 -0.8542 -2.6593 -1.0337
   80MPD2     N 1229   0.577   2.810  12.551 -0.0151 -0.4204  0.1759
   80MPD2    H5 1230   0.588   2.794  12.650 -1.7312  0.2125  0.4728
   80MPD2    N1 1231   0.804   2.721  12.130  0.2529 -0.2699  0.2386
   80MPD2    H7 1232   0.725   2.770  12.089  1.0960  2.4549  1.8736
   81TCq2    C1 1233   0.915   2.707  12.054  0.4235  0.3648  0.2397
   81TCq2    O2 1234   1.033   2.690  12.090  0.3020 -0.2241  0.6045
   81TCq2    C2 1235   0.888   2.692  11.913 -0.1699 -0.2341 -0.8312
   81TCq2    C3 1236   0.986   2.731  11.825  0.1627 -0.3402 -0.1007
   81TCq2    C4 1237   0.963   2.725  11.691  0.0034 -1.1547 -0.3686
   81TCq2    C5 1238   0.847   2.670  11.641 -0.3768 -0.2355  0.4634
   81TCq2    C6 1239   0.752   2.643  11.735 -1.4556  0.4651  0.1431
   81TCq2    C7 1240   0.765   2.648  11.874 -0.5352 -0.5309 -0.0513
   81TCq2    C8 1241   0.633   2.574  11.684  0.0985  0.8351 -0.0274
   81TCq2    O4 1242   0.620   2.582  11.562 -0.4801 -0.2459 -0.4277
   81TCq2    C9 1243   1.072   2.765  11.602 -1.5630  0.1103  0.2046
   81TCq2    O5 1244   1.047   2.762  11.479  0.0685  0.2706  0.0838
   81TCq2    O6 1245   1.187   2.766  11.652 -0.1247  0.1493  0.4048
   81TCq2    H2 1246   1.085   2.757  11.860 -0.1291  0.8665 -0.1933
   81TCq2    H3 1247   0.828   2.672  11.534 -1.8268 -1.6515  0.7023
   81TCq2    H4 1248   0.684   2.622  11.941  0.9389  0.5457  2.1237
   82MPD2     C 1249   4.133   2.336  10.564  0.3768 -0.2524 -0.2892
   82MPD2    C1 1250   4.029   2.242  10.556 -0.3244 -0.3532 -0.0210
   82MPD2    C2 1251   4.052   2.113  10.602 -0.2056  0.3010 -1.3715
   82MPD2    C3 1252   4.174   2.078  10.671  0.2992 -0.6004  0.0810
   82MPD2    C4 1253   4.273   2.174  10.681  0.8364 -0.0562 -0.3906
   82MPD2    C5 1254   4.251   2.297  10.620  0.7158  0.0627 -0.2399
   82MPD2     H 1255   3.973   2.041  10.586  0.6830 -0.7548 -1.0267
   82MPD2    H1 1256   4.369   2.149  10.726  0.3405  2.9871  2.3575
   82MPD2    H2 1257   4.136   2.441  10.538 -0.7801  0.1266  1.0707
   82MPD2    H3 1258   4.332   2.369  10.622  1.1872 -0.4627 -0.7712
   82MPD2     N 1259   4.193   1.949  10.731  0.1678  0.6516  0.0918
   82MPD2    H5 1260   4.282   1.927  10.775 -0.1766 -0.9756 -0.0239
   82MPD2    N1 1261   3.906   2.286  10.494  0.1278  0.5265 -0.8378
   82MPD2    H7 1262   3.902   2.380  10.456 -0.8146  0.9643  0.3557
   83TCq2    C1 1263   4.103   1.847  10.728 -0.3568 -0.3852 -0.1773
   83TCq2    O2 1264   3.994   1.840  10.674  0.8414 -0.1127 -0.0563
   83TCq2    C2 1265   4.137   1.729  10.805  0.7854  0.1345  0.8640
   83TCq2    C3 1266   4.193   1.744  10.927  0.5783  0.0713  0.7694
   83TCq2    C4 1267   4.196   1.633  11.009  0.4144  0.5554 -0.3489
   83TCq2    C5 1268   4.144   1.510  10.978 -0.2035 -0.0973  0.3988
   83TCq2    C6 1269   4.071   1.503  10.860 -0.0178  0.2020 -0.3022
   83TCq2    C7 1270   4.053   1.618  10.786 -0.0742  0.5078  0.7100
   83TCq2    C8 1271   3.985   1.390  10.827  0.2027 -0.0333 -0.2912
   83TCq2    O4 1272   3.937   1.380  10.717  0.1939  0.5512  0.0638
   83TCq2    C9 1273   4.271   1.642  11.129 -0.7527 -0.2216 -0.5786
   83TCq2    O5 1274   4.271   1.755  11.175  0.8323 -0.5331 -0.1133
   83TCq2    O6 1275   4.310   1.537  11.182  0.2056 -0.3130 -0.0866
   83TCq2    H2 1276   4.219   1.841  10.967  1.4828 -0.4627  1.4930
   83TCq2    H3 1277   4.154   1.429  11.050 -0.3575  0.9196  1.5598
   83TCq2    H4 1278   3.983   1.615  10.703  2.3964 -1.1964 -1.3276
   84TCq2    C1 1279   0.392   1.245  10.283 -0.0124  0.5828 -0.2671
   84TCq2    O2 1280   0.327   1.143  10.277 -0.5037  0.1878 -0.3961
   84TCq2    C2 1281   0.457   1.264  10.407  0.1757  0.2153 -0.3257
   84TCq2    C3 1282   0.500   1.388  10.450 -0.5093  0.4041  0.2198
   84TCq2    C4 1283   0.532   1.414  10.577 -0.9274  0.0749  0.1299
   84TCq2    C5 1284   0.514   1.314  10.665  0.3395  0.1943  0.3956
   84TCq2    C6 1285   0.486   1.187  10.627 -0.3617 -0.4297 -0.8029
   84TCq2    C7 1286   0.455   1.160  10.494 -0.6989 -0.5342 -0.8166
   84TCq2    C8 1287   0.463   1.087  10.735 -0.0514 -0.7373  0.7780
   84TCq2    O4 1288   0.511   1.118  10.843  0.0038  0.4438 -0.3967
   84TCq2    C9 1289   0.562   1.550  10.612 -0.1547 -0.3842  0.4023
   84TCq2    O5 1290   0.530   1.642  10.534 -0.4310 -0.1925  0.1047
   84TCq2    O6 1291   0.599   1.572  10.730 -0.2504  0.4299 -0.5833
   84TCq2    H2 1292   0.495   1.473  10.383  2.5046  1.4343  1.2811
   84TCq2    H3 1293   0.534   1.339  10.768  0.1325 -0.0586  0.4984
   84TCq2    H4 1294   0.414   1.062  10.470 -1.1718 -0.0742 -1.8531
   85MPD2     C 1295   0.527   3.971  15.642  0.5337 -0.4907  0.2548
   85MPD2    C1 1296   0.634   3.929  15.724 -0.7218  0.5091 -0.2590
   85MPD2    C2 1297   0.721   4.025  15.773 -0.3642 -0.2470  0.4069
   85MPD2    C3 1298   0.711   4.161  15.743 -0.4382  0.0369 -0.7913
   85MPD2    C4 1299   0.605   4.193  15.659 -0.4969 -0.7244 -1.0012
   85MPD2    C5 1300   0.515   4.105  15.614 -0.3351  0.7348  0.2981
   85MPD2     H 1301   0.799   3.983  15.836 -1.2881 -0.0261  1.6908
   85MPD2    H1 1302   0.600   4.290  15.610  0.7340 -0.1723 -0.0478
   85MPD2    H2 1303   0.447   3.903  15.613  0.3892 -0.9830  1.8021
   85MPD2    H3 1304   0.440   4.138  15.543 -1.1089  0.9337  1.2194
   85MPD2     N 1305   0.816   4.248  15.785 -0.2027 -0.4986 -0.1581
   85MPD2    H5 1306   0.896   4.205  15.832  1.2476  1.1292 -1.1525
   85MPD2    N1 1307   0.656   3.792  15.766 -0.8673  0.2156  0.0777
   85MPD2    H7 1308   0.726   3.768  15.835  0.1536 -1.7329 -1.6077
   86TCq2    C1 1309   0.808   4.383  15.750  0.2255  0.3855  0.0835
   86TCq2    O2 1310   0.717   4.450  15.697  0.0450 -0.0593  0.0264
   86TCq2    C2 1311   0.932   4.446  15.797 -0.4703 -0.5894  0.5264
   86TCq2    C3 1312   0.927   4.587  15.818  0.2845 -0.0191  0.0475
   86TCq2    C4 1313   1.039   4.653  15.830 -0.2830  0.3324 -0.4386
   86TCq2    C5 1314   1.158   4.591  15.807 -0.1390 -0.1945  0.6920
   86TCq2    C6 1315   1.166   4.458  15.781 -0.4388  0.5256 -0.2151
   86TCq2    C7 1316   1.051   4.384  15.783  0.0257  0.1962  0.2206
   86TCq2    C8 1317   1.290   4.395  15.729  0.0968 -0.3253  0.1617
   86TCq2    O4 1318   1.293   4.273  15.745 -0.6459  0.4188 -0.0530
   86TCq2    C9 1319   1.036   0.071  15.856  0.4585  0.4559 -0.6182
   86TCq2    O5 1320   1.145   0.134  15.841  0.0763  0.0251 -0.8479
   86TCq2    O6 1321   0.929   0.116  15.901 -0.2639 -0.0491  0.0018
   86TCq2    H2 1322   0.831   4.632  15.843  0.0976 -0.3264 -0.1149
   86TCq2    H3 1323   1.243   4.659  15.810  0.3862 -0.8124 -0.2702
   86TCq2    H4 1324   1.069   4.281  15.753  1.6497 -0.0112  1.8894
   87MPD2     C 1325   2.607   2.308   1.442 -0.5766 -0.5423  0.1907
   87MPD2    C1 1326   2.718   2.389   1.399  0.5214  0.9172 -0.2783
   87MPD2    C2 1327   2.705   2.529   1.386  0.1409  0.4168 -0.3033
   87MPD2    C3 1328   2.584   2.595   1.416 -0.1183 -0.5962  0.9959
   87MPD2    C4 1329   2.483   2.516   1.455 -0.0896 -0.7204  0.5682
   87MPD2    C5 1330   2.493   2.374   1.470 -0.7689 -0.0740 -0.4145
   87MPD2     H 1331   2.794   2.584   1.359  0.0872  1.2603  1.2481
   87MPD2    H1 1332   2.385   2.557   1.474 -0.8886 -1.6153 -1.6506
   87MPD2    H2 1333   2.612   2.200   1.445  0.1263 -0.4996  0.4865
   87MPD2    H3 1334   2.403   2.319   1.496 -0.1522 -1.9902 -2.3480
   87MPD2     N 1335   2.560   2.734   1.410  0.0307 -0.0799  1.0378
   87MPD2    H5 1336   2.461   2.759   1.409  0.6463  2.3102  0.0496
   87MPD2    N1 1337   2.835   2.335   1.357 -0.0845  0.2963  0.0541
   87MPD2    H7 1338   2.910   2.397   1.327  0.0725 -0.8430 -1.9578
   88TCq2    C1 1339   2.874   2.206   1.359 -0.1896  0.0222  0.5269
   88TCq2    O2 1340   2.826   2.104   1.411 -0.1119 -0.1074  0.3043
   88TCq2    C2 1341   3.003   2.186   1.294 -0.1115 -0.6289 -0.4496
   88TCq2    C3 1342   3.113   2.258   1.344  0.0033 -0.2664 -0.2946
   88TCq2    C4 1343   3.235   2.226   1.302 -0.3468 -0.1151  0.2335
   88TCq2    C5 1344   3.249   2.109   1.226 -0.7208 -0.3097  0.3522
   88TCq2    C6 1345   3.139   2.033   1.196  0.5116 -0.0410  0.0272
   88TCq2    C7 1346   3.016   2.072   1.223  0.1278  0.6806  0.0955
   88TCq2    C8 1347   3.171   1.922   1.116 -0.1235 -0.2347  0.2294
   88TCq2    O4 1348   3.118   1.811   1.136 -0.1461  0.6469 -0.2623
   88TCq2    C9 1349   3.351   2.310   1.328 -0.1287 -0.4717  0.1231
   88TCq2    O5 1350   3.462   2.276   1.275  1.1105 -0.6874 -0.0485
   88TCq2    O6 1351   3.336   2.418   1.389  0.0458 -0.3789  0.0061
   88TCq2    H2 1352   3.108   2.354   1.393 -0.5845  0.0105 -0.9080
   88TCq2    H3 1353   3.349   2.095   1.189 -0.7465 -0.5329  0.3637
   88TCq2    H4 1354   2.929   2.022   1.181  0.0255  1.3612 -0.4857
   89MPD2     C 1355   4.356   0.426   1.566  0.4098  0.5474  0.1354
   89MPD2    C1 1356   4.263   0.489   1.644  0.2395 -0.3479  0.4289
   89MPD2    C2 1357   4.284   0.623   1.694  0.4464  0.7561  0.2469
   89MPD2    C3 1358   4.389   0.699   1.644  0.8186 -0.3353  0.3107
   89MPD2    C4 1359   4.479   0.631   1.565 -0.7134  0.8977 -1.0374
   89MPD2    C5 1360   4.471   0.497   1.533 -0.2588 -0.6980 -0.1278
   89MPD2     H 1361   4.209   0.657   1.764 -0.2069 -0.1402 -0.0294
   89MPD2    H1 1362   4.564   0.688   1.529 -1.2436  1.2493 -1.7302
   89MPD2    H2 1363   4.342   0.322   1.538 -0.8388  0.2917  1.7244
   89MPD2    H3 1364   4.556   0.457   1.478  0.1254 -1.6554  1.1714
   89MPD2     N 1365   4.415   0.834   1.673 -0.1293  0.4663 -0.2739
   89MPD2    H5 1366   4.352   0.883   1.736  4.2944  3.7624  1.6585
   89MPD2    N1 1367   4.140   0.426   1.685 -0.2022  0.1577  0.6856
   89MPD2    H7 1368   4.092   0.476   1.759 -1.9604  0.4338 -0.6400
   90TCq2    C1 1369   4.511   0.919   1.630 -0.6508 -0.3683  0.2241
   90TCq2    O2 1370   4.596   0.916   1.536  0.3813 -0.4915 -0.3620
   90TCq2    C2 1371   4.515   1.043   1.714 -0.1467  0.1195  0.1879
   90TCq2    C3 1372   4.504   1.036   1.849 -0.6265 -0.0843 -0.1646
   90TCq2    C4 1373   4.506   1.156   1.914 -0.8911 -0.4144  0.0464
   90TCq2    C5 1374   4.509   1.281   1.855  0.3148  0.0682  0.9255
   90TCq2    C6 1375   4.533   1.280   1.719  0.3337 -0.0843  0.0450
   90TCq2    C7 1376   4.547   1.164   1.649 -0.1999 -0.8937  0.0634
   90TCq2    C8 1377   4.489   1.403   1.653 -0.1314 -0.2542 -0.6353
   90TCq2    O4 1378   4.422   1.483   1.721 -0.5964 -0.0665 -0.8985
   90TCq2    C9 1379   4.491   1.163   2.058  0.2532 -0.0498 -0.1456
   90TCq2    O5 1380   4.485   1.050   2.116 -0.0009 -0.3681 -0.3146
   90TCq2    O6 1381   4.511   1.271   2.120  0.1446  0.7643 -0.1185
   90TCq2    H2 1382   4.480   0.940   1.893 -1.6293  0.4695  0.4928
   90TCq2    H3 1383   4.499   1.373   1.912  0.9756  0.1483  0.9224
   90TCq2    H4 1384   4.527   1.161   1.543  0.1215 -0.1848 -0.0177
   91TMC2    C1 1385   1.159   0.075  16.683 -0.1668  0.9205 -0.6648
   91TMC2    C2 1386   1.202   0.136  16.799 -0.6538  0.6038  0.5689
   91TMC2    C3 1387   1.109   0.146  16.901  0.0704 -0.0369 -0.2380
   91TMC2    C4 1388   1.032   0.032  16.677 -0.3262  0.2798  1.2162
   91TMC2    C5 1389   0.936   0.047  16.778 -0.4216 -0.6059  0.5828
   91TMC2    C6 1390   0.981   0.107  16.896 -0.0009 -0.1990 -0.1252
   91TMC2     C 1391   1.257   0.037  16.580  0.3466 -0.7893  0.6016
   91TMC2     O 1392   1.232   4.665  16.510  0.1562  0.1664  0.3532
   91TMC2     H 1393   1.308   0.154  16.818 -0.1274 -2.0699  0.1874
   91TMC2    H1 1394   0.995   4.690  16.599  1.6860  0.4597  0.1045
   91TMC2    H2 1395   0.908   0.119  16.976 -0.2001  0.7401 -0.4545
   91TMC2    C7 1396   0.790   0.020  16.761  0.0852 -0.2013 -0.0716
   91TMC2    C8 1397   1.159   0.187  17.029 -0.2631 -0.7702  0.7812
   91TMC2    O1 1398   0.721   0.003  16.859 -0.0409  0.1890  0.3301
   91TMC2    O2 1399   1.096   0.171  17.131  0.0500 -1.0119  0.0102
   91TMC2    O5 1400   1.257   0.274  17.012  0.6189  0.1513  0.0589
   91TMC2    H5 1401   1.281   0.302  16.922  0.8159 -0.0887  0.0373
   92MPD2     C 1402   1.497   0.011  16.412  0.1200 -0.0636 -0.0371
   92MPD2    C1 1403   1.460   0.128  16.468  0.1653  0.1981 -0.0001
   92MPD2    C2 1404   1.530   0.247  16.439  0.2481 -0.5989  0.1265
   92MPD2    C3 1405   1.643   0.251  16.351  0.0524  0.0114 -0.3640
   92MPD2    C4 1406   1.682   0.131  16.308 -0.2268 -0.0020 -0.0172
   92MPD2    C5 1407   1.605   0.022  16.331  0.6710  0.3622  0.5505
   92MPD2     H 1408   1.501   0.341  16.485 -2.1729 -1.5976  0.6137
   92MPD2    H1 1409   1.777   0.111  16.258  0.4986  0.4161  1.1882
   92MPD2    H2 1410   1.458   4.635  16.431 -1.4369  0.3848 -0.8674
   92MPD2    H3 1411   1.629   4.658  16.270  1.0075 -0.3070  1.6142
   92MPD2     N 1412   1.713   0.364  16.333 -0.8880  0.1831  0.0319
   92MPD2    H5 1413   1.680   0.453  16.370  2.5337  1.4571  0.0414
   92MPD2    N1 1414   1.359   0.134  16.557  0.2648 -0.3562  0.1290
   92MPD2    H7 1415   1.358   0.213  16.621  1.6864  0.2114 -0.5415
   93MPD2     C 1416   2.755   0.255  13.877 -0.7576  0.3510 -0.7353
   93MPD2    C1 1417   2.722   0.384  13.857  0.2661 -0.2381  0.9884
   93MPD2    C2 1418   2.594   0.418  13.837 -0.7833 -0.0288 -0.4056
   93MPD2    C3 1419   2.490   0.330  13.840 -0.2475 -0.2419  0.2136
   93MPD2    C4 1420   2.527   0.196  13.862 -0.0805 -0.5833  0.6624
   93MPD2    C5 1421   2.659   0.158  13.880  0.3905  0.0660  0.6124
   93MPD2     H 1422   2.573   0.523  13.820 -0.3520  0.2270  0.6150
   93MPD2    H1 1423   2.452   0.118  13.867  0.8216 -1.3955  1.4734
   93MPD2    H2 1424   2.858   0.227  13.895 -0.5739  1.4354 -0.0865
   93MPD2    H3 1425   2.678   0.052  13.890 -2.8283 -0.2324  3.5842
   93MPD2     N 1426   2.355   0.356  13.801  0.0397  0.5417 -0.6674
   93MPD2    H5 1427   2.294   0.275  13.808  0.5306  0.0179 -2.4248
   93MPD2    N1 1428   2.823   0.485  13.826 -0.6352 -0.2270 -0.7771
   93MPD2    H7 1429   2.785   0.571  13.788  0.2242  1.3805  2.0942
   94TCq2    C1 1430   2.960   0.461  13.800  0.3133  0.6521  0.2750
   94TCq2    O2 1431   3.027   0.370  13.846 -0.3555  0.1681 -0.0973
   94TCq2    C2 1432   3.023   0.573  13.734 -0.5336 -0.0558  0.0248
   94TCq2    C3 1433   2.950   0.684  13.694  0.0183 -1.0209  0.0185
   94TCq2    C4 1434   3.025   0.794  13.662 -0.0870  0.6972 -0.5680
   94TCq2    C5 1435   3.161   0.790  13.660  1.2868 -0.0799 -0.1391
   94TCq2    C6 1436   3.225   0.672  13.691  0.1958 -0.2200  0.3657
   94TCq2    C7 1437   3.155   0.562  13.725 -0.1518 -0.2926  0.2065
   94TCq2    C8 1438   3.366   0.660  13.673  0.3652  0.4366  0.6125
   94TCq2    O4 1439   3.428   0.570  13.723  0.0983 -0.8541 -0.3936
   94TCq2    C9 1440   2.957   0.913  13.618 -0.3522  0.6128 -0.1205
   94TCq2    O5 1441   3.034   1.013  13.616 -0.4071 -0.6152  0.3966
   94TCq2    O6 1442   2.830   0.920  13.612 -0.3855  0.2719  0.1922
   94TCq2    H2 1443   2.842   0.683  13.696  0.0242  2.4587  1.7903
   94TCq2    H3 1444   3.210   0.886  13.648 -0.2784  0.5955 -1.1217
   94TCq2    H4 1445   3.218   0.474  13.725 -0.4711 -0.5539 -3.7845
   95TMC2    C1 1446   2.791   2.006  16.096 -0.2148  0.2165 -0.4005
   95TMC2    C2 1447   2.701   1.941  16.017 -0.1230  0.7071 -0.0461
   95TMC2    C3 1448   2.571   1.945  16.056 -0.7155  0.0779  0.6081
   95TMC2    C4 1449   2.752   2.089  16.199  0.6848 -0.1786 -0.4284
   95TMC2    C5 1450   2.618   2.092  16.234 -0.5189  1.3001  0.4431
   95TMC2    C6 1451   2.526   2.016  16.163  0.3322 -0.3109  0.1884
   95TMC2     C 1452   2.918   2.037  16.033  0.9378 -0.6824  1.0333
   95TMC2     O 1453   2.951   2.154  16.027 -0.1246 -0.0439  0.3106
   95TMC2     H 1454   2.721   1.879  15.930  1.1532 -0.8957  1.4010
   95TMC2    H1 1455   2.830   2.140  16.254  0.7213  0.4839 -1.0933
   95TMC2    H2 1456   2.426   2.012  16.203  0.0387 -0.5026 -0.5634
   95TMC2    C7 1457   2.560   2.191  16.326 -0.5179  0.4546  0.0314
   95TMC2    C8 1458   2.479   1.873  15.972  0.0991  0.7228  0.1027
   95TMC2    O1 1459   2.448   2.232  16.301  0.1037  0.2421 -0.0608
   95TMC2    O2 1460   2.400   1.814  16.041  0.2975  0.0414 -0.0260
   95TMC2    O5 1461   2.452   1.960  15.876  0.8472 -0.0402 -0.1589
   95TMC2    H5 1462   2.530   2.012  15.846  1.0276 -0.5008 -0.4812
   96MPD2     C 1463   3.280   1.868  15.726 -0.1116 -0.6521  0.1676
   96MPD2    C1 1464   3.252   2.002  15.748 -0.8057  0.0050 -0.4321
   96MPD2    C2 1465   3.149   2.019  15.839 -0.2721  0.4379  0.4723
   96MPD2    C3 1466   3.075   1.913  15.899 -0.1204  0.0508  0.2011
   96MPD2    C4 1467   3.097   1.785  15.859 -0.0565  0.7803 -0.2558
   96MPD2    C5 1468   3.198   1.762  15.776 -0.3461 -0.7011  0.8097
   96MPD2     H 1469   3.120   2.122  15.861 -1.7023  0.2073 -0.3144
   96MPD2    H1 1470   3.036   1.698  15.883 -0.7156  1.2158 -0.3482
   96MPD2    H2 1471   3.355   1.855  15.649  0.3658  1.3006  0.3104
   96MPD2    H3 1472   3.207   1.660  15.738  2.1031  0.5312 -1.9661
   96MPD2     N 1473   2.967   1.924  15.989  0.1516  0.1339 -0.1050
   96MPD2    H5 1474   2.915   1.839  16.009  0.2939  0.2994  0.9441
   96MPD2    N1 1475   3.332   2.102  15.695  0.0940  0.5635  0.2796
   96MPD2    H7 1476   3.411   2.070  15.639 -0.8662 -0.0107 -0.7421
   97MPD2     C 1477   4.660   4.076   0.438  0.1007 -0.9060 -0.3062
   97MPD2    C1 1478   4.695   4.205   0.469 -0.2971 -0.1352 -0.7431
   97MPD2    C2 1479   4.709   4.288   0.357 -0.7510  0.7284  0.4957
   97MPD2    C3 1480   4.691   4.254   0.227 -0.5002  0.0241 -0.0350
   97MPD2    C4 1481   4.656   4.121   0.207  0.2452 -0.8062  0.5537
   97MPD2    C5 1482   4.638   4.034   0.314  0.6121 -0.3402  0.5897
   97MPD2     H 1483   0.005   4.393   0.377  1.5036  1.2198 -4.1576
   97MPD2    H1 1484   4.640   4.079   0.109 -0.4361  0.5485  0.0826
   97MPD2    H2 1485   4.656   4.008   0.523  0.7287 -0.7013 -0.1135
   97MPD2    H3 1486   4.612   3.929   0.304 -0.9401  0.2186 -1.4521
   97MPD2     N 1487   4.720   4.341   0.115  0.0541  0.2719  0.3434
   97MPD2    H5 1488   4.708   4.303   0.021  0.5790  0.4152  0.2174
   97MPD2    N1 1489   4.707   4.236   0.611 -0.4674  0.1866 -0.4065
   97MPD2    H7 1490   4.703   4.167   0.686 -2.5435  2.5978  1.7159
   98TCq2    C1 1491   0.032   4.469   0.121  0.2419  1.2836 -0.4688
   98TCq2    O2 1492   0.074   4.530   0.220 -0.0698  0.2547  0.2026
   98TCq2    C2 1493   0.028   4.534  17.689  0.1234 -0.6211  0.3138
   98TCq2    C3 1494   4.689   4.479  17.580  0.1067 -0.4522  0.0004
   98TCq2    C4 1495   4.714   4.539  17.457  0.6131 -0.8264 -0.3047
   98TCq2    C5 1496   0.068   4.643  17.448 -0.3294 -0.3459 -0.3791
   98TCq2    C6 1497   0.126   4.695  17.559 -0.4049 -0.4918  0.3155
   98TCq2    C7 1498   0.112   4.639  17.684  0.6551 -0.3705  0.3264
   98TCq2    C8 1499   0.243   0.063  17.550 -0.1971 -0.4035  0.1699
   98TCq2    O4 1500   0.292   0.104  17.654  0.8586  0.5150 -0.2865
   98TCq2    C9 1501   4.670   4.479  17.333  0.3458 -0.7134  0.3057
   98TCq2    O5 1502   4.578   4.402  17.353 -0.2149  0.3939 -0.0974
   98TCq2    O6 1503   4.705   4.530  17.226 -0.0020  0.4210 -0.1568
   98TCq2    H2 1504   4.622   4.394  17.586 -2.2687  1.2668 -1.8652
   98TCq2    H3 1505   0.069   4.694  17.353 -0.3801 -1.6689 -1.0878
   98TCq2    H4 1506   0.145   4.689   0.082  0.3250 -0.7694  0.6624
   99MPD2     C 1507   3.612   1.673   2.092 -0.5187 -0.1885  0.3292
   99MPD2    C1 1508   3.485   1.672   2.031  0.2568 -0.5487 -0.1403
   99MPD2    C2 1509   3.475   1.650   1.897 -0.1740 -0.8933  0.0189
   99MPD2    C3 1510   3.587   1.634   1.821 -0.1032  0.4216 -0.2993
   99MPD2    C4 1511   3.711   1.631   1.880  0.4556 -0.0433  0.3580
   99MPD2    C5 1512   3.716   1.648   2.012 -0.0477  0.0499  0.4520
   99MPD2     H 1513   3.377   1.658   1.852  0.2776  0.4679 -0.7102
   99MPD2    H1 1514   3.803   1.629   1.823  0.0844  1.2469 -0.3036
   99MPD2    H2 1515   3.641   1.682   2.196 -3.4692  1.6141  0.9792
   99MPD2    H3 1516   3.810   1.665   2.064  0.2541 -2.1804  0.6574
   99MPD2     N 1517   3.566   1.611   1.678 -0.5582  0.0210 -0.7555
   99MPD2    H5 1518   3.473   1.591   1.644 -0.1529 -0.8144 -1.3579
   99MPD2    N1 1519   3.369   1.687   2.106  0.3669  0.0220  0.0997
   99MPD2    H7 1520   3.290   1.634   2.072 -0.8146  0.9628  1.4122
  100TCq2    C1 1521   3.362   1.709   2.245 -0.6207  0.2819  0.0676
  100TCq2    O2 1522   3.456   1.724   2.323  0.2402  0.7427 -0.0934
  100TCq2    C2 1523   3.235   1.667   2.308 -0.5082  0.1749  0.2344
  100TCq2    C3 1524   3.245   1.627   2.440 -0.8741 -0.0792 -0.4870
  100TCq2    C4 1525   3.134   1.627   2.518 -0.7414  0.2788  0.5483
  100TCq2    C5 1526   3.013   1.655   2.462 -0.0406  0.2598 -1.4673
  100TCq2    C6 1527   3.004   1.692   2.327 -0.1421 -0.2169  0.0290
  100TCq2    C7 1528   3.112   1.699   2.245 -0.7774  0.5580  0.2055
  100TCq2    C8 1529   2.868   1.715   2.273  0.3349 -0.8395 -0.0068
  100TCq2    O4 1530   2.784   1.735   2.358 -0.1284  0.1799 -0.2753
  100TCq2    C9 1531   3.133   1.587   2.656 -0.6861 -0.1729  0.6573
  100TCq2    O5 1532   3.035   1.617   2.732 -0.5666 -0.7159  0.0203
  100TCq2    O6 1533   3.242   1.546   2.701  0.0266  0.2710  0.4056
  100TCq2    H2 1534   3.340   1.607   2.488 -1.3205  0.4587  0.6136
  100TCq2    H3 1535   2.922   1.660   2.520  0.8775 -3.7914  0.3156
  100TCq2    H4 1536   3.109   1.729   2.141 -1.4874  0.7354  0.2779
  101MPD2     C 1537   4.140   2.878  12.633  0.9264 -0.3422  0.4112
  101MPD2    C1 1538   4.066   2.939  12.730  0.2313 -0.1671 -0.4873
  101MPD2    C2 1539   4.035   2.882  12.854  0.1239 -0.3827  0.4817
  101MPD2    C3 1540   4.082   2.752  12.875  0.3881  0.4204  0.5509
  101MPD2    C4 1541   4.157   2.694  12.781  0.3651 -0.5149  1.0144
  101MPD2    C5 1542   4.179   2.756  12.667  0.3427  0.0851  0.7509
  101MPD2     H 1543   3.983   2.933  12.934  1.7529 -2.3074  2.7277
  101MPD2    H1 1544   4.189   2.590  12.789 -1.2712 -1.0404  0.8362
  101MPD2    H2 1545   4.162   2.919  12.535 -2.0197  0.1431 -0.0263
  101MPD2    H3 1546   4.222   2.700  12.584  0.7940  1.2499  0.1943
  101MPD2     N 1547   4.045   2.682  12.991  0.7992  0.1918  0.7237
  101MPD2    H5 1548   3.967   2.715  13.047 -1.7028 -4.2512 -0.1934
  101MPD2    N1 1549   4.031   3.070  12.701  0.8903 -0.0319  0.2264
  101MPD2    H7 1550   4.080   3.107  12.621 -0.3867 -0.4436 -0.7374
  102TCq2    C1 1551   4.163   3.491  12.523 -0.2592  0.3106  0.1119
  102TCq2    O2 1552   4.272   3.456  12.565 -0.3860 -0.7695  0.0784
  102TCq2    C2 1553   4.053   3.448  12.604  0.1987 -0.3354 -0.2157
  102TCq2    C3 1554   3.941   3.522  12.612 -0.4625 -0.6204 -1.0261
  102TCq2    C4 1555   3.829   3.478  12.681  0.0420 -0.2423 -0.3389
  102TCq2    C5 1556   3.842   3.359  12.744  0.2257  0.2515  0.2316
  102TCq2    C6 1557   3.954   3.285  12.733  0.1874 -0.0342 -0.4015
  102TCq2    C7 1558   4.056   3.320  12.657 -0.0503 -0.8170 -0.5441
  102TCq2    C8 1559   3.951   3.150  12.781 -0.7493 -0.4045 -0.2321
  102TCq2    O4 1560   3.875   3.121  12.875  0.0748  0.3582 -0.2766
  102TCq2    C9 1561   3.704   3.544  12.665  0.0085  0.2754 -1.0313
  102TCq2    O5 1562   3.712   3.658  12.603  0.0173 -0.0340 -0.5700
  102TCq2    O6 1563   3.603   3.470  12.670  0.3514  0.0742 -0.5506
  102TCq2    H2 1564   3.932   3.609  12.548 -0.7153  0.0441 -0.0816
  102TCq2    H3 1565   3.754   3.320  12.795  0.8681 -2.1023 -0.4734
  102TCq2    H4 1566   4.155   3.276  12.662 -0.7274 -2.2711 -0.0937
  103TMC2    C1 1567   2.405   2.599  12.120 -0.4388 -0.2628 -0.2408
  103TMC2    C2 1568   2.430   2.464  12.101 -0.1790  0.2657  0.4221
  103TMC2    C3 1569   2.558   2.418  12.124 -0.0281  0.2588 -0.0566
  103TMC2    C4 1570   2.502   2.686  12.158 -0.2593  0.3062 -0.1994
  103TMC2    C5 1571   2.629   2.639  12.185 -0.3063  0.9024  0.6441
  103TMC2    C6 1572   2.661   2.507  12.170  0.1879 -0.5105 -0.5994
  103TMC2     C 1573   2.290   2.661  12.063  0.7184  0.8408  0.3528
  103TMC2     O 1574   2.290   2.780  12.032 -0.5521  0.5742 -0.7281
  103TMC2     H 1575   2.345   2.413  12.057 -1.7819  2.0009  1.5235
  103TMC2    H1 1576   2.469   2.788  12.176  1.4594  0.4485  2.1992
  103TMC2    H2 1577   2.758   2.464  12.191  1.4510  2.7825  0.2038
  103TMC2    C7 1578   2.725   2.713  12.260 -0.4229  1.0914 -0.3867
  103TMC2    C8 1579   2.604   2.287  12.081 -0.6108  0.2565 -0.2644
  103TMC2    O1 1580   2.828   2.648  12.289 -0.5482 -0.4776  0.2255
  103TMC2    O2 1581   2.706   2.246  12.130  0.0858 -0.5590 -0.2207
  103TMC2    O5 1582   2.501   2.210  12.035 -0.0315  0.5359 -0.1925
  103TMC2    H5 1583   2.415   2.253  12.015 -0.2795  0.1676  0.0897
  104MPD2     C 1584   1.954   2.507  12.058  0.3562  0.3197 -0.4760
  104MPD2    C1 1585   2.045   2.608  12.042 -0.1651  0.2262  0.6019
  104MPD2    C2 1586   1.999   2.729  12.000 -0.0082  0.4253 -0.2694
  104MPD2    C3 1587   1.865   2.745  11.984  0.4738 -1.1926 -0.0244
  104MPD2    C4 1588   1.770   2.648  12.004 -0.9602 -0.1493  0.0936
  104MPD2    C5 1589   1.819   2.527  12.051 -0.1354 -0.1690  0.1199
  104MPD2     H 1590   2.066   2.814  11.988 -0.0465  0.5109  0.1266
  104MPD2    H1 1591   1.663   2.663  12.002 -1.1728 -1.2226  2.2413
  104MPD2    H2 1592   1.996   2.416  12.101  0.8713 -0.6819 -3.1151
  104MPD2    H3 1593   1.748   2.452  12.085  1.8970 -1.3250  1.8196
  104MPD2     N 1594   1.821   2.876  11.957 -0.1789  0.1541  0.0829
  104MPD2    H5 1595   1.892   2.949  11.948  1.1053 -1.1705 -0.6556
  104MPD2    N1 1596   2.180   2.581  12.076 -0.5276 -0.3658 -1.3502
  104MPD2    H7 1597   2.191   2.488  12.114 -0.8040 -0.7947 -2.3211
  105MPD2     C 1598   3.976   2.269  17.546 -0.1872  0.1801  0.2119
  105MPD2    C1 1599   3.872   2.342  17.493 -0.3526 -0.4412  0.4823
  105MPD2    C2 1600   3.750   2.329  17.549  0.0816  0.1303  0.1778
  105MPD2    C3 1601   3.737   2.249  17.666 -0.0505 -0.4110 -0.1651
  105MPD2    C4 1602   3.842   2.180   0.024 -0.4312  0.0388  0.3032
  105MPD2    C5 1603   3.965   2.190  17.659 -0.1975  0.2346  0.2385
  105MPD2     H 1604   3.667   2.389  17.514  0.0792 -0.0194 -0.0723
  105MPD2    H1 1605   3.840   2.121   0.115 -3.0355  0.0015  0.2043
  105MPD2    H2 1606   4.077   2.298  17.520 -0.2655  0.5117  0.2815
  105MPD2    H3 1607   4.048   2.160   0.031 -1.5184  0.3827  2.0248
  105MPD2     N 1608   3.606   2.240   0.032  0.2092 -0.0118 -0.2059
  105MPD2    H5 1609   3.541   2.314   0.007 -0.2465 -0.6470 -0.8819
  105MPD2    N1 1610   3.879   2.423  17.381 -0.2149  0.1041  0.0195
  105MPD2    H7 1611   3.804   2.490  17.372 -1.8693 -1.5466  1.4524
  106TCq2    C1 1612   3.563   2.140   0.115 -0.0882  0.7081 -0.6869
  106TCq2    O2 1613   3.617   2.031   0.117  0.0418  0.4310  0.1205
  106TCq2    C2 1614   3.425   2.141   0.169  0.4376 -0.2542  0.5911
  106TCq2    C3 1615   3.380   2.255   0.230 -0.4538 -0.1260  0.5035
  106TCq2    C4 1616   3.272   2.254   0.309 -0.0623 -0.1035  0.6427
  106TCq2    C5 1617   3.222   2.136   0.342  0.9105  0.4994 -0.3097
  106TCq2    C6 1618   3.273   2.020   0.294 -0.2519  0.7794 -0.3006
  106TCq2    C7 1619   3.364   2.023   0.195 -0.4771  0.4980 -0.7725
  106TCq2    C8 1620   3.316   1.928   0.399  0.1401  0.1096  0.0740
  106TCq2    O4 1621   3.365   1.822   0.366 -0.5310  0.6248  0.5077
  106TCq2    C9 1622   3.227   2.377   0.357  0.5604 -0.6411  0.2495
  106TCq2    O5 1623   3.154   2.372   0.460  0.5935  0.0819 -0.3040
  106TCq2    O6 1624   3.280   2.487   0.312  0.2392  0.4964  0.4069
  106TCq2    H2 1625   3.431   2.350   0.218  0.8902 -1.0815 -1.3688
  106TCq2    H3 1626   3.134   2.135   0.405  2.6109  0.7611  2.0540
  106TCq2    H4 1627   3.409   1.929   0.164 -1.3428 -0.2047  0.1146
  107TMC2    C1 1628   0.386   1.068  11.509 -0.3764 -0.4211 -0.8875
  107TMC2    C2 1629   0.399   0.997  11.625  0.4568 -1.2890  0.2194
  107TMC2    C3 1630   0.349   0.864  11.637  0.4305 -0.4252  0.7906
  107TMC2    C4 1631   0.336   1.005  11.403  0.0438  0.9898  0.0353
  107TMC2    C5 1632   0.313   0.871  11.405  0.5543  0.4582 -0.0105
  107TMC2    C6 1633   0.311   0.799  11.521 -0.0746  0.3139  0.2979
  107TMC2     C 1634   0.355   1.207  11.525  0.3081 -0.5189 -1.2375
  107TMC2     O 1635   0.363   1.241  11.642  0.5589 -0.1349 -0.4175
  107TMC2     H 1636   0.436   1.041  11.717 -0.2287 -0.4489  0.0945
  107TMC2    H1 1637   0.311   1.065  11.316 -1.1319 -1.0313 -1.0188
  107TMC2    H2 1638   0.301   0.691  11.522 -3.0794  0.5946  1.4015
  107TMC2    C7 1639   0.269   0.803  11.280 -0.0031  0.6013  0.4645
  107TMC2    C8 1640   0.338   0.809  11.766 -0.3027 -0.3578 -0.0812
  107TMC2    O1 1641   0.196   0.706  11.285 -0.4956 -0.6438 -0.0742
  107TMC2    O2 1642   0.420   0.829  11.854  0.2290 -0.0197 -0.2019
  107TMC2    O5 1643   0.248   0.709  11.763  0.4147 -0.1540  0.5247
  107TMC2    H5 1644   0.189   0.717  11.685 -0.7213  2.4932  1.6398
  108MPD2     C 1645   0.187   1.462  11.295 -0.4189  0.8160  0.2228
  108MPD2    C1 1646   0.222   1.394  11.416  0.5699 -0.9518 -0.9556
  108MPD2    C2 1647   0.167   1.438  11.531 -0.3114 -0.4761  0.6267
  108MPD2    C3 1648   0.086   1.552  11.540 -0.4809  0.2430  0.0027
  108MPD2    C4 1649   0.054   1.624  11.422 -0.5818  0.1412 -0.1086
  108MPD2    C5 1650   0.102   1.570  11.304  0.7345  0.3950 -0.0794
  108MPD2     H 1651   0.185   1.381  11.621 -2.1942 -0.4661  1.0098
  108MPD2    H1 1652   4.705   1.705  11.420 -0.4129  0.3033  0.4849
  108MPD2    H2 1653   0.208   1.412  11.202 -1.3156 -4.1550  2.6804
  108MPD2    H3 1654   0.064   1.610  11.211 -0.1849 -0.0319  0.1124
  108MPD2     N 1655   0.021   1.597  11.663  0.0512 -0.0728  0.5303
  108MPD2    H5 1656   4.679   1.674  11.647 -1.0765 -0.8164  1.5398
  108MPD2    N1 1657   0.304   1.273  11.412 -0.0560 -0.5205 -0.1040
  108MPD2    H7 1658   0.324   1.241  11.318  0.4346 -2.1271  0.5448
  109MPD2     C 1659   4.371   3.468   1.802  0.2771 -0.5532 -0.0493
  109MPD2    C1 1660   4.419   3.502   1.682  0.1770  0.0648 -0.0680
  109MPD2    C2 1661   4.537   3.577   1.676 -0.0324  0.0810 -0.0937
  109MPD2    C3 1662   4.627   3.575   1.784 -0.2886  0.4456  0.0072
  109MPD2    C4 1663   4.581   3.536   1.907 -0.5899 -0.4020  0.8495
  109MPD2    C5 1664   4.451   3.480   1.916 -0.4343 -0.6401 -0.0505
  109MPD2     H 1665   4.581   3.600   1.579 -0.9358  1.7990 -0.0851
  109MPD2    H1 1666   4.654   3.526   1.987  1.1824 -0.0273 -0.7172
  109MPD2    H2 1667   4.290   3.397   1.816  0.6359 -1.1172 -0.8006
  109MPD2    H3 1668   4.415   3.436   2.008  2.9000 -0.8837  1.1129
  109MPD2     N 1669   0.035   3.635   1.759  0.4095  0.0799 -0.0447
  109MPD2    H5 1670   0.046   3.685   1.672 -1.1510 -0.8079 -0.7441
  109MPD2    N1 1671   4.350   3.458   1.564 -0.3081  0.0403  0.3091
  109MPD2    H7 1672   4.265   3.405   1.582  2.0410 -3.8224  0.1002
  110TCq2    C1 1673   0.143   3.636   1.845  0.6493 -0.3138 -0.3055
  110TCq2    O2 1674   0.158   3.573   1.950  0.8213 -0.0284 -0.4708
  110TCq2    C2 1675   0.250   3.705   1.790 -0.3677  0.8165  0.2833
  110TCq2    C3 1676   0.376   3.695   1.852  0.9292 -0.1225 -0.1419
  110TCq2    C4 1677   0.486   3.736   1.786 -0.0297 -0.3287  0.2249
  110TCq2    C5 1678   0.480   3.785   1.653  0.0092  0.2546 -0.3574
  110TCq2    C6 1679   0.354   3.793   1.592 -0.0484  0.2627 -0.3951
  110TCq2    C7 1680   0.238   3.754   1.660  0.1037 -0.0053 -0.1705
  110TCq2    C8 1681   0.333   3.875   1.474 -0.2999 -0.4858  0.2532
  110TCq2    O4 1682   0.222   3.881   1.422  0.0880  0.1285 -0.4593
  110TCq2    C9 1683   0.612   3.717   1.845  0.0254 -0.2024 -0.4296
  110TCq2    O5 1684   0.619   3.613   1.916  0.0338  0.4634  0.1137
  110TCq2    O6 1685   0.711   3.773   1.786 -0.1035 -0.0949 -0.1987
  110TCq2    H2 1686   0.389   3.663   1.955 -0.6623  0.4906  0.2490
  110TCq2    H3 1687   0.574   3.805   1.601  0.5742  0.8582  0.9068
  110TCq2    H4 1688   0.146   3.771   1.605  0.7066  0.6297 -0.9841
  111TMC2    C1 1689   0.328   3.726  11.215  0.0914  0.9706 -0.1757
  111TMC2    C2 1690   0.444   3.742  11.144 -0.0286  0.4732 -0.0844
  111TMC2    C3 1691   0.563   3.748  11.216 -0.2854  0.5711 -0.2856
  111TMC2    C4 1692   0.329   3.721  11.351  0.8152  0.3273  0.0781
  111TMC2    C5 1693   0.451   3.706  11.414  0.3324 -0.3301 -0.4623
  111TMC2    C6 1694   0.573   3.725  11.358 -0.0971  0.0547  0.4089
  111TMC2     C 1695   0.204   3.716  11.148 -0.3711  0.1507  0.0416
  111TMC2     O 1696   0.212   3.689  11.030 -0.2744 -0.2749  0.5049
  111TMC2     H 1697   0.445   3.761  11.037  1.5154  0.5837 -0.0550
  111TMC2    H1 1698   0.240   3.707  11.411 -0.2664 -0.2920 -1.6814
  111TMC2    H2 1699   0.670   3.716  11.405  0.5110 -0.4877 -0.9508
  111TMC2    C7 1700   0.452   3.665  11.555  0.5985  0.0035 -0.3739
  111TMC2    C8 1701   0.694   3.761  11.145  0.4143  0.2418 -0.3321
  111TMC2    O1 1702   0.355   3.695  11.620  0.1765  0.4810  0.0187
  111TMC2    O2 1703   0.794   3.812  11.201  0.1464  0.4551  0.6887
  111TMC2    O5 1704   0.692   3.676  11.043 -0.0768  0.0295  0.9125
  111TMC2    H5 1705   0.608   3.627  11.035 -0.5884  1.5406 -3.0137
  112MPD2     C 1706   4.410   3.817  11.165  0.0746 -0.2336  0.4709
  112MPD2    C1 1707   4.483   3.738  11.078  0.1464 -0.4508 -0.0331
  112MPD2    C2 1708   4.617   3.729  11.090 -0.5969 -1.2202  0.6421
  112MPD2    C3 1709   4.683   3.789  11.195 -0.4710 -0.1293  0.0010
  112MPD2    C4 1710   4.616   3.875  11.276 -0.1706 -0.1412  0.1507
  112MPD2    C5 1711   4.478   3.886  11.262  0.1569 -0.2283  0.1837
  112MPD2     H 1712   4.676   3.664  11.027  1.7050  1.9941 -0.5474
  112MPD2    H1 1713   4.655   3.931  11.359 -0.3082 -1.7366  1.2864
  112MPD2    H2 1714   4.305   3.840  11.151  0.6645  1.9899 -0.2839
  112MPD2    H3 1715   4.423   3.945  11.335  1.0229  0.0572  0.6010
  112MPD2     N 1716   0.100   3.778  11.224  0.7416 -0.0535  0.3805
  112MPD2    H5 1717   0.138   3.830  11.302 -2.1260 -1.3442  2.6472
  112MPD2    N1 1718   4.416   3.675  10.959  0.0146  0.3978  0.1302
  112MPD2    H7 1719   4.483   3.640  10.891 -1.1418  2.2283 -1.9408
  113MPD2     C 1720   2.826   1.431   0.927 -0.6740 -0.2844 -0.4630
  113MPD2    C1 1721   2.763   1.555   0.922  0.5072  0.0293  0.0071
  113MPD2    C2 1722   2.701   1.602   0.802  0.0383  0.0446  0.1984
  113MPD2    C3 1723   2.713   1.528   0.690  0.4722 -0.3627 -0.0184
  113MPD2    C4 1724   2.801   1.419   0.687 -0.1342  0.4826  0.2371
  113MPD2    C5 1725   2.844   1.372   0.804 -0.4072 -0.4181  0.3032
  113MPD2     H 1726   2.645   1.694   0.794  1.1066  0.4030 -3.2983
  113MPD2    H1 1727   2.830   1.364   0.599 -1.8842 -0.0626  0.0054
  113MPD2    H2 1728   2.861   1.377   1.014 -0.4939 -0.5800 -0.7170
  113MPD2    H3 1729   2.915   1.291   0.801 -0.0151  0.0033 -1.6339
  113MPD2     N 1730   2.656   1.559   0.560 -1.0445 -0.5132  0.6289
  113MPD2    H5 1731   2.678   1.496   0.483 -1.1838 -2.6201  2.3025
  113MPD2    N1 1732   2.746   1.631   1.039 -0.5530  0.6777 -0.4270
  113MPD2    H7 1733   2.671   1.700   1.040  0.4254  1.7720 -1.5548
  114TCq2    C1 1734   2.566   1.654   0.539  0.1064 -0.2788  0.1160
  114TCq2    O2 1735   2.542   1.755   0.602 -0.0204 -0.7135  0.4729
  114TCq2    C2 1736   2.465   1.612   0.441  0.0860 -0.0660 -0.0433
  114TCq2    C3 1737   2.412   1.713   0.371 -0.2514 -0.0356 -0.0348
  114TCq2    C4 1738   2.336   1.678   0.260  0.0712 -0.4530  0.0928
  114TCq2    C5 1739   2.323   1.549   0.222 -0.5078  0.2443 -0.0644
  114TCq2    C6 1740   2.372   1.447   0.300  0.6006  0.3458 -0.7835
  114TCq2    C7 1741   2.449   1.479   0.407 -0.1116  0.2929  0.4058
  114TCq2    C8 1742   2.325   1.314   0.275 -0.2711  0.1233  0.6665
  114TCq2    O4 1743   2.281   1.287   0.167 -0.5361  0.1303 -0.4690
  114TCq2    C9 1744   2.273   1.780   0.184  0.4217 -0.1167 -0.1037
  114TCq2    O5 1745   2.200   1.744   0.087  0.6182  0.0491 -0.1189
  114TCq2    O6 1746   2.301   1.900   0.205 -0.0437 -0.1515 -0.7807
  114TCq2    H2 1747   2.412   1.813   0.413 -2.2062 -0.8221  1.8577
  114TCq2    H3 1748   2.251   1.529   0.143 -0.9881  1.7565 -0.0127
  114TCq2    H4 1749   2.473   1.404   0.482 -0.0108 -0.1405 -0.0640
  115TMC2    C1 1750   3.635   4.575  17.611  0.5446 -0.4540  0.4154
  115TMC2    C2 1751   3.625   4.580  17.471  0.3210  0.1914  0.6813
  115TMC2    C3 1752   3.613   4.700  17.413 -0.5483  0.3656 -0.0093
  115TMC2    C4 1753   3.620   4.699  17.684  0.2039  0.2695 -0.0038
  115TMC2    C5 1754   3.609   0.091  17.614 -0.0888  1.0419  0.4837
  115TMC2    C6 1755   3.613   0.092  17.479 -0.1584 -0.5154  0.5095
  115TMC2     C 1756   3.639   4.443  17.674  0.2004  0.3864  0.0447
  115TMC2     O 1757   3.608   4.345  17.608 -0.2979 -0.0153 -0.7244
  115TMC2     H 1758   3.614   4.488  17.414  0.9851 -0.0224  0.8890
  115TMC2    H1 1759   3.627   4.712   0.100 -1.9050  0.9787  0.0426
  115TMC2    H2 1760   3.605   0.182  17.419  0.0476 -0.9892 -0.2372
  115TMC2    C7 1761   3.652   0.210  17.680  0.2882 -0.2106 -0.0761
  115TMC2    C8 1762   3.600   4.708  17.266  0.7021  0.5153  0.3785
  115TMC2    O1 1763   3.612   0.231   0.103  0.8704  0.3955  0.1384
  115TMC2    O2 1764   3.640   0.083  17.202  0.6119  0.0455 -0.0514
  115TMC2    O5 1765   3.525   4.605  17.228 -0.1858 -0.4684 -0.0601
  115TMC2    H5 1766   3.473   4.568  17.302 -0.8659 -0.5908 -0.5986
  116MPD2     C 1767   3.525   4.147   0.382 -0.7245 -0.0072  0.9867
  116MPD2    C1 1768   3.501   4.138   0.250  0.9137  0.7150  0.2916
  116MPD2    C2 1769   3.550   4.231   0.168 -0.5293  1.0406  0.2073
  116MPD2    C3 1770   3.617   4.346   0.206 -0.4776  0.3566  0.1598
  116MPD2    C4 1771   3.647   4.347   0.341 -0.1278  0.0547 -0.7648
  116MPD2    C5 1772   3.603   4.251   0.427  0.7112 -0.2200  0.6030
  116MPD2     H 1773   3.517   4.239   0.065 -2.0508  1.0830  0.6964
  116MPD2    H1 1774   3.704   4.427   0.388  0.1581 -0.3563 -0.4131
  116MPD2    H2 1775   3.477   4.085   0.458  2.2227 -0.2602  2.6645
  116MPD2    H3 1776   3.613   4.261   0.535 -1.6176 -0.3805  0.8317
  116MPD2     N 1777   3.648   4.453   0.118  0.6006 -0.0096  0.0084
  116MPD2    H5 1778   3.674   4.543   0.155 -0.5268  1.4380 -2.7442
  116MPD2    N1 1779   3.428   4.027   0.207 -0.2329  0.0328  0.7193
  116MPD2    H7 1780   3.405   3.974   0.290 -0.8008  0.2625  0.7116
  117TMC2    C1 1781   2.229   0.966  13.905 -0.4832 -0.1267 -0.5557
  117TMC2    C2 1782   2.312   0.871  13.944  0.3339  0.2487  0.1532
  117TMC2    C3 1783   2.438   0.915  13.989  0.2651 -0.6438 -0.3690
  117TMC2    C4 1784   2.259   1.099  13.899  0.4689  0.6450 -0.4446
  117TMC2    C5 1785   2.374   1.134  13.950  0.4052  0.0675  0.3641
  117TMC2    C6 1786   2.461   1.045  13.995  0.3742 -0.3225  0.1201
  117TMC2     C 1787   2.108   0.916  13.841  0.0372 -0.2554  0.6760
  117TMC2     O 1788   2.117   0.805  13.790  0.2127  0.0327 -0.0631
  117TMC2     H 1789   2.291   0.766  13.930  0.1813 -0.0697  2.7555
  117TMC2    H1 1790   2.188   1.160  13.845 -0.1271 -0.8576 -1.3760
  117TMC2    H2 1791   2.549   1.087  14.042  0.5606 -0.9084  0.2948
  117TMC2    C7 1792   2.385   1.264  14.025  0.7908 -0.2822 -0.1954
  117TMC2    C8 1793   2.546   0.819  13.981  0.4461  0.1973 -0.5329
  117TMC2    O1 1794   2.450   1.261  14.130  0.2608 -0.2132  0.3022
  117TMC2    O2 1795   2.534   0.699  14.011 -0.6796 -0.0838 -0.0812
  117TMC2    O5 1796   2.652   0.892  13.967  0.1151  1.0967 -0.3320
  117TMC2    H5 1797   2.627   0.961  13.902  0.3400 -0.1081 -1.7039
  118MPD2     C 1798   2.309   1.532  14.127  0.0885  0.4121  0.9957
  118MPD2    C1 1799   2.312   1.500  13.988  0.2519  0.1349 -0.0390
  118MPD2    C2 1800   2.296   1.594  13.887  0.1648  0.0713 -0.5581
  118MPD2    C3 1801   2.280   1.726  13.925 -0.7627  0.0364 -0.4301
  118MPD2    C4 1802   2.276   1.757  14.055 -0.0841 -0.1998 -0.2306
  118MPD2    C5 1803   2.296   1.663  14.156 -0.6099 -0.2417  0.1862
  118MPD2     H 1804   2.303   1.562  13.784  0.4459 -0.0555 -0.4986
  118MPD2    H1 1805   2.273   1.862  14.080 -0.5651 -0.4569  0.7838
  118MPD2    H2 1806   2.323   1.469  14.214 -3.6329 -1.8542 -0.0349
  118MPD2    H3 1807   2.316   1.684  14.260 -1.5882 -1.9224  0.7182
  118MPD2     N 1808   2.288   1.832  13.835  0.0735 -0.1447  0.2194
  118MPD2    H5 1809   2.277   1.923  13.878 -0.7931  0.6910 -1.7818
  118MPD2    N1 1810   2.325   1.366  13.948  0.2478  0.4718 -0.0806
  118MPD2    H7 1811   2.327   1.363  13.846  0.7582  0.8109 -0.0775
  119MPD2     C 1812   4.622   2.708  13.154 -0.2689 -0.3853 -0.7158
  119MPD2    C1 1813   4.658   2.575  13.174 -0.2852 -0.2028 -0.0286
  119MPD2    C2 1814   4.608   2.476  13.096  0.4122  0.5627 -0.0054
  119MPD2    C3 1815   4.525   2.510  12.994 -0.6160  0.4116  0.7443
  119MPD2    C4 1816   4.495   2.642  12.976 -0.2640 -0.3800  0.0914
  119MPD2    C5 1817   4.537   2.745  13.052  0.2645 -0.1625  0.0119
  119MPD2     H 1818   4.617   2.373  13.129 -1.6840  0.9062  1.6785
  119MPD2    H1 1819   4.415   2.666  12.906  0.0487  1.3653  0.3302
  119MPD2    H2 1820   4.667   2.780  13.221 -2.5011  0.5662 -0.2035
  119MPD2    H3 1821   4.510   2.849  13.041 -2.5341 -1.0368 -1.2255
  119MPD2     N 1822   4.452   2.408  12.931  0.8574 -0.2397 -0.5246
  119MPD2    H5 1823   4.362   2.433  12.891 -0.5121 -1.2665  1.8923
  119MPD2    N1 1824   4.716   2.538  13.297 -0.0509  0.9015  0.4897
  119MPD2    H7 1825   0.016   2.613  13.362  0.2989  0.9035  0.3672
  120TCq2    C1 1826   4.502   2.282  12.908 -0.4347  0.2258 -0.2066
  120TCq2    O2 1827   4.622   2.250  12.903 -0.2727 -0.3365 -0.1714
  120TCq2    C2 1828   4.405   2.172  12.906  0.2192  0.7460 -0.9145
  120TCq2    C3 1829   4.461   2.049  12.898  0.2457  0.1847 -0.2078
  120TCq2    C4 1830   4.412   1.948  12.971 -0.2666 -0.4950  0.1795
  120TCq2    C5 1831   4.323   1.982  13.073  0.2415 -0.4706  0.0918
  120TCq2    C6 1832   4.293   2.112  13.096 -0.2933 -0.0728 -0.6557
  120TCq2    C7 1833   4.321   2.203  13.007 -0.1298 -0.1549  0.4405
  120TCq2    C8 1834   4.296   2.152  13.237 -0.7014  0.6759 -0.6875
  120TCq2    O4 1835   4.308   2.268  13.257 -0.1150  0.5509  0.0324
  120TCq2    C9 1836   4.460   1.814  12.954  0.0241  0.1344 -0.3720
  120TCq2    O5 1837   4.512   1.784  12.845  0.2275  0.3211 -0.1611
  120TCq2    O6 1838   4.478   1.750  13.060  0.4872  0.3469  0.1148
  120TCq2    H2 1839   4.542   2.037  12.828  0.4622  0.7042 -0.0504
  120TCq2    H3 1840   4.289   1.897  13.132  0.9003 -2.1644 -1.9445
  120TCq2    H4 1841   4.278   2.299  13.035 -0.3196 -0.1432  0.1173
  121TMC2    C1 1842   2.277   3.961  14.225 -0.1485 -0.5078  0.2004
  121TMC2    C2 1843   2.232   3.920  14.342  0.0955  0.1276 -0.2162
  121TMC2    C3 1844   2.141   3.819  14.342  0.4984  0.2502  0.5165
  121TMC2    C4 1845   2.233   3.896  14.111  0.3567  0.1008  0.7582
  121TMC2    C5 1846   2.147   3.789  14.115  0.3216 -0.1339 -0.0237
  121TMC2    C6 1847   2.090   3.761  14.233 -0.4786  0.0073 -1.2787
  121TMC2     C 1848   2.360   4.077  14.225  0.3770  0.3417 -0.0114
  121TMC2     O 1849   2.422   4.105  14.331  0.3234 -0.2220 -0.2099
  121TMC2     H 1850   2.268   3.957  14.437  1.7509 -0.9612 -0.4242
  121TMC2    H1 1851   2.277   3.926  14.017 -1.1652 -0.1510 -0.0426
  121TMC2    H2 1852   2.025   3.675  14.246 -1.7768  1.1791 -0.1356
  121TMC2    C7 1853   2.061   3.743  14.003  0.4426  0.3291 -0.1271
  121TMC2    C8 1854   2.049   3.824  14.460 -0.6190  0.0322  0.6747
  121TMC2    O1 1855   2.102   3.662  13.920  0.5829 -0.0424  0.1332
  121TMC2    O2 1856   1.933   3.785  14.437  0.4165  0.1048 -0.5165
  121TMC2    O5 1857   2.140   3.790  14.560  0.0592 -0.2162  0.4134
  121TMC2    H5 1858   2.233   3.776  14.533 -0.1066  0.2777 -0.3994
  122MPD2     C 1859   2.534   4.298  14.167 -0.1998 -0.0911 -0.5060
  122MPD2    C1 1860   2.428   4.264  14.085  0.4068  1.2661 -0.8480
  122MPD2    C2 1861   2.405   4.331  13.974  0.2138 -0.1200 -0.0231
  122MPD2    C3 1862   2.486   4.442  13.948 -0.9320 -0.1743 -0.6750
  122MPD2    C4 1863   2.581   4.488  14.036  0.1680  0.2381  0.0268
  122MPD2    C5 1864   2.603   4.412  14.140  0.5822 -0.0769  0.1382
  122MPD2     H 1865   2.327   4.293  13.909 -0.1507  0.4098  0.1067
  122MPD2    H1 1866   2.646   4.568  14.005 -1.5030  1.5242 -0.1265
  122MPD2    H2 1867   2.567   4.248  14.258  0.4723  0.6011 -0.3769
  122MPD2    H3 1868   2.678   4.443  14.212  0.7198 -0.0068 -0.0333
  122MPD2     N 1869   2.474   4.515  13.826 -0.6698  0.1880  0.2620
  122MPD2    H5 1870   2.544   4.581  13.793 -2.7168  1.1038 -2.2406
  122MPD2    N1 1871   2.349   4.155  14.109  0.0703  0.3096 -0.6627
  122MPD2    H7 1872   2.274   4.136  14.043  0.6987 -2.5287 -0.5619
  123MPD2     C 1873   4.564   1.559   9.816 -0.2071  0.2121 -0.0666
  123MPD2    C1 1874   4.451   1.621   9.764  0.3252 -0.2949  0.7849
  123MPD2    C2 1875   4.471   1.738   9.696 -0.3489  0.0342  0.0095
  123MPD2    C3 1876   4.596   1.798   9.694  0.6001  0.2305 -0.2878
  123MPD2    C4 1877   4.709   1.738   9.745  0.1797  0.1784 -0.4393
  123MPD2    C5 1878   4.690   1.619   9.813  0.2412 -0.4883  0.0521
  123MPD2     H 1879   4.394   1.785   9.636 -2.1732 -0.4535  1.9516
  123MPD2    H1 1880   0.084   1.786   9.741  0.4593 -0.2608  1.3759
  123MPD2    H2 1881   4.547   1.464   9.865 -0.5766  0.2961 -0.0304
  123MPD2    H3 1882   0.053   1.565   9.852 -0.1268 -0.0669  1.4618
  123MPD2     N 1883   4.595   1.920   9.623 -0.1842 -0.1590  0.1430
  123MPD2    H5 1884   4.506   1.959   9.593 -0.7531  1.3179  3.6958
  123MPD2    N1 1885   4.320   1.564   9.777 -0.0647 -0.1634  0.2415
  123MPD2    H7 1886   4.317   1.482   9.836  0.3000 -2.0198 -2.2939
  124TCq2    C1 1887   4.702   1.990   9.581  0.3875  0.0413 -0.8266
  124TCq2    O2 1888   0.092   1.981   9.628  0.3116 -0.2933  0.5994
  124TCq2    C2 1889   4.684   2.053   9.449  0.3566  0.0598  0.0260
  124TCq2    C3 1890   0.043   2.151   9.417  0.9783 -0.5464  0.0723
  124TCq2    C4 1891   0.025   2.214   9.297  0.1311  0.1084 -0.2402
  124TCq2    C5 1892   4.651   2.166   9.207 -0.2653 -1.7823 -0.3381
  124TCq2    C6 1893   4.565   2.070   9.250 -0.2442 -0.8726 -0.3863
  124TCq2    C7 1894   4.580   2.007   9.368 -0.1450  0.7938  0.5505
  124TCq2    C8 1895   4.477   2.008   9.151  0.1146 -0.0510  0.0936
  124TCq2    O4 1896   4.434   2.079   9.063  0.4607  0.6524  0.2619
  124TCq2    C9 1897   0.124   2.318   9.256 -0.4331 -0.2123  0.6413
  124TCq2    O5 1898   0.117   2.359   9.134 -0.7408  0.1073 -0.0785
  124TCq2    O6 1899   0.210   2.366   9.340  0.1427 -0.5233  0.7486
  124TCq2    H2 1900   0.120   2.182   9.487  0.6429 -0.2114  0.2901
  124TCq2    H3 1901   4.645   2.205   9.106  0.1363 -2.3807 -0.5906
  124TCq2    H4 1902   4.512   1.929   9.400  2.4265 -0.4639  2.9083
  125TMC2    C1 1903   1.492   2.731   8.994 -0.0248  0.0697 -0.2303
  125TMC2    C2 1904   1.590   2.671   9.067 -0.4530  0.4331  0.9489
  125TMC2    C3 1905   1.651   2.743   9.161 -0.2010 -0.2268 -0.0618
  125TMC2    C4 1906   1.471   2.864   8.996  0.3521 -0.0995 -0.5627
  125TMC2    C5 1907   1.544   2.942   9.079 -0.2709 -0.2148  0.0637
  125TMC2    C6 1908   1.629   2.882   9.175 -0.0261  0.0062  0.0035
  125TMC2     C 1909   1.387   2.657   8.929  0.3273  0.2342  0.0579
  125TMC2     O 1910   1.279   2.713   8.927  0.0903  0.5209  0.4624
  125TMC2     H 1911   1.590   2.564   9.083 -1.8137  0.1702 -0.8509
  125TMC2    H1 1912   1.403   2.913   8.928  0.3431  0.2446 -0.3062
  125TMC2    H2 1913   1.698   2.939   9.237 -0.5004 -1.6725  2.0685
  125TMC2    C7 1914   1.509   3.083   9.095  0.4342  0.1554  0.3917
  125TMC2    C8 1915   1.723   2.670   9.268  0.3001 -0.1986  0.1065
  125TMC2    O1 1916   1.410   3.112   9.030 -0.6143  0.1567  0.1447
  125TMC2    O2 1917   1.769   2.549   9.264  0.5017 -0.5429 -0.0683
  125TMC2    O5 1918   1.710   2.745   9.380  0.4055 -0.4085 -0.6539
  125TMC2    H5 1919   1.649   2.820   9.366 -0.4552 -1.3858 -2.1362
  126MPD1     C 1920   1.147   2.235   8.766 -0.5257 -0.0451 -0.1170
  126MPD1    C1 1921   1.281   2.223   8.738  0.3187 -0.2414 -0.8854
  126MPD1    C2 1922   1.369   2.326   8.776 -0.4111  0.2080 -0.2002
  126MPD1    C3 1923   1.322   2.439   8.838  0.3037  0.0161  0.9025
  126MPD1    C4 1924   1.188   2.449   8.862  0.2577  0.5316  0.2733
  126MPD1    C5 1925   1.100   2.349   8.827 -0.3670 -0.4189 -0.3192
  126MPD1     H 1926   1.476   2.309   8.768 -0.5464 -0.5155 -0.5143
  126MPD1    H1 1927   1.153   2.527   8.928  1.5376  2.1103 -0.9174
  126MPD1    H2 1928   1.076   2.155   8.750 -0.8321  0.0215  0.8902
  126MPD1    H3 1929   0.996   2.361   8.855 -0.7584 -1.6890 -1.2182
  126MPD1     N 1930   1.413   2.534   8.878 -0.1959 -0.5032  0.0932
  126MPD1    H5 1931   1.510   2.512   8.861  0.4357  1.9506  0.4088
  126MPD1    N1 1932   1.333   2.095   8.700 -0.1401 -0.3763  0.1533
  126MPD1    H6 1933   1.265   2.038   8.652  0.3015 -0.2340 -0.6363
  126MPD1    H7 1934   1.422   2.099   8.650  1.4306  0.0629  2.9132
  127MPD2     C 1935   2.030   2.345   9.553 -0.0583  0.0991  0.2985
  127MPD2    C1 1936   2.102   2.273   9.635  0.5040  0.3427  0.6640
  127MPD2    C2 1937   2.188   2.332   9.722 -0.1845 -0.8271  0.4348
  127MPD2    C3 1938   2.180   2.474   9.732 -0.1296 -0.4338  0.2663
  127MPD2    C4 1939   2.100   2.548   9.643  0.2704 -0.2488 -0.5713
  127MPD2    C5 1940   2.025   2.483   9.543  0.5187 -0.0355  0.0474
  127MPD2     H 1941   2.239   2.273   9.797 -1.0291  1.9746  3.2240
  127MPD2    H1 1942   2.105   2.656   9.642 -0.7021 -0.1871  1.3804
  127MPD2    H2 1943   1.977   2.297   9.471 -1.1598  1.0309  0.4591
  127MPD2    H3 1944   1.967   2.541   9.472 -0.4556 -0.4718  0.4796
  127MPD2     N 1945   2.253   2.529   9.841 -0.9348 -0.1003  0.1825
  127MPD2    H5 1946   2.300   2.469   9.907  1.6111 -0.7369 -2.2247
  127MPD2    N1 1947   2.094   2.133   9.627  0.0597 -0.1836 -0.1431
  127MPD2    H7 1948   2.027   2.101   9.557  0.5381 -2.1650  0.3134
  128TCq2    C1 1949   2.186   2.041   9.685  0.2770  0.2466 -0.2446
  128TCq2    O2 1950   2.302   2.069   9.714 -0.0520 -0.4416  0.1498
  128TCq2    C2 1951   2.160   1.899   9.673 -0.1096  0.4394  0.8652
  128TCq2    C3 1952   2.263   1.810   9.700  0.5939 -0.3991  0.5518
  128TCq2    C4 1953   2.223   1.678   9.717 -0.0410  0.3849 -0.2149
  128TCq2    C5 1954   2.098   1.637   9.717  0.3327  0.4393  0.5610
  128TCq2    C6 1955   2.002   1.724   9.682 -0.4754  0.0580  0.0750
  128TCq2    C7 1956   2.031   1.859   9.659 -0.0472  0.2748  0.1786
  128TCq2    C8 1957   1.865   1.684   9.696 -0.1322  0.6115  0.1704
  128TCq2    O4 1958   1.779   1.749   9.640 -0.4446  0.6772 -0.7079
  128TCq2    C9 1959   2.329   1.583   9.728  0.7549  0.8542  0.0071
  128TCq2    O5 1960   2.445   1.633   9.718  0.3835 -0.1532 -0.1095
  128TCq2    O6 1961   2.300   1.480   9.800  0.5017  0.0172  1.0070
  128TCq2    H2 1962   2.365   1.843   9.719  0.2491  1.2984 -0.5077
  128TCq2    H3 1963   2.084   1.529   9.709 -0.6357  0.4478  2.2005
  128TCq2    H4 1964   1.945   1.923   9.648  0.6144  1.2493  0.6799
  129MPD2     C 1965   0.193   3.779   0.910  0.5628 -0.2998  0.3136
  129MPD2    C1 1966   0.314   3.776   0.975  0.0109  0.2153  0.7535
  129MPD2    C2 1967   0.412   3.852   0.921 -0.8374  0.5087  1.4810
  129MPD2    C3 1968   0.409   3.908   0.796  1.0997 -0.7292  0.4341
  129MPD2    C4 1969   0.284   3.914   0.739  0.5301 -0.3170  0.6201
  129MPD2    C5 1970   0.176   3.850   0.798  0.2524  0.3831  0.2036
  129MPD2     H 1971   0.505   3.863   0.977  0.5549 -1.6876 -0.3825
  129MPD2    H1 1972   0.260   3.967   0.647 -1.1415 -1.1566  0.5743
  129MPD2    H2 1973   0.109   3.716   0.937  0.1352 -0.1076 -0.5620
  129MPD2    H3 1974   0.081   3.846   0.746 -1.7118  1.7974  3.6673
  129MPD2     N 1975   0.518   3.979   0.746  0.2561 -0.8172  0.4230
  129MPD2    H5 1976   0.591   4.004   0.812 -0.3541  1.2212  0.3307
  129MPD2    N1 1977   0.342   3.695   1.089 -0.3954  0.2625 -0.4880
  129MPD2    H7 1978   0.434   3.704   1.130  0.2503 -0.4927 -1.7853
  130TCq2    C1 1979   0.274   3.577   1.125  0.0526 -0.4774  0.2481
  130TCq2    O2 1980   0.186   3.524   1.059 -0.0013 -0.1828 -0.0984
  130TCq2    C2 1981   0.356   3.497   1.219  0.2721  0.6220 -0.0343
  130TCq2    C3 1982   0.444   3.555   1.311 -0.5812 -0.1196 -0.1952
  130TCq2    C4 1983   0.531   3.478   1.379  0.6324 -0.6212 -0.4310
  130TCq2    C5 1984   0.517   3.340   1.385 -0.5858  0.3647 -0.5324
  130TCq2    C6 1985   0.421   3.288   1.301 -0.6158 -0.1574 -0.0072
  130TCq2    C7 1986   0.351   3.360   1.209 -0.4282  0.1016  0.1524
  130TCq2    C8 1987   0.394   3.147   1.302 -0.0374  0.5454  0.2197
  130TCq2    O4 1988   0.283   3.112   1.269  0.1854 -0.0695  0.1684
  130TCq2    C9 1989   0.635   3.543   1.455  0.5880  0.1444  0.8383
  130TCq2    O5 1990   0.683   3.652   1.420 -0.3054  0.3148  0.1347
  130TCq2    O6 1991   0.664   3.499   1.571  0.1399 -0.3775 -0.1157
  130TCq2    H2 1992   0.439   3.661   1.333  0.1452  0.1693 -1.4391
  130TCq2    H3 1993   0.574   3.280   1.455  0.3347  0.1661 -1.4503
  130TCq2    H4 1994   0.289   3.306   1.138 -0.7198  1.5785 -0.7356
  131MPD2     C 1995   4.056   2.096   9.231  0.0409 -0.8294 -0.0955
  131MPD2    C1 1996   4.134   2.080   9.345 -0.1240  0.2263 -0.1288
  131MPD2    C2 1997   4.101   1.970   9.419  0.1465  0.5796  0.3714
  131MPD2    C3 1998   4.012   1.872   9.383 -0.2138 -0.2000 -0.1296
  131MPD2    C4 1999   3.946   1.884   9.261  0.2268  0.1130 -0.3657
  131MPD2    C5 2000   3.967   1.997   9.192 -0.6689  0.6490  0.1131
  131MPD2     H 2001   4.131   1.965   9.523  1.7547  0.3876 -0.1020
  131MPD2    H1 2002   3.864   1.820   9.232 -1.1688  1.2052  1.2349
  131MPD2    H2 2003   4.062   2.184   9.168  2.1435 -0.6887  0.3182
  131MPD2    H3 2004   3.916   2.013   9.098  1.1463  1.2735 -0.7753
  131MPD2     N 2005   3.990   1.767   9.469  0.3109 -0.0516 -0.1522
  131MPD2    H5 2006   4.059   1.767   9.544 -1.1028 -0.4663  1.1507
  131MPD2    N1 2007   4.231   2.180   9.378  1.1118  0.0099  0.4660
  131MPD2    H7 2008   4.202   2.267   9.333 -1.9331  0.6273  3.5461
  132TCq2    C1 2009   4.558   2.549   9.310  0.2682  0.9234 -0.3769
  132TCq2    O2 2010   4.522   2.529   9.194  0.2185 -0.1853  0.0475
  132TCq2    C2 2011   4.525   2.461   9.417  0.2689  0.4344  0.8654
  132TCq2    C3 2012   4.579   2.482   9.541  0.3656  0.6669  0.7941
  132TCq2    C4 2013   4.531   2.411   9.647  0.2459 -0.5144  0.3253
  132TCq2    C5 2014   4.438   2.315   9.633 -0.4073  0.3574  0.6002
  132TCq2    C6 2015   4.385   2.290   9.510 -0.1354  0.3949 -0.0312
  132TCq2    C7 2016   4.435   2.359   9.398 -0.0727 -0.6325 -0.4997
  132TCq2    C8 2017   4.307   2.172   9.488  0.4509 -0.0707  0.1041
  132TCq2    O4 2018   4.342   2.080   9.562  0.7439 -0.3136 -0.6730
  132TCq2    C9 2019   4.576   2.454   9.779  0.4183 -0.3875 -0.4715
  132TCq2    O5 2020   4.679   2.527   9.775  0.1773  0.1674  0.2658
  132TCq2    O6 2021   4.516   2.416   9.882 -0.1784  0.3395 -0.4392
  132TCq2    H2 2022   4.653   2.558   9.564  1.3762 -0.4537  1.2503
  132TCq2    H3 2023   4.403   2.258   9.718 -2.2533 -0.2659 -0.5648
  132TCq2    H4 2024   4.391   2.352   9.300  2.1131  1.1742 -1.5979
  133MPD2     C 2025   3.402   1.789   9.122  0.1071 -0.3413  0.3490
  133MPD2    C1 2026   3.505   1.826   9.045 -0.2135 -0.1021  0.0467
  133MPD2    C2 2027   3.555   1.955   9.046  0.3269  0.2559  0.4455
  133MPD2    C3 2028   3.501   2.046   9.134  0.2531 -0.4228  0.5065
  133MPD2    C4 2029   3.400   2.003   9.223 -0.3631 -0.0068  0.2423
  133MPD2    C5 2030   3.351   1.877   9.215 -0.5353  0.2631 -0.8163
  133MPD2     H 2031   3.628   1.986   8.973  0.5790  0.0966  0.6290
  133MPD2    H1 2032   3.360   2.080   9.288 -1.0644 -0.5889  0.4972
  133MPD2    H2 2033   3.349   1.695   9.116 -0.1241 -0.2405  0.8357
  133MPD2    H3 2034   3.270   1.838   9.275 -1.5437 -0.5149 -2.6840
  133MPD2     N 2035   3.554   2.175   9.156  0.0892 -0.1563  0.2531
  133MPD2    H5 2036   3.502   2.232   9.222 -1.1123 -0.5901 -0.2952
  133MPD2    N1 2037   3.560   1.724   8.964  0.1302 -0.2890 -0.8387
  133MPD2    H7 2038   3.514   1.633   8.966  2.5192 -1.4866  0.6086
  134TCq2    C1 2039   3.677   1.725   8.895 -0.3255  0.2914 -0.0543
  134TCq2    O2 2040   3.758   1.814   8.875  0.1335 -0.2735  0.1685
  134TCq2    C2 2041   3.704   1.601   8.816  0.7197 -0.3763  0.1306
  134TCq2    C3 2042   3.608   1.501   8.809 -0.2569 -0.0712 -0.3893
  134TCq2    C4 2043   3.645   1.380   8.760  0.7765  0.0666  0.4474
  134TCq2    C5 2044   3.774   1.355   8.723  0.0080  0.1594 -0.5200
  134TCq2    C6 2045   3.868   1.461   8.729 -0.0531 -0.2868 -0.3757
  134TCq2    C7 2046   3.834   1.586   8.772 -0.0220 -0.5626 -0.7658
  134TCq2    C8 2047   4.003   1.414   8.751  0.2641 -0.1620  0.6768
  134TCq2    O4 2048   4.016   1.293   8.763  1.0388 -0.2808  0.3869
  134TCq2    C9 2049   3.541   1.279   8.739  0.4321  0.4384  0.3773
  134TCq2    O5 2050   3.577   1.162   8.706 -0.1632  1.0249  0.1705
  134TCq2    O6 2051   3.428   1.324   8.713 -0.1167  0.0800  0.2653
  134TCq2    H2 2052   3.505   1.510   8.843  0.1092  0.3425  0.5860
  134TCq2    H3 2053   3.799   1.261   8.675  0.1614 -0.8577  1.5735
  134TCq2    H4 2054   3.914   1.657   8.791 -0.1014 -0.4346 -0.9095
  135MPD2     C 2055   1.408   4.193   8.952  0.2228  0.9802  0.2204
  135MPD2    C1 2056   1.438   4.137   9.069  0.1023 -0.0174  0.4366
  135MPD2    C2 2057   1.544   4.051   9.079 -0.0008  0.2462 -0.3946
  135MPD2    C3 2058   1.611   4.009   8.971  0.1726 -0.0889 -0.0893
  135MPD2    C4 2059   1.583   4.067   8.850  0.3969 -0.3553  0.3615
  135MPD2    C5 2060   1.490   4.169   8.845 -0.0275  0.0046 -0.0758
  135MPD2     H 2061   1.553   3.998   9.173  1.3855  1.3119  0.0831
  135MPD2    H1 2062   1.630   4.036   8.757 -0.2941  1.1835 -0.5076
  135MPD2    H2 2063   1.337   4.275   8.942 -0.9553 -0.1941 -0.9445
  135MPD2    H3 2064   1.491   4.227   8.753  0.2140  0.0983 -0.0135
  135MPD2     N 2065   1.697   3.898   8.971  0.5245 -0.8458  0.3942
  135MPD2    H5 2066   1.746   3.871   8.886  0.5154 -1.0787  0.4628
  135MPD2    N1 2067   1.366   4.158   9.185 -0.6814 -0.0378 -0.0368
  135MPD2    H7 2068   1.403   4.118   9.271 -1.6279 -1.1008 -0.1225
  136TCq2    C1 2069   1.233   4.203   9.189 -0.5971  0.4788  0.1257
  136TCq2    O2 2070   1.169   4.254   9.104 -0.4554 -0.3670 -0.1677
  136TCq2    C2 2071   1.165   4.159   9.305 -0.4888 -0.6098 -0.0075
  136TCq2    C3 2072   1.045   4.102   9.287 -0.2870 -0.4010  0.1305
  136TCq2    C4 2073   0.978   4.059   9.398 -0.0381 -0.0293  0.7922
  136TCq2    C5 2074   1.022   4.091   9.524 -0.0501 -0.0409 -1.0267
  136TCq2    C6 2075   1.137   4.165   9.536  0.1366 -0.4690  0.2140
  136TCq2    C7 2076   1.216   4.193   9.428  0.0662 -0.5187 -0.3572
  136TCq2    C8 2077   1.207   4.170   9.666  0.2040 -0.6111  0.2286
  136TCq2    O4 2078   1.319   4.219   9.662  0.4213 -0.0928 -0.1942
  136TCq2    C9 2079   0.865   3.971   9.384 -0.0559 -0.0889  0.1920
  136TCq2    O5 2080   0.819   3.956   9.270  0.1661 -0.5044  0.3027
  136TCq2    O6 2081   0.822   3.919   9.491 -0.1406  0.3067 -0.1434
  136TCq2    H2 2082   1.016   4.071   9.187 -0.9719  0.0390  0.1918
  136TCq2    H3 2083   0.948   4.070   9.600  0.6703 -0.1963 -0.3771
  136TCq2    H4 2084   1.297   4.263   9.443  0.2614 -1.1383  1.5276
  137MPD2     C 2085   1.480   2.161   9.935 -0.5023  0.3229  0.2075
  137MPD2    C1 2086   1.412   2.268   9.874 -0.2711 -0.1202 -0.7356
  137MPD2    C2 2087   1.427   2.396   9.932  0.7592 -1.0090  0.1496
  137MPD2    C3 2088   1.510   2.407  10.045 -0.4138 -0.4004  0.2649
  137MPD2    C4 2089   1.561   2.300  10.110  0.0737  0.5733  0.7332
  137MPD2    C5 2090   1.550   2.172  10.054 -0.1000  0.1331  1.1312
  137MPD2     H 2091   1.377   2.485   9.894  0.8716  0.2071  2.8265
  137MPD2    H1 2092   1.611   2.306  10.206 -1.6625  0.3743  1.6402
  137MPD2    H2 2093   1.477   2.062   9.891 -1.2335  0.4133  0.0668
  137MPD2    H3 2094   1.596   2.087  10.102 -0.1349 -1.8681 -2.3853
  137MPD2     N 2095   1.531   2.537  10.091  0.1108  0.1583  0.1209
  137MPD2    H5 2096   1.464   2.605  10.058 -1.4817 -0.9763  0.9702
  137MPD2    N1 2097   1.333   2.246   9.762 -0.4896  0.2456  0.3548
  137MPD2    H7 2098   1.331   2.154   9.720 -1.6218 -0.1010  1.1762
  138TCq2    C1 2099   1.241   2.328   9.701 -0.1279  0.5603 -0.6888
  138TCq2    O2 2100   1.216   2.445   9.719 -0.0158  0.3520  0.2235
  138TCq2    C2 2101   1.183   2.262   9.590  0.4064 -0.1718 -0.6989
  138TCq2    C3 2102   1.175   2.127   9.586  0.2345 -0.2563 -0.4276
  138TCq2    C4 2103   1.116   2.074   9.474 -0.6730 -0.9894 -0.3619
  138TCq2    C5 2104   1.065   2.149   9.375 -0.5738  0.2821  0.6397
  138TCq2    C6 2105   1.070   2.287   9.386 -0.1693  0.0385 -1.0500
  138TCq2    C7 2106   1.126   2.344   9.496 -0.4714  0.2477 -1.0279
  138TCq2    C8 2107   1.008   2.369   9.283 -0.2606 -0.1689  0.3140
  138TCq2    O4 2108   0.991   2.318   9.176 -0.2060  0.4598  0.3583
  138TCq2    C9 2109   1.106   1.935   9.468 -0.5475 -0.2937  0.0058
  138TCq2    O5 2110   1.149   1.872   9.569 -0.0312  0.4377 -0.1684
  138TCq2    O6 2111   1.015   1.896   9.390 -0.3153 -0.2483 -0.1345
  138TCq2    H2 2112   1.188   2.056   9.667 -0.1887  0.7281  0.4979
  138TCq2    H3 2113   1.016   2.110   9.287  1.1977  2.1335 -1.1647
  138TCq2    H4 2114   1.126   2.452   9.504  0.5770  0.1951 -0.2334
  139TMC2    C1 2115   1.853   2.087  13.363 -1.1712  0.0540  0.2878
  139TMC2    C2 2116   1.867   2.149  13.235  0.1342  0.4799  0.2744
  139TMC2    C3 2117   1.802   2.261  13.205 -0.1240  0.0442  0.5264
  139TMC2    C4 2118   1.790   2.156  13.464 -0.3619  1.1151 -0.3176
  139TMC2    C5 2119   1.724   2.265  13.422  0.3225  0.0737  0.0082
  139TMC2    C6 2120   1.718   2.319  13.296  0.1810  0.2886  0.1836
  139TMC2     C 2121   1.923   1.964  13.381  0.3378  0.4470 -0.2008
  139TMC2     O 2122   1.969   1.916  13.278  0.5817 -0.3628  0.4742
  139TMC2     H 2123   1.927   2.098  13.161  0.7586  1.3696  0.1662
  139TMC2    H1 2124   1.784   2.109  13.561 -1.5624  1.7283 -0.0887
  139TMC2    H2 2125   1.680   2.418  13.275  1.5056  0.6839 -0.3291
  139TMC2    C7 2126   1.637   2.338  13.523  0.9618 -0.5245  0.5579
  139TMC2    C8 2127   1.799   2.322  13.075 -1.3458 -0.0647  0.8273
  139TMC2    O1 2128   1.600   2.449  13.479 -0.8133  0.2335  0.1133
  139TMC2    O2 2129   1.696   2.366  13.029 -0.2108 -0.3490  0.2865
  139TMC2    O5 2130   1.895   2.265  12.995 -0.2873  0.1920 -0.0383
  139TMC2    H5 2131   1.983   2.258  13.039 -0.8836  1.3963  1.3365
  140MPD2     C 2132   1.893   1.674  13.583  0.4722  0.4703 -0.2790
  140MPD2    C1 2133   1.955   1.761  13.498 -0.2190  0.2627 -0.2036
  140MPD2    C2 2134   2.069   1.710  13.429  0.7477 -0.1702  0.0323
  140MPD2    C3 2135   2.103   1.577  13.439 -0.4761 -0.1017  0.2480
  140MPD2    C4 2136   2.035   1.494  13.531 -0.0977 -0.1508 -0.7914
  140MPD2    C5 2137   1.929   1.543  13.603  0.1994 -0.6693 -0.1844
  140MPD2     H 2138   2.132   1.771  13.365  0.4888  1.4122  1.2796
  140MPD2    H1 2139   2.059   1.393  13.563  0.4350  0.9139  2.1998
  140MPD2    H2 2140   1.797   1.702  13.627 -1.5569 -2.4237 -2.8587
  140MPD2    H3 2141   1.869   1.480  13.667 -0.2241 -1.5859 -1.4849
  140MPD2     N 2142   2.212   1.529  13.364 -0.1855  0.3282 -0.0195
  140MPD2    H5 2143   2.258   1.594  13.301 -1.5161 -1.6510 -3.0390
  140MPD2    N1 2144   1.892   1.887  13.486 -0.4736 -0.7373 -0.0668
  140MPD2    H7 2145   1.805   1.905  13.536  0.5376 -2.0060  2.1003
  141TCq2    C1 2146   2.553   3.413  13.591  0.4069 -0.0546 -0.7851
  141TCq2    O2 2147   2.619   3.461  13.500 -0.2005 -0.4338 -0.0169
  141TCq2    C2 2148   2.615   3.396  13.724 -0.1877  0.1821  0.3732
  141TCq2    C3 2149   2.565   3.295  13.812 -0.4971 -0.0530 -0.8218
  141TCq2    C4 2150   2.628   3.269  13.929 -0.0704  0.0805  0.4234
  141TCq2    C5 2151   2.728   3.352  13.968  0.4581 -0.1784 -0.0086
  141TCq2    C6 2152   2.774   3.447  13.880  0.2082 -0.1758  0.1836
  141TCq2    C7 2153   2.718   3.475  13.755 -0.3989 -0.1938  0.8107
  141TCq2    C8 2154   2.898   3.508  13.920  0.4478 -0.4930 -0.1366
  141TCq2    O4 2155   2.969   3.459  14.006 -0.1096 -0.2499  0.4042
  141TCq2    C9 2156   2.598   3.151  14.003 -0.1617 -0.3476 -0.1721
  141TCq2    O5 2157   2.533   3.056  13.952 -0.2284 -0.3967  0.6389
  141TCq2    O6 2158   2.662   3.135  14.110 -0.2170 -0.2225  0.4339
  141TCq2    H2 2159   2.492   3.223  13.777 -2.0751  0.8632  0.5807
  141TCq2    H3 2160   2.776   3.336  14.063 -1.1405 -2.4295  0.4198
  141TCq2    H4 2161   2.772   3.535  13.683  0.5234 -1.1733  0.6785
  142MPD2     C 2162   4.554   1.052  10.045  0.3202  0.9858  0.0395
  142MPD2    C1 2163   4.488   0.942   9.982 -0.2506 -0.1054 -0.2111
  142MPD2    C2 2164   4.440   0.952   9.851  0.1912  0.5792  0.0198
  142MPD2    C3 2165   4.465   1.073   9.785  0.3406 -0.3668 -0.0806
  142MPD2    C4 2166   4.523   1.180   9.846 -0.1347 -0.1288  0.0077
  142MPD2    C5 2167   4.582   1.168   9.973 -0.1599 -0.0737  0.3553
  142MPD2     H 2168   4.384   0.875   9.799  1.3129 -0.5636  0.4842
  142MPD2    H1 2169   4.542   1.266   9.783 -1.2511  0.1670  0.0900
  142MPD2    H2 2170   4.571   1.049  10.152  1.9238  0.7872 -0.2224
  142MPD2    H3 2171   4.640   1.251  10.011 -1.4573  0.7179  0.5863
  142MPD2     N 2172   4.430   1.097   9.650  0.3166  0.1505 -0.2137
  142MPD2    H5 2173   4.469   1.182   9.612  0.4369  0.7943  1.3606
  142MPD2    N1 2174   4.472   0.832  10.067 -0.6380  0.6237 -0.2692
  142MPD2    H7 2175   4.515   0.830  10.159 -1.2621 -0.0064  0.0143
  143TCq2    C1 2176   4.360   1.012   9.571 -0.3406  0.3200 -0.0270
  143TCq2    O2 2177   4.329   0.898   9.588 -0.4819 -0.3149 -0.2284
  143TCq2    C2 2178   4.328   1.067   9.437 -0.3183 -0.4033  0.1300
  143TCq2    C3 2179   4.246   0.994   9.355  0.2453  0.2881  0.4378
  143TCq2    C4 2180   4.179   1.052   9.252 -0.5041  0.2172 -0.4139
  143TCq2    C5 2181   4.199   1.184   9.223 -0.4671  0.0153 -0.2434
  143TCq2    C6 2182   4.279   1.256   9.313  0.5079  0.6093  0.0833
  143TCq2    C7 2183   4.340   1.198   9.417 -0.2621 -0.4887 -0.2339
  143TCq2    C8 2184   4.326   1.390   9.280 -0.2189  0.4851  0.3648
  143TCq2    O4 2185   4.403   1.447   9.354 -0.3124  0.3190 -0.0787
  143TCq2    C9 2186   4.084   0.980   9.174  0.5525 -0.0488 -0.6028
  143TCq2    O5 2187   4.008   1.045   9.099 -0.1438  0.3551  0.0179
  143TCq2    O6 2188   4.096   0.856   9.175  0.2875  1.1020  0.1883
  143TCq2    H2 2189   4.227   0.891   9.381  0.8302  0.3984  1.3014
  143TCq2    H3 2190   4.165   1.225   9.129 -0.4581  1.0652  0.2113
  143TCq2    H4 2191   4.396   1.268   9.479  2.3328 -0.2734 -2.8220
  144MPD2     C 2192   2.643   1.024   0.390  0.0228  0.2509  0.7132
  144MPD2    C1 2193   2.684   0.900   0.357 -0.3061  0.7540 -0.0083
  144MPD2    C2 2194   2.753   0.823   0.444 -0.4443 -0.4052  0.0741
  144MPD2    C3 2195   2.815   0.876   0.556 -0.5363 -0.2180  0.6676
  144MPD2    C4 2196   2.756   0.996   0.591  0.2114 -1.2380 -0.6324
  144MPD2    C5 2197   2.671   1.070   0.512  0.5562  0.3339 -0.3648
  144MPD2     H 2198   2.773   0.722   0.409 -2.4796 -0.3555 -1.2766
  144MPD2    H1 2199   2.785   1.044   0.685 -0.0681  2.3486 -2.3768
  144MPD2    H2 2200   2.591   1.083   0.317  0.8658  0.7772  0.5443
  144MPD2    H3 2201   2.610   1.153   0.546 -1.4227 -0.8548 -1.0514
  144MPD2     N 2202   2.909   0.814   0.634  0.4020  0.1569 -0.2011
  144MPD2    H5 2203   2.949   0.868   0.710 -0.4334 -3.4465  2.8263
  144MPD2    N1 2204   2.647   0.836   0.235  0.4426 -0.6520 -0.2639
  144MPD2    H7 2205   2.681   0.742   0.218  0.8291 -0.3748 -1.0302
  145TCq2    C1 2206   2.975   0.704   0.591 -0.0300  0.7685  0.1168
  145TCq2    O2 2207   2.986   0.667   0.472  0.6077  0.0843  0.3522
  145TCq2    C2 2208   3.080   0.666   0.680  0.2587 -0.3035 -0.1351
  145TCq2    C3 2209   3.182   0.593   0.635  0.3845  0.1424 -0.5749
  145TCq2    C4 2210   3.293   0.586   0.706 -0.6652 -0.4767  0.1669
  145TCq2    C5 2211   3.313   0.633   0.827  0.5334  0.4147  0.0037
  145TCq2    C6 2212   3.206   0.699   0.878 -0.1011 -0.1370 -0.0173
  145TCq2    C7 2213   3.082   0.717   0.810 -0.0338 -0.6631  0.1191
  145TCq2    C8 2214   3.225   0.742   1.014  0.4669  0.0556 -0.0819
  145TCq2    O4 2215   3.320   0.692   1.072  0.2050 -0.0854 -0.4533
  145TCq2    C9 2216   3.404   0.536   0.627  0.3424  0.0717  0.5352
  145TCq2    O5 2217   3.516   0.551   0.676  0.0535  1.1317  0.1093
  145TCq2    O6 2218   3.369   0.451   0.537  0.0828  0.1721 -0.3582
  145TCq2    H2 2219   3.187   0.569   0.530 -0.7589 -0.0847 -0.5869
  145TCq2    H3 2220   3.411   0.644   0.873  0.0575  4.2138  0.1367
  145TCq2    H4 2221   2.991   0.744   0.863 -0.0693 -2.2189  0.8439
  146TMC2    C1 2222   4.209   4.150  12.447 -0.0515  0.3536 -0.5205
  146TMC2    C2 2223   4.163   4.109  12.325  0.3756 -0.5527  0.2862
  146TMC2    C3 2224   4.247   4.099  12.219  0.2488  0.3348 -0.2554
  146TMC2    C4 2225   4.346   4.175  12.462  0.4104 -0.4532  0.4485
  146TMC2    C5 2226   4.426   4.165  12.359  0.2656 -0.9808  0.4989
  146TMC2    C6 2227   4.380   4.118  12.238 -0.0215 -0.3283 -0.3691
  146TMC2     C 2228   4.118   4.165  12.555  0.6822 -0.9364  0.1278
  146TMC2     O 2229   4.001   4.167  12.534  0.5200 -0.3368  0.7483
  146TMC2     H 2230   4.056   4.089  12.320  0.3105 -0.7914  2.5734
  146TMC2    H1 2231   4.375   4.231  12.551  0.4147 -0.1153  0.2367
  146TMC2    H2 2232   4.456   4.116  12.160  1.1986 -2.1165  0.8678
  146TMC2    C7 2233   4.575   4.176  12.373 -0.3885 -0.7155  0.4865
  146TMC2    C8 2234   4.210   4.013  12.109  0.3151 -0.8840  0.5252
  146TMC2    O1 2235   4.635   4.210  12.273  0.2139  0.1833  0.4676
  146TMC2    O2 2236   4.235   4.052  11.994  0.4717 -0.4248 -0.2604
  146TMC2    O5 2237   4.221   3.884  12.151 -1.0675  0.3929  0.0313
  146TMC2    H5 2238   4.227   3.875  12.249 -2.3624 -0.5363  0.0168
  147MPD2     C 2239   0.294   4.056  12.604  0.2549  0.2662 -0.0845
  147MPD2    C1 2240   0.194   4.018  12.692 -0.4150  0.0067  0.1854
  147MPD2    C2 2241   0.064   4.047  12.647  0.0835  0.1212 -0.1214
  147MPD2    C3 2242   0.031   4.098  12.523 -0.2232  0.2110  0.0270
  147MPD2    C4 2243   0.135   4.122  12.438  0.7846  0.7105 -0.2044
  147MPD2    C5 2244   0.264   4.099  12.477  0.4488  0.1293  0.4921
  147MPD2     H 2245   4.697   4.022  12.702 -0.1564  0.2031 -0.4780
  147MPD2    H1 2246   0.118   4.145  12.333  2.1116  0.3370 -0.5046
  147MPD2    H2 2247   0.396   4.024  12.618  0.8993  1.7944 -1.2801
  147MPD2    H3 2248   0.342   4.109  12.403 -0.7634 -0.9023 -0.9103
  147MPD2     N 2249   4.622   4.125  12.494 -0.5646  0.5854  0.5472
  147MPD2    H5 2250   4.557   4.090  12.564 -2.4946 -0.2544 -1.6429
  147MPD2    N1 2251   0.229   3.955  12.813 -0.4052 -0.9779 -1.0594
  147MPD2    H7 2252   0.327   3.933  12.830 -0.6008 -0.9693  0.1028
  148MPD2     C 2253   4.487   2.914  10.332 -0.1817  0.6958  0.0122
  148MPD2    C1 2254   4.549   2.802  10.278 -1.2512  0.0417 -0.1003
  148MPD2    C2 2255   4.468   2.698  10.246  0.4827 -0.1901 -0.4434
  148MPD2    C3 2256   4.332   2.693  10.275 -0.3815 -0.0248 -0.4554
  148MPD2    C4 2257   4.273   2.809  10.330 -0.5428  0.2504  0.1721
  148MPD2    C5 2258   4.357   2.914  10.359 -0.9908 -0.2399  0.7082
  148MPD2     H 2259   4.520   2.615  10.198 -1.9744 -1.6806 -0.5548
  148MPD2    H1 2260   4.167   2.813  10.351 -0.7846  1.5591 -1.3049
  148MPD2    H2 2261   4.547   3.002  10.353 -0.9564  1.6273 -1.6592
  148MPD2    H3 2262   4.303   2.996  10.405 -0.9146  0.3298 -0.2126
  148MPD2     N 2263   4.246   2.590  10.245  0.1104 -0.4400 -0.1127
  148MPD2    H5 2264   4.146   2.604  10.255 -0.2634 -1.9143 -1.9096
  148MPD2    N1 2265   4.687   2.788  10.258 -0.2219  0.6639  0.0386
  148MPD2    H7 2266   4.712   2.715  10.192  2.3902  1.4934  0.1097
  149TCq2    C1 2267   0.064   2.862  10.327 -0.0949 -0.2213  1.2209
  149TCq2    O2 2268   0.045   2.940  10.420  0.5962  0.4746  0.0950
  149TCq2    C2 2269   0.200   2.811  10.324  0.4633 -0.5293  0.3686
  149TCq2    C3 2270   0.277   2.807  10.434 -0.0340  0.7349  0.4228
  149TCq2    C4 2271   0.386   2.728  10.447 -0.4769  0.0388  0.2152
  149TCq2    C5 2272   0.417   2.639  10.346 -0.3182  0.1345  0.2858
  149TCq2    C6 2273   0.342   2.639  10.227  0.2593 -0.4644  0.1841
  149TCq2    C7 2274   0.239   2.731  10.218 -0.0758  0.7361 -0.1406
  149TCq2    C8 2275   0.311   2.507  10.172  0.2500 -0.4130 -0.4758
  149TCq2    O4 2276   0.202   2.491  10.116  0.0455  0.6000 -0.1514
  149TCq2    C9 2277   0.404   2.685  10.578  0.3984  0.1043  1.0097
  149TCq2    O5 2278   0.497   2.607  10.609 -0.0133  0.0711  0.3688
  149TCq2    O6 2279   0.320   2.710  10.668  0.0579  0.3972  0.2803
  149TCq2    H2 2280   0.243   2.857  10.523 -2.1039  1.4835 -0.7743
  149TCq2    H3 2281   0.489   2.559  10.359 -0.6312 -0.3526 -0.9840
  149TCq2    H4 2282   0.187   2.734  10.122 -1.2309 -1.0799  0.4154
  150MPD2     C 2283   1.322   2.087  12.520  0.6045 -0.8607 -0.3429
  150MPD2    C1 2284   1.265   2.195  12.458 -0.0596 -0.0395  0.5520
  150MPD2    C2 2285   1.348   2.305  12.433  0.1603  0.1042 -0.0251
  150MPD2    C3 2286   1.479   2.305  12.466  0.1469 -0.2432  0.5522
  150MPD2    C4 2287   1.535   2.199  12.529 -0.5025 -0.0109 -0.3021
  150MPD2    C5 2288   1.453   2.092  12.558  0.1039 -0.0490  0.1646
  150MPD2     H 2289   1.300   2.393  12.393 -2.1667 -1.0288  0.2779
  150MPD2    H1 2290   1.638   2.186  12.563 -0.8872  0.1513  0.9152
  150MPD2    H2 2291   1.270   1.996  12.547  1.6277 -0.8888  1.5751
  150MPD2    H3 2292   1.489   2.005  12.611  1.4044 -0.4696 -1.4016
  150MPD2     N 2293   1.548   2.429  12.451  0.3200  0.3145  0.3192
  150MPD2    H5 2294   1.495   2.512  12.427 -0.5933 -0.7493 -1.3749
  150MPD2    N1 2295   1.124   2.188  12.427 -0.1332 -0.5988  0.0383
  150MPD2    H7 2296   1.066   2.108  12.449  1.4863 -1.4211  1.3275
  151TCq2    C1 2297   1.680   2.444  12.474 -0.1067 -0.0087 -1.0246
  151TCq2    O2 2298   1.761   2.362  12.513  0.3382  0.3524 -0.4408
  151TCq2    C2 2299   1.729   2.577  12.431  0.1398 -0.6372  0.0564
  151TCq2    C3 2300   1.646   2.670  12.373 -0.2080 -0.5505 -0.0567
  151TCq2    C4 2301   1.708   2.786  12.322  0.1958 -0.1499  0.6090
  151TCq2    C5 2302   1.835   2.815  12.346 -0.5983 -0.4109  0.0804
  151TCq2    C6 2303   1.912   2.728  12.419 -1.1217 -0.0881 -0.6168
  151TCq2    C7 2304   1.861   2.607  12.447 -0.4815 -0.4661  0.4056
  151TCq2    C8 2305   2.051   2.757  12.430 -0.2019  0.6514  0.3951
  151TCq2    O4 2306   2.084   2.874  12.445 -0.2616  0.0206  0.5711
  151TCq2    C9 2307   1.626   2.880  12.251 -0.1820  0.8863 -0.0946
  151TCq2    O5 2308   1.674   2.994  12.246  0.5796  0.8008 -0.5395
  151TCq2    O6 2309   1.517   2.849  12.204 -0.1168 -0.4087 -0.3455
  151TCq2    H2 2310   1.540   2.653  12.359  0.1023 -1.7589 -0.9720
  151TCq2    H3 2311   1.880   2.896  12.289 -1.2705  1.2190  1.8632
  151TCq2    H4 2312   1.922   2.546  12.512  2.1165 -0.8898 -2.4110
  152MPD2     C 2313   0.712   2.400  12.837 -0.5864  0.4948  0.0840
  152MPD2    C1 2314   0.779   2.304  12.767  0.3449 -0.2876 -0.4097
  152MPD2    C2 2315   0.716   2.211  12.681 -0.0803 -0.1616 -0.5034
  152MPD2    C3 2316   0.582   2.219  12.680  0.2583  0.9618  0.3413
  152MPD2    C4 2317   0.518   2.320  12.750 -0.1324  0.1873  0.2840
  152MPD2    C5 2318   0.578   2.409  12.822 -0.2867  0.5197  0.0702
  152MPD2     H 2319   0.772   2.131  12.634 -0.2975 -0.1446 -0.7915
  152MPD2    H1 2320   0.413   2.343  12.741 -0.0034  0.9702  0.8222
  152MPD2    H2 2321   0.770   2.467  12.900  0.1613  0.5313 -0.6396
  152MPD2    H3 2322   0.529   2.486  12.881 -2.0630 -0.6693  0.1559
  152MPD2     N 2323   0.515   2.133  12.589 -0.1936 -0.4222 -0.2808
  152MPD2    H5 2324   0.570   2.065  12.537 -0.0871 -0.7027  0.1938
  152MPD2    N1 2325   0.917   2.294  12.795 -0.5877  0.3560  0.3321
  152MPD2    H7 2326   0.960   2.375  12.838 -0.0008  1.9411 -3.1617
  153TCq2    C1 2327   0.991   2.180  12.784  0.5170 -0.0242  0.5407
  153TCq2    O2 2328   0.950   2.069  12.751  0.2554  0.0869  0.4898
  153TCq2    C2 2329   1.136   2.199  12.800  0.2580 -0.0173 -0.9749
  153TCq2    C3 2330   1.218   2.093  12.830 -0.1973  0.0234 -0.2546
  153TCq2    C4 2331   1.345   2.122  12.869 -0.2149  0.4252  0.3643
  153TCq2    C5 2332   1.393   2.247  12.870 -0.4455 -0.9780 -0.0659
  153TCq2    C6 2333   1.314   2.352  12.825 -0.6205 -0.2196 -0.7527
  153TCq2    C7 2334   1.183   2.326  12.797  1.2649  0.2818 -0.6737
  153TCq2    C8 2335   1.368   2.480  12.798 -0.0914 -0.3098  0.7580
  153TCq2    O4 2336   1.294   2.569  12.771  0.4572 -0.2787  0.2782
  153TCq2    C9 2337   1.424   2.014  12.916 -0.2389 -0.0671 -0.3212
  153TCq2    O5 2338   1.549   2.033  12.922  0.5253 -0.8008 -0.0288
  153TCq2    O6 2339   1.358   1.917  12.953  0.0997 -0.0446 -0.4887
  153TCq2    H2 2340   1.178   1.993  12.837 -3.1653  1.3602  1.4635
  153TCq2    H3 2341   1.491   2.263  12.915 -0.8100  0.5912  0.1889
  153TCq2    H4 2342   1.135   2.408  12.745 -1.4708 -0.0503  1.3685
  154MPD2     C 2343   2.940   1.826   0.152 -0.4400 -0.4163  0.4982
  154MPD2    C1 2344   2.924   1.802   0.284  0.0858  0.5197  0.1355
  154MPD2    C2 2345   2.830   1.871   0.353  1.1632  0.8228 -0.2312
  154MPD2    C3 2346   2.764   1.977   0.296  0.2124  0.3462  0.0933
  154MPD2    C4 2347   2.788   2.007   0.166 -0.2269 -0.3658 -0.4770
  154MPD2    C5 2348   2.872   1.927   0.098  0.6975  0.0490  0.5135
  154MPD2     H 2349   2.802   1.850   0.455  0.9153 -0.0093 -0.4741
  154MPD2    H1 2350   2.730   2.082   0.114  2.6006  1.2212 -1.3401
  154MPD2    H2 2351   3.010   1.768   0.092 -2.0827 -0.3002 -1.5143
  154MPD2    H3 2352   2.880   1.949  17.684  0.8222  0.9054  0.7003
  154MPD2     N 2353   2.674   2.040   0.382 -0.1782  0.2402 -0.3317
  154MPD2    H5 2354   2.658   1.998   0.472 -0.1759  1.5892  0.3044
  154MPD2    N1 2355   3.008   1.707   0.345 -0.0554  0.1699  0.2016
  154MPD2    H7 2356   3.063   1.659   0.275 -0.0846  1.7675 -0.9098
  155TCq2    C1 2357   3.021   1.682   0.481 -0.6185 -0.4273  0.4279
  155TCq2    O2 2358   2.967   1.740   0.576  0.5175 -0.2037  0.1145
  155TCq2    C2 2359   3.117   1.578   0.510 -0.5204  0.1244  0.1683
  155TCq2    C3 2360   3.120   1.517   0.633  0.1775  1.0280  0.5057
  155TCq2    C4 2361   3.214   1.421   0.663  0.3191  0.4108 -0.1722
  155TCq2    C5 2362   3.300   1.382   0.566  0.1889  0.1623  0.0788
  155TCq2    C6 2363   3.306   1.455   0.447 -0.8250  0.1683  0.8172
  155TCq2    C7 2364   3.217   1.554   0.419 -0.5257  0.3580  0.8254
  155TCq2    C8 2365   3.435   1.440   0.376  0.3927  0.1361  0.0294
  155TCq2    O4 2366   3.512   1.349   0.406 -0.3128 -0.2106 -0.3043
  155TCq2    C9 2367   3.217   1.363   0.798 -0.1515 -0.6098 -0.8862
  155TCq2    O5 2368   3.310   1.282   0.821 -0.8382 -0.3704  0.0413
  155TCq2    O6 2369   3.177   1.443   0.888  0.6007  0.0803  0.4028
  155TCq2    H2 2370   3.055   1.533   0.718 -1.7675 -1.3847 -0.5366
  155TCq2    H3 2371   3.376   1.311   0.594 -0.4690 -0.8825 -0.7491
  155TCq2    H4 2372   3.213   1.594   0.319  0.0940  2.9622  1.8546
  156MPD2     C 2373   2.029   4.123  12.274 -0.0532 -0.1129  0.2293
  156MPD2    C1 2374   2.011   4.193  12.152 -0.0358  0.0087  0.7869
  156MPD2    C2 2375   1.986   4.327  12.168 -0.8249  0.2046 -0.4948
  156MPD2    C3 2376   1.970   4.390  12.295 -0.5449 -0.4933 -0.8317
  156MPD2    C4 2377   1.983   4.317  12.407 -1.4736 -0.3965 -0.0590
  156MPD2    C5 2378   2.022   4.183  12.397  0.5045  0.9418  0.4750
  156MPD2     H 2379   1.973   4.391  12.081 -2.7426 -0.7873 -0.9350
  156MPD2    H1 2380   1.996   4.367  12.502  0.2020  0.1522 -0.5770
  156MPD2    H2 2381   2.050   4.017  12.264 -0.6012  0.0222 -2.3488
  156MPD2    H3 2382   2.020   4.130  12.491 -0.0892  0.6892  0.3174
  156MPD2     N 2383   1.927   4.528  12.292 -0.7352 -1.0372  0.2582
  156MPD2    H5 2384   1.915   4.567  12.199  1.6027 -1.0776 -0.0637
  156MPD2    N1 2385   1.998   4.122  12.028  0.2210  0.0035 -0.1079
  156MPD2    H7 2386   2.001   4.021  12.021 -3.9124 -0.1974  1.0486
  157TCq2    C1 2387   1.980   4.192  11.909  0.2394 -0.9357 -0.9270
  157TCq2    O2 2388   2.005   4.307  11.882  0.1871  0.3615  0.4378
  157TCq2    C2 2389   1.917   4.120  11.801 -0.6566  0.1185 -0.2136
  157TCq2    C3 2390   1.901   3.983  11.808  0.3434  0.3279 -0.0128
  157TCq2    C4 2391   1.811   3.920  11.721  0.0411  0.1397  0.2305
  157TCq2    C5 2392   1.740   3.999  11.632 -0.3187 -0.2838 -0.3457
  157TCq2    C6 2393   1.753   4.137  11.627 -0.2365  0.1059 -0.6331
  157TCq2    C7 2394   1.855   4.197  11.704 -0.3980  0.6841  0.7363
  157TCq2    C8 2395   1.662   4.235  11.566  0.1361  0.4409 -0.4829
  157TCq2    O4 2396   1.722   4.339  11.542  0.6077  0.3891 -0.7134
  157TCq2    C9 2397   1.789   3.775  11.731 -0.5617  0.2717 -0.8543
  157TCq2    O5 2398   1.834   3.699  11.819  0.3098  0.3910 -0.4609
  157TCq2    O6 2399   1.722   3.729  11.636 -0.5937  0.2108  0.3769
  157TCq2    H2 2400   1.955   3.917  11.875 -2.2188 -0.8226  0.8925
  157TCq2    H3 2401   1.668   3.948  11.569  1.5332 -0.4617 -2.3252
  157TCq2    H4 2402   1.866   4.304  11.704  4.5680  0.1729  0.5199
  158TMC2    C1 2403   2.536   3.785  13.525 -0.9085 -0.1122 -0.5987
  158TMC2    C2 2404   2.629   3.787  13.423 -0.6536  0.1070  0.2760
  158TMC2    C3 2405   2.579   3.772  13.292 -0.7102 -0.0824  0.2468
  158TMC2    C4 2406   2.404   3.761  13.505  0.2514  0.5548  0.2627
  158TMC2    C5 2407   2.360   3.751  13.376 -0.8712 -0.5283  0.5379
  158TMC2    C6 2408   2.446   3.768  13.270  0.5732 -0.5258  0.6219
  158TMC2     C 2409   2.582   3.774  13.668 -0.5778 -0.3977 -0.4545
  158TMC2     O 2410   2.703   3.780  13.680 -0.3445  0.0598 -0.0660
  158TMC2     H 2411   2.734   3.792  13.450 -0.9117 -1.4031  1.5979
  158TMC2    H1 2412   2.333   3.759  13.586  0.2776 -4.0973  0.2006
  158TMC2    H2 2413   2.400   3.731  13.179  2.1873  0.0415 -0.4147
  158TMC2    C7 2414   2.218   3.730  13.351  0.0970 -0.2455 -0.4988
  158TMC2    C8 2415   2.644   3.686  13.196  0.5477  0.2688  0.0318
  158TMC2    O1 2416   2.190   3.772  13.238 -0.1350  0.1347 -0.0518
  158TMC2    O2 2417   2.584   3.589  13.153  1.0246  0.1675 -0.1161
  158TMC2    O5 2418   2.730   3.762  13.126  0.2386  0.4542  0.0346
  158TMC2    H5 2419   2.754   3.842  13.178  0.3461  0.2286  0.3265
  159MPD2     C 2420   2.576   3.680  14.171 -0.2846 -0.1038  0.4265
  159MPD2    C1 2421   2.475   3.610  14.117 -0.0051  0.0953  0.2354
  159MPD2    C2 2422   2.445   3.622  13.979 -0.5332  0.0149  0.1563
  159MPD2    C3 2423   2.523   3.708  13.903  0.4194  0.2080  0.2963
  159MPD2    C4 2424   2.625   3.775  13.965  0.5284  0.1085 -0.7058
  159MPD2    C5 2425   2.645   3.770  14.099  0.2132 -0.6170 -0.3272
  159MPD2     H 2426   2.362   3.568  13.935  1.5301 -3.1745  0.2218
  159MPD2    H1 2427   2.690   3.837  13.904 -1.6252  1.2428 -1.8611
  159MPD2    H2 2428   2.609   3.675  14.274  0.9772  0.3441  0.0417
  159MPD2    H3 2429   2.721   3.823  14.155 -1.7618  0.3054  1.4324
  159MPD2     N 2430   2.497   3.721  13.766  0.6145  0.3375  0.4526
  159MPD2    H5 2431   2.414   3.668  13.740  1.3583 -1.8684  2.5570
  159MPD2    N1 2432   2.411   3.519  14.208 -0.0422  0.1713  0.4227
  159MPD2    H7 2433   2.432   3.531  14.307  1.7390  3.5948 -0.3638
  160TMC2    C1 2434   1.791   0.921   0.992 -0.5683 -0.2947  0.9438
  160TMC2    C2 2435   1.753   0.791   0.995 -0.2603 -0.1597  0.3573
  160TMC2    C3 2436   1.759   0.723   0.878 -0.6870 -0.6282  0.1528
  160TMC2    C4 2437   1.833   0.978   0.876 -0.0478  1.2265 -0.3617
  160TMC2    C5 2438   1.825   0.897   0.757  0.1897 -0.2309  0.1119
  160TMC2    C6 2439   1.795   0.770   0.757 -0.1010  0.2750  0.2362
  160TMC2     C 2440   1.764   1.009   1.109  0.3703 -0.1952 -0.5628
  160TMC2     O 2441   1.766   0.962   1.219 -0.0610  0.2598 -0.0915
  160TMC2     H 2442   1.714   0.747   1.086 -1.3647  0.9013  0.3870
  160TMC2    H1 2443   1.875   1.077   0.877 -2.3942  2.2226 -0.3156
  160TMC2    H2 2444   1.778   0.713   0.666 -0.1327  0.9638 -0.1892
  160TMC2    C7 2445   1.865   0.947   0.624  0.6783 -0.0462  0.8593
  160TMC2    C8 2446   1.693   0.595   0.878 -0.6314 -0.0831  0.5104
  160TMC2    O1 2447   1.869   0.868   0.528 -0.5692  0.2873  0.0765
  160TMC2    O2 2448   1.622   0.556   0.784 -0.3966  0.3903 -0.2308
  160TMC2    O5 2449   1.730   0.533   0.991 -0.4607  0.3361  0.5525
  160TMC2    H5 2450   1.808   0.572   1.035  0.0439 -1.2929  1.1290
  161MPD2     C 2451   1.731   1.248   1.292 -0.2836  0.0123  0.7734
  161MPD2    C1 2452   1.698   1.244   1.160  0.3129  0.5941 -0.9632
  161MPD2    C2 2453   1.621   1.342   1.105  0.4179  0.7493  0.7375
  161MPD2    C3 2454   1.584   1.456   1.170 -0.0913 -0.6947 -0.5980
  161MPD2    C4 2455   1.629   1.464   1.294  0.5774  0.5819 -0.0911
  161MPD2    C5 2456   1.692   1.358   1.361  0.1682  0.3693  0.8293
  161MPD2     H 2457   1.593   1.316   1.004  0.4822 -0.3777  1.0135
  161MPD2    H1 2458   1.611   1.550   1.358 -1.5890 -0.8543  1.2258
  161MPD2    H2 2459   1.797   1.176   1.340 -2.1228  0.3047  3.7917
  161MPD2    H3 2460   1.722   1.368   1.465  0.5076  1.9993  0.5768
  161MPD2     N 2461   1.494   1.558   1.119 -0.8630 -1.0913 -0.0170
  161MPD2    H5 2462   1.464   1.630   1.185 -0.0806 -0.2955 -0.5341
  161MPD2    N1 2463   1.728   1.137   1.071 -1.0664  0.2493 -0.0965
  161MPD2    H7 2464   1.711   1.149   0.972 -1.1136 -0.3293 -0.1612
  162TMC2    C1 2465   4.700   2.893   0.378  0.4627 -0.5313  0.3690
  162TMC2    C2 2466   4.634   2.937   0.268  0.7943 -0.1634 -0.2322
  162TMC2    C3 2467   4.531   2.868   0.219 -0.0771  0.7131  0.4774
  162TMC2    C4 2468   4.675   2.768   0.431 -0.7121 -0.3487 -0.0186
  162TMC2    C5 2469   4.584   2.691   0.369 -0.2132 -0.0465  0.5864
  162TMC2    C6 2470   4.514   2.739   0.256  0.1007  0.2994 -0.5486
  162TMC2     C 2471   0.079   2.977   0.441  0.2597  0.2750  0.2299
  162TMC2     O 2472   0.142   3.055   0.368 -0.2902  0.1862 -0.1135
  162TMC2     H 2473   4.638   3.042   0.242 -1.4472 -0.1472 -0.4579
  162TMC2    H1 2474   0.024   2.719   0.496 -1.4100 -1.3543  0.0020
  162TMC2    H2 2475   4.438   2.680   0.207  0.2244 -1.7517  1.7223
  162TMC2    C7 2476   4.565   2.552   0.412  0.6311  0.0777  0.0575
  162TMC2    C8 2477   4.438   2.935   0.137  0.2678 -0.4851 -0.1972
  162TMC2    O1 2478   4.541   2.470   0.326 -0.3333  0.2620 -0.0369
  162TMC2    O2 2479   4.410   3.057   0.142  0.3938 -1.4213 -0.0722
  162TMC2    O5 2480   4.382   2.852   0.052  0.4781  0.0620 -0.1601
  162TMC2    H5 2481   4.418   2.761   0.044 -0.4503 -0.1818 -1.5296
  163MPD2     C 2482   0.353   3.094   0.860  0.2910 -0.1467 -0.0156
  163MPD2    C1 2483   0.379   3.111   0.728 -0.0243  0.6618 -0.4948
  163MPD2    C2 2484   0.284   3.086   0.635  0.0866  0.3974  0.5612
  163MPD2    C3 2485   0.169   3.016   0.665  0.8300  0.4715  0.8581
  163MPD2    C4 2486   0.147   2.989   0.794 -0.0635  0.4151 -0.0220
  163MPD2    C5 2487   0.236   3.024   0.894 -0.7868 -0.1946  0.4737
  163MPD2     H 2488   0.298   3.119   0.533 -1.2195 -2.6171 -0.5698
  163MPD2    H1 2489   0.062   2.927   0.820  2.0542 -1.3918  2.6298
  163MPD2    H2 2490   0.433   3.116   0.930 -1.2489  2.2775  0.9920
  163MPD2    H3 2491   0.215   2.997   0.996  2.7141 -5.8709 -0.3149
  163MPD2     N 2492   0.080   2.957   0.577 -0.2643 -0.0146  0.6361
  163MPD2    H5 2493   0.004   2.901   0.615 -1.5973  0.5741 -1.1759
  163MPD2    N1 2494   0.502   3.180   0.698  0.2318  0.0817 -0.4684
  163MPD2    H7 2495   0.556   3.200   0.781 -0.9181 -2.7199  0.9682
  164TCq2    C1 2496   4.668   2.807  10.691 -0.3634  0.5324  0.0506
  164TCq2    O2 2497   4.548   2.801  10.697 -0.2285 -0.1119 -0.1051
  164TCq2    C2 2498   0.007   2.932  10.736 -0.2246  0.5517  0.5183
  164TCq2    C3 2499   0.121   2.923  10.815  0.4364 -0.3152 -0.6506
  164TCq2    C4 2500   0.140   3.002  10.923  0.1472 -0.0715  0.8165
  164TCq2    C5 2501   0.061   3.105  10.936 -0.1414 -0.4351  0.5889
  164TCq2    C6 2502   4.668   3.125  10.861 -0.0283 -0.8064  0.2504
  164TCq2    C7 2503   4.638   3.023  10.772  0.8453  0.9744 -0.6900
  164TCq2    C8 2504   4.554   3.191  10.914 -0.5789 -0.1255 -0.1902
  164TCq2    O4 2505   4.442   3.148  10.895 -0.2676  1.0763  0.1617
  164TCq2    C9 2506   0.253   2.992  11.007 -0.1349  0.5709 -0.5037
  164TCq2    O5 2507   0.324   2.891  11.004  0.5805  0.0119  0.3720
  164TCq2    O6 2508   0.261   3.078  11.099  0.3224 -0.1657  0.0049
  164TCq2    H2 2509   0.196   2.845  10.809 -1.2712 -2.1699  2.2793
  164TCq2    H3 2510   0.089   3.172  11.017  0.7171  1.5374 -1.3550
  164TCq2    H4 2511   4.537   3.020  10.734  0.1079 -2.1885  1.5888
  165MPD2     C 2512   1.729   3.733   1.516 -0.0327  0.0652  0.1063
  165MPD2    C1 2513   1.677   3.854   1.484  0.3257  0.7919  0.0452
  165MPD2    C2 2514   1.753   3.967   1.460  0.0058  0.2184 -0.0247
  165MPD2    C3 2515   1.891   3.961   1.462 -0.6755 -0.5308 -0.0937
  165MPD2    C4 2516   1.947   3.838   1.492 -0.0100  0.8078 -0.6150
  165MPD2    C5 2517   1.868   3.730   1.532  0.0600 -0.2594  0.2045
  165MPD2     H 2518   1.715   4.063   1.428 -0.2859  0.8412  2.2329
  165MPD2    H1 2519   2.055   3.850   1.499 -0.0818  1.4732 -0.6574
  165MPD2    H2 2520   1.665   3.648   1.537 -1.5880  0.9888 -0.9553
  165MPD2    H3 2521   1.904   3.629   1.547 -0.5289 -0.2866  1.5081
  165MPD2     N 2522   1.976   4.063   1.421  0.7535 -0.7385 -0.2718
  165MPD2    H5 2523   2.073   4.036   1.403  0.4382 -2.7100  1.0201
  165MPD2    N1 2524   1.541   3.844   1.465  0.7808 -0.7463 -0.3342
  165MPD2    H7 2525   1.495   3.756   1.485 -2.1982  1.3322  2.0006
  166TCq2    C1 2526   1.939   4.189   1.376  0.3949 -0.8362  0.4491
  166TCq2    O2 2527   1.827   4.231   1.355  0.5401 -0.2596  0.7162
  166TCq2    C2 2528   2.053   4.275   1.353  0.1968  0.0614  1.1814
  166TCq2    C3 2529   2.179   4.240   1.393 -0.0452  0.5729 -0.8015
  166TCq2    C4 2530   2.281   4.331   1.366 -0.2735 -0.6382 -0.4448
  166TCq2    C5 2531   2.259   4.452   1.304 -0.2344 -0.2572 -0.3635
  166TCq2    C6 2532   2.127   4.481   1.274  0.6404  0.8392 -0.0572
  166TCq2    C7 2533   2.023   4.397   1.297  0.0725  0.5678 -0.7183
  166TCq2    C8 2534   2.099   4.610   1.204 -0.1875 -0.3428  0.2200
  166TCq2    O4 2535   2.195   4.691   1.198 -0.5141 -0.6142 -0.0641
  166TCq2    C9 2536   2.416   4.305   1.404  0.3056  0.8319 -0.2406
  166TCq2    O5 2537   2.448   4.187   1.446 -0.5434 -0.3215  0.0082
  166TCq2    O6 2538   2.498   4.399   1.397  0.4559  0.1946 -0.8260
  166TCq2    H2 2539   2.198   4.140   1.430  1.0179  0.9454 -0.3514
  166TCq2    H3 2540   2.341   4.521   1.288 -0.5159  0.3732  0.8915
  166TCq2    H4 2541   1.920   4.425   1.281 -0.8541 -1.5966  1.5404
  167TMC2    C1 2542   3.753   2.844  12.619  0.0241  0.1999  0.2421
  167TMC2    C2 2543   3.707   2.917  12.726  0.2898 -0.3436  0.1369
  167TMC2    C3 2544   3.702   2.844  12.847  0.7473 -0.0259  0.3028
  167TMC2    C4 2545   3.808   2.718  12.622 -0.5376  0.2131 -0.1566
  167TMC2    C5 2546   3.796   2.659  12.747 -0.1299  0.3971 -0.1771
  167TMC2    C6 2547   3.748   2.717  12.861 -0.4774 -0.2704  1.2693
  167TMC2     C 2548   3.730   2.907  12.491  0.4566 -0.2358 -0.7608
  167TMC2     O 2549   3.736   3.032  12.479  0.1116  0.1351  0.7992
  167TMC2     H 2550   3.656   3.011  12.711 -1.4816 -1.4436 -0.6559
  167TMC2    H1 2551   3.867   2.668  12.546 -1.7194 -1.5082  0.0754
  167TMC2    H2 2552   3.741   2.662  12.954 -0.5460 -0.5138  1.1210
  167TMC2    C7 2553   3.830   2.511  12.755  0.1751 -0.3919  0.1537
  167TMC2    C8 2554   3.615   2.891  12.957 -0.0916  0.5133  0.1301
  167TMC2    O1 2555   3.769   2.450  12.837 -0.9054 -0.0456  0.0867
  167TMC2    O2 2556   3.549   2.817  13.032  0.3448  0.0233 -0.2050
  167TMC2    O5 2557   3.639   3.021  12.966  1.0217  0.5466  0.3909
  167TMC2    H5 2558   3.728   3.038  12.929  1.8029 -1.0505  1.5153
  168MPD2     C 2559   3.706   2.956  12.192  0.2306 -0.2199  0.2328
  168MPD2    C1 2560   3.732   2.838  12.256 -0.3216  0.3230  0.2072
  168MPD2    C2 2561   3.757   2.729  12.174 -0.0989 -0.4555  0.0173
  168MPD2    C3 2562   3.761   2.736  12.037  0.0969 -0.3429  0.4348
  168MPD2    C4 2563   3.728   2.856  11.977  1.0245  0.2648 -0.5009
  168MPD2    C5 2564   3.702   2.961  12.055  0.0807  0.3450  0.6082
  168MPD2     H 2565   3.762   2.633  12.225 -0.7363 -0.8451 -0.6542
  168MPD2    H1 2566   3.745   2.870  11.871 -0.4515  2.6777 -0.4219
  168MPD2    H2 2567   3.680   3.039  12.257 -1.5563 -0.2673 -0.4042
  168MPD2    H3 2568   3.687   3.062  12.020  0.4535 -0.6430 -2.3735
  168MPD2     N 2569   3.792   2.630  11.949 -0.1613 -0.7467 -0.2899
  168MPD2    H5 2570   3.772   2.649  11.851 -0.0339 -1.0686 -0.3787
  168MPD2    N1 2571   3.728   2.807  12.392  0.0545 -0.8338  0.5982
  168MPD2    H7 2572   3.736   2.709  12.417  1.5971 -0.5528  1.1927
  169MPD1     C 2573   1.574   1.526   8.519  0.0936 -0.4370  0.9264
  169MPD1    C1 2574   1.532   1.483   8.647  0.7791 -0.6800 -0.2194
  169MPD1    C2 2575   1.609   1.541   8.749 -0.7382  0.1189  0.5796
  169MPD1    C3 2576   1.716   1.627   8.736  0.0384  0.2446  0.0813
  169MPD1    C4 2577   1.750   1.656   8.607  0.2693  0.5809  0.6901
  169MPD1    C5 2578   1.672   1.613   8.505  0.2016 -0.5858 -0.2370
  169MPD1     H 2579   1.588   1.516   8.853 -0.4426 -1.2352  0.3188
  169MPD1    H1 2580   1.838   1.710   8.574  1.0083 -1.4327 -0.6645
  169MPD1    H2 2581   1.531   1.503   8.422  3.3550 -1.0795 -0.3644
  169MPD1    H3 2582   1.697   1.650   8.407 -1.6501  1.3109 -0.0156
  169MPD1     N 2583   1.791   1.667   8.851  0.4511 -0.1476 -0.1844
  169MPD1    H5 2584   1.753   1.640   8.942  2.8043  0.4556  0.9904
  169MPD1    N1 2585   1.440   1.384   8.662 -0.6078 -0.8553  0.4529
  169MPD1    H6 2586   1.401   1.392   8.756  1.2519  1.0592  1.0844
  169MPD1    H7 2587   1.372   1.373   8.587  2.7447  1.0193 -2.8619
  170MPD1     C 2588   0.992   0.263  12.871  0.1843 -0.2388  0.4829
  170MPD1    C1 2589   0.872   0.319  12.901  1.1202 -0.5869 -0.5220
  170MPD1    C2 2590   0.805   0.272  13.010 -0.2802 -0.2715  0.6693
  170MPD1    C3 2591   0.861   0.184  13.096 -0.0191  0.5899 -0.9293
  170MPD1    C4 2592   0.986   0.136  13.066  0.0098  0.1809 -0.2998
  170MPD1    C5 2593   1.046   0.168  12.952 -0.1430  0.6709  0.7509
  170MPD1     H 2594   0.710   0.318  13.034 -0.9380 -0.7039 -1.1345
  170MPD1    H1 2595   1.038   0.066  13.130 -0.3275 -0.4434 -0.7143
  170MPD1    H2 2596   1.054   0.282  12.785  0.3521  1.3118  0.9545
  170MPD1    H3 2597   1.141   0.125  12.924  0.9571  1.1960  3.7084
  170MPD1     N 2598   0.795   0.167  13.220  0.1465 -0.1281 -0.3580
  170MPD1    H5 2599   0.707   0.215  13.234 -0.3206 -0.4997 -1.9987
  170MPD1    N1 2600   0.819   0.414  12.817  0.0864  0.1076 -0.3113
  170MPD1    H6 2601   0.876   0.466  12.752  0.6997  0.6009  0.6268
  170MPD1    H7 2602   0.747   0.466  12.867  0.9243 -1.5795  2.7157
  171MPD1     C 2603   4.034   1.663  15.519 -0.3820 -0.0279 -0.1294
  171MPD1    C1 2604   3.984   1.560  15.453 -0.1738 -1.0948 -0.9652
  171MPD1    C2 2605   3.997   1.430  15.496 -0.0887 -0.3735 -0.2851
  171MPD1    C3 2606   4.091   1.403  15.592  0.1130 -0.2764  0.8607
  171MPD1    C4 2607   4.164   1.512  15.641  0.0984  0.4810  0.2819
  171MPD1    C5 2608   4.130   1.641  15.613 -0.2132 -0.5640 -0.1320
  171MPD1     H 2609   3.936   1.353  15.449  1.1132 -1.5413  0.0957
  171MPD1    H1 2610   4.239   1.508  15.719  1.4843  0.4346 -1.0592
  171MPD1    H2 2611   4.018   1.767  15.492 -0.6322  0.1464  0.7078
  171MPD1    H3 2612   4.173   1.723  15.669  1.1236 -0.7073 -0.9655
  171MPD1     N 2613   4.108   1.278  15.657  1.3185  0.5362 -0.0122
  171MPD1    H5 2614   4.170   1.270  15.737  3.5487  1.6220 -1.6295
  171MPD1    N1 2615   3.897   1.587  15.342  0.0975 -0.1661 -0.7841
  171MPD1    H6 2616   3.935   1.656  15.279 -0.1349  0.4964 -0.1949
  171MPD1    H7 2617   3.873   1.508  15.282  0.0972 -0.4154 -0.4622
  172MPD1     C 2618   3.346   0.728  17.470 -0.9941 -0.2255  0.2965
  172MPD1    C1 2619   3.223   0.766  17.435  0.7150  0.0269 -0.4818
  172MPD1    C2 2620   3.152   0.841  17.530  0.1841 -0.5206 -0.2117
  172MPD1    C3 2621   3.200   0.867  17.656 -0.3602 -0.2797 -0.9795
  172MPD1    C4 2622   3.323   0.820  17.690 -0.3122 -0.0928 -0.6833
  172MPD1    C5 2623   3.404   0.754  17.595  0.1054 -0.3576 -0.7674
  172MPD1     H 2624   3.055   0.878  17.499  0.4703 -0.6689 -1.2972
  172MPD1    H1 2625   3.359   0.833   0.100 -4.5258 -0.3039  0.8062
  172MPD1    H2 2626   3.408   0.668  17.404 -0.9404  0.8031 -0.5885
  172MPD1    H3 2627   3.501   0.721  17.632 -0.1380  1.0234  1.0683
  172MPD1     N 2628   3.127   0.933   0.066  0.0618  0.4320  0.0992
  172MPD1    H5 2629   3.173   0.938   0.157 -1.0342 -1.2550  0.7447
  172MPD1    N1 2630   3.174   0.754  17.303  1.1682  0.2524 -0.3116
  172MPD1    H6 2631   3.223   0.691  17.240  0.3256  0.0765 -0.7883
  172MPD1    H7 2632   3.080   0.716  17.303  1.8460 -1.3911 -0.3902
  173MPD1     C 2633   0.350   1.263  14.281  0.3270 -0.6130  0.4386
  173MPD1    C1 2634   0.280   1.214  14.390 -0.3062  0.5540 -0.0454
  173MPD1    C2 2635   0.235   1.081  14.386  0.1301  0.8771  0.2852
  173MPD1    C3 2636   0.268   1.003  14.282 -0.3411 -0.5197 -0.0816
  173MPD1    C4 2637   0.331   1.046  14.172  0.5246 -0.8735  0.6839
  173MPD1    C5 2638   0.372   1.176  14.174 -0.7349 -0.0562  0.5357
  173MPD1     H 2639   0.184   1.053  14.478  0.6164  1.7662  0.8215
  173MPD1    H1 2640   0.350   0.987  14.084 -0.2403  1.9289 -1.3707
  173MPD1    H2 2641   0.390   1.363  14.281 -0.8061 -0.1567  1.4341
  173MPD1    H3 2642   0.421   1.220  14.087  0.1668  0.2757  1.2112
  173MPD1     N 2643   0.216   0.868  14.289 -0.1789 -0.1970  0.0113
  173MPD1    H5 2644   0.154   0.858  14.368 -0.2035  0.8654  0.1222
  173MPD1    N1 2645   0.253   1.290  14.501 -0.2571  0.1827  0.7381
  173MPD1    H6 2646   0.331   1.354  14.513 -0.6092  1.3626 -3.3717
  173MPD1    H7 2647   0.241   1.228  14.581 -0.6032 -0.3626  0.2691
  174MPD1     C 2648   0.680   0.152  14.403 -0.6396  0.3409 -0.5186
  174MPD1    C1 2649   0.565   0.150  14.479 -0.4334  0.2072 -0.1981
  174MPD1    C2 2650   0.454   0.202  14.424 -0.1527  0.1184  0.1874
  174MPD1    C3 2651   0.445   0.249  14.290 -0.0908  0.0030  0.3322
  174MPD1    C4 2652   0.559   0.240  14.209 -0.0077 -0.6114 -0.3817
  174MPD1    C5 2653   0.674   0.193  14.266  0.9396  0.0812  0.6232
  174MPD1     H 2654   0.370   0.224  14.489  0.9049  0.2535  1.5030
  174MPD1    H1 2655   0.551   0.263  14.103 -2.0316  2.0250  0.3436
  174MPD1    H2 2656   0.774   0.120  14.446 -1.6647 -0.6843  0.9783
  174MPD1    H3 2657   0.763   0.186  14.204  0.5693 -2.4823  0.3765
  174MPD1     N 2658   0.332   0.311  14.239 -0.1793 -0.7992 -0.0234
  174MPD1    H5 2659   0.337   0.343  14.143 -1.9847 -3.2681 -0.9422
  174MPD1    N1 2660   0.578   0.126  14.618  0.2963  0.6116  0.0580
  174MPD1    H6 2661   0.493   0.091  14.661  0.6394 -0.6036 -0.2488
  174MPD1    H7 2662   0.653   0.059  14.637 -0.6061  0.0471  1.5843
  175MPD1     C 2663   3.155   1.626  14.928 -0.3880  0.3591 -0.1409
  175MPD1    C1 2664   3.244   1.612  15.035  0.3031  0.9047 -0.2465
  175MPD1    C2 2665   3.187   1.560  15.149  0.1257 -0.7384  0.2133
  175MPD1    C3 2666   3.054   1.538  15.164  0.1745 -0.4364 -0.2864
  175MPD1    C4 2667   2.969   1.566  15.061  0.0596 -0.2512  0.1330
  175MPD1    C5 2668   3.019   1.606  14.940  0.4815  0.0125 -1.0355
  175MPD1     H 2669   3.253   1.527  15.229 -0.7396 -3.9672 -0.3927
  175MPD1    H1 2670   2.862   1.560  15.079  0.0785  1.8091  0.8605
  175MPD1    H2 2671   3.185   1.659  14.829  0.7679  0.3300  0.2067
  175MPD1    H3 2672   2.959   1.642  14.858 -1.0487 -1.4833 -0.5690
  175MPD1     N 2673   2.995   1.506  15.290  0.1692 -0.4277 -0.3132
  175MPD1    H5 2674   2.895   1.488  15.286  0.0712  0.1976 -0.7171
  175MPD1    N1 2675   3.380   1.634  15.017  0.1071  0.2213 -0.0755
  175MPD1    H6 2676   3.401   1.681  14.929  0.2404 -0.1283 -0.2296
  175MPD1    H7 2677   3.405   1.697  15.093  2.9890  0.4191 -1.2032
  176MPD1     C 2678   0.224   3.143  17.394  0.3803  0.3399 -0.1447
  176MPD1    C1 2679   0.238   3.283  17.401  0.2623 -0.3536 -0.3317
  176MPD1    C2 2680   0.186   3.355  17.296 -0.4414 -0.2658 -0.3466
  176MPD1    C3 2681   0.122   3.298  17.188 -1.0227  0.2691 -0.1296
  176MPD1    C4 2682   0.106   3.162  17.187 -0.0167 -0.1551 -0.7430
  176MPD1    C5 2683   0.165   3.085  17.283 -0.2902 -0.1490 -0.2417
  176MPD1     H 2684   0.199   3.462  17.288  0.5811 -0.4698 -1.3019
  176MPD1    H1 2685   0.045   3.106  17.117  1.0990 -2.3086 -0.0156
  176MPD1    H2 2686   0.260   3.081  17.476  0.9306 -1.1226 -1.5001
  176MPD1    H3 2687   0.157   2.977  17.276 -0.5174 -0.1317 -0.2613
  176MPD1     N 2688   0.046   3.384  17.097 -0.5338  0.7777 -0.5157
  176MPD1    H5 2689   0.043   3.484  17.118  0.6333  0.9298 -1.0381
  176MPD1    N1 2690   0.259   3.338  17.529 -0.1293 -0.7650  0.4780
  176MPD1    H6 2691   0.327   3.288  17.586  1.3582 -1.4087 -1.9036
  176MPD1    H7 2692   0.276   3.438  17.523 -0.2442 -0.9145 -2.1537
  177MPD1     C 2693   2.893   2.433  10.464  0.2582  0.3764  0.3233
  177MPD1    C1 2694   2.882   2.429  10.327  0.0168  0.0588  0.0054
  177MPD1    C2 2695   2.773   2.484  10.272  0.1535  0.4587 -0.0502
  177MPD1    C3 2696   2.660   2.512  10.344  0.4378 -0.1614 -0.0704
  177MPD1    C4 2697   2.660   2.487  10.485 -0.1472  0.2532  0.2611
  177MPD1    C5 2698   2.781   2.449  10.539  0.7205  0.1260  0.1662
  177MPD1     H 2699   2.777   2.503  10.165  0.2288 -1.3285 -0.3772
  177MPD1    H1 2700   2.570   2.488  10.546 -0.6349  0.9516 -0.4680
  177MPD1    H2 2701   2.987   2.401  10.509  0.2460 -0.6218 -0.3448
  177MPD1    H3 2702   2.793   2.432  10.645 -2.1087 -0.1577  0.4503
  177MPD1     N 2703   2.558   2.568  10.268 -0.1638  0.5669  0.0990
  177MPD1    H5 2704   2.563   2.564  10.166  1.2319  0.3493  0.1776
  177MPD1    N1 2705   2.994   2.412  10.249 -0.1130  0.4058 -0.4332
  177MPD1    H6 2706   2.969   2.361  10.165 -0.0769 -0.9055  0.3497
  177MPD1    H7 2707   3.047   2.347  10.306 -0.1710  0.6142 -0.1362
  178MPD1     C 2708   0.533   4.404   0.162 -0.0356 -0.3825 -0.6551
  178MPD1    C1 2709   0.450   4.313   0.098 -0.3448  0.2394  0.0651
  178MPD1    C2 2710   0.477   4.281  17.661 -0.4656 -0.7152 -0.0766
  178MPD1    C3 2711   0.583   4.347  17.593 -0.3172  1.0370  1.0325
  178MPD1    C4 2712   0.663   4.430  17.657 -0.0970 -0.2252 -0.0380
  178MPD1    C5 2713   0.639   4.462   0.095  0.0706 -0.1482 -0.1247
  178MPD1     H 2714   0.425   4.207  17.601 -0.2996 -1.3748  0.5923
  178MPD1    H1 2715   0.752   4.462  17.603 -1.6074 -0.0758 -2.4640
  178MPD1    H2 2716   0.502   4.442   0.258  1.7859  0.5524 -0.4235
  178MPD1    H3 2717   0.709   4.518   0.156  0.4738  0.9028 -1.5319
  178MPD1     N 2718   0.626   4.306  17.462  0.1518 -0.2389  0.1184
  178MPD1    H5 2719   0.712   4.347  17.427  0.8637 -0.2357  1.8659
  178MPD1    N1 2720   0.363   4.237   0.180  0.5310 -0.9114 -0.2317
  178MPD1    H6 2721   0.319   4.295   0.250  0.1743 -1.2340 -0.1885
  178MPD1    H7 2722   0.285   4.195   0.130  2.1441 -3.3172 -0.7800
  179MPD1     C 2723   0.117   1.894  15.020 -0.2498  0.5431  0.0803
  179MPD1    C1 2724   0.186   1.848  15.126  0.3537 -0.3148  0.2080
  179MPD1    C2 2725   0.163   1.912  15.252 -0.9413  1.0098  0.2697
  179MPD1    C3 2726   0.084   2.026  15.267 -0.1562  0.4513  0.2342
  179MPD1    C4 2727   0.005   2.065  15.151 -0.6435 -0.3611  0.0318
  179MPD1    C5 2728   0.030   1.998  15.033 -1.0629 -0.4238  0.0041
  179MPD1     H 2729   0.206   1.872  15.343 -1.0240  0.2686 -0.0154
  179MPD1    H1 2730   4.675   2.159  15.150  0.8769  0.4629 -2.4540
  179MPD1    H2 2731   0.135   1.858  14.919 -0.1665  0.6950  0.0413
  179MPD1    H3 2732   4.708   2.031  14.940  1.0622  0.0325 -0.8316
  179MPD1     N 2733   0.056   2.100  15.382  0.4825  0.6959 -0.0198
  179MPD1    H5 2734   4.705   2.169  15.378  0.0419 -0.0056 -4.0947
  179MPD1    N1 2735   0.255   1.725  15.115 -0.3270 -0.1551  0.4136
  179MPD1    H6 2736   0.330   1.721  15.184 -0.8641 -1.0747  0.9304
  179MPD1    H7 2737   0.303   1.720  15.026 -0.3029 -1.9606  0.5223
  180MPD1     C 2738   4.507   3.810  15.642 -0.6125 -0.6274  0.1566
  180MPD1    C1 2739   4.531   3.905  15.550  0.2529 -0.6785  0.6013
  180MPD1    C2 2740   4.557   3.875  15.419 -0.3179  0.2135 -0.0987
  180MPD1    C3 2741   4.535   3.741  15.375  0.0121 -0.2644  0.6239
  180MPD1    C4 2742   4.505   3.646  15.473  0.5306  0.5575 -0.0655
  180MPD1    C5 2743   4.496   3.686  15.603  0.0911  0.1403  0.1403
  180MPD1     H 2744   4.579   3.957  15.352 -2.0372  1.2458  0.6034
  180MPD1    H1 2745   4.502   3.540  15.453  0.6958  0.6103 -0.3862
  180MPD1    H2 2746   4.491   3.834  15.747  0.0253  1.4458 -0.2235
  180MPD1    H3 2747   4.470   3.609  15.675  2.4551  1.6733  2.5940
  180MPD1     N 2748   4.551   3.711  15.237 -0.4730 -0.0805  0.3873
  180MPD1    H5 2749   4.586   3.788  15.181 -0.9050  1.5565  2.3655
  180MPD1    N1 2750   4.554   4.037  15.584 -0.3830 -0.5691  0.0968
  180MPD1    H6 2751   4.525   4.101  15.511 -1.1319 -1.2284 -0.1816
  180MPD1    H7 2752   4.507   4.070  15.669  1.4207  0.0995  0.8310
  181MPD1     C 2753   0.494   0.226   9.569 -0.0359  0.3042 -0.4305
  181MPD1    C1 2754   0.530   0.358   9.542  0.2302  0.2275  0.5487
  181MPD1    C2 2755   0.635   0.404   9.626 -0.4498 -0.3544  0.4111
  181MPD1    C3 2756   0.692   0.328   9.732  0.3258 -0.3051  0.0686
  181MPD1    C4 2757   0.655   0.199   9.744  0.1027 -0.4623 -0.3899
  181MPD1    C5 2758   0.549   0.151   9.669 -0.4578  0.7705 -0.1458
  181MPD1     H 2759   0.690   0.491   9.592 -2.0642  0.4014 -0.2604
  181MPD1    H1 2760   0.706   0.135   9.815  0.6699  0.9726  0.4905
  181MPD1    H2 2761   0.414   0.183   9.509  0.7943 -1.9922  0.0840
  181MPD1    H3 2762   0.521   0.047   9.677 -1.2260  0.8926 -1.3532
  181MPD1     N 2763   0.803   0.377   9.806 -0.0396  0.8104  0.0401
  181MPD1    H5 2764   0.846   0.308   9.866  2.4340  0.8005 -1.7886
  181MPD1    N1 2765   0.483   0.441   9.437 -0.1931 -0.1156  0.3245
  181MPD1    H6 2766   0.508   0.539   9.450 -0.3684  0.1660 -1.4809
  181MPD1    H7 2767   0.390   0.413   9.407 -0.8854  0.5771  1.8379
  182MPD1     C 2768   3.285   4.360   1.245 -0.1251 -0.0034 -0.0440
  182MPD1    C1 2769   3.163   4.397   1.299 -0.0518 -0.6342 -0.3288
  182MPD1    C2 2770   3.046   4.355   1.240  0.2727 -0.0613  0.8603
  182MPD1    C3 2771   3.041   4.274   1.126  0.7726 -0.4194  0.8524
  182MPD1    C4 2772   3.166   4.231   1.079  0.5094  0.2607 -0.0395
  182MPD1    C5 2773   3.282   4.269   1.146  0.1142 -0.1293  0.2986
  182MPD1     H 2774   2.951   4.378   1.288 -0.5217 -1.9156  0.1916
  182MPD1    H1 2775   3.163   4.150   1.007  0.1018  1.7143 -1.6666
  182MPD1    H2 2776   3.374   4.402   1.289 -0.3469 -1.8685  2.1799
  182MPD1    H3 2777   3.373   4.240   1.095 -0.8100 -0.3055 -1.2373
  182MPD1     N 2778   2.928   4.224   1.053  0.6226  0.4277  0.2351
  182MPD1    H5 2779   2.952   4.173   0.968 -0.2366  1.5496 -0.6651
  182MPD1    N1 2780   3.167   4.485   1.402 -0.1014 -0.7735 -0.6535
  182MPD1    H6 2781   3.251   4.460   1.455  0.1490 -0.4392 -0.8957
  182MPD1    H7 2782   3.084   4.486   1.461  2.4741  1.0343  2.9667
  183MPD1     C 2783   2.692   4.412   9.166 -0.8623 -0.2080  0.3261
  183MPD1    C1 2784   2.638   4.328   9.256  0.7575 -0.5035  0.0963
  183MPD1    C2 2785   2.574   4.388   9.357  0.1127  0.7758  0.3030
  183MPD1    C3 2786   2.566   4.520   9.369 -0.3704  0.0985 -0.0689
  183MPD1    C4 2787   2.615   4.608   9.272 -1.0227 -0.1888 -0.6823
  183MPD1    C5 2788   2.680   4.549   9.176 -0.7653  0.0449 -0.4470
  183MPD1     H 2789   2.533   4.336   9.443  1.3185  1.2794  1.1800
  183MPD1    H1 2790   2.620   4.716   9.277  1.7364 -0.3938  1.1849
  183MPD1    H2 2791   2.747   4.376   9.081 -1.9216  0.6558 -0.7295
  183MPD1    H3 2792   2.727   4.604   9.094  0.4324  2.2461  1.7259
  183MPD1     N 2793   2.507   4.572   9.487 -0.3993  0.4481  0.3967
  183MPD1    H5 2794   2.488   4.512   9.567 -1.0704  0.0033 -0.0958
  183MPD1    N1 2795   2.659   4.190   9.254 -0.0941 -0.2227  0.8585
  183MPD1    H6 2796   2.598   4.142   9.319 -0.8409 -0.3892  0.0464
  183MPD1    H7 2797   2.649   4.151   9.160 -0.9261 -0.3035  0.9868
  184MPD1     C 2798   2.048   1.884  10.103 -1.1574  0.0434 -0.7653
  184MPD1    C1 2799   2.107   1.993  10.156  0.1611 -0.4108 -0.4912
  184MPD1    C2 2800   2.061   2.118  10.106  0.1972 -1.3828 -0.1755
  184MPD1    C3 2801   1.955   2.124  10.008 -0.4658  0.3673 -0.3621
  184MPD1    C4 2802   1.891   2.010   9.972 -0.4945  0.5414  0.4592
  184MPD1    C5 2803   1.947   1.892  10.013 -0.2982 -0.5770 -0.5676
  184MPD1     H 2804   2.115   2.209  10.131  0.6850 -1.5329 -0.6859
  184MPD1    H1 2805   1.813   2.019   9.896 -0.7454  1.0438  0.7799
  184MPD1    H2 2806   2.072   1.781  10.125 -0.8354 -0.1773 -2.1324
  184MPD1    H3 2807   1.899   1.799   9.982 -1.3776 -0.2979  0.2653
  184MPD1     N 2808   1.911   2.241   9.945 -0.4985 -0.0915 -0.2657
  184MPD1    H5 2809   1.851   2.231   9.863 -0.1485  0.4129 -0.5773
  184MPD1    N1 2810   2.231   1.983  10.225  0.0849 -0.1055  0.1275
  184MPD1    H6 2811   2.233   1.888  10.261 -0.0682 -0.6965 -1.4059
  184MPD1    H7 2812   2.233   2.050  10.301  1.3533  0.2432 -0.2139
  185MPD1     C 2813   1.322   2.560   9.266  0.6517 -0.1780 -0.2000
  185MPD1    C1 2814   1.382   2.445   9.301  0.2091 -0.2718 -0.4220
  185MPD1    C2 2815   1.461   2.448   9.416 -0.1177  0.3224 -0.8209
  185MPD1    C3 2816   1.454   2.558   9.502  0.0512  0.3029  0.7628
  185MPD1    C4 2817   1.371   2.666   9.475 -0.1790 -0.1272 -0.7500
  185MPD1    C5 2818   1.302   2.666   9.355 -0.2199 -0.7385 -0.3625
  185MPD1     H 2819   1.524   2.360   9.427 -0.5166 -0.0375 -1.4325
  185MPD1    H1 2820   1.377   2.760   9.529  1.9774 -0.7584  0.0997
  185MPD1    H2 2821   1.271   2.565   9.170  0.5885 -2.8991 -0.3089
  185MPD1    H3 2822   1.240   2.749   9.323 -1.3480 -1.6748 -0.5813
  185MPD1     N 2823   1.539   2.569   9.616 -0.4246 -0.5634 -0.0688
  185MPD1    H5 2824   1.522   2.652   9.672  2.0212  0.0334 -0.2221
  185MPD1    N1 2825   1.407   2.342   9.208  0.0734  0.6575 -0.2111
  185MPD1    H6 2826   1.417   2.252   9.254 -0.1865  1.4089  1.2980
  185MPD1    H7 2827   1.347   2.340   9.125  3.7204  2.9813 -2.9251
  186MPD1     C 2828   0.672   2.336  15.399 -0.0543  0.9456 -0.5594
  186MPD1    C1 2829   0.778   2.412  15.438 -0.0123 -0.8229 -0.2484
  186MPD1    C2 2830   0.778   2.488  15.553 -0.3344 -0.3648 -0.5128
  186MPD1    C3 2831   0.672   2.478  15.644  0.0458 -0.3461 -0.4774
  186MPD1    C4 2832   0.566   2.400  15.610  0.1532  0.4199  0.1974
  186MPD1    C5 2833   0.570   2.330  15.491  0.3851 -0.3788 -0.1698
  186MPD1     H 2834   0.863   2.550  15.578  0.1975 -1.6648  0.8789
  186MPD1    H1 2835   0.484   2.394  15.681  0.0011 -0.9226 -0.0860
  186MPD1    H2 2836   0.670   2.280  15.307 -0.4087  0.9049 -0.5259
  186MPD1    H3 2837   0.490   2.258  15.478 -0.6934  0.2612  2.9771
  186MPD1     N 2838   0.685   2.549  15.766  0.2073 -0.2295 -0.5798
  186MPD1    H5 2839   0.769   2.605  15.769 -0.7829  1.0853  2.9772
  186MPD1    N1 2840   0.892   2.398  15.364 -0.1094 -0.4984 -0.4572
  186MPD1    H6 2841   0.874   2.389  15.264 -0.6294  1.3106 -0.5337
  186MPD1    H7 2842   0.951   2.482  15.368 -0.3493 -0.3385 -0.2694
  187MPD1     C 2843   4.355   4.518   0.536  0.6372 -0.4709  0.7134
  187MPD1    C1 2844   4.365   4.419   0.440  0.0567 -0.3053 -0.4570
  187MPD1    C2 2845   4.381   4.448   0.303  0.2427 -0.4076  0.1757
  187MPD1    C3 2846   4.395   4.584   0.264  0.4387  0.6481  0.1269
  187MPD1    C4 2847   4.397   4.678   0.366 -0.7181  0.6578 -0.6845
  187MPD1    C5 2848   4.384   4.642   0.498 -0.1060  0.7648 -0.1079
  187MPD1     H 2849   4.390   4.364   0.235  1.6298 -1.3964  1.5824
  187MPD1    H1 2850   4.428   0.057   0.343  1.4622  1.0259  3.8144
  187MPD1    H2 2851   4.314   4.499   0.635  1.7375 -3.3166  0.6039
  187MPD1    H3 2852   4.391   0.003   0.567  0.1731 -0.4489  1.3227
  187MPD1     N 2853   4.401   4.638   0.133 -0.6773 -0.0843 -0.3624
  187MPD1    H5 2854   4.405   0.016   0.121 -0.1162 -0.0624 -0.0088
  187MPD1    N1 2855   4.358   4.289   0.482 -1.0106  0.4618 -0.4239
  187MPD1    H6 2856   4.355   4.285   0.583 -0.6499  0.9654 -0.3928
  187MPD1    H7 2857   4.450   4.252   0.459 -0.7333 -0.1532  1.7261
  188MPD1     C 2858   3.673   4.412  10.275  1.4084 -1.0181 -0.2580
  188MPD1    C1 2859   3.588   4.351  10.186  0.2021  0.7002 -1.0601
  188MPD1    C2 2860   3.635   4.239  10.128 -0.2835 -0.2799  0.3073
  188MPD1    C3 2861   3.760   4.187  10.163 -0.0672 -0.1135  0.7700
  188MPD1    C4 2862   3.840   4.242  10.267  0.5714 -0.4084 -0.3376
  188MPD1    C5 2863   3.790   4.361  10.319 -0.5505 -0.1964 -0.0272
  188MPD1     H 2864   3.568   4.179  10.067 -1.6235 -0.1560  1.6715
  188MPD1    H1 2865   3.940   4.218  10.301  0.4402 -1.1111 -0.4593
  188MPD1    H2 2866   3.638   4.495  10.335 -0.7299 -1.6920 -0.5557
  188MPD1    H3 2867   3.846   4.413  10.397 -1.2569 -2.3698  1.9162
  188MPD1     N 2868   3.809   4.068  10.099  0.2326  0.3615  0.5324
  188MPD1    H5 2869   3.888   4.023  10.144  0.0827 -1.2061 -0.7819
  188MPD1    N1 2870   3.452   4.393  10.177 -0.3580  0.3210 -0.2073
  188MPD1    H6 2871   3.406   4.370  10.089 -0.3552 -0.9849  0.1287
  188MPD1    H7 2872   3.459   4.495  10.180 -3.6791  0.5781 -0.4684
  189MPD1     C 2873   1.237   0.025   0.539 -0.5384 -0.3248  0.4385
  189MPD1    C1 2874   1.111   4.712   0.516  0.4888  0.5759 -0.3704
  189MPD1    C2 2875   1.038   0.062   0.431  0.0173  0.6193 -0.2131
  189MPD1    C3 2876   1.082   0.189   0.386  0.0472  0.1217 -0.1267
  189MPD1    C4 2877   1.205   0.233   0.435  0.5182  0.2084  0.7152
  189MPD1    C5 2878   1.284   0.152   0.504 -0.3003  0.3574  0.1329
  189MPD1     H 2879   0.942   0.026   0.396 -0.1157 -0.7591  1.5843
  189MPD1    H1 2880   1.251   0.329   0.417  0.2640 -0.1623 -1.9701
  189MPD1    H2 2881   1.305   4.677   0.587 -0.3426 -2.9881 -3.8241
  189MPD1    H3 2882   1.383   0.189   0.530  0.5218 -1.1564 -0.8162
  189MPD1     N 2883   0.998   0.269   0.302 -0.4247 -0.2726  0.1199
  189MPD1    H5 2884   0.922   0.228   0.248  0.9199 -3.1624  0.4327
  189MPD1    N1 2885   1.070   4.582   0.538 -0.2572  0.1144 -0.4113
  189MPD1    H6 2886   1.102   4.538   0.624  1.0058  0.4518 -0.7065
  189MPD1    H7 2887   0.970   4.575   0.550  0.0349 -2.3404  0.5470
  190MPD1     C 2888   0.224   4.408  15.421  0.7408 -0.0041  0.6745
  190MPD1    C1 2889   0.130   4.360  15.510  0.1569 -0.4430 -0.1069
  190MPD1    C2 2890   0.116   4.222  15.527  0.0296  0.6335  0.1489
  190MPD1    C3 2891   0.178   4.133  15.446  0.1013  0.5599 -0.7059
  190MPD1    C4 2892   0.267   4.178  15.353  0.2202 -0.4245 -0.1673
  190MPD1    C5 2893   0.292   4.313  15.348 -0.7396 -0.2252 -0.3569
  190MPD1     H 2894   0.047   4.190  15.604 -0.4266 -0.4938 -0.7370
  190MPD1    H1 2895   0.330   4.115  15.292  0.4551  0.5522 -0.9338
  190MPD1    H2 2896   0.253   4.510  15.398 -0.5078 -0.1514 -1.6114
  190MPD1    H3 2897   0.370   4.356  15.287 -1.6446  0.1361 -1.2492
  190MPD1     N 2898   0.146   3.995  15.449  0.0476  0.3641 -0.1266
  190MPD1    H5 2899   0.090   3.965  15.527  2.7334 -1.7287  1.0088
  190MPD1    N1 2900   0.069   4.451  15.595 -1.0766  0.0859 -0.2565
  190MPD1    H6 2901   4.693   4.444  15.623 -1.2126 -1.8306 -1.2445
  190MPD1    H7 2902   0.092   4.550  15.582  0.8935 -0.2153  0.9769
  191MPD1     C 2903   4.024   0.773  12.692 -0.1990 -0.7654  0.1819
  191MPD1    C1 2904   4.146   0.717  12.666  0.1868  0.2537 -0.1204
  191MPD1    C2 2905   4.217   0.781  12.575 -1.1380  0.0469  0.2184
  191MPD1    C3 2906   4.177   0.894  12.511 -0.5710  0.7494 -0.2258
  191MPD1    C4 2907   4.058   0.948  12.543 -0.4687  0.0197 -0.5154
  191MPD1    C5 2908   3.971   0.885  12.628  0.1020  0.8105  0.6301
  191MPD1     H 2909   4.314   0.736  12.556 -0.1036  2.5096 -0.3371
  191MPD1    H1 2910   4.016   1.033  12.491 -0.1393 -0.4574 -1.5615
  191MPD1    H2 2911   3.958   0.727  12.764 -0.7562 -0.0764  0.1147
  191MPD1    H3 2912   3.869   0.919  12.642 -0.2165  0.2749 -0.4420
  191MPD1     N 2913   4.268   0.951  12.425 -0.3109  0.3415 -0.7059
  191MPD1    H5 2914   4.362   0.912  12.418  0.3493  1.0754  4.2294
  191MPD1    N1 2915   4.207   0.624  12.753 -0.1591  0.2063 -0.6926
  191MPD1    H6 2916   4.283   0.563  12.725 -0.7499 -0.8013 -0.0967
  191MPD1    H7 2917   4.142   0.569  12.810  2.1020 -2.0573 -0.2890
  192MPD1     C 2918   4.437   1.457  11.451  0.5429  0.4551 -0.1738
  192MPD1    C1 2919   4.347   1.487  11.548 -0.1823  0.0823  0.2252
  192MPD1    C2 2920   4.337   1.400  11.655  0.2730 -0.8530 -0.6384
  192MPD1    C3 2921   4.434   1.305  11.673 -0.2027 -0.0650 -0.8995
  192MPD1    C4 2922   4.524   1.287  11.574 -0.4018  0.1244  0.1490
  192MPD1    C5 2923   4.529   1.357  11.463 -0.4515 -0.1925  0.0306
  192MPD1     H 2924   4.254   1.413  11.724 -1.0287  0.3731 -2.4256
  192MPD1    H1 2925   4.585   1.197  11.577  0.7696  0.9839  1.5365
  192MPD1    H2 2926   4.463   1.524  11.369 -1.0377 -0.6120 -1.5366
  192MPD1    H3 2927   4.616   1.346  11.399  0.8184  0.9261  1.5690
  192MPD1     N 2928   4.432   1.214  11.787  0.1507  0.6331 -0.3171
  192MPD1    H5 2929   4.499   1.137  11.787  1.9282  2.1697 -1.6862
  192MPD1    N1 2930   4.254   1.582  11.514 -0.2900  0.7901 -0.0950
  192MPD1    H6 2931   4.297   1.671  11.492  0.4517  0.5097  0.2337
  192MPD1    H7 2932   4.198   1.606  11.595  0.7069  0.7152  0.6141
  193MPD1     C 2933   3.872   0.980  16.125 -0.0367 -0.3418 -0.3351
  193MPD1    C1 2934   3.869   1.113  16.145 -0.0205  0.7574  0.1960
  193MPD1    C2 2935   3.911   1.162  16.266  0.3526 -1.0203  0.9936
  193MPD1    C3 2936   3.971   1.079  16.356  1.5200 -0.4855 -0.3019
  193MPD1    C4 2937   3.987   0.941  16.322 -0.2643  0.3542  0.3692
  193MPD1    C5 2938   3.931   0.894  16.210  0.7802 -0.3467 -0.2872
  193MPD1     H 2939   3.908   1.270  16.277 -1.2086 -1.0124  0.4537
  193MPD1    H1 2940   4.032   0.873  16.393  0.6729  0.6091  0.0091
  193MPD1    H2 2941   3.832   0.940  16.032 -3.6610  1.1172  0.6114
  193MPD1    H3 2942   3.917   0.787  16.198 -1.3418 -0.0977 -0.1012
  193MPD1     N 2943   4.037   1.127  16.470 -0.6501 -0.1536 -0.2198
  193MPD1    H5 2944   4.084   1.062  16.532 -0.5824  1.1776  1.1096
  193MPD1    N1 2945   3.811   1.197  16.050  0.3111 -0.0962 -0.2511
  193MPD1    H6 2946   3.844   1.293  16.052  1.2696 -0.3816 -2.2436
  193MPD1    H7 2947   3.799   1.166  15.954 -1.2491  2.8808 -0.9984
  194MPD1     C 2948   1.914   3.722  16.345 -0.0762  0.0206 -0.0021
  194MPD1    C1 2949   1.918   3.627  16.247  0.6684 -0.2212 -0.1726
  194MPD1    C2 2950   1.966   3.506  16.276 -0.4686 -0.8735 -0.1844
  194MPD1    C3 2951   2.032   3.480  16.395 -0.6477 -0.3437  0.4974
  194MPD1    C4 2952   2.035   3.578  16.492 -0.9684 -0.2160  0.7446
  194MPD1    C5 2953   1.974   3.697  16.471  0.4518 -0.2612  0.5422
  194MPD1     H 2954   1.952   3.425  16.206 -0.9303 -1.2454  0.3383
  194MPD1    H1 2955   2.079   3.566  16.590  0.5533 -0.3686  0.0558
  194MPD1    H2 2956   1.862   3.816  16.329 -0.9879 -0.2676  1.2627
  194MPD1    H3 2957   1.986   3.766  16.553 -0.0159  0.6965 -0.1965
  194MPD1     N 2958   2.090   3.351  16.430 -0.1555  0.0785 -0.4558
  194MPD1    H5 2959   2.135   3.355  16.521 -1.2041 -1.8346  0.1467
  194MPD1    N1 2960   1.844   3.657  16.137  0.6058 -0.3913  0.1254
  194MPD1    H6 2961   1.857   3.600  16.054  1.1829  2.2470 -1.5511
  194MPD1    H7 2962   1.879   3.749  16.114 -2.4381  0.3651 -1.4538
  195MPD1     C 2963   4.003   0.134  17.414 -0.3918  0.4201  0.3380
  195MPD1    C1 2964   4.031   0.080  17.536 -0.3740  0.5230 -0.3793
  195MPD1    C2 2965   4.027   4.666  17.557 -0.0883  0.1120 -0.7339
  195MPD1    C3 2966   3.976   4.584  17.454 -0.2444  0.9918 -0.1814
  195MPD1    C4 2967   3.941   4.643  17.334  0.2648  0.2627  0.2458
  195MPD1    C5 2968   3.953   0.056  17.313  0.3528 -0.6149 -0.1663
  195MPD1     H 2969   4.054   4.630  17.655  0.2156  3.1433  0.3024
  195MPD1    H1 2970   3.917   4.577  17.251 -0.7966 -0.4175  1.0940
  195MPD1    H2 2971   4.018   0.239  17.390  0.0294  0.1918 -0.4018
  195MPD1    H3 2972   3.930   0.098  17.216 -0.9491 -0.7819  0.0649
  195MPD1     N 2973   3.979   4.441  17.458 -0.4766  0.0644 -0.1343
  195MPD1    H5 2974   3.950   4.383  17.380 -0.2521  1.3300 -1.1569
  195MPD1    N1 2975   4.085   0.163  17.645 -0.3104 -0.0863  0.5132
  195MPD1    H6 2976   4.079   0.135   0.051 -1.2383 -1.8384 -0.0454
  195MPD1    H7 2977   4.056   0.260  17.633  1.5122  0.7297  2.6930
  196MPD1     C 2978   2.982   3.512   0.950 -0.0296  0.0468  0.4281
  196MPD1    C1 2979   3.002   3.579   0.826  0.4443 -0.2354 -0.6683
  196MPD1    C2 2980   3.114   3.653   0.810 -0.4515  0.3916 -0.2103
  196MPD1    C3 2981   3.191   3.685   0.919 -0.6444  0.1044  0.3961
  196MPD1    C4 2982   3.175   3.626   1.042 -0.1052 -0.1841 -0.2454
  196MPD1    C5 2983   3.068   3.541   1.053 -0.3702  0.3291  0.0404
  196MPD1     H 2984   3.135   3.700   0.715 -2.4404 -1.2141 -1.4233
  196MPD1    H1 2985   3.236   3.643   1.131  0.4409  1.1538 -0.8639
  196MPD1    H2 2986   2.908   3.433   0.957 -0.8008  0.9328  2.0110
  196MPD1    H3 2987   3.046   3.488   1.145  0.6477 -1.0259 -0.4950
  196MPD1     N 2988   3.290   3.787   0.915 -0.2880  0.5181  0.3177
  196MPD1    H5 2989   3.340   3.798   1.002 -1.0072  0.7029  0.7065
  196MPD1    N1 2990   2.946   3.532   0.704  0.3698  0.5429  0.1936
  196MPD1    H6 2991   2.953   3.608   0.637 -0.7027 -0.2731 -0.8427
  196MPD1    H7 2992   2.849   3.505   0.720  0.5377 -0.8665 -1.1639
  197MPD1     C 2993   2.617   0.863  17.251 -0.3480 -0.2518  0.1196
  197MPD1    C1 2994   2.696   0.951  17.328 -0.0541  0.4508 -0.2770
  197MPD1    C2 2995   2.717   1.078  17.278  0.2492  0.0807 -0.0319
  197MPD1    C3 2996   2.668   1.114  17.153  0.5505  1.0857  0.3273
  197MPD1    C4 2997   2.598   1.023  17.080 -0.7482 -0.0891 -0.3862
  197MPD1    C5 2998   2.569   0.898  17.131  0.5136  0.0625 -0.5300
  197MPD1     H 2999   2.764   1.150  17.343  1.5110  1.5955 -2.6064
  197MPD1    H1 3000   2.558   1.049  16.983 -0.8286  0.2161 -0.2712
  197MPD1    H2 3001   2.586   0.765  17.287 -1.8156 -0.3856 -1.5043
  197MPD1    H3 3002   2.521   0.823  17.070 -1.4217  1.1798 -0.3721
  197MPD1     N 3003   2.677   1.240  17.104 -1.5570  0.0656 -0.2422
  197MPD1    H5 3004   2.637   1.265  17.014 -1.9626  0.7666  0.1308
  197MPD1    N1 3005   2.751   0.908  17.452 -0.2614  0.4564  0.2630
  197MPD1    H6 3006   2.824   0.965  17.494  0.1235  1.2660 -1.4996
  197MPD1    H7 3007   2.767   0.808  17.461 -0.5874  0.3066 -0.8607
  198MPD1     C 3008   4.598   0.043  15.349 -0.9759 -0.1312  0.6784
  198MPD1    C1 3009   0.010   0.069  15.319 -0.0568  0.5095 -0.0439
  198MPD1    C2 3010   0.097   0.091  15.422 -0.0241 -0.7038  0.4135
  198MPD1    C3 3011   0.052   0.085  15.555 -0.3457  0.3465  0.3986
  198MPD1    C4 3012   4.640   0.065  15.583  0.5114 -0.4625 -0.1106
  198MPD1    C5 3013   4.557   0.055  15.477  0.0643 -0.0479 -0.1001
  198MPD1     H 3014   0.199   0.123  15.404 -0.1320 -0.5583  0.0772
  198MPD1    H1 3015   4.598   0.056  15.682  0.8577  2.4032  0.2901
  198MPD1    H2 3016   4.526   0.017  15.273 -0.7933  0.1564  0.4047
  198MPD1    H3 3017   4.451   0.044  15.496 -0.2187  1.4805 -0.7803
  198MPD1     N 3018   0.144   0.098  15.664  0.0559 -0.4277 -0.2924
  198MPD1    H5 3019   0.243   0.112  15.649 -0.4058  0.3735 -2.6425
  198MPD1    N1 3020   0.043   0.098  15.189 -0.0484 -0.0713 -0.1088
  198MPD1    H6 3021   4.709   0.054  15.117 -1.8184 -1.7785  2.3499
  198MPD1    H7 3022   0.142   0.087  15.165 -0.0397 -0.4826  0.1078
  199MPD1     C 3023   1.365   0.410   9.129 -0.1508  0.0835  0.1087
  199MPD1    C1 3024   1.457   0.424   9.231  0.1355  0.2696  0.8943
  199MPD1    C2 3025   1.453   0.541   9.313  0.3882  0.4732 -0.4843
  199MPD1    C3 3026   1.364   0.644   9.293  0.1536  0.2782  0.3885
  199MPD1    C4 3027   1.263   0.621   9.203 -0.0794  0.3979  0.0568
  199MPD1    C5 3028   1.265   0.511   9.115 -0.3791 -0.2447  0.1238
  199MPD1     H 3029   1.513   0.550   9.403  1.6483 -0.7976 -1.2039
  199MPD1    H1 3030   1.174   0.682   9.204 -0.7978 -0.6829  1.3371
  199MPD1    H2 3031   1.354   0.322   9.066 -1.7674 -0.5391  1.2535
  199MPD1    H3 3032   1.189   0.509   9.038 -0.8510  2.2371  0.5137
  199MPD1     N 3033   1.357   0.757   9.372 -0.6690  0.4304  0.1688
  199MPD1    H5 3034   1.275   0.814   9.352 -1.1617 -0.3534 -0.0504
  199MPD1    N1 3035   1.560   0.328   9.240 -0.0256 -0.2038 -0.4470
  199MPD1    H6 3036   1.604   0.313   9.330  2.9945 -1.7670 -2.2146
  199MPD1    H7 3037   1.523   0.240   9.205 -0.0600 -0.4119  0.1111
  200MPD1     C 3038   1.191   1.182  15.297  0.0500  0.2857  0.9111
  200MPD1    C1 3039   1.174   1.120  15.175 -0.3344 -0.0604 -0.3945
  200MPD1    C2 3040   1.246   1.170  15.070  0.8290 -1.4058  0.1576
  200MPD1    C3 3041   1.341   1.269  15.091  0.0939  0.1987  0.6379
  200MPD1    C4 3042   1.351   1.329  15.215 -0.5654 -0.5280  0.2496
  200MPD1    C5 3043   1.272   1.292  15.317  0.1209 -0.4852 -0.5780
  200MPD1     H 3044   1.255   1.130  14.969 -1.5255 -1.6176  0.0278
  200MPD1    H1 3045   1.422   1.407  15.241 -0.8665 -0.1094 -0.1832
  200MPD1    H2 3046   1.140   1.131  15.378 -2.6431  0.7079 -0.5162
  200MPD1    H3 3047   1.276   1.330  15.418 -3.1635  1.6719 -1.2609
  200MPD1     N 3048   1.410   1.318  14.977 -0.7235  0.3486 -0.4042
  200MPD1    H5 3049   1.384   1.288  14.884  0.8093  0.2575 -0.8030
  200MPD1    N1 3050   1.109   0.997  15.167  0.7335 -0.4296 -0.0197
  200MPD1    H6 3051   1.096   0.957  15.074  1.4184 -0.6518 -0.0214
  200MPD1    H7 3052   1.019   1.003  15.214 -0.7465  1.1508 -3.0585
  201MPD1     C 3053   3.658   0.619  12.765 -0.3602 -0.2441 -0.1292
  201MPD1    C1 3054   3.710   0.594  12.892  0.4534  0.6165  0.0558
  201MPD1    C2 3055   3.696   0.464  12.934  0.1366 -0.3952 -0.2379
  201MPD1    C3 3056   3.657   0.358  12.849  0.0924 -1.1692 -0.5790
  201MPD1    C4 3057   3.625   0.390  12.720  0.3595  0.6484 -0.0447
  201MPD1    C5 3058   3.619   0.521  12.682  0.4096  0.2082 -0.4742
  201MPD1     H 3059   3.720   0.446  13.038 -2.5951 -0.9887  0.2887
  201MPD1    H1 3060   3.591   0.321  12.644 -1.1782  2.4416 -1.0169
  201MPD1    H2 3061   3.621   0.717  12.739  2.1298  1.1879  1.7632
  201MPD1    H3 3062   3.588   0.541  12.580  1.1030  0.7387 -0.5824
  201MPD1     N 3063   3.645   0.230  12.899  0.5091 -0.0079 -0.4555
  201MPD1    H5 3064   3.659   0.220  12.999  0.1244 -2.6637 -0.6616
  201MPD1    N1 3065   3.733   0.701  12.979 -0.1391  0.7199  0.5045
  201MPD1    H6 3066   3.752   0.789  12.932 -1.4307  0.2712 -0.8464
  201MPD1    H7 3067   3.813   0.683  13.041 -0.5872 -0.8524  0.6246
  202MPD1     C 3068   2.793   3.505   9.220  0.4038  0.1555  0.0058
  202MPD1    C1 3069   2.756   3.635   9.229  0.5419  0.0525  0.3789
  202MPD1    C2 3070   2.777   3.702   9.351  0.3387 -0.9315  0.0451
  202MPD1    C3 3071   2.866   3.651   9.439  0.6014  0.1391 -0.0226
  202MPD1    C4 3072   2.923   3.522   9.414  0.4406 -0.5110 -0.1110
  202MPD1    C5 3073   2.878   3.451   9.307 -0.0057 -0.0434  0.2502
  202MPD1     H 3074   2.743   3.803   9.372 -0.2927 -1.7321  2.8749
  202MPD1    H1 3075   3.004   3.477   9.472 -0.5131 -2.9968 -0.6926
  202MPD1    H2 3076   2.750   3.435   9.149 -0.0009  1.0597 -0.6400
  202MPD1    H3 3077   2.905   3.346   9.298 -1.2718 -0.3022 -0.5413
  202MPD1     N 3078   2.930   3.727   9.545  0.0467 -0.0129 -0.1048
  202MPD1    H5 3079   3.002   3.678   9.596  0.8523  0.6765 -0.5602
  202MPD1    N1 3080   2.642   3.668   9.161  0.2715  0.3617  0.1307
  202MPD1    H6 3081   2.558   3.634   9.207 -0.4763  1.3845 -0.4809
  202MPD1    H7 3082   2.627   3.769   9.160 -1.4885  0.1040  0.7921
  203MPD1     C 3083   1.699   0.468  12.656  0.0595  0.1981 -0.2887
  203MPD1    C1 3084   1.766   0.438  12.769 -0.0719  0.4445  0.1082
  203MPD1    C2 3085   1.898   0.394  12.759  0.3244  0.3262 -0.7482
  203MPD1    C3 3086   1.954   0.369  12.632  0.0441 -0.2116  0.7423
  203MPD1    C4 3087   1.877   0.380  12.515  0.2230 -0.2725  0.2972
  203MPD1    C5 3088   1.747   0.432  12.529 -1.0549  0.1507 -0.5227
  203MPD1     H 3089   1.957   0.378  12.848  0.4500 -0.6495 -1.0064
  203MPD1    H1 3090   1.906   0.354  12.414 -0.9314 -2.7902  0.6337
  203MPD1    H2 3091   1.596   0.501  12.662 -0.5826 -2.1035  1.2993
  203MPD1    H3 3092   1.686   0.442  12.440 -0.7620  0.9834 -0.6303
  203MPD1     N 3093   2.088   0.338  12.637 -0.2170  0.4692 -0.0622
  203MPD1    H5 3094   2.135   0.370  12.722 -0.6509 -1.1017  0.7566
  203MPD1    N1 3095   1.719   0.488  12.884 -0.8186  0.3609  0.0627
  203MPD1    H6 3096   1.618   0.473  12.887 -1.1461  3.1712  3.0058
  203MPD1    H7 3097   1.766   0.443  12.962  1.4073  0.3956 -1.2574
  204MPD1     C 3098   0.599   1.679  17.168 -0.2645 -0.1170  0.1095
  204MPD1    C1 3099   0.670   1.623  17.270  0.3682  0.5819  0.4618
  204MPD1    C2 3100   0.797   1.567  17.246  0.2784 -0.2285  0.2594
  204MPD1    C3 3101   0.839   1.548  17.118  0.2512  0.7408  0.3331
  204MPD1    C4 3102   0.757   1.598  17.012  0.3129  0.3247  0.4354
  204MPD1    C5 3103   0.638   1.654  17.043  0.1171 -0.2503  0.0047
  204MPD1     H 3104   0.864   1.544  17.328 -0.0320  0.9073  0.8344
  204MPD1    H1 3105   0.770   1.584  16.906 -0.0445 -2.3136  0.7513
  204MPD1    H2 3106   0.502   1.725  17.183 -0.6453 -0.5404 -1.0609
  204MPD1    H3 3107   0.570   1.698  16.970  0.5321 -0.2395 -0.3772
  204MPD1     N 3108   0.975   1.506  17.102 -0.3785 -0.0094  0.1118
  204MPD1    H5 3109   1.035   1.492  17.183 -0.8802 -0.5845  0.3837
  204MPD1    N1 3110   0.633   1.650  17.398  0.1739 -0.3245 -0.2990
  204MPD1    H6 3111   0.534   1.631  17.414  0.1080 -1.1656 -1.7166
  204MPD1    H7 3112   0.688   1.596  17.464  0.3324  0.5137  0.2538
  205MPD1     C 3113   2.335   0.336  16.739  0.0208  0.5863  0.8595
  205MPD1    C1 3114   2.273   0.458  16.742  0.3307 -0.4035 -0.5019
  205MPD1    C2 3115   2.190   0.500  16.843 -0.7399 -0.0108 -0.1343
  205MPD1    C3 3116   2.182   0.421  16.957  0.1604  0.5713  0.0453
  205MPD1    C4 3117   2.254   0.303  16.969 -0.1116  0.0302 -0.2120
  205MPD1    C5 3118   2.329   0.265  16.862 -0.1521  0.3311 -0.4722
  205MPD1     H 3119   2.141   0.594  16.824  0.3358  0.5307 -0.2421
  205MPD1    H1 3120   2.249   0.236  17.055  1.1805  0.6838  0.3704
  205MPD1    H2 3121   2.399   0.304  16.657  0.4753  1.7453  0.7527
  205MPD1    H3 3122   2.386   0.174  16.876 -1.3545 -0.5182 -1.0883
  205MPD1     N 3123   2.109   0.470  17.065  0.3609  0.5351  0.1756
  205MPD1    H5 3124   2.136   0.414  17.145 -0.4678  1.0396  0.8148
  205MPD1    N1 3125   2.301   0.548  16.642  0.2595 -0.0755  0.3555
  205MPD1    H6 3126   2.313   0.502  16.552  0.1801 -0.2596  0.4388
  205MPD1    H7 3127   2.239   0.627  16.627 -1.3528 -1.3595  0.3427
  206MPD1     C 3128   2.421   3.656  16.522  0.9202 -0.4092  0.1607
  206MPD1    C1 3129   2.481   3.533  16.486  0.2555  0.0681  0.1976
  206MPD1    C2 3130   2.432   3.467  16.372  0.0393 -0.2671 -0.0870
  206MPD1    C3 3131   2.347   3.539  16.283 -0.0130  0.6596  0.3560
  206MPD1    C4 3132   2.301   3.665  16.320 -0.1626  0.6650  0.3389
  206MPD1    C5 3133   2.332   3.722  16.440 -0.3262 -0.1351 -0.0012
  206MPD1     H 3134   2.448   3.361  16.355  1.7875 -0.0609  0.2254
  206MPD1    H1 3135   2.228   3.717  16.260 -1.5617 -1.5939  0.1043
  206MPD1    H2 3136   2.436   3.699  16.620 -0.2960  1.9339 -0.6613
  206MPD1    H3 3137   2.290   3.818  16.465  0.2850 -0.5445  2.5980
  206MPD1     N 3138   2.306   3.502  16.156 -0.4589 -0.5948  0.3172
  206MPD1    H5 3139   2.243   3.563  16.104  0.4074 -0.0265 -0.0836
  206MPD1    N1 3140   2.549   3.465  16.581 -0.4898 -0.5687  0.2513
  206MPD1    H6 3141   2.618   3.397  16.547 -0.5093  0.2245 -1.3860
  206MPD1    H7 3142   2.603   3.524  16.643 -2.0402  0.1290  0.9330
  207MPD1     C 3143   3.573   0.449  10.159  0.1091 -0.2458  0.0529
  207MPD1    C1 3144   3.643   0.395  10.266 -0.7616 -0.5069 -0.1906
  207MPD1    C2 3145   3.779   0.401  10.250  0.4330  0.0277  0.8905
  207MPD1    C3 3146   3.847   0.483  10.161  0.2702 -0.2878  0.4669
  207MPD1    C4 3147   3.768   0.556  10.073  0.4256 -0.2337 -0.7326
  207MPD1    C5 3148   3.633   0.529  10.063 -0.8303  0.2637 -0.0181
  207MPD1     H 3149   3.836   0.337  10.317 -1.2271 -0.9091  1.3875
  207MPD1    H1 3150   3.818   0.621  10.003  0.7336 -1.4970 -1.6916
  207MPD1    H2 3151   3.468   0.421  10.152 -0.0568 -0.2388  2.6410
  207MPD1    H3 3152   3.574   0.576   9.986  0.4153  1.6290 -0.1365
  207MPD1     N 3153   3.989   0.500  10.154 -0.5665 -0.9025 -0.0646
  207MPD1    H5 3154   4.026   0.563  10.084  0.1688 -0.8009  0.4103
  207MPD1    N1 3155   3.580   0.312  10.360 -0.6352  0.2157  0.0140
  207MPD1    H6 3156   3.626   0.305  10.450  4.4228  1.1328 -2.4724
  207MPD1    H7 3157   3.481   0.333  10.371 -0.4906  1.1509 -0.4284
  208MPD1     C 3158   3.081   0.224  17.656  0.2762 -0.2849  0.3010
  208MPD1    C1 3159   3.109   0.089  17.676 -0.6104 -0.1951  0.0693
  208MPD1    C2 3160   3.017   4.714  17.652 -0.0619  0.0786 -0.1733
  208MPD1    C3 3161   2.886   0.039  17.628  0.2816 -0.4439  0.1994
  208MPD1    C4 3162   2.853   0.175  17.629  0.3389 -0.3008 -0.2941
  208MPD1    C5 3163   2.955   0.263  17.627  0.8809 -0.4002 -0.1275
  208MPD1     H 3164   3.038   4.610  17.673 -0.3979  0.4439  1.9652
  208MPD1    H1 3165   2.755   0.205  17.595  0.8506  0.5798 -0.9892
  208MPD1    H2 3166   3.153   0.305  17.666  1.1187 -0.9798 -0.1300
  208MPD1    H3 3167   2.937   0.369  17.609 -0.9172 -0.8572 -1.0652
  208MPD1     N 3168   2.792   4.660  17.623 -0.2597 -0.5410 -0.0866
  208MPD1    H5 3169   2.824   4.566  17.642 -0.4030 -0.2458  1.6527
  208MPD1    N1 3170   3.241   0.052  17.685 -0.2302  0.9558  0.1267
  208MPD1    H6 3171   3.255   4.685   0.040 -1.6392  0.9105  0.4717
  208MPD1    H7 3172   3.297   0.114   0.050  1.2394 -1.5007  1.3383
  209MPD1     C 3173   0.590   0.600  11.669  0.3581  0.3318 -0.4548
  209MPD1    C1 3174   0.658   0.685  11.580 -0.4263  0.6327 -0.3624
  209MPD1    C2 3175   0.630   0.677  11.443 -0.4105  1.0993 -0.5256
  209MPD1    C3 3176   0.537   0.585  11.393  0.4930  0.0103 -0.3576
  209MPD1    C4 3177   0.481   0.490  11.477  0.0554 -0.5095 -0.0565
  209MPD1    C5 3178   0.504   0.504  11.611  0.0517 -0.5967  0.0945
  209MPD1     H 3179   0.679   0.747  11.377  5.6639 -0.5494  2.2807
  209MPD1    H1 3180   0.412   0.416  11.438 -1.6093  0.3939  1.1950
  209MPD1    H2 3181   0.616   0.601  11.774  0.4788  0.0957 -0.4834
  209MPD1    H3 3182   0.452   0.433  11.675 -1.1070 -0.6501 -0.9172
  209MPD1     N 3183   0.507   0.587  11.253 -0.0253 -0.4826  0.2185
  209MPD1    H5 3184   0.547   0.666  11.203 -0.7633  1.1909  2.2705
  209MPD1    N1 3185   0.750   0.777  11.627  0.4515 -0.6644  0.1346
  209MPD1    H6 3186   0.805   0.735  11.702  0.0403 -0.2348  0.6727
  209MPD1    H7 3187   0.816   0.809  11.557 -1.1817  1.1049 -0.5811
  210MPD1     C 3188   0.781   1.068  10.465  0.1913 -0.8665 -0.5539
  210MPD1    C1 3189   0.796   1.065  10.601 -0.0197 -0.0861 -0.0147
  210MPD1    C2 3190   0.762   0.949  10.665  0.0818 -1.1818  0.7174
  210MPD1    C3 3191   0.685   0.855  10.600 -0.2203 -0.6578  0.8511
  210MPD1    C4 3192   0.676   0.853  10.465 -0.1147  0.3139 -0.0655
  210MPD1    C5 3193   0.726   0.965  10.404 -0.0637  0.1021 -0.4308
  210MPD1     H 3194   0.789   0.935  10.769 -2.5695 -0.2801  1.5094
  210MPD1    H1 3195   0.615   0.783  10.409  0.0549 -0.3951  0.6395
  210MPD1    H2 3196   0.817   1.152  10.407  0.0542 -2.3155 -2.7107
  210MPD1    H3 3197   0.704   0.969  10.298 -0.8304  0.2159 -0.2697
  210MPD1     N 3198   0.634   0.741  10.660 -0.0786 -0.1827 -0.0161
  210MPD1    H5 3199   0.574   0.687  10.599 -1.2201  0.6286  0.3800
  210MPD1    N1 3200   0.868   1.165  10.666 -0.1724 -0.0263 -0.0226
  210MPD1    H6 3201   0.859   1.257  10.623  0.9728 -0.2985 -0.8346
  210MPD1    H7 3202   0.842   1.160  10.764  1.8580 -1.5794  0.4271
  211MPD1     C 3203   2.573   0.949  16.382  0.6062 -0.0523  0.7912
  211MPD1    C1 3204   2.517   1.022  16.281  0.0086  0.0579 -0.0109
  211MPD1    C2 3205   2.420   0.961  16.198 -0.4954  0.6601  0.2658
  211MPD1    C3 3206   2.370   0.834  16.235 -0.7965 -0.6321  0.2558
  211MPD1    C4 3207   2.431   0.768  16.333 -0.3079  0.7927 -0.3908
  211MPD1    C5 3208   2.536   0.819  16.407  0.4056 -0.3799  0.1816
  211MPD1     H 3209   2.382   1.015  16.112  0.5621  0.9125 -0.0441
  211MPD1    H1 3210   2.400   0.669  16.365  0.2391  0.5897 -0.4966
  211MPD1    H2 3211   2.653   0.989  16.445  0.5016 -0.8522  1.4389
  211MPD1    H3 3212   2.582   0.754  16.481  1.2362  0.4119  0.3455
  211MPD1     N 3213   2.266   0.770  16.159  0.1545  0.1655  0.0505
  211MPD1    H5 3214   2.209   0.831  16.100  0.2889 -2.9907 -3.3347
  211MPD1    N1 3215   2.576   1.146  16.235  0.5009 -0.1474 -0.4492
  211MPD1    H6 3216   2.608   1.198  16.316  2.6249  0.9602 -1.9810
  211MPD1    H7 3217   2.504   1.193  16.180  0.3646 -0.6893 -0.7326
  212MPD1     C 3218   1.543   3.215  15.991  0.2156  0.0310 -0.6865
  212MPD1    C1 3219   1.563   3.276  16.112 -0.0843  0.0890  0.8853
  212MPD1    C2 3220   1.528   3.211  16.226  0.3706 -0.4785 -1.2217
  212MPD1    C3 3221   1.493   3.080  16.217  0.0588  0.5833 -0.3712
  212MPD1    C4 3222   1.475   3.024  16.099  0.6163 -0.4573 -0.1882
  212MPD1    C5 3223   1.494   3.091  15.981  0.1262  0.2522 -0.0727
  212MPD1     H 3224   1.543   3.253  16.325 -3.0843  0.6916 -1.2216
  212MPD1    H1 3225   1.435   2.924  16.090  0.1971 -0.4347  1.5021
  212MPD1    H2 3226   1.583   3.256  15.899 -2.1711  1.8405 -0.9438
  212MPD1    H3 3227   1.476   3.049  15.883  2.0645 -1.7670  0.4391
  212MPD1     N 3228   1.475   2.999  16.335  0.3510 -0.3166  0.7341
  212MPD1    H5 3229   1.465   2.900  16.317 -0.1575 -0.4635  1.8321
  212MPD1    N1 3230   1.606   3.409  16.112  0.7941 -0.3102  0.6238
  212MPD1    H6 3231   1.684   3.433  16.050 -2.0695 -2.1865 -3.6810
  212MPD1    H7 3232   1.620   3.449  16.204 -0.8468  0.3142  0.5849
  213MPD1     C 3233   4.446   4.061  15.879 -0.7139 -0.3405  0.2287
  213MPD1    C1 3234   4.337   3.983  15.920 -0.4242  0.5045 -0.3359
  213MPD1    C2 3235   4.232   3.991  15.826  0.1878  0.5748  0.0824
  213MPD1    C3 3236   4.210   4.107  15.749  0.6794 -0.0243 -0.2090
  213MPD1    C4 3237   4.311   4.200  15.747  0.7670  0.3981  0.0591
  213MPD1    C5 3238   4.432   4.177  15.809 -0.7226 -0.7599 -0.0767
  213MPD1     H 3239   4.161   3.909  15.827 -0.7135  1.3777  2.1727
  213MPD1    H1 3240   4.311   4.299  15.702  0.2130 -0.5765 -2.0829
  213MPD1    H2 3241   4.537   4.066  15.939 -0.8321  1.4346  0.2627
  213MPD1    H3 3242   4.504   4.256  15.824 -0.4083 -1.2495  0.9950
  213MPD1     N 3243   4.092   4.110  15.670  0.6267 -0.1100  0.3934
  213MPD1    H5 3244   4.042   4.023  15.661 -1.1697  1.3816 -4.0095
  213MPD1    N1 3245   4.378   3.868  15.983 -0.0194 -0.3244  0.3419
  213MPD1    H6 3246   4.448   3.899  16.050  0.1664  3.7684 -1.7454
  213MPD1    H7 3247   4.300   3.821  16.030  3.5438 -3.5687  2.9996
  214MPD1     C 3248   3.598   3.437  15.623  0.4587  0.1273 -0.4679
  214MPD1    C1 3249   3.646   3.446  15.494 -0.5028 -0.3565  0.3194
  214MPD1    C2 3250   3.690   3.570  15.457 -0.2164  0.4968 -0.4249
  214MPD1    C3 3251   3.700   3.672  15.550 -0.3266 -0.1864 -0.2461
  214MPD1    C4 3252   3.663   3.653  15.677  0.0603 -0.0034  0.3841
  214MPD1    C5 3253   3.613   3.533  15.718 -0.8942 -0.0091  0.6077
  214MPD1     H 3254   3.724   3.588  15.355  0.9870 -0.7743 -0.2445
  214MPD1    H1 3255   3.654   3.736  15.746 -0.5086 -1.1048  1.6348
  214MPD1    H2 3256   3.544   3.348  15.654  2.3959 -2.1137 -3.6003
  214MPD1    H3 3257   3.584   3.509  15.819  0.1513  1.0916  1.1661
  214MPD1     N 3258   3.745   3.805  15.517 -0.9680 -0.2261 -0.7252
  214MPD1    H5 3259   3.727   3.875  15.588 -0.2909 -2.2419  1.4403
  214MPD1    N1 3260   3.602   3.349  15.399  0.1911 -0.5935  0.0711
  214MPD1    H6 3261   3.593   3.257  15.441 -2.3854 -0.3205  0.0960
  214MPD1    H7 3262   3.659   3.340  15.315  1.3106  0.6291  0.6937
  215MPD1     C 3263   3.581   4.514  10.631 -0.2459 -0.4250 -0.1119
  215MPD1    C1 3264   3.656   4.508  10.739  0.0262  0.1636 -0.5129
  215MPD1    C2 3265   3.725   4.620  10.772  0.1723  0.0104 -0.4240
  215MPD1    C3 3266   3.713   0.019  10.708 -0.6406  0.3273  0.6354
  215MPD1    C4 3267   3.617   0.028  10.608 -0.0647 -0.0716  0.3373
  215MPD1    C5 3268   3.560   4.632  10.570  0.1147 -0.2022  0.1394
  215MPD1     H 3269   3.787   4.616  10.861 -0.7817  1.2562  0.2998
  215MPD1    H1 3270   3.602   0.122  10.557  0.8489  0.9182  1.9287
  215MPD1    H2 3271   3.534   4.428  10.584 -0.4781  1.1914 -2.8193
  215MPD1    H3 3272   3.493   4.634  10.485  1.8653  2.1761 -1.1717
  215MPD1     N 3273   3.799   0.122  10.752 -0.4139  0.1569 -0.0318
  215MPD1    H5 3274   3.866   0.099  10.825  0.3130 -1.8905 -1.3343
  215MPD1    N1 3275   3.680   4.386  10.788 -0.0850 -0.5840 -0.1984
  215MPD1    H6 3276   3.708   4.391  10.886  4.2895 -0.3830 -1.4642
  215MPD1    H7 3277   3.604   4.322  10.768  0.1947 -0.0583 -2.9073
  216MPD1     C 3278   1.669   2.367  16.172  0.0157  0.0476  0.1221
  216MPD1    C1 3279   1.764   2.408  16.262  0.0122 -0.2507  0.1997
  216MPD1    C2 3280   1.788   2.323  16.372  0.2212 -0.3241  0.3157
  216MPD1    C3 3281   1.744   2.192  16.379  0.1882  0.5440  0.7102
  216MPD1    C4 3282   1.654   2.156  16.286  0.1720 -0.4492 -0.4567
  216MPD1    C5 3283   1.617   2.241  16.188 -0.1713 -0.3631  0.2628
  216MPD1     H 3284   1.849   2.365  16.452  0.3904  1.2814 -0.6486
  216MPD1    H1 3285   1.605   2.059  16.286 -5.6427  2.4977 -0.8773
  216MPD1    H2 3286   1.638   2.422  16.085  1.3631  1.9330  0.8345
  216MPD1    H3 3287   1.542   2.202  16.120  1.3838 -1.1715 -1.0012
  216MPD1     N 3288   1.782   2.108  16.487 -0.0618  0.2668 -0.5016
  216MPD1    H5 3289   1.843   2.151  16.556 -0.9540  0.2626  0.2911
  216MPD1    N1 3290   1.808   2.543  16.259 -0.4290 -0.3730 -0.0619
  216MPD1    H6 3291   1.800   2.573  16.162 -1.9074 -1.7469 -0.3687
  216MPD1    H7 3292   1.902   2.559  16.294 -0.2267 -0.3660 -0.6045
  217MPD1     C 3293   1.808   2.897   8.860 -0.2761 -0.7160 -0.2061
  217MPD1    C1 3294   1.727   2.998   8.797 -0.4430 -0.3977  0.2785
  217MPD1    C2 3295   1.753   3.126   8.828  0.2155  0.1503 -0.1819
  217MPD1    C3 3296   1.856   3.159   8.921 -0.5615 -0.0582  0.7939
  217MPD1    C4 3297   1.918   3.060   8.995  0.1356  0.3615 -0.8006
  217MPD1    C5 3298   1.891   2.933   8.959 -0.4811  0.2214  0.0700
  217MPD1     H 3299   1.696   3.199   8.772  0.8929  0.6708 -0.1958
  217MPD1    H1 3300   1.986   3.083   9.076  0.9256 -1.9855 -0.8022
  217MPD1    H2 3301   1.808   2.789   8.849  0.0711 -0.6348 -0.9856
  217MPD1    H3 3302   1.951   2.865   9.019 -0.8521 -1.4476 -1.4547
  217MPD1     N 3303   1.883   3.295   8.959 -0.5933  0.2075 -0.4385
  217MPD1    H5 3304   1.941   3.296   9.043 -0.9029  2.0960 -0.2406
  217MPD1    N1 3305   1.656   2.966   8.683  0.1531 -0.4564  0.3673
  217MPD1    H6 3306   1.581   3.034   8.671  1.4698  0.7359 -1.2129
  217MPD1    H7 3307   1.627   2.869   8.678 -1.8275  0.1831 -0.2876
  218MPD1     C 3308   3.343   1.112  12.490 -0.2641  0.6251  0.0209
  218MPD1    C1 3309   3.459   1.176  12.459  0.3950 -0.1769 -0.0858
  218MPD1    C2 3310   3.566   1.114  12.409  0.1713  0.4613 -0.5183
  218MPD1    C3 3311   3.553   0.978  12.383  0.3928  0.8658  0.0659
  218MPD1    C4 3312   3.436   0.916  12.406 -0.3770 -0.0151 -0.4896
  218MPD1    C5 3313   3.332   0.980  12.463  0.3070 -0.2251 -0.1995
  218MPD1     H 3314   3.659   1.169  12.400 -0.1169  1.1888  0.8410
  218MPD1    H1 3315   3.411   0.816  12.374  0.1492 -0.9246  1.9200
  218MPD1    H2 3316   3.260   1.170  12.529  0.6573  2.0508 -0.1267
  218MPD1    H3 3317   3.236   0.934  12.483  0.6400  0.8884  3.9920
  218MPD1     N 3318   3.666   0.904  12.338  0.1991  0.3394 -0.7638
  218MPD1    H5 3319   3.747   0.956  12.305  1.8946 -1.0976  1.1322
  218MPD1    N1 3320   3.472   1.314  12.498 -0.4602 -0.4967  0.3039
  218MPD1    H6 3321   3.524   1.371  12.432  1.7019 -2.8304 -0.0236
  218MPD1    H7 3322   3.390   1.368  12.525 -0.4163 -1.9779  3.4035
  219MPD1     C 3323   4.416   0.807  11.708  0.4263 -0.9319  0.3699
  219MPD1    C1 3324   4.310   0.892  11.735  0.0807 -0.4108 -1.1728
  219MPD1    C2 3325   4.233   0.881  11.846 -0.2786 -0.5790 -0.0368
  219MPD1    C3 3326   4.280   0.802  11.952  0.3417 -0.4750  0.5843
  219MPD1    C4 3327   4.398   0.730  11.936 -0.6325  0.4169  0.0032
  219MPD1    C5 3328   4.464   0.738  11.814 -0.0768 -0.8235  0.1716
  219MPD1     H 3329   4.133   0.923  11.850 -0.2232 -0.6539  2.0167
  219MPD1    H1 3330   4.442   0.675  12.019 -2.6123 -0.1110  0.6947
  219MPD1    H2 3331   4.466   0.805  11.612 -1.0601  0.6445 -0.4496
  219MPD1    H3 3332   4.563   0.697  11.799  0.0468 -0.9258  1.2629
  219MPD1     N 3333   4.206   0.774  12.065 -0.3262  0.1733 -0.0114
  219MPD1    H5 3334   4.237   0.710  12.137 -1.3343 -0.1993  0.1008
  219MPD1    N1 3335   4.272   0.974  11.631 -0.0041 -0.3370  0.8365
  219MPD1    H6 3336   4.212   1.048  11.669  0.8387  0.3561  0.8159
  219MPD1    H7 3337   4.350   1.019  11.582  0.9315 -1.0095  1.7314
  220MPD1     C 3338   3.726   1.805   9.828  0.0705  0.5566  0.1795
  220MPD1    C1 3339   3.811   1.741   9.914  0.8487  0.3287  0.0902
  220MPD1    C2 3340   3.805   1.605   9.927 -0.9867  0.5971  0.2813
  220MPD1    C3 3341   3.744   1.524   9.839  0.0499 -0.7680 -0.0793
  220MPD1    C4 3342   3.684   1.584   9.730 -0.4175  0.0095  0.2630
  220MPD1    C5 3343   3.666   1.726   9.729 -1.4860  0.5678  0.1402
  220MPD1     H 3344   3.845   1.569  10.021 -1.9146  0.8216  0.7686
  220MPD1    H1 3345   3.637   1.528   9.649  0.4355 -1.4137  0.7607
  220MPD1    H2 3346   3.712   1.911   9.810  0.1383  0.5520  0.0963
  220MPD1    H3 3347   3.613   1.771   9.646 -2.8857 -0.1619  0.6318
  220MPD1     N 3348   3.743   1.387   9.850  0.3566 -0.7412  0.3947
  220MPD1    H5 3349   3.785   1.358   9.938  0.9810 -0.6560  0.1207
  220MPD1    N1 3350   3.881   1.817  10.008 -0.6647  0.4670 -0.3290
  220MPD1    H6 3351   3.955   1.759  10.047 -1.2959 -0.8050 -1.0016
  220MPD1    H7 3352   3.916   1.905   9.973 -0.1156 -0.9676 -3.4171
  221MPD1     C 3353   2.081   0.012  17.154 -0.3463  0.0141  0.3272
  221MPD1    C1 3354   2.118   4.606  17.126 -0.3563 -0.0408 -0.5031
  221MPD1    C2 3355   2.110   4.570  16.992  0.6667  0.0223  0.4434
  221MPD1    C3 3356   2.043   4.653  16.904  0.7473 -0.0691  0.1692
  221MPD1    C4 3357   1.989   0.045  16.949  0.2756 -0.0163 -0.3398
  221MPD1    C5 3358   2.014   0.097  17.073 -0.0958  0.2079 -0.3351
  221MPD1     H 3359   2.153   4.473  16.969  1.4507  0.6676 -0.8216
  221MPD1    H1 3360   1.917   0.106  16.895  0.4541  0.1719 -0.3661
  221MPD1    H2 3361   2.089   0.051  17.255 -0.3556 -0.0133  0.3383
  221MPD1    H3 3362   1.982   0.196  17.105 -0.6343 -0.3020  0.7320
  221MPD1     N 3363   1.991   4.613  16.774 -0.1603 -0.3081  0.0391
  221MPD1    H5 3364   1.930   4.680  16.728  1.0414  0.8141  0.0932
  221MPD1    N1 3365   2.172   4.525  17.221 -0.4363 -0.3304  0.0659
  221MPD1    H6 3366   2.164   4.427  17.193 -0.9241  0.3432 -2.1438
  221MPD1    H7 3367   2.127   4.534  17.312  1.0571  1.2929  0.6345
  222MPD1     C 3368   1.896   2.752  16.541  0.6794  0.1471 -0.2512
  222MPD1    C1 3369   1.935   2.797  16.670 -0.3329 -0.6155  0.8494
  222MPD1    C2 3370   1.915   2.935  16.692  0.4156 -0.6985 -0.2999
  222MPD1    C3 3371   1.860   3.014  16.589  0.0373 -0.1469  0.7611
  222MPD1    C4 3372   1.813   2.954  16.474 -0.2266 -0.1255 -0.6237
  222MPD1    C5 3373   1.839   2.825  16.448  0.7085 -0.2237  0.1674
  222MPD1     H 3374   1.943   2.976  16.788 -1.7250 -0.2867  0.1444
  222MPD1    H1 3375   1.759   2.996  16.390 -0.9891  0.4024  0.1385
  222MPD1    H2 3376   1.923   2.651  16.512  3.1149  0.0707  2.2757
  222MPD1    H3 3377   1.826   2.775  16.352 -1.1281 -0.6522  0.6538
  222MPD1     N 3378   1.833   3.155  16.599  0.1040 -0.1497  0.2257
  222MPD1    H5 3379   1.784   3.208  16.529  1.3254  1.1542  0.3511
  222MPD1    N1 3380   2.022   2.719  16.753  0.1863 -0.6739  0.6236
  222MPD1    H6 3381   2.024   2.757  16.848 -4.5572  3.1770 -0.8060
  222MPD1    H7 3382   2.003   2.620  16.746 -2.7190 -0.1798  1.3649
  223MPD1     C 3383   1.078   3.660  16.409  0.4183  0.2806 -0.0532
  223MPD1    C1 3384   1.101   3.658  16.545  0.0943  0.2842  0.3398
  223MPD1    C2 3385   1.224   3.639  16.602  0.5776 -1.0406 -0.8473
  223MPD1    C3 3386   1.332   3.616  16.520 -0.5994  0.7484 -0.1799
  223MPD1    C4 3387   1.310   3.610  16.381  0.1842 -0.7118 -0.0384
  223MPD1    C5 3388   1.183   3.632  16.324  0.2035  0.7612 -0.0329
  223MPD1     H 3389   1.226   3.628  16.710 -0.1153  0.0330 -0.7332
  223MPD1    H1 3390   1.388   3.578  16.313 -0.0444 -3.4866  1.0133
  223MPD1    H2 3391   0.984   3.685  16.361 -0.2138 -0.2972  0.8496
  223MPD1    H3 3392   1.171   3.623  16.217 -2.1025 -0.7395  0.3555
  223MPD1     N 3393   1.461   3.594  16.577 -0.2884  0.7344  0.5429
  223MPD1    H5 3394   1.467   3.608  16.677  1.9105  1.5239  0.2881
  223MPD1    N1 3395   0.992   3.647  16.623 -0.3482 -0.2217  0.2661
  223MPD1    H6 3396   0.908   3.687  16.581 -0.5485  0.2545  1.1287
  223MPD1    H7 3397   1.003   3.685  16.716 -0.6511  1.1387 -0.2524
  224MPD1     C 3398   2.207   0.142   8.989  0.5639  0.1956 -0.2987
  224MPD1    C1 3399   2.082   0.191   9.029 -0.3475  0.5114 -0.3004
  224MPD1    C2 3400   2.038   0.139   9.146  0.0487 -0.3456 -0.5775
  224MPD1    C3 3401   2.104   0.045   9.224 -0.7053 -0.1646  0.0020
  224MPD1    C4 3402   2.226   4.720   9.179 -0.0953  0.8172  0.1313
  224MPD1    C5 3403   2.274   0.043   9.056  0.1413 -0.4445 -0.5510
  224MPD1     H 3404   1.949   0.180   9.192  1.9631  2.3163  0.7395
  224MPD1    H1 3405   2.280   4.654   9.246  1.9219  1.9627 -0.3437
  224MPD1    H2 3406   2.263   0.183   8.906  0.4329  0.6770 -0.1506
  224MPD1    H3 3407   2.368   0.014   9.010 -0.2516 -2.5624 -0.0371
  224MPD1     N 3408   2.059   4.715   9.350  0.8491  0.0629 -0.7088
  224MPD1    H5 3409   2.112   4.642   9.396 -1.1926 -0.6971  0.4463
  224MPD1    N1 3410   2.021   0.293   8.960 -0.2512 -0.5122  0.0960
  224MPD1    H6 3411   1.920   0.285   8.969 -0.3576 -0.7204 -1.2771
  224MPD1    H7 3412   2.036   0.296   8.860  0.5144 -2.0278  0.1602
  225MPD1     C 3413   4.149   1.627  12.268  0.1993  0.5958 -0.7416
  225MPD1    C1 3414   4.112   1.495  12.291  0.2023 -0.2642 -0.1220
  225MPD1    C2 3415   3.984   1.465  12.255 -0.2448 -0.1787 -0.6084
  225MPD1    C3 3416   3.895   1.560  12.199  0.0364 -0.0007  0.2140
  225MPD1    C4 3417   3.943   1.693  12.174  0.4019 -0.1283  0.3366
  225MPD1    C5 3418   4.070   1.717  12.210 -0.3549 -0.1125 -0.3035
  225MPD1     H 3419   3.936   1.368  12.261 -2.1404  0.7618 -0.5920
  225MPD1    H1 3420   3.897   1.779  12.129  0.0838 -1.0149 -1.0339
  225MPD1    H2 3421   4.243   1.668  12.305  0.6123 -0.7015 -0.3705
  225MPD1    H3 3422   4.103   1.818  12.191  1.3385 -0.9728 -1.9384
  225MPD1     N 3423   3.766   1.534  12.147  0.3488 -0.1331  0.2551
  225MPD1    H5 3424   3.718   1.623  12.138  0.6423 -0.1128 -1.1111
  225MPD1    N1 3425   4.202   1.413  12.361  0.3948  0.4520 -0.5796
  225MPD1    H6 3426   4.299   1.434  12.336  0.5020  2.6931  1.7406
  225MPD1    H7 3427   4.193   1.312  12.352  0.3444  0.3369  0.7924
  226MPD1     C 3428   1.547   4.435   9.264 -0.2776  0.0091 -0.3514
  226MPD1    C1 3429   1.605   4.478   9.383  0.5289  0.2782  0.1015
  226MPD1    C2 3430   1.548   4.583   9.460  0.9372  0.5451  0.0052
  226MPD1    C3 3431   1.449   4.652   9.403  0.8088  0.0160 -0.1268
  226MPD1    C4 3432   1.394   4.622   9.282 -0.1070 -0.2545  0.1418
  226MPD1    C5 3433   1.444   4.509   9.208  0.3540 -0.1744  0.2595
  226MPD1     H 3434   1.595   4.612   9.553 -0.2096  0.6547  0.5398
  226MPD1    H1 3435   1.311   4.676   9.237  1.4436  0.9136 -1.2954
  226MPD1    H2 3436   1.586   4.358   9.199 -2.1109  1.2149 -2.8979
  226MPD1    H3 3437   1.394   4.478   9.116 -0.1025  0.2792  0.3550
  226MPD1     N 3438   1.409   0.045   9.476  0.3954 -0.1268 -0.1428
  226MPD1    H5 3439   1.449   0.050   9.569  2.6299 -3.3158 -0.9395
  226MPD1    N1 3440   1.715   4.401   9.436  0.1251 -0.0105 -0.6771
  226MPD1    H6 3441   1.770   4.355   9.363  0.9197  0.4363 -0.3638
  226MPD1    H7 3442   1.777   4.448   9.501 -0.4534  1.6363 -1.3292
  227MPD1     C 3443   0.735   0.733   9.281 -0.1242  0.1732  0.1930
  227MPD1    C1 3444   0.738   0.597   9.253  0.1537  0.7616  0.0272
  227MPD1    C2 3445   0.850   0.531   9.298  0.1450 -0.3392 -0.2838
  227MPD1    C3 3446   0.929   0.584   9.395  0.1777  0.1585  0.1748
  227MPD1    C4 3447   0.902   0.712   9.443  0.4658 -0.5023  0.2398
  227MPD1    C5 3448   0.809   0.787   9.381 -0.0645 -0.0811 -0.5416
  227MPD1     H 3449   0.875   0.432   9.262 -0.0450 -0.0760 -1.1532
  227MPD1    H1 3450   0.960   0.769   9.515 -1.0969  0.2306  0.9109
  227MPD1    H2 3451   0.657   0.793   9.236  0.8842  1.9199  0.7701
  227MPD1    H3 3452   0.791   0.893   9.395 -0.8851 -0.4835  1.4045
  227MPD1     N 3453   1.039   0.513   9.447  1.1896  0.6162  0.0231
  227MPD1    H5 3454   1.052   0.422   9.402  0.5062 -0.2184  1.5182
  227MPD1    N1 3455   0.647   0.551   9.151 -0.0857 -0.4792 -0.2212
  227MPD1    H6 3456   0.553   0.592   9.151 -0.2733 -0.9157 -0.1436
  227MPD1    H7 3457   0.643   0.450   9.141 -1.3374 -0.5048  0.6035
  228MPD1     C 3458   0.759   4.372  13.289 -0.1203 -0.3583 -0.4536
  228MPD1    C1 3459   0.665   4.397  13.191 -0.0502  0.2159 -0.4480
  228MPD1    C2 3460   0.564   4.302  13.180 -0.3341 -0.1178 -0.1678
  228MPD1    C3 3461   0.580   4.176  13.236  0.1673 -0.0004  0.8074
  228MPD1    C4 3462   0.684   4.152  13.312  0.5013 -0.4851  0.3558
  228MPD1    C5 3463   0.773   4.250  13.342 -0.1559 -0.0976  0.3187
  228MPD1     H 3464   0.471   4.318  13.127 -0.1489  1.1599 -0.1002
  228MPD1    H1 3465   0.695   4.054  13.358 -0.6103 -1.9450 -2.5337
  228MPD1    H2 3466   0.828   4.447  13.326 -2.1149 -0.0718  2.6044
  228MPD1    H3 3467   0.857   4.229  13.407 -1.1810 -2.4059  0.9158
  228MPD1     N 3468   0.489   4.071  13.203  0.4617 -0.4693  0.3336
  228MPD1    H5 3469   0.411   4.106  13.148  0.0289 -2.3417 -0.2449
  228MPD1    N1 3470   0.629   4.524  13.141  0.0575  0.5510 -0.6997
  228MPD1    H6 3471   0.716   4.575  13.125  0.7610 -0.2910  0.4588
  228MPD1    H7 3472   0.583   4.519  13.050  0.6381 -1.4100 -0.8873
  229MPD1     C 3473   4.694   2.727  14.465 -0.0556 -0.1483 -0.1467
  229MPD1    C1 3474   4.681   2.716  14.601  0.2437  0.3621 -0.1310
  229MPD1    C2 3475   0.018   2.610  14.666  0.2764  0.5013  0.0362
  229MPD1    C3 3476   0.096   2.517  14.591 -0.3120  0.1665 -0.6154
  229MPD1    C4 3477   0.099   2.526  14.455 -0.4046  0.0623 -0.5978
  229MPD1    C5 3478   0.054   2.639  14.396 -0.3785 -0.4752 -1.2043
  229MPD1     H 3479   0.007   2.594  14.772 -2.6767  0.1798 -0.3197
  229MPD1    H1 3480   0.153   2.449  14.402  1.9867  1.3840 -0.0677
  229MPD1    H2 3481   4.643   2.807  14.412 -0.9326 -1.7336 -1.7067
  229MPD1    H3 3482   0.066   2.645  14.288 -1.4724 -1.8652 -1.4055
  229MPD1     N 3483   0.160   2.403  14.649  0.4361 -0.8420 -0.6279
  229MPD1    H5 3484   0.195   2.341  14.577 -0.5965 -1.1251 -0.8921
  229MPD1    N1 3485   4.591   2.794  14.672  0.3514  0.3268  0.3972
  229MPD1    H6 3486   4.613   2.814  14.769  1.2597 -2.3107  0.7350
  229MPD1    H7 3487   4.577   2.880  14.619 -2.3759  1.0796  2.3774
  230MPD1     C 3488   0.715   1.931  15.454 -0.0825 -0.6668 -0.1159
  230MPD1    C1 3489   0.776   1.911  15.327 -0.3516  0.4652  0.4116
  230MPD1    C2 3490   0.701   1.948  15.220 -0.8501 -1.0323  0.1920
  230MPD1    C3 3491   0.576   2.012  15.222  0.3050 -0.0558 -0.0429
  230MPD1    C4 3492   0.518   2.022  15.350  0.2862  0.1274 -0.6253
  230MPD1    C5 3493   0.587   1.984  15.462  0.0997 -0.4966 -0.4539
  230MPD1     H 3494   0.748   1.945  15.122  0.2804  1.5673  0.6479
  230MPD1    H1 3495   0.419   2.065  15.358  0.4403  0.4394 -0.4228
  230MPD1    H2 3496   0.763   1.910  15.549 -3.8622 -0.5895  1.8408
  230MPD1    H3 3497   0.545   2.008  15.559 -0.4068 -1.2950 -0.4770
  230MPD1     N 3498   0.517   2.049  15.100  0.3421 -0.0147 -0.3630
  230MPD1    H5 3499   0.555   2.007  15.016  0.1668  1.2266 -1.0740
  230MPD1    N1 3500   0.892   1.834  15.308 -0.4124 -0.7540  0.1258
  230MPD1    H6 3501   0.951   1.834  15.391  1.1645  1.9663 -0.9829
  230MPD1    H7 3502   0.949   1.873  15.233 -1.0520  0.8225  0.4420
  231MPD1     C 3503   3.511   4.267  15.269  0.0154  0.2769  0.2665
  231MPD1    C1 3504   3.530   4.216  15.145 -0.5586 -0.2910  0.6827
  231MPD1    C2 3505   3.598   4.288  15.050 -0.0786  0.2445  0.0755
  231MPD1    C3 3506   3.657   4.409  15.079  0.4884 -0.9418 -0.0603
  231MPD1    C4 3507   3.641   4.455  15.208 -0.1594 -0.0773 -0.6964
  231MPD1    C5 3508   3.568   4.385  15.301  0.8571  0.0490 -0.4153
  231MPD1     H 3509   3.615   4.238  14.955  1.3847 -0.7853  0.8797
  231MPD1    H1 3510   3.681   4.550  15.241 -0.1461  0.1373 -1.3506
  231MPD1    H2 3511   3.460   4.209  15.343 -0.2523  0.8715  0.5478
  231MPD1    H3 3512   3.559   4.430  15.399 -0.5321 -0.6452 -0.2337
  231MPD1     N 3513   3.737   4.467  14.977  0.1052 -0.5867  0.3029
  231MPD1    H5 3514   3.727   4.430  14.884 -0.4520  0.1185  0.0779
  231MPD1    N1 3515   3.461   4.104  15.106  0.8604  0.0616 -0.0552
  231MPD1    H6 3516   3.507   4.048  15.034 -0.0951 -1.0072  0.1756
  231MPD1    H7 3517   3.434   4.044  15.183 -2.2039  0.0043 -1.1856
  232MPD1     C 3518   0.709   2.389   0.170 -0.0251  0.6222  0.4746
  232MPD1    C1 3519   0.626   2.293   0.226 -0.7205 -0.2279 -0.2723
  232MPD1    C2 3520   0.507   2.264   0.161 -0.0261  1.1709  0.1214
  232MPD1    C3 3521   0.470   2.335   0.052 -0.6984 -0.0109 -0.1054
  232MPD1    C4 3522   0.553   2.417  17.679 -0.3220  0.2311 -0.2577
  232MPD1    C5 3523   0.676   2.444   0.051 -0.0508  0.1608 -0.2338
  232MPD1     H 3524   0.436   2.197   0.206  0.1715  1.8577  1.4525
  232MPD1    H1 3525   0.522   2.468  17.588 -0.0947 -0.6449 -0.8361
  232MPD1    H2 3526   0.804   2.418   0.215  0.2942 -1.0872  0.9095
  232MPD1    H3 3527   0.740   2.524   0.016  0.6542  0.2418  1.2584
  232MPD1     N 3528   0.343   2.308   0.002 -0.0285  0.0586 -0.1069
  232MPD1    H5 3529   0.281   2.263   0.069  0.2897 -2.1784 -1.3261
  232MPD1    N1 3530   0.669   2.218   0.337  0.4677  0.2042  0.4083
  232MPD1    H6 3531   0.588   2.190   0.392  0.3593  1.3149  0.8027
  232MPD1    H7 3532   0.732   2.277   0.390  1.4202 -0.9374  0.5557
  233MPD1     C 3533   1.049   3.950   0.611  0.1727  0.8229  0.4509
  233MPD1    C1 3534   1.085   4.061   0.684  0.3198 -1.0130 -0.2161
  233MPD1    C2 3535   1.160   4.044   0.799 -0.2998  0.4772 -0.0399
  233MPD1    C3 3536   1.200   3.912   0.832  0.1713 -0.0681  0.1372
  233MPD1    C4 3537   1.154   3.806   0.761 -0.4058 -0.2575  0.5086
  233MPD1    C5 3538   1.080   3.825   0.654  0.1650  0.6614  0.3980
  233MPD1     H 3539   1.181   4.132   0.859 -2.0196  0.0733  1.1650
  233MPD1    H1 3540   1.173   3.711   0.809  1.1465  0.3735  1.1205
  233MPD1    H2 3541   0.993   3.969   0.520  1.7546 -0.7215 -0.8283
  233MPD1    H3 3542   1.032   3.742   0.602 -0.7192  1.4323 -0.0169
  233MPD1     N 3543   1.283   3.893   0.947 -0.0121  0.5615  0.3528
  233MPD1    H5 3544   1.291   3.797   0.980  1.1798  0.4460 -0.2536
  233MPD1    N1 3545   1.075   4.187   0.623  0.3112 -0.5986  0.0492
  233MPD1    H6 3546   1.067   4.269   0.682 -0.5714 -0.4787 -0.2429
  233MPD1    H7 3547   1.022   4.185   0.537  0.9936  1.5971 -0.4134
  234MPD1     C 3548   3.241   3.561  10.194 -0.1867  0.0872  0.2441
  234MPD1    C1 3549   3.185   3.680  10.228 -0.0704 -0.1519  0.2841
  234MPD1    C2 3550   3.056   3.700  10.192 -0.0144  0.1500  0.1914
  234MPD1    C3 3551   2.988   3.626  10.096  0.2155  0.0121  0.0223
  234MPD1    C4 3552   3.051   3.509  10.053 -0.1820 -0.3538 -0.3595
  234MPD1    C5 3553   3.176   3.484  10.105  0.0276  0.7615 -0.0799
  234MPD1     H 3554   3.010   3.795  10.215 -2.3023 -0.9426  0.1739
  234MPD1    H1 3555   3.004   3.435   9.988  1.3125 -0.0634 -1.7814
  234MPD1    H2 3556   3.340   3.533  10.227 -0.8101 -0.3077  1.7720
  234MPD1    H3 3557   3.228   3.394  10.075 -2.2193  0.0731 -1.8995
  234MPD1     N 3558   2.866   3.668  10.045  0.1043  0.2688  0.8866
  234MPD1    H5 3559   2.828   3.750  10.091  0.0374  0.4688  0.4647
  234MPD1    N1 3560   3.245   3.766  10.327 -0.1763 -0.0755  0.4972
  234MPD1    H6 3561   3.204   3.859  10.319  2.2420  1.2438  3.3559
  234MPD1    H7 3562   3.346   3.777  10.321  0.0235 -1.4070  1.4306
  235MPD1     C 3563   3.895   0.751   9.710 -0.2679 -0.4800 -0.3973
  235MPD1    C1 3564   4.007   0.797   9.780  0.3683 -0.1991 -0.0094
  235MPD1    C2 3565   4.063   0.920   9.761 -0.6582  0.0095 -0.3764
  235MPD1    C3 3566   4.012   0.998   9.658  0.8524 -0.5890 -0.0940
  235MPD1    C4 3567   3.909   0.936   9.578 -0.2920  0.1741 -0.4825
  235MPD1    C5 3568   3.864   0.815   9.598 -0.1902 -0.6731  0.1223
  235MPD1     H 3569   4.142   0.956   9.825 -1.3415 -0.9683  1.0304
  235MPD1    H1 3570   3.852   0.994   9.505  0.8520  0.4464 -1.1747
  235MPD1    H2 3571   3.858   0.651   9.729  2.1918 -1.0074  1.5220
  235MPD1    H3 3572   3.774   0.785   9.547 -0.1330 -1.4869  0.4899
  235MPD1     N 3573   4.051   1.138   9.645 -0.4018  0.1242  0.1194
  235MPD1    H5 3574   4.109   1.174   9.719  0.8067  0.0059 -0.7774
  235MPD1    N1 3575   4.050   0.724   9.889  0.0547 -0.0264 -0.0144
  235MPD1    H6 3576   4.042   0.623   9.879 -0.1479 -0.0462  0.3118
  235MPD1    H7 3577   4.150   0.732   9.906  0.2272  0.8241 -1.4363
  236MPD1     C 3578   3.519   2.543   9.763 -1.2681 -0.6869  0.2872
  236MPD1    C1 3579   3.519   2.410   9.801  0.2709  0.1474 -0.3225
  236MPD1    C2 3580   3.627   2.362   9.880  0.6368 -0.1858 -0.1454
  236MPD1    C3 3581   3.710   2.452   9.943  0.4270  0.3507 -0.1125
  236MPD1    C4 3582   3.690   2.594   9.921 -0.5403 -0.3607 -0.8419
  236MPD1    C5 3583   3.591   2.631   9.832  0.3895 -0.1033 -0.3676
  236MPD1     H 3584   3.657   2.258   9.880 -2.7370 -1.1638  2.1307
  236MPD1    H1 3585   3.749   2.677   9.959  0.6709 -1.8461  0.5309
  236MPD1    H2 3586   3.446   2.584   9.694 -0.5206 -0.4143 -0.3491
  236MPD1    H3 3587   3.571   2.735   9.809  1.0678  0.0842 -0.1182
  236MPD1     N 3588   3.818   2.423  10.025  0.4233 -0.5495 -0.2017
  236MPD1    H5 3589   3.873   2.504  10.053  0.2057 -0.3813 -0.2594
  236MPD1    N1 3590   3.443   2.321   9.728  0.1849  0.8310  0.2037
  236MPD1    H6 3591   3.411   2.239   9.779  0.2760  1.4082  1.1892
  236MPD1    H7 3592   3.362   2.375   9.699 -0.3059  1.2768  2.3806
  237MPD1     C 3593   4.275   0.811  14.985  0.2232  0.2108  0.0653
  237MPD1    C1 3594   4.219   0.919  14.926  0.1028 -0.1799 -0.2977
  237MPD1    C2 3595   4.080   0.930  14.914 -0.3564 -0.0774  0.2293
  237MPD1    C3 3596   4.001   0.836  14.980  0.4170  0.9495  0.4840
  237MPD1    C4 3597   4.058   0.736  15.055  0.4170  0.4015 -0.2171
  237MPD1    C5 3598   4.192   0.724  15.053 -0.2257  0.0514  0.8504
  237MPD1     H 3599   4.036   1.023  14.880 -0.0209  0.0122  0.0383
  237MPD1    H1 3600   4.000   0.660  15.106  1.0402 -1.5048 -2.3051
  237MPD1    H2 3601   4.381   0.795  15.000 -0.5994 -3.3695  2.1150
  237MPD1    H3 3602   4.235   0.642  15.109  1.6483 -0.7035 -1.6591
  237MPD1     N 3603   3.856   0.850  14.969 -0.1981  0.2507 -0.2681
  237MPD1    H5 3604   3.790   0.797  15.023 -0.3239  2.1021  1.3778
  237MPD1    N1 3605   4.302   1.007  14.859  0.6127 -0.1936  0.3812
  237MPD1    H6 3606   4.248   1.087  14.827 -1.0121 -1.2477  0.4422
  237MPD1    H7 3607   4.387   1.042  14.902 -0.7400  0.5072  2.4643
  238MPD1     C 3608   0.846   4.095  15.088  0.6603  0.3547 -0.5134
  238MPD1    C1 3609   0.877   4.167  14.976  0.1434  0.1725 -0.3133
  238MPD1    C2 3610   0.771   4.201  14.895 -0.1180  0.1758  0.1259
  238MPD1    C3 3611   0.639   4.176  14.941 -0.1939 -1.0127 -0.1811
  238MPD1    C4 3612   0.612   4.131  15.061  0.5821 -0.0230  0.2518
  238MPD1    C5 3613   0.716   4.084  15.136 -0.4678 -0.6143 -0.2615
  238MPD1     H 3614   0.786   4.232  14.792  3.3894  1.1791  0.9461
  238MPD1    H1 3615   0.508   4.112  15.088  1.2636 -0.4620  2.5288
  238MPD1    H2 3616   0.926   4.054  15.148 -0.9067  0.3119  1.5396
  238MPD1    H3 3617   0.700   4.038  15.233 -0.2654  0.8731  0.4748
  238MPD1     N 3618   0.525   4.205  14.856 -0.3032 -0.6847  0.5520
  238MPD1    H5 3619   0.434   4.186  14.898 -0.2569 -2.2959 -0.0693
  238MPD1    N1 3620   1.003   4.168  14.920  0.2905  0.4656 -0.3469
  238MPD1    H6 3621   1.015   4.252  14.864  1.4833  0.8271  0.4363
  238MPD1    H7 3622   1.063   4.172  15.003 -2.5690 -2.4028  1.8741
  239MPD1     C 3623   0.936   0.453  15.225 -0.3285  0.6548 -0.0407
  239MPD1    C1 3624   1.021   0.500  15.123 -0.4504  0.6159  0.0117
  239MPD1    C2 3625   0.997   0.468  14.987  0.2634 -1.0909  0.5339
  239MPD1    C3 3626   0.888   0.398  14.946  0.0120 -0.0107 -0.5814
  239MPD1    C4 3627   0.807   0.352  15.041 -0.1066 -0.2789 -0.4443
  239MPD1    C5 3628   0.834   0.370  15.180  0.5644  0.3658  0.9744
  239MPD1     H 3629   1.067   0.505  14.913  1.8190 -2.5940  1.2493
  239MPD1    H1 3630   0.723   0.294  15.004 -0.0006  0.2746 -1.5420
  239MPD1    H2 3631   0.944   0.476  15.330 -1.8978 -0.7975  0.3809
  239MPD1    H3 3632   0.766   0.329  15.254 -0.9811  2.4083  0.6926
  239MPD1     N 3633   0.844   0.397  14.810  0.6758  0.1431  0.6561
  239MPD1    H5 3634   0.758   0.347  14.794  0.8001 -0.6100  2.2489
  239MPD1    N1 3635   1.124   0.586  15.166  0.3327 -0.1047  0.2588
  239MPD1    H6 3636   1.205   0.602  15.106 -1.1733 -0.1589 -1.8074
  239MPD1    H7 3637   1.142   0.588  15.266 -1.1857 -0.3271  0.5348
  240MPD1     C 3638   0.435   4.712  13.350  0.3807  0.1143  1.0922
  240MPD1    C1 3639   0.349   0.091  13.376 -0.0761  0.6893 -0.1237
  240MPD1    C2 3640   0.315   0.103  13.512 -0.5074 -0.1127  0.2287
  240MPD1    C3 3641   0.355   0.013  13.606 -0.5629 -0.2082  0.0536
  240MPD1    C4 3642   0.443   4.632  13.575  0.8675  0.0294  0.0261
  240MPD1    C5 3643   0.481   4.625  13.447 -0.0695 -0.4030 -0.7219
  240MPD1     H 3644   0.246   0.182  13.543  2.4356  2.2464  0.7671
  240MPD1    H1 3645   0.479   4.564  13.652  0.8257  0.8666  0.7923
  240MPD1    H2 3646   0.476   4.702  13.250 -1.3549 -0.4754  0.4230
  240MPD1    H3 3647   0.560   4.553  13.433  1.1179  0.3364  2.1479
  240MPD1     N 3648   0.311   0.038  13.738 -0.0574 -0.5765 -0.7067
  240MPD1    H5 3649   0.246   0.113  13.758  3.0128  1.6119  1.1479
  240MPD1    N1 3650   0.300   0.163  13.266 -0.6171  0.0227  0.2725
  240MPD1    H6 3651   0.208   0.202  13.284 -0.0071  1.1175  1.0104
  240MPD1    H7 3652   0.296   0.109  13.180  0.7961  0.1018  0.1598
  241MPD1     C 3653   0.196   4.650  14.817 -0.1676  0.1039  0.7882
  241MPD1    C1 3654   0.316   4.625  14.752 -0.4054 -0.5881 -0.2255
  241MPD1    C2 3655   0.312   4.630  14.613  0.3336 -0.9707  0.0736
  241MPD1    C3 3656   0.193   4.641  14.547  0.4782 -0.4105  0.0040
  241MPD1    C4 3657   0.078   4.632  14.614  0.0602 -0.3503  0.3101
  241MPD1    C5 3658   0.076   4.634  14.750  0.5384 -0.1116  0.4955
  241MPD1     H 3659   0.401   4.646  14.554  2.2887 -1.5674  2.8543
  241MPD1    H1 3660   4.707   4.623  14.559  0.3159 -1.3135  0.0345
  241MPD1    H2 3661   0.189   4.653  14.925 -1.9736  0.8314  0.6467
  241MPD1    H3 3662   4.709   4.635  14.811  1.3877 -0.8138  1.7599
  241MPD1     N 3663   0.185   4.651  14.408 -0.1548 -0.1804  0.1327
  241MPD1    H5 3664   0.091   4.663  14.374  0.9691 -1.1001 -3.2724
  241MPD1    N1 3665   0.434   4.623  14.825  0.2351 -0.2080  0.2109
  241MPD1    H6 3666   0.412   4.604  14.922 -0.7313  1.0396  0.2391
  241MPD1    H7 3667   0.504   4.569  14.774 -0.1766 -2.1028  1.6473
  242MPD1     C 3668   4.509   3.363  15.788 -0.2636  0.1668  0.0132
  242MPD1    C1 3669   4.391   3.335  15.718 -0.0557  0.1140 -0.0624
  242MPD1    C2 3670   4.400   3.292  15.588  0.1873 -0.2938  0.2263
  242MPD1    C3 3671   4.515   3.289  15.510 -0.0114  0.6784  0.2311
  242MPD1    C4 3672   4.624   3.321  15.583  0.0091  1.3234  0.1555
  242MPD1    C5 3673   4.621   3.364  15.712 -0.0777  0.4416  0.9441
  242MPD1     H 3674   4.306   3.254  15.549 -0.7965  0.9742  1.3632
  242MPD1    H1 3675   0.003   3.314  15.545  0.4054  1.0367  1.2771
  242MPD1    H2 3676   4.521   3.402  15.888 -1.0655  0.5203 -0.0329
  242MPD1    H3 3677   4.716   3.396  15.751  0.8060 -1.1697  0.1291
  242MPD1     N 3678   4.516   3.241  15.380  0.3577  0.1621 -0.4213
  242MPD1    H5 3679   4.606   3.217  15.339  0.6408  0.9182 -0.2498
  242MPD1    N1 3680   4.269   3.329  15.782 -0.9686 -0.2277 -0.2313
  242MPD1    H6 3681   4.258   3.387  15.866  1.6789 -1.5281  0.9956
  242MPD1    H7 3682   4.193   3.358  15.722 -1.2073  0.3329  0.3357
  243MPD1     C 3683   1.079   1.168  16.885 -0.2939  0.5267  0.6352
  243MPD1    C1 3684   1.192   1.098  16.856  0.0019  0.3603 -0.2629
  243MPD1    C2 3685   1.263   1.120  16.740  0.4165  0.2243 -0.0078
  243MPD1    C3 3686   1.213   1.199  16.632 -0.4338  0.0515 -0.3127
  243MPD1    C4 3687   1.087   1.254  16.653 -0.5553 -0.9525  0.3544
  243MPD1    C5 3688   1.027   1.242  16.779  0.8498  0.1761  0.1497
  243MPD1     H 3689   1.356   1.068  16.726  0.6871  1.4128 -2.5705
  243MPD1    H1 3690   1.047   1.316  16.573 -0.2875 -0.4271  0.6315
  243MPD1    H2 3691   1.027   1.154  16.979 -1.8575  1.4546 -0.0748
  243MPD1    H3 3692   0.936   1.297  16.800  0.8132 -0.0319  0.5249
  243MPD1     N 3693   1.290   1.204  16.513  0.5409  0.1490 -0.3025
  243MPD1    H5 3694   1.369   1.141  16.507  1.4084  1.1664  0.3961
  243MPD1    N1 3695   1.250   1.021  16.954  0.1883  0.1613 -0.5573
  243MPD1    H6 3696   1.326   1.076  16.995 -0.3751 -1.2183  2.3027
  243MPD1    H7 3697   1.182   1.000  17.027  2.2467  0.9095  1.5627
  244MPD1     C 3698   2.033   0.834  16.467  0.6779 -0.7519  0.0918
  244MPD1    C1 3699   1.909   0.796  16.495  0.5551 -0.7834 -0.6699
  244MPD1    C2 3700   1.802   0.880  16.465 -0.1413  0.2013 -0.5527
  244MPD1    C3 3701   1.822   0.994  16.386 -0.1578  0.2623 -0.0201
  244MPD1    C4 3702   1.951   1.023  16.356  0.8146 -0.2040 -0.0292
  244MPD1    C5 3703   2.061   0.946  16.394 -0.2556 -0.9078 -0.6883
  244MPD1     H 3704   1.702   0.858  16.499 -0.5315  0.4314 -1.5622
  244MPD1    H1 3705   1.976   1.111  16.298 -0.5603  1.2441  1.5522
  244MPD1    H2 3706   2.124   0.784  16.498  0.5101  0.3242  2.3247
  244MPD1    H3 3707   2.164   0.972  16.375  0.0928 -0.8445  1.2347
  244MPD1     N 3708   1.717   1.079  16.351 -0.0970 -0.7770 -0.1532
  244MPD1    H5 3709   1.627   1.049  16.388  0.7851 -1.2416  1.5630
  244MPD1    N1 3710   1.881   0.686  16.576 -0.3444 -0.0486  0.7556
  244MPD1    H6 3711   1.948   0.610  16.571 -1.4185 -0.8883 -0.9305
  244MPD1    H7 3712   1.791   0.647  16.550 -0.0781  1.3761 -2.4103
  245MPD1     C 3713   3.051   2.388  13.079 -0.4218  0.1323 -0.9068
  245MPD1    C1 3714   3.187   2.415  13.090 -0.0870 -0.3388  0.3492
  245MPD1    C2 3715   3.217   2.528  13.162  0.3320 -0.1474 -0.8686
  245MPD1    C3 3716   3.118   2.617  13.194  0.1991 -0.8026  0.1839
  245MPD1    C4 3717   2.981   2.596  13.167  0.0701 -0.1085 -0.3452
  245MPD1    C5 3718   2.955   2.477  13.107  0.6162  0.4447  0.9349
  245MPD1     H 3719   3.322   2.536  13.191  0.5034 -0.8100 -1.3009
  245MPD1    H1 3720   2.896   2.658  13.192 -0.2394  0.3396 -2.5248
  245MPD1    H2 3721   3.025   2.293  13.033  1.4685 -0.6730 -0.3400
  245MPD1    H3 3722   2.850   2.451  13.104  0.6645  0.2759  0.7212
  245MPD1     N 3723   3.165   2.731  13.255  0.3961 -0.0262  0.0700
  245MPD1    H5 3724   3.264   2.733  13.279  0.3083 -0.2784  0.4566
  245MPD1    N1 3725   3.282   2.319  13.059 -0.4598  0.4682  0.2623
  245MPD1    H6 3726   3.305   2.274  13.148  0.2327 -3.3016 -1.8038
  245MPD1    H7 3727   3.253   2.243  12.998  1.3388 -0.3499  0.4123
  246MPD1     C 3728   4.511   1.462   8.817  0.0999 -0.5336  0.1717
  246MPD1    C1 3729   4.456   1.585   8.787 -0.6573  0.9466 -0.1610
  246MPD1    C2 3730   4.330   1.593   8.748 -0.0084  0.3862 -0.1624
  246MPD1    C3 3731   4.242   1.485   8.758  0.7964 -0.0866 -0.1338
  246MPD1    C4 3732   4.297   1.362   8.787 -0.1566  0.3899  0.5560
  246MPD1    C5 3733   4.432   1.356   8.821  0.9942 -0.5165  0.2358
  246MPD1     H 3734   4.298   1.694   8.726 -1.1862 -0.0302 -0.3696
  246MPD1    H1 3735   4.252   1.263   8.783  0.8124 -0.0195 -0.2323
  246MPD1    H2 3736   4.616   1.456   8.844 -0.1300  2.4408  1.7816
  246MPD1    H3 3737   4.487   1.263   8.827  0.8358 -0.7196 -1.4837
  246MPD1     N 3738   4.102   1.506   8.725  0.1161 -0.0069  0.0357
  246MPD1    H5 3739   4.074   1.602   8.709 -2.2374 -0.4246  1.7156
  246MPD1    N1 3740   4.539   1.693   8.772  0.9050 -0.2950 -0.2127
  246MPD1    H6 3741   4.616   1.697   8.838  0.0744 -0.2815  0.7645
  246MPD1    H7 3742   4.493   1.783   8.783  2.2576  0.6320 -2.1217
  247MPD1     C 3743   2.572   2.498  16.748  0.1491  0.7689 -0.3547
  247MPD1    C1 3744   2.473   2.477  16.659  0.4458 -0.2851  0.0517
  247MPD1    C2 3745   2.501   2.397  16.549 -0.3783  0.1984  0.2157
  247MPD1    C3 3746   2.618   2.328  16.528  0.9331  0.2387  0.1182
  247MPD1    C4 3747   2.711   2.351  16.623 -0.1409  0.3640 -0.7860
  247MPD1    C5 3748   2.696   2.440  16.728  0.2589 -0.2083 -0.2781
  247MPD1     H 3749   2.422   2.392  16.475  1.1466 -0.6948 -1.3368
  247MPD1    H1 3750   2.808   2.304  16.611 -0.3539 -0.0557 -0.8732
  247MPD1    H2 3751   2.581   2.578  16.821 -0.9899 -0.6775  1.3967
  247MPD1    H3 3752   2.776   2.466  16.796  0.3396 -1.3516  0.0609
  247MPD1     N 3753   2.643   2.228  16.426 -0.4781 -0.5326 -0.8695
  247MPD1    H5 3754   2.723   2.166  16.438  1.3955  1.6283 -2.2359
  247MPD1    N1 3755   2.360   2.560  16.671  0.3701 -0.0529 -0.1009
  247MPD1    H6 3756   2.346   2.579  16.769 -1.2383 -1.2602 -0.0885
  247MPD1    H7 3757   2.277   2.514  16.632 -0.7151  1.8103  0.0270
  248MPD1     C 3758   3.776   1.591   0.029 -0.2043 -0.0174 -0.6048
  248MPD1    C1 3759   3.724   1.707   0.083 -0.2189 -0.7000  0.0472
  248MPD1    C2 3760   3.619   1.689   0.169  0.1178  0.0607 -0.9569
  248MPD1    C3 3761   3.576   1.558   0.209  0.0091  0.0142  0.3332
  248MPD1    C4 3762   3.635   1.444   0.154 -0.3994  0.4421  0.3041
  248MPD1    C5 3763   3.732   1.464   0.063 -0.6409 -0.2286 -0.9214
  248MPD1     H 3764   3.584   1.777   0.221 -0.0619  0.7588 -2.2571
  248MPD1    H1 3765   3.609   1.343   0.184 -2.7536  0.5104 -1.5257
  248MPD1    H2 3766   3.863   1.606  17.657  0.5751 -1.4937  0.1101
  248MPD1    H3 3767   3.784   1.380   0.020 -1.5648 -0.6951 -1.1380
  248MPD1     N 3768   3.470   1.550   0.305  0.5695  0.1165  0.5570
  248MPD1    H5 3769   3.417   1.636   0.316 -0.1569 -0.0079 -1.9518
  248MPD1    N1 3770   3.785   1.830   0.061  0.1580 -0.0758 -0.4106
  248MPD1    H6 3771   3.848   1.834  17.672  0.4944 -1.7726 -0.2401
  248MPD1    H7 3772   3.725   1.911   0.068 -0.3535 -0.3342 -1.8700
  249MPD1     C 3773   4.626   0.228  10.114  1.1962 -0.9285  0.0678
  249MPD1    C1 3774   4.545   0.231  10.003  0.0939  0.0937 -0.7896
  249MPD1    C2 3775   4.571   0.339   9.927 -0.4219  0.0644  0.1461
  249MPD1    C3 3776   4.647   0.445   9.965  0.1551  0.2712 -0.3222
  249MPD1    C4 3777   4.719   0.444  10.086 -0.4540 -0.1919  0.6213
  249MPD1    C5 3778   4.713   0.325  10.154  0.0373  0.2164 -0.5117
  249MPD1     H 3779   4.517   0.359   9.836 -0.1298 -0.9737 -0.2549
  249MPD1    H1 3780   0.057   0.523  10.129 -0.2814 -0.7533  1.4091
  249MPD1    H2 3781   4.613   0.149  10.188 -0.6164 -1.3325 -0.7001
  249MPD1    H3 3782   0.042   0.314  10.249 -0.8049 -1.7195 -0.2796
  249MPD1     N 3783   4.649   0.558   9.882 -0.2097 -0.5671  0.8259
  249MPD1    H5 3784   4.576   0.565   9.812  3.4225 -0.1829 -2.9397
  249MPD1    N1 3785   4.461   0.116   9.976  0.0869  0.2449 -0.2019
  249MPD1    H6 3786   4.380   0.145   9.923  0.5643 -1.2416 -1.7203
  249MPD1    H7 3787   4.447   0.053  10.055 -1.6826  0.3915 -0.4121
  250MPD2     C 3788   1.832   0.915  13.257 -0.2462 -0.2484  0.1384
  250MPD2    C1 3789   1.730   1.007  13.268 -0.0239 -0.0175 -0.1195
  250MPD2    C2 3790   1.596   0.958  13.264 -0.7834  0.4250  0.4479
  250MPD2    C3 3791   1.577   0.824  13.244 -0.4628  0.0688 -0.5869
  250MPD2    C4 3792   1.681   0.743  13.225  0.5561  0.3519 -0.6010
  250MPD2    C5 3793   1.808   0.783  13.234  0.3889 -0.0377  0.4329
  250MPD2     H 3794   1.516   1.028  13.242 -1.1370 -0.4138 -0.9685
  250MPD2    H1 3795   1.659   0.638  13.210 -0.3338  0.7043 -1.7785
  250MPD2    H2 3796   1.938   0.938  13.254 -0.6134  1.0104 -2.3101
  250MPD2    H3 3797   1.890   0.713  13.219 -0.5014 -1.2548  1.1934
  250MPD2     N 3798   1.453   0.774  13.198 -0.4194  0.3193  1.1611
  250MPD2    H5 3799   1.455   0.680  13.161  1.1196  0.5091  0.7745
  250MPD2    N1 3800   1.757   1.148  13.284 -0.1217  0.0556  0.5633
  250MPD2    H7 3801   1.856   1.173  13.287  0.1945 -1.3310  1.3023
  251TMC3    C1 3802   1.717   1.366  13.273  0.9237 -0.6243  0.7526
  251TMC3    C2 3803   1.647   1.468  13.329  0.3781 -0.1578 -0.7006
  251TMC3    C3 3804   1.692   1.599  13.299 -0.0183  0.3299 -0.3263
  251TMC3    C4 3805   1.828   1.397  13.197  0.1336 -0.7484  0.4411
  251TMC3    C5 3806   1.861   1.526  13.159  0.2890  0.0038 -0.5147
  251TMC3    C6 3807   1.783   1.630  13.202  0.4130  0.4269 -0.8645
  251TMC3     C 3808   1.660   1.239  13.294  0.5413  0.2729  0.5848
  251TMC3     O 3809   1.546   1.231  13.330  0.1756 -0.7487  0.0320
  251TMC3     H 3810   1.562   1.442  13.392 -0.1893  3.2736 -0.0620
  251TMC3    H1 3811   1.885   1.317  13.152  0.1754 -1.3629  1.5821
  251TMC3    H2 3812   1.820   1.731  13.186 -3.2168  1.9074  0.1416
  251TMC3    C7 3813   1.981   1.547  13.092 -0.2229 -1.0779  0.4099
  251TMC3    C8 3814   1.616   1.698  13.370 -0.0120 -0.1567  0.3520
  251TMC3    O1 3815   2.055   1.448  13.092  0.1205 -0.3454  0.1327
  251TMC3    O2 3816   1.570   1.661  13.472  0.6792 -0.8900  0.2669
  252TMC3    C1 3817   1.944   1.797   8.984  0.1586 -0.8064 -0.4535
  252TMC3    C2 3818   2.012   1.914   8.983  0.2052  0.6812  0.2037
  252TMC3    C3 3819   2.077   1.944   9.099  0.0903  0.2506  0.3718
  252TMC3    C4 3820   1.938   1.712   9.093  0.6172 -0.1809 -0.7904
  252TMC3    C5 3821   2.012   1.741   9.199  0.6272  0.3238  0.1072
  252TMC3    C6 3822   2.081   1.856   9.201  0.2627  0.4582 -0.2066
  252TMC3     C 3823   1.890   1.763   8.854 -0.1293  0.2185 -1.0660
  252TMC3     O 3824   1.944   1.822   8.761 -0.3995 -0.0931 -0.4629
  252TMC3     H 3825   2.019   1.974   8.892 -0.0745  2.2945  1.2510
  252TMC3    H1 3826   1.890   1.615   9.085 -1.5485  0.6947  1.6513
  252TMC3    H2 3827   2.157   1.866   9.278 -2.2440  1.7688  2.0697
  252TMC3    C7 3828   2.041   1.640   9.296 -0.1253 -0.2004  0.2955
  252TMC3    C8 3829   2.176   2.044   9.100  0.7807  0.2111  0.2128
  252TMC3    O1 3830   2.153   1.639   9.340 -0.0397  0.4984  0.3190
  252TMC3    O2 3831   2.219   2.085   8.996  0.0010 -0.2809  0.3648
  253MPD2     C 3832   3.278   1.201  15.065  0.4594 -1.4394  0.1394
  253MPD2    C1 3833   3.140   1.199  15.054 -0.7869 -0.2926 -0.1135
  253MPD2    C2 3834   3.064   1.186  15.168 -0.4953 -0.1436  0.9536
  253MPD2    C3 3835   3.122   1.171  15.291  0.3119  0.6918 -0.1103
  253MPD2    C4 3836   3.261   1.177  15.295 -0.0286  0.0939  0.3615
  253MPD2    C5 3837   3.334   1.192  15.189 -0.3015  0.1428 -0.3502
  253MPD2     H 3838   2.957   1.192  15.153 -0.4224  0.7432  0.7767
  253MPD2    H1 3839   3.318   1.157  15.385 -0.0131 -0.6033  0.1978
  253MPD2    H2 3840   3.342   1.201  14.977 -1.8561  0.1256 -1.5387
  253MPD2    H3 3841   3.440   1.191  15.211 -0.3414  3.2380  0.0069
  253MPD2     N 3842   3.050   1.155  15.410 -0.0120 -0.8629 -0.0440
  253MPD2    H5 3843   3.110   1.153  15.491  1.4282 -1.6356 -1.1339
  253MPD2    N1 3844   3.071   1.198  14.936  0.2968  0.1071  0.0760
  253MPD2    H7 3845   2.971   1.187  14.929  0.6303 -2.6665 -0.6355
  254TMC3    C1 3846   2.875   1.085  15.553 -0.1672  0.0392 -0.3349
  254TMC3    C2 3847   2.738   1.063  15.573  0.0272 -0.3351 -0.3179
  254TMC3    C3 3848   2.698   1.015  15.694 -0.5989 -0.3675  0.1451
  254TMC3    C4 3849   2.974   1.047  15.643 -0.7366  0.3063  0.3486
  254TMC3    C5 3850   2.926   0.995  15.753  0.3703  0.4070 -0.2880
  254TMC3    C6 3851   2.796   0.976  15.789  0.4963  0.0277  0.1451
  254TMC3     C 3852   2.914   1.127  15.417 -0.9620  0.2420  0.1136
  254TMC3     O 3853   2.834   1.131  15.328 -0.1992 -0.5812  0.0514
  254TMC3     H 3854   2.666   1.094  15.498 -0.1319 -0.3259 -0.1608
  254TMC3    H1 3855   3.081   1.053  15.624 -1.3180  0.9981 -2.7529
  254TMC3    H2 3856   2.768   0.945  15.890 -2.1521  0.5942 -0.4070
  254TMC3    C7 3857   3.022   0.974  15.860 -0.3171  0.7220  0.4418
  254TMC3    C8 3858   2.567   1.033  15.744  0.1632 -0.2625 -0.3318
  254TMC3    O1 3859   2.980   0.897  15.946 -0.2781  0.0002  0.0386
  254TMC3    O2 3860   2.554   1.021  15.863  0.4610  0.4561  0.1379
  255MPD2     C 3861   1.290   3.285  10.755  0.5244  0.4686  0.4990
  255MPD2    C1 3862   1.239   3.273  10.632 -0.5544 -0.4507 -0.8129
  255MPD2    C2 3863   1.294   3.180  10.540  0.0901  0.0276 -0.8131
  255MPD2    C3 3864   1.387   3.097  10.583  0.9683  0.0069 -0.3305
  255MPD2    C4 3865   1.423   3.097  10.717 -0.2091  0.0194  0.5957
  255MPD2    C5 3866   1.379   3.196  10.799  0.0474  0.4177  0.0100
  255MPD2     H 3867   1.274   3.187  10.434  2.0728  0.4004 -1.1633
  255MPD2    H1 3868   1.503   3.035  10.756 -0.0170  0.4353  0.8707
  255MPD2    H2 3869   1.254   3.359  10.826 -1.8755 -2.4397  2.3508
  255MPD2    H3 3870   1.416   3.182  10.900  0.6053 -0.2920 -0.2889
  255MPD2     N 3871   1.439   3.011  10.481  0.1396  0.3035  0.7891
  255MPD2    H5 3872   1.403   3.018  10.387  1.9192  0.2080  0.0876
  255MPD2    N1 3873   1.153   3.377  10.589  0.1871  0.5458 -0.5319
  255MPD2    H7 3874   1.143   3.459  10.648 -0.9494 -0.2182  0.3278
  256TMC3    C1 3875   1.000   3.485  10.439 -0.7871 -0.1628  0.0931
  256TMC3    C2 3876   1.074   3.594  10.413  0.1735  0.1916  0.0942
  256TMC3    C3 3877   1.026   3.684  10.321 -0.0568 -0.7780  0.7146
  256TMC3    C4 3878   0.883   3.454  10.376 -0.3624 -0.0265 -0.1539
  256TMC3    C5 3879   0.834   3.556  10.297  0.1663 -0.4454 -0.9324
  256TMC3    C6 3880   0.907   3.670  10.264 -0.0524  0.3568 -0.6365
  256TMC3     C 3881   1.066   3.364  10.483 -0.3203 -0.6144  0.0825
  256TMC3     O 3882   1.044   3.263  10.418  0.4602 -0.1675  0.0481
  256TMC3     H 3883   1.171   3.608  10.459 -0.6226 -0.3136  1.9332
  256TMC3    H1 3884   0.827   3.364  10.396  0.2972 -0.5172 -0.5320
  256TMC3    H2 3885   0.860   3.748  10.205 -0.0427  0.7431 -0.1283
  256TMC3    C7 3886   0.720   3.529  10.212  0.6140  0.1532 -0.1780
  256TMC3    C8 3887   1.104   3.801  10.297  0.1684  0.6984 -1.2476
  256TMC3    O1 3888   0.725   3.588  10.103 -0.3424 -0.0011 -0.4270
  256TMC3    O2 3889   1.175   3.849  10.385 -0.1701 -0.2220  0.5096
  257MPD2     C 3890   0.437   0.820  13.487 -0.4229 -0.1946 -0.9222
  257MPD2    C1 3891   0.445   0.739  13.374 -0.2296  0.2808 -0.6450
  257MPD2    C2 3892   0.470   0.610  13.385 -0.8660  0.2736  0.0416
  257MPD2    C3 3893   0.488   0.553  13.509  0.2910 -0.1686 -0.0395
  257MPD2    C4 3894   0.483   0.635  13.628  0.4401  0.4201 -0.7676
  257MPD2    C5 3895   0.464   0.769  13.612 -0.0797  0.2999 -0.2253
  257MPD2     H 3896   0.481   0.549  13.296 -0.1077  0.8867 -0.2720
  257MPD2    H1 3897   0.507   0.601  13.728 -1.0283  0.5605 -0.3542
  257MPD2    H2 3898   0.404   0.922  13.476  1.4702  0.6298  1.1154
  257MPD2    H3 3899   0.462   0.835  13.697  1.0814 -1.7819  1.4172
  257MPD2     N 3900   0.529   0.415  13.514  0.6191  0.1856  0.1813
  257MPD2    H5 3901   0.551   0.366  13.428 -1.2613 -1.4804  0.6620
  257MPD2    N1 3902   0.419   0.794  13.244 -0.0737 -0.1390 -1.3166
  257MPD2    H7 3903   0.422   0.895  13.232 -2.1454 -0.0140 -0.8661
  258TMC3    C1 3904   0.631   0.222  13.595  0.1068 -0.1875 -0.5212
  258TMC3    C2 3905   0.688   0.209  13.467 -1.2276 -0.5870  0.3353
  258TMC3    C3 3906   0.773   0.102  13.451  0.1168 -0.0217 -0.3467
  258TMC3    C4 3907   0.667   0.136  13.698  0.0594 -0.3155  0.3590
  258TMC3    C5 3908   0.766   0.047  13.681 -0.4759  0.1082 -0.2629
  258TMC3    C6 3909   0.821   0.032  13.556  0.0933  0.2580 -0.5381
  258TMC3     C 3910   0.554   0.340  13.626  0.2265  0.5719 -0.3425
  258TMC3     O 3911   0.526   0.365  13.745  0.3603 -0.3948  0.0184
  258TMC3     H 3912   0.672   0.281  13.387 -3.3271 -0.0086  1.2610
  258TMC3    H1 3913   0.631   0.156  13.799 -0.5591  1.5290 -0.2299
  258TMC3    H2 3914   0.902   4.684  13.543 -1.7624 -1.9024 -0.5071
  258TMC3    C7 3915   0.840   4.714  13.795 -0.1062 -0.2077  0.3482
  258TMC3    C8 3916   0.844   0.096  13.322  0.5393  0.0320  0.2428
  258TMC3    O1 3917   0.961   4.704  13.777  0.3282  0.1924 -0.1918
  258TMC3    O2 3918   0.958   0.046  13.332 -0.1837  0.0506 -0.2736
  259MPD2     C 3919   3.505   2.257   0.696 -0.0983  1.3806 -0.0744
  259MPD2    C1 3920   3.621   2.182   0.688 -0.4813  0.7489  0.2013
  259MPD2    C2 3921   3.710   2.204   0.586 -0.2141 -0.3542  0.1260
  259MPD2    C3 3922   3.680   2.291   0.484  0.1975  0.0384  0.1483
  259MPD2    C4 3923   3.555   2.348   0.482 -0.3893  0.2525  0.0110
  259MPD2    C5 3924   3.467   2.327   0.587  0.7833  0.2092  0.1221
  259MPD2     H 3925   3.813   2.170   0.587 -0.0009  0.2551 -0.8460
  259MPD2    H1 3926   3.522   2.419   0.408 -3.5783  0.6056  1.7723
  259MPD2    H2 3927   3.433   2.242   0.776  1.5070 -1.4285  0.8370
  259MPD2    H3 3928   3.369   2.374   0.593  1.3411  1.7751 -3.2484
  259MPD2     N 3929   3.776   2.329   0.390 -0.1567  0.0299  0.2326
  259MPD2    H5 3930   3.867   2.286   0.403 -2.1050 -4.7707 -2.0747
  259MPD2    N1 3931   3.652   2.094   0.800  0.0739  0.0527  0.2079
  259MPD2    H7 3932   3.590   2.110   0.879 -1.5694  0.1707 -1.0980
  260TMC3    C1 3933   3.895   2.476   0.233 -0.0788 -0.1363  0.1685
  260TMC3    C2 3934   3.891   2.560   0.125  0.1191 -0.4566  0.0991
  260TMC3    C3 3935   4.007   2.629   0.088  0.4485 -0.3085 -0.1812
  260TMC3    C4 3936   4.009   2.462   0.304  0.0935 -0.1390 -0.0915
  260TMC3    C5 3937   4.123   2.519   0.264  0.9215  0.0707  0.0696
  260TMC3    C6 3938   4.124   2.603   0.156  1.0381 -0.0478  0.5076
  260TMC3     C 3939   3.769   2.423   0.286  0.3661  0.8892  0.3377
  260TMC3     O 3940   3.667   2.467   0.244  0.3910  0.0552  0.1945
  260TMC3     H 3941   3.799   2.569   0.068  0.8060 -0.2897 -0.9956
  260TMC3    H1 3942   4.018   2.395   0.389  1.4298  0.5212  0.2861
  260TMC3    H2 3943   4.215   2.654   0.129  0.4690  1.1367  0.8398
  260TMC3    C7 3944   4.233   2.428   0.240 -0.3833  0.1375 -0.0400
  260TMC3    C8 3945   4.039   2.661  17.640  0.1155  0.0686 -0.4310
  260TMC3    O1 3946   4.287   2.441   0.128  0.4731 -0.5852  0.1637
  260TMC3    O2 3947   3.958   2.720  17.569  0.4783 -0.3632  0.7032
  261MPD2     C 3948   1.373   0.662  12.516 -0.8187  0.2240 -0.5693
  261MPD2    C1 3949   1.284   0.760  12.564  0.9313 -0.4641 -0.3303
  261MPD2    C2 3950   1.257   0.873  12.485  0.4634 -0.2209 -0.1454
  261MPD2    C3 3951   1.298   0.884  12.352  0.2920  0.2523 -0.3913
  261MPD2    C4 3952   1.396   0.788  12.306  0.6217  0.2187 -0.4942
  261MPD2    C5 3953   1.438   0.687  12.394 -0.2336  0.2332 -0.1439
  261MPD2     H 3954   1.197   0.953  12.527 -1.7706 -3.1028  2.1533
  261MPD2    H1 3955   1.439   0.788  12.207 -0.2811  1.3712 -0.8805
  261MPD2    H2 3956   1.395   0.576  12.578  0.3925  0.5384 -0.5565
  261MPD2    H3 3957   1.502   0.608  12.358 -1.8108 -0.1730 -2.1107
  261MPD2     N 3958   1.241   0.981  12.267  0.1569  0.1289 -0.1057
  261MPD2    H5 3959   1.179   1.054  12.301  0.3838  1.0806 -1.7097
  261MPD2    N1 3960   1.235   0.733  12.696 -0.3208  0.0727  0.1572
  261MPD2    H7 3961   1.267   0.643  12.732 -0.2522 -0.2279 -0.6518
  262TMC3    C1 3962   1.191   1.088  12.060  0.4917 -0.7729  0.2454
  262TMC3    C2 3963   1.139   1.196  12.120  0.5998 -0.1970 -0.0587
  262TMC3    C3 3964   1.094   1.299  12.043 -0.9372  0.5211  0.0624
  262TMC3    C4 3965   1.182   1.071  11.920  0.1173  0.2095 -0.2778
  262TMC3    C5 3966   1.131   1.178  11.853 -0.2229 -0.0338 -0.3175
  262TMC3    C6 3967   1.078   1.289  11.913 -0.6130  0.0136 -0.0570
  262TMC3     C 3968   1.258   0.983  12.132  0.2686  0.2269  0.5333
  262TMC3     O 3969   1.297   0.896  12.056 -0.5063 -0.6883  0.6383
  262TMC3     H 3970   1.148   1.219  12.226  0.9063  2.2832 -0.6199
  262TMC3    H1 3971   1.220   0.985  11.866  1.1548  1.3983 -1.4252
  262TMC3    H2 3972   1.043   1.375  11.857 -1.3071  0.0768  0.4807
  262TMC3    C7 3973   1.118   1.165  11.709  0.3829  0.6693 -0.2881
  262TMC3    C8 3974   1.040   1.421  12.097 -0.0761 -0.2339 -0.3644
  262TMC3    O1 3975   1.138   1.052  11.666 -0.2551  0.0594  0.2434
  262TMC3    O2 3976   1.020   1.514  12.025 -0.1230 -0.0831 -0.6772
  263MPD2     C 3977   2.125   0.129  11.564 -0.1248  0.2492 -0.7896
  263MPD2    C1 3978   2.225   0.178  11.482  0.0951  0.5168 -0.7006
  263MPD2    C2 3979   2.186   0.255  11.373  0.0075 -0.2477 -0.7416
  263MPD2    C3 3980   2.056   0.260  11.328  0.5304  0.3574 -0.3177
  263MPD2    C4 3981   1.959   0.201  11.414 -1.0242 -0.3363  0.0486
  263MPD2    C5 3982   1.997   0.144  11.530  0.3068  0.1955  0.4252
  263MPD2     H 3983   2.261   0.304  11.312 -1.4617  5.0408  1.7274
  263MPD2    H1 3984   1.851   0.203  11.401 -1.0867  0.0655  0.6349
  263MPD2    H2 3985   2.141   0.083  11.661  0.9373 -0.3012 -1.2261
  263MPD2    H3 3986   1.919   0.107  11.594  0.8598 -1.2513  0.2654
  263MPD2     N 3987   2.017   0.332  11.212 -0.4986 -0.2898  0.0800
  263MPD2    H5 3988   2.091   0.372  11.156  0.7400 -2.8271 -0.0874
  263MPD2    N1 3989   2.362   0.171  11.520  0.2139  0.0133  0.5005
  263MPD2    H7 3990   2.371   0.119  11.607 -1.8262 -0.4258  0.4557
  264TMC3    C1 3991   1.904   0.445  11.051 -0.8126  0.0739 -0.2354
  264TMC3    C2 3992   1.800   0.531  11.034  0.0769  0.8751  0.1059
  264TMC3    C3 3993   1.806   0.613  10.930 -0.4203 -0.0497 -0.5407
  264TMC3    C4 3994   2.008   0.435  10.966  0.6734 -0.3049  0.4487
  264TMC3    C5 3995   2.012   0.518  10.853  0.1091 -0.0325 -0.2578
  264TMC3    C6 3996   1.903   0.601  10.834 -0.1081  0.4016  0.8044
  264TMC3     C 3997   1.892   0.359  11.166 -0.6808 -0.5281 -0.3158
  264TMC3     O 3998   1.781   0.345  11.218 -0.6396  0.1658 -0.0765
  264TMC3     H 3999   1.736   0.534  11.121  1.7241  1.3754  1.2998
  264TMC3    H1 4000   2.090   0.365  10.981  0.8356 -0.5463 -1.5659
  264TMC3    H2 4001   1.908   0.670  10.750  2.4766 -1.1190 -0.2937
  264TMC3    C7 4002   2.141   0.545  10.797 -0.0027  0.9746  0.2684
  264TMC3    C8 4003   1.793   0.744  10.983 -0.3819  0.4353  0.0341
  264TMC3    O1 4004   2.135   0.583  10.680  0.0305  0.7691 -0.5151
  264TMC3    O2 4005   1.686   0.786  11.025 -0.0579 -0.3229  0.7261
  265MPD2     C 4006   4.034   0.425  15.573  0.2519  0.3218 -0.0289
  265MPD2    C1 4007   4.118   0.518  15.512 -0.0567  0.1752  0.7092
  265MPD2    C2 4008   4.196   0.488  15.399  0.2976 -0.6555  0.1911
  265MPD2    C3 4009   4.181   0.357  15.351  0.4091 -0.1160 -0.2762
  265MPD2    C4 4010   4.101   0.257  15.409 -0.5687  0.1379  0.2835
  265MPD2    C5 4011   4.022   0.295  15.518 -0.1348 -0.0690 -0.3793
  265MPD2     H 4012   4.270   0.557  15.359  1.4321 -1.3303  1.1401
  265MPD2    H1 4013   4.085   0.160  15.362  1.9162 -0.0651 -0.1548
  265MPD2    H2 4014   3.978   0.446  15.663 -2.7134 -1.8340 -1.3595
  265MPD2    H3 4015   3.964   0.224  15.575  1.7476 -0.4705  1.0180
  265MPD2     N 4016   4.269   0.300  15.255 -0.1814  0.1017  0.4316
  265MPD2    H5 4017   4.262   0.200  15.236  0.8342 -0.0606  0.9292
  265MPD2    N1 4018   4.139   0.652  15.562  0.0748  0.4882  0.3703
  265MPD2    H7 4019   4.197   0.706  15.499  0.0049  0.8347  0.6026
  266TMC3    C1 4020   4.134   0.823  15.727 -0.0620  0.4694  0.4568
  266TMC3    C2 4021   4.163   0.839  15.855  0.1152  0.0994  0.5244
  266TMC3    C3 4022   4.147   0.965  15.908 -0.2359  0.3242  0.1633
  266TMC3    C4 4023   4.100   0.924  15.640  0.0064 -0.3066 -0.0526
  266TMC3    C5 4024   4.097   1.047  15.694  0.1141 -0.4258  0.2018
  266TMC3    C6 4025   4.117   1.074  15.824  0.2689 -0.0113  0.1546
  266TMC3     C 4026   4.102   0.695  15.691  0.4396  0.0516  0.0694
  266TMC3     O 4027   4.056   0.628  15.784 -0.0261 -0.0384 -0.7317
  266TMC3     H 4028   4.184   0.752  15.916 -3.3357 -0.7418  0.5082
  266TMC3    H1 4029   4.090   0.917  15.533  2.2763 -0.4214 -0.2551
  266TMC3    H2 4030   4.088   1.166  15.874  0.8594  0.3700 -0.2014
  266TMC3    C7 4031   4.055   1.159  15.615 -0.2072  0.6461  0.2027
  266TMC3    C8 4032   4.237   0.981  16.023  0.3816 -0.3952 -0.2967
  266TMC3    O1 4033   3.987   1.146  15.515  0.3499  0.3353  0.2856
  266TMC3    O2 4034   4.304   0.881  16.044  0.0233  0.6853 -0.4076
  267MPD2     C 4035   2.530   2.117  16.804 -1.4410  0.6277  0.5232
  267MPD2    C1 4036   2.452   2.094  16.915  0.3589  0.3811  0.1402
  267MPD2    C2 4037   2.322   2.043  16.899  0.5474 -0.1197 -1.4169
  267MPD2    C3 4038   2.278   2.004  16.771 -0.0259 -0.1688 -0.5192
  267MPD2    C4 4039   2.364   2.020  16.667 -0.7584 -0.4766  0.0024
  267MPD2    C5 4040   2.487   2.069  16.684  0.0802 -0.3839 -0.5125
  267MPD2     H 4041   2.255   2.040  16.985  2.1806 -1.8433 -0.2028
  267MPD2    H1 4042   2.330   1.978  16.573 -0.4623 -1.3751  0.2913
  267MPD2    H2 4043   2.628   2.165  16.812 -0.4309 -1.2146 -0.8932
  267MPD2    H3 4044   2.560   2.057  16.605  0.5867  1.0221 -0.2493
  267MPD2     N 4045   2.155   1.951  16.742 -0.1041  0.4526 -0.0043
  267MPD2    H5 4046   2.128   1.932  16.646  1.0566  1.5499 -0.5333
  267MPD2    N1 4047   2.496   2.142  17.037 -0.4165  0.2029  0.8370
  267MPD2    H7 4048   2.594   2.170  17.032 -0.1279 -1.0637 -0.7356
  268TMC3    C1 4049   2.507   2.216  17.253  0.1546 -0.2964  0.3900
  268TMC3    C2 4050   2.501   2.346  17.212 -0.6377  0.0331 -0.2291
  268TMC3    C3 4051   2.495   2.437  17.314  0.3391  0.0067  0.5005
  268TMC3    C4 4052   2.484   2.174  17.385  0.3649  0.1702 -0.2022
  268TMC3    C5 4053   2.478   2.270  17.478  0.3001  0.6604  0.5396
  268TMC3    C6 4054   2.492   2.402  17.445 -0.0025 -0.6698  0.2506
  268TMC3     C 4055   2.437   2.132  17.161 -0.0920  0.5586 -0.0845
  268TMC3     O 4056   2.330   2.078  17.198  0.2582  0.2951 -0.3435
  268TMC3     H 4057   2.523   2.373  17.110  1.8074  0.0684  0.2856
  268TMC3    H1 4058   2.456   2.072  17.406 -0.3805  0.2252 -0.9102
  268TMC3    H2 4059   2.469   2.485  17.511 -0.6464 -0.7159  0.0859
  268TMC3    C7 4060   2.398   2.238  17.597 -0.6532  0.2549  0.0563
  268TMC3    C8 4061   2.478   2.583  17.284 -1.2926  0.2274  0.4610
  268TMC3    O1 4062   2.382   2.121  17.625 -0.1362  0.0931  0.3689
  268TMC3    O2 4063   2.524   2.663  17.366  0.2007  0.3797 -0.3688
  269MPD2     C 4064   1.834   1.525  15.829  0.4737 -0.1891  0.2500
  269MPD2    C1 4065   1.790   1.468  15.709 -0.4568 -0.2327 -0.3555
  269MPD2    C2 4066   1.762   1.565  15.615  0.3704 -0.6104 -0.1630
  269MPD2    C3 4067   1.760   1.703  15.640  0.6418 -0.4716  0.3183
  269MPD2    C4 4068   1.810   1.744  15.763  0.1103  0.2928  0.0955
  269MPD2    C5 4069   1.847   1.659  15.851 -0.0493 -0.9583  0.2469
  269MPD2     H 4070   1.721   1.545  15.516 -0.2272 -1.7119  0.2980
  269MPD2    H1 4071   1.839   1.847  15.778 -1.2953  0.6978  0.0129
  269MPD2    H2 4072   1.855   1.460  15.913  0.0173  0.8755  1.1684
  269MPD2    H3 4073   1.899   1.674  15.944 -2.9901  1.3071  1.5308
  269MPD2     N 4074   1.731   1.791  15.530 -0.0780 -0.3799  0.2335
  269MPD2    H5 4075   1.692   1.753  15.445 -2.5326  3.7725 -0.4794
  269MPD2    N1 4076   1.768   1.329  15.687 -0.6413  0.3277  0.6202
  269MPD2    H7 4077   1.787   1.266  15.764  0.3201  2.1917  1.9085
  270TMC3    C1 4078   1.729   1.127  15.563 -0.5769  0.2566 -0.8592
  270TMC3    C2 4079   1.683   1.064  15.454 -0.2903  0.5279 -0.0639
  270TMC3    C3 4080   1.694   0.930  15.433 -0.2442  0.2485 -0.4156
  270TMC3    C4 4081   1.804   1.062  15.654  0.6920 -0.3861  0.7372
  270TMC3    C5 4082   1.822   0.929  15.637 -0.8469 -0.0471  0.4907
  270TMC3    C6 4083   1.779   0.863  15.521  0.2549  0.7845  0.2463
  270TMC3     C 4084   1.729   1.272  15.566 -0.3433 -0.5415 -0.4579
  270TMC3     O 4085   1.705   1.331  15.463  0.1217 -0.4361  0.0877
  270TMC3     H 4086   1.616   1.120  15.389  2.0602  0.0525 -2.8854
  270TMC3    H1 4087   1.854   1.108  15.738  2.2509  0.5954 -0.7436
  270TMC3    H2 4088   1.801   0.757  15.511  3.8275  1.3527  1.8562
  270TMC3    C7 4089   1.939   0.874  15.696  0.1976  0.1983 -0.4468
  270TMC3    C8 4090   1.687   0.887  15.293 -0.0216 -0.4011  0.8342
  270TMC3    O1 4091   2.049   0.925  15.679 -0.4310  0.1378 -0.0774
  270TMC3    O2 4092   1.692   0.971  15.207 -0.0615 -0.0963  0.3489
  271MPD2     C 4093   1.137   1.396  13.979  0.2137 -0.4441  0.8128
  271MPD2    C1 4094   1.116   1.257  13.951 -0.1818  0.0897  0.1554
  271MPD2    C2 4095   1.016   1.224  13.866  0.0077  0.1287 -0.7902
  271MPD2    C3 4096   0.948   1.329  13.799  0.3759 -0.6356 -0.2168
  271MPD2    C4 4097   0.987   1.460  13.818 -0.2577  0.2220  0.1108
  271MPD2    C5 4098   1.072   1.497  13.915  0.1662  0.5769  0.1692
  271MPD2     H 4099   1.001   1.119  13.842  0.8727 -0.0793 -0.3956
  271MPD2    H1 4100   0.937   1.543  13.770 -2.6787 -0.6847  1.0930
  271MPD2    H2 4101   1.210   1.428  14.052  0.5939  1.2112 -0.3074
  271MPD2    H3 4102   1.077   1.598  13.954 -1.1857  2.5518 -4.7921
  271MPD2     N 4103   0.839   1.309  13.713  0.2173 -0.5644 -0.5621
  271MPD2    H5 4104   0.800   1.396  13.677 -2.7821 -1.0796  1.5021
  271MPD2    N1 4105   1.186   1.153  14.018  0.8945  0.4810 -0.6134
  271MPD2    H7 4106   1.157   1.057  14.008  2.0530  0.0003  0.6762
  272TMC3    C1 4107   1.390   1.049  14.089 -0.2199  0.5150  0.1893
  272TMC3    C2 4108   1.525   1.046  14.070  0.0411 -0.6261 -0.9880
  272TMC3    C3 4109   1.599   0.993  14.170 -0.3450  0.0991 -0.0173
  272TMC3    C4 4110   1.336   1.007  14.205  0.5935 -0.3002  0.4325
  272TMC3    C5 4111   1.417   0.945  14.293 -0.3838 -0.4812  0.4760
  272TMC3    C6 4112   1.547   0.930  14.276  0.3320 -0.7824 -0.7261
  272TMC3     C 4113   1.324   1.170  14.041  0.5670 -0.2831 -0.1108
  272TMC3     O 4114   1.392   1.273  14.040 -0.3035 -0.4219 -0.1836
  272TMC3     H 4115   1.569   1.099  13.987  1.0142 -0.9706 -0.7004
  272TMC3    H1 4116   1.233   1.023  14.233  0.9245  2.2649  0.1846
  272TMC3    H2 4117   1.609   0.891  14.356  1.9499 -2.0391 -2.6066
  272TMC3    C7 4118   1.361   0.914  14.424 -0.4534 -0.3398  0.7917
  272TMC3    C8 4119   1.743   0.988  14.150  0.2717  0.3183  0.1971
  272TMC3    O1 4120   1.242   0.881  14.434 -0.4839  0.3849  0.2218
  272TMC3    O2 4121   1.787   1.083  14.082 -0.3277 -0.4191  0.2079
  273MPD2     C 4122   2.589   3.840  11.777  0.0756  0.7120  0.0827
  273MPD2    C1 4123   2.693   3.925  11.762  0.4161  0.2731  0.0816
  273MPD2    C2 4124   2.752   3.934  11.639 -0.6058 -0.6558 -0.2311
  273MPD2    C3 4125   2.712   3.857  11.530  0.4476 -0.4823 -0.8126
  273MPD2    C4 4126   2.615   3.765  11.550  0.1658  0.5789 -0.2283
  273MPD2    C5 4127   2.553   3.761  11.673  0.4100  0.2632  0.7670
  273MPD2     H 4128   2.811   4.024  11.622 -1.5044 -0.0952 -0.4044
  273MPD2    H1 4129   2.577   3.700  11.472  0.4412 -0.1153  0.2207
  273MPD2    H2 4130   2.549   3.824  11.877 -1.7122  1.5106 -0.4903
  273MPD2    H3 4131   2.471   3.694  11.696 -1.1569  1.5189 -1.1902
  273MPD2     N 4132   2.762   3.882  11.395 -0.8505  0.0894 -0.0168
  273MPD2    H5 4133   2.730   3.817  11.324 -2.9848 -0.7368  1.7067
  273MPD2    N1 4134   2.729   4.005  11.875  0.2439  0.3393  0.7564
  273MPD2    H7 4135   2.679   3.985  11.961  1.1956 -1.0690  0.9908
  274TMC3    C1 4136   2.893   3.984  11.222  0.0240  0.5484 -0.0798
  274TMC3    C2 4137   2.801   3.957  11.131 -0.3791  0.2900 -0.2335
  274TMC3    C3 4138   2.797   4.033  11.018 -0.4758 -0.3919 -0.0211
  274TMC3    C4 4139   2.994   4.072  11.193  0.9215 -0.2919 -0.6165
  274TMC3    C5 4140   2.983   4.153  11.079  0.9941 -0.5282 -0.2726
  274TMC3    C6 4141   2.883   4.138  10.992 -0.8569  0.8461 -0.1636
  274TMC3     C 4142   2.877   3.957  11.363 -0.0283 -0.0018 -0.3125
  274TMC3     O 4143   2.945   4.024  11.439  0.4144 -0.3491  0.2231
  274TMC3     H 4144   2.724   3.883  11.149  0.2005 -0.0825  0.6889
  274TMC3    H1 4145   3.082   4.076  11.257  0.8593 -0.5625 -0.5118
  274TMC3    H2 4146   2.861   4.216  10.920  1.8126  1.7187 -0.0357
  274TMC3    C7 4147   3.030   4.288  11.107  0.6110 -0.2160  0.0241
  274TMC3    C8 4148   2.686   4.005  10.926 -0.6215 -1.0750 -0.1147
  274TMC3    O1 4149   2.967   4.381  11.051 -0.4620 -0.1517  0.3128
  274TMC3    O2 4150   2.602   3.929  10.964  0.0345 -0.3974 -0.4395
  275MPD2     C 4151   2.561   2.284  14.356  0.1977 -0.1039  0.3724
  275MPD2    C1 4152   2.515   2.241  14.478 -0.2878  0.5904  0.0304
  275MPD2    C2 4153   2.383   2.195  14.498 -0.2348  0.2423 -0.3006
  275MPD2    C3 4154   2.296   2.192  14.389 -0.1315 -0.3739 -0.0102
  275MPD2    C4 4155   2.344   2.225  14.267  0.0450  0.1277 -0.0551
  275MPD2    C5 4156   2.475   2.275  14.253  0.1347 -0.6852 -0.1223
  275MPD2     H 4157   2.348   2.160  14.594  0.0613 -1.5185 -0.8450
  275MPD2    H1 4158   2.286   2.241  14.176 -0.0816 -1.9733 -0.3254
  275MPD2    H2 4159   2.663   2.317  14.337  0.5269 -2.1542 -1.3402
  275MPD2    H3 4160   2.505   2.309  14.155 -0.1749  2.0640  0.7342
  275MPD2     N 4161   2.158   2.162  14.407 -0.0098 -0.3620  0.5532
  275MPD2    H5 4162   2.109   2.127  14.325  0.6035 -2.3680  1.0523
  275MPD2    N1 4163   2.602   2.218  14.591 -0.0681  0.0935  0.0151
  275MPD2    H7 4164   2.565   2.186  14.680  0.1481 -0.8330 -0.2341
  276TMC3    C1 4165   2.781   2.221  14.745 -0.7746  0.8405 -0.0299
  276TMC3    C2 4166   2.709   2.120  14.812  0.4278 -0.2344 -0.1800
  276TMC3    C3 4167   2.729   2.112  14.946 -0.1601 -0.1746 -0.4448
  276TMC3    C4 4168   2.890   2.275  14.803  0.4473  0.0295 -0.2530
  276TMC3    C5 4169   2.916   2.248  14.937 -0.6442  0.5570  0.3144
  276TMC3    C6 4170   2.827   2.177  15.016 -0.4080 -1.1884  0.2042
  276TMC3     C 4171   2.733   2.254  14.606  0.1108  0.1316 -0.1789
  276TMC3     O 4172   2.795   2.324  14.531 -0.7970 -0.1589  0.2240
  276TMC3     H 4173   2.638   2.055  14.763 -0.8239  2.0039 -1.3370
  276TMC3    H1 4174   2.950   2.344  14.744  0.7267  0.4168  0.4877
  276TMC3    H2 4175   2.852   2.152  15.119  0.9708  1.0366  0.3951
  276TMC3    C7 4176   3.042   2.282  15.000  0.5143 -0.0486 -0.3569
  276TMC3    C8 4177   2.693   1.987  15.005  0.4546 -0.2109  0.5688
  276TMC3    O1 4178   3.021   2.304  15.120 -0.1755  0.1615  0.0523
  276TMC3    O2 4179   2.662   1.989  15.123 -0.4635  0.2025  0.0279
  277MPD2     C 4180   4.521   0.672  12.987 -0.4424 -0.1547  0.5036
  277MPD2    C1 4181   4.408   0.734  13.034  0.6499  0.9004  0.1371
  277MPD2    C2 4182   4.367   0.715  13.162  0.8669 -0.1661 -0.2348
  277MPD2    C3 4183   4.432   0.630  13.249 -0.0309 -0.1254  0.0040
  277MPD2    C4 4184   4.547   0.566  13.206  0.3412 -0.5595  0.0027
  277MPD2    C5 4185   4.592   0.587  13.073  0.2041  0.5476  0.2245
  277MPD2     H 4186   4.276   0.757  13.204  0.6822  1.6267 -2.4753
  277MPD2    H1 4187   4.613   0.505  13.267 -1.7935 -3.9746 -1.1055
  277MPD2    H2 4188   4.563   0.686  12.888 -3.1657 -1.3318 -0.8128
  277MPD2    H3 4189   4.683   0.540  13.037 -0.4066  0.3579 -1.0589
  277MPD2     N 4190   4.373   0.618  13.376  0.0526  0.2431 -0.0294
  277MPD2    H5 4191   4.276   0.648  13.386 -0.5785 -2.1218  0.9533
  277MPD2    N1 4192   4.345   0.825  12.946  0.3179  0.7952  1.0805
  277MPD2    H7 4193   4.373   0.823  12.848 -1.6219 -2.1633  0.5957
  278TMC3    C1 4194   4.339   0.555  13.597 -0.1829  0.2690  0.6898
  278TMC3    C2 4195   4.326   0.423  13.639 -0.7833  0.1283  0.1921
  278TMC3    C3 4196   4.202   0.371  13.657 -0.6820 -0.4470 -0.5206
  278TMC3    C4 4197   4.230   0.630  13.593 -0.5569  0.4162  0.2034
  278TMC3    C5 4198   4.100   0.581  13.610 -0.5794  0.3771  0.5662
  278TMC3    C6 4199   4.086   0.448  13.632 -0.3935 -0.1988  0.4687
  278TMC3     C 4200   4.434   0.562  13.492  0.2468  0.1705 -0.1574
  278TMC3     O 4201   4.543   0.526  13.527 -0.6112 -0.0954 -0.3734
  278TMC3     H 4202   4.409   0.354  13.630 -1.9034 -0.8971 -2.2749
  278TMC3    H1 4203   4.249   0.734  13.567  1.9293 -0.7093 -2.4015
  278TMC3    H2 4204   3.985   0.409  13.636 -1.3704  2.1402 -1.6159
  278TMC3    C7 4205   4.007   0.654  13.528 -0.0357  0.3848 -0.1481
  278TMC3    C8 4206   4.190   0.224  13.636 -0.8062  0.0063  0.5341
  278TMC3    O1 4207   4.061   0.718  13.442  0.0741 -0.5463  0.4625
  278TMC3    O2 4208   4.275   0.154  13.687  0.0481  0.0203  0.3817
  279MPD2     C 4209   3.405   0.923   0.460  0.3839 -0.3743 -0.3829
  279MPD2    C1 4210   3.313   1.024   0.429 -0.5808 -0.4464  0.2753
  279MPD2    C2 4211   3.323   1.097   0.308 -0.1027 -0.4251  0.2774
  279MPD2    C3 4212   3.418   1.062   0.208  0.6470  0.0031 -0.9731
  279MPD2    C4 4213   3.509   0.952   0.242  0.1222  1.1532  0.5582
  279MPD2    C5 4214   3.494   0.883   0.358  0.2499  0.1182 -0.7089
  279MPD2     H 4215   3.257   1.182   0.292  1.3240  0.1054 -2.7164
  279MPD2    H1 4216   3.585   0.916   0.174  0.8910 -0.9163  2.5394
  279MPD2    H2 4217   3.389   0.866   0.550  1.5162  1.7221  1.1474
  279MPD2    H3 4218   3.564   0.804   0.381  0.7223  0.9412  0.6324
  279MPD2     N 4219   3.427   1.119   0.080  0.5095  0.9929 -0.0244
  279MPD2    H5 4220   3.499   1.085   0.017 -1.9347 -0.2152 -2.1952
  279MPD2    N1 4221   3.208   1.044   0.527  0.6202  0.4237 -0.0150
  279MPD2    H7 4222   3.222   1.002   0.618  0.1373 -0.3639 -0.3062
  280TMC3    C1 4223   3.040   1.134   0.379  0.3683 -0.3532  0.9600
  280TMC3    C2 4224   3.041   1.031   0.288 -0.5515  0.4654 -0.2727
  280TMC3    C3 4225   2.966   1.054   0.175  0.8019 -0.1239 -0.4699
  280TMC3    C4 4226   2.956   1.239   0.367 -0.1868 -0.4885  0.1139
  280TMC3    C5 4227   2.876   1.253   0.261 -0.4901  0.1252 -0.2255
  280TMC3    C6 4228   2.877   1.160   0.157  0.1284 -0.5882  0.2444
  280TMC3     C 4229   3.094   1.128   0.516  0.0503  0.2986  0.5480
  280TMC3     O 4230   3.012   1.144   0.605 -0.5093  0.0633  0.7183
  280TMC3     H 4231   3.103   0.943   0.300 -2.1471 -0.9197 -2.0231
  280TMC3    H1 4232   2.972   1.317   0.441  1.6285 -0.3718 -0.3903
  280TMC3    H2 4233   2.820   1.165   0.066 -0.6746  1.3299  0.8561
  280TMC3    C7 4234   2.804   1.380   0.245  0.1774 -0.0359 -0.0734
  280TMC3    C8 4235   3.008   1.003   0.047  0.0464  0.1891  0.2333
  280TMC3    O1 4236   2.802   1.453   0.344 -0.6171 -0.0115 -0.0700
  280TMC3    O2 4237   2.938   1.025  17.638  0.1480  0.0427 -0.3278
  281TMC3    C1 4238   2.363   1.375  13.267 -0.0586 -0.2891 -0.4677
  281TMC3    C2 4239   2.390   1.476  13.171 -0.7374  0.3260 -0.4640
  281TMC3    C3 4240   2.447   1.444  13.050  0.0600 -0.7044  0.6726
  281TMC3    C4 4241   2.411   1.248  13.242  0.3823 -0.3056 -0.0726
  281TMC3    C5 4242   2.475   1.226  13.123 -0.3832  0.3429 -0.2612
  281TMC3    C6 4243   2.493   1.319  13.023  0.3202 -0.2012  0.4805
  281TMC3     C 4244   2.254   1.397  13.357 -0.3140 -0.6669  0.0917
  281TMC3     O 4245   2.232   1.303  13.430 -0.5950  0.3645 -0.2726
  281TMC3     H 4246   2.363   1.577  13.201 -1.7678  0.3984 -1.6243
  281TMC3    H1 4247   2.387   1.173  13.316  0.0482  0.8067  0.9468
  281TMC3    H2 4248   2.532   1.298  12.924  1.3717 -0.0875  0.8637
  281TMC3    C7 4249   2.519   1.092  13.090  0.1701 -0.4576 -0.1463
  281TMC3    C8 4250   2.532   1.533  12.973  0.4672  0.1916 -0.7449
  281TMC3    O1 4251   2.608   1.091  13.007  0.2524 -0.5992 -0.0580
  281TMC3    O2 4252   2.644   1.494  12.943  0.0198 -0.1417 -0.4344
  282MPD2     C 4253   4.041   2.602  15.261 -0.3319 -0.3184  0.1055
  282MPD2    C1 4254   3.940   2.690  15.294 -1.1154  0.0470 -0.8925
  282MPD2    C2 4255   3.833   2.704  15.206 -0.6787  0.6838  0.0295
  282MPD2    C3 4256   3.835   2.647  15.082  0.3875 -0.0651  0.1965
  282MPD2    C4 4257   3.937   2.561  15.045 -0.1674 -0.3492 -0.2056
  282MPD2    C5 4258   4.039   2.542  15.135 -0.1298 -0.1026 -0.2609
  282MPD2     H 4259   3.745   2.758  15.241 -1.2462 -0.4187  0.3154
  282MPD2    H1 4260   3.939   2.516  14.946  2.0751 -0.3806 -0.1388
  282MPD2    H2 4261   4.129   2.588  15.323  0.7327  1.1230 -1.0918
  282MPD2    H3 4262   4.117   2.477  15.097 -0.5275 -1.8535  1.9163
  282MPD2     N 4263   3.743   2.693  14.993  0.0529 -0.6534  0.4052
  282MPD2    H5 4264   3.662   2.736  15.036  0.1658  1.1763 -1.1905
  282MPD2    N1 4265   3.932   2.743  15.427 -0.8209 -0.5117  0.0870
  282MPD2    H7 4266   3.990   2.704  15.500  0.7409  1.0263 -0.3040
  283TMC3    C1 4267   3.852   2.873  15.608 -0.1504  0.4079 -0.3678
  283TMC3    C2 4268   3.833   3.004  15.647  0.7062  0.1789  0.3150
  283TMC3    C3 4269   3.825   3.025  15.781 -0.3076 -0.0784  0.5390
  283TMC3    C4 4270   3.867   2.765  15.691  0.6204  0.4784  1.0695
  283TMC3    C5 4271   3.859   2.793  15.823 -0.3869  0.1755  0.5964
  283TMC3    C6 4272   3.832   2.923  15.870  0.4692  0.0044  1.3841
  283TMC3     C 4273   3.865   2.855  15.461 -0.1210 -0.0102  0.0514
  283TMC3     O 4274   3.803   2.930  15.382  0.7945 -0.4350  0.1545
  283TMC3     H 4275   3.817   3.082  15.573 -1.9214  0.7434  1.4912
  283TMC3    H1 4276   3.870   2.664  15.651  1.2017  1.6374 -1.7508
  283TMC3    H2 4277   3.818   2.939  15.976  0.2109 -0.4862  1.4253
  283TMC3    C7 4278   3.813   2.690  15.916 -0.1508 -0.0057 -0.1881
  283TMC3    C8 4279   3.837   3.161  15.827  0.3186  0.4112  0.3551
  283TMC3    O1 4280   3.755   2.737  16.010  0.2969  0.1424  0.3147
  283TMC3    O2 4281   3.789   3.188  15.940 -0.3895  0.9794  0.1408
  284MPD2     C 4282   2.202   1.831  11.941  0.2523  0.2233  0.1229
  284MPD2    C1 4283   2.254   1.765  11.832  0.4567 -0.2350 -0.5148
  284MPD2    C2 4284   2.202   1.643  11.802 -0.3229 -0.2548 -0.0102
  284MPD2    C3 4285   2.086   1.595  11.857 -0.2529 -0.3241  0.1228
  284MPD2    C4 4286   2.023   1.675  11.947 -0.1563 -0.1509 -0.1589
  284MPD2    C5 4287   2.074   1.800  11.986 -0.1644 -0.5953  0.6570
  284MPD2     H 4288   2.266   1.573  11.750 -2.1836 -1.0262 -1.2511
  284MPD2    H1 4289   1.932   1.637  11.993  0.3770 -0.7590  0.3948
  284MPD2    H2 4290   2.245   1.925  11.973 -0.0042  0.1606  0.6502
  284MPD2    H3 4291   2.026   1.870  12.054  1.9785 -0.9725  2.5809
  284MPD2     N 4292   2.038   1.467  11.836  0.2676  0.0288 -0.3464
  284MPD2    H5 4293   1.970   1.428  11.900 -0.4931  0.2340 -1.0323
  284MPD2    N1 4294   2.362   1.805  11.760  0.2933  0.2173  0.1014
  284MPD2    H7 4295   2.411   1.737  11.703 -1.6392 -2.4803  1.6861
  285TMC3    C1 4296   2.530   1.940  11.683  0.1184 -0.0036 -0.1028
  285TMC3    C2 4297   2.558   1.839  11.596 -0.0868 -0.0438  0.0690
  285TMC3    C3 4298   2.680   1.829  11.531  0.5655  0.0067  0.1820
  285TMC3    C4 4299   2.623   2.043  11.721 -0.5424  0.2927 -0.1334
  285TMC3    C5 4300   2.744   2.032  11.658 -0.0378 -0.7071 -0.1677
  285TMC3    C6 4301   2.776   1.924  11.569 -0.1290 -0.1501 -0.3363
  285TMC3     C 4302   2.416   1.928  11.773 -0.0891  0.1339  0.5081
  285TMC3     O 4303   2.404   2.020  11.855 -0.3190  0.0519 -0.0976
  285TMC3     H 4304   2.483   1.771  11.557  0.7579 -0.6929 -0.4129
  285TMC3    H1 4305   2.599   2.104  11.808 -2.4958  0.6510 -0.9189
  285TMC3    H2 4306   2.871   1.935  11.518 -0.0650 -1.4588 -0.4974
  285TMC3    C7 4307   2.845   2.119  11.704  0.5121  0.2511 -0.1631
  285TMC3    C8 4308   2.699   1.733  11.419 -0.0407 -0.2117 -0.9872
  285TMC3    O1 4309   2.961   2.077  11.716  0.2174  0.2442  0.1621
  285TMC3    O2 4310   2.596   1.686  11.372 -0.3392  0.3487  0.7741
  286MPD2     C 4311   2.571   0.496   1.351 -0.3080 -0.1798  0.5539
  286MPD2    C1 4312   2.566   0.437   1.225 -0.8061 -0.6235  0.1038
  286MPD2    C2 4313   2.658   0.348   1.193 -0.2094  0.2115 -0.1434
  286MPD2    C3 4314   2.744   0.290   1.281 -0.4250 -0.1952 -0.3893
  286MPD2    C4 4315   2.745   0.345   1.411 -1.2413  0.0421 -0.1708
  286MPD2    C5 4316   2.663   0.452   1.439  0.0604 -0.2974  0.1847
  286MPD2     H 4317   2.656   0.316   1.090 -1.0317 -0.7140  0.1540
  286MPD2    H1 4318   2.809   0.296   1.483 -0.4941  0.1401 -0.7595
  286MPD2    H2 4319   2.501   0.573   1.381 -0.3293 -0.2148  0.5940
  286MPD2    H3 4320   2.657   0.482   1.543 -1.9695  1.5769 -0.4722
  286MPD2     N 4321   2.831   0.182   1.256 -0.0033  0.0205  0.4534
  286MPD2    H5 4322   2.900   0.159   1.326  0.3334  0.0050  0.1153
  286MPD2    N1 4323   2.476   0.484   1.129  0.3977 -0.0626 -0.3122
  286MPD2    H7 4324   2.457   0.415   1.057  4.0061  0.5531 -1.8909
  287TMC3    C1 4325   2.912   0.007   1.121  0.4047  0.3174  0.2808
  287TMC3    C2 4326   2.884   4.635   1.025  0.2470 -0.1572  0.1189
  287TMC3    C3 4327   2.992   4.570   0.974  0.7367  0.4683  0.0386
  287TMC3    C4 4328   3.031   0.027   1.173 -0.3371  0.1118  0.3571
  287TMC3    C5 4329   3.136   4.678   1.125  1.0941 -0.0884 -0.5071
  287TMC3    C6 4330   3.123   4.587   1.021  0.3245  0.1707 -0.6382
  287TMC3     C 4331   2.816   0.105   1.145 -0.1655 -0.4746 -0.1206
  287TMC3     O 4332   2.716   0.100   1.073  0.0132 -0.7074  0.1230
  287TMC3     H 4333   2.786   4.604   0.991 -0.1299  1.5541 -0.3513
  287TMC3    H1 4334   3.042   0.100   1.253  1.3972  2.0614 -1.6511
  287TMC3    H2 4335   3.201   4.525   0.980  0.0287  1.0668 -2.5309
  287TMC3    C7 4336   3.268   4.712   1.175 -0.3034  0.6225  0.1130
  287TMC3    C8 4337   2.982   4.489   0.852  0.4347  0.6036  0.2298
  287TMC3    O1 4338   3.283   0.098   1.225  0.2721  0.0321 -0.2272
  287TMC3    O2 4339   2.869   4.443   0.826 -0.3560  0.1133 -0.1853
  288TMC3    C1 4340   0.128   0.427  14.233 -0.4309 -0.1329 -0.3638
  288TMC3    C2 4341   0.006   0.437  14.294 -0.8460  0.6786  0.0206
  288TMC3    C3 4342   4.691   0.564  14.314  0.6028 -0.4032  0.3191
  288TMC3    C4 4343   0.200   0.534  14.183 -0.3504  0.6404 -0.0792
  288TMC3    C5 4344   0.150   0.660  14.219  0.0886  1.0607 -0.2061
  288TMC3    C6 4345   0.035   0.672  14.287 -0.1873 -0.3486 -0.5694
  288TMC3     C 4346   0.209   0.326  14.303 -0.9442 -0.3276  0.9171
  288TMC3     O 4347   0.177   0.282  14.412  0.2598 -0.6833 -0.4746
  288TMC3     H 4348   4.678   0.343  14.313  2.1757 -0.4568  2.4183
  288TMC3    H1 4349   0.304   0.528  14.152 -0.7881 -0.7684 -1.3179
  288TMC3    H2 4350   4.703   0.765  14.286 -0.4261 -0.4764  0.3267
  288TMC3    C7 4351   0.227   0.779  14.190  0.5243  0.8637  0.4253
  288TMC3    C8 4352   4.582   0.583  14.405 -0.2509  0.1358 -0.1889
  288TMC3    O1 4353   0.317   0.765  14.106 -0.4384 -0.0784  0.0283
  288TMC3    O2 4354   4.526   0.689  14.418  0.0912  0.1236 -0.7897
  289MPD2     C 4355   4.554   4.220  14.153 -0.0240 -0.0290  0.1438
  289MPD2    C1 4356   4.564   4.325  14.064 -0.0632 -0.0013 -0.8995
  289MPD2    C2 4357   4.464   4.340  13.968  0.2569  0.0559  0.5777
  289MPD2    C3 4358   4.362   4.241  13.954  0.4083 -0.0481  0.8816
  289MPD2    C4 4359   4.363   4.133  14.032  0.3785 -0.2027  0.2822
  289MPD2    C5 4360   4.457   4.126  14.136 -0.1822  0.5543  0.4935
  289MPD2     H 4361   4.458   4.423  13.898  0.1672 -1.5602 -1.3223
  289MPD2    H1 4362   4.281   4.063  14.024 -0.6912  0.9691  0.9179
  289MPD2    H2 4363   4.627   4.213  14.233 -1.0837  0.5219  1.1570
  289MPD2    H3 4364   4.460   4.042  14.204  0.7167 -0.9900 -1.4446
  289MPD2     N 4365   4.256   4.250  13.859 -0.7021  0.2544 -0.1303
  289MPD2    H5 4366   4.184   4.179  13.866 -0.0975 -0.3196  0.2818
  289MPD2    N1 4367   4.665   4.421  14.079  0.1316 -0.0932 -0.2034
  289MPD2    H7 4368   0.016   4.397  14.144 -0.4509 -1.4717 -0.0550
  290TMC3    C1 4369   4.103   4.328  13.707 -0.1357  0.0048  0.0742
  290TMC3    C2 4370   4.056   4.428  13.625  0.4812  0.4737  0.6214
  290TMC3    C3 4371   3.929   4.425  13.579 -0.0824  0.3461  0.0576
  290TMC3    C4 4372   4.021   4.229  13.747 -0.3174  0.4614 -0.5041
  290TMC3    C5 4373   3.889   4.230  13.700  0.2791 -0.1142  0.5139
  290TMC3    C6 4374   3.850   4.320  13.607  0.2332  0.9214  0.2545
  290TMC3     C 4375   4.230   4.346  13.767  1.0235  0.0660 -0.4144
  290TMC3     O 4376   4.306   4.434  13.731  0.6029 -0.4804 -0.0507
  290TMC3     H 4377   4.133   4.497  13.593 -0.1724  0.6685 -0.5475
  290TMC3    H1 4378   4.048   4.155  13.822 -0.2442 -1.1495 -2.1357
  290TMC3    H2 4379   3.750   4.323  13.564 -0.5471  1.1370  2.0965
  290TMC3    C7 4380   3.802   4.108  13.700 -0.1897  0.6285 -0.4885
  290TMC3    C8 4381   3.859   4.551  13.571 -0.1175 -0.1977  0.7501
  290TMC3    O1 4382   3.735   4.096  13.597 -0.3893 -0.1806 -0.1038
  290TMC3    O2 4383   3.750   4.542  13.513  0.2845  0.4528 -0.1949
  291MPD2     C 4384   3.854   3.853   0.574  0.5028 -0.3085  0.1460
  291MPD2    C1 4385   3.760   3.807   0.487  0.5182  0.2862  0.0692
  291MPD2    C2 4386   3.755   3.855   0.362  0.1407 -0.4122  0.4818
  291MPD2    C3 4387   3.852   3.945   0.317  0.1055 -0.0218  0.0837
  291MPD2    C4 4388   3.934   4.002   0.408 -0.1548  0.6436  0.2525
  291MPD2    C5 4389   3.941   3.949   0.537 -0.1131  0.7313 -0.1780
  291MPD2     H 4390   3.686   3.821   0.286  1.9748 -1.0030 -0.8996
  291MPD2    H1 4391   3.998   4.080   0.368  0.5876  0.1528  0.4766
  291MPD2    H2 4392   3.875   3.810   0.672 -1.2347  0.1400  0.7147
  291MPD2    H3 4393   4.008   3.977   0.617  1.6327 -0.3156 -1.2653
  291MPD2     N 4394   3.857   4.008   0.193 -1.2424 -0.2670  0.4895
  291MPD2    H5 4395   3.920   4.088   0.190 -1.6473  0.1311  2.5631
  291MPD2    N1 4396   3.665   3.705   0.518  0.2597 -0.3576 -0.2123
  291MPD2    H7 4397   3.594   3.687   0.448  0.6297 -1.5360 -0.2689
  292TMC3    C1 4398   3.536   3.543   0.640  0.1562 -0.6721 -0.2846
  292TMC3    C2 4399   3.528   3.468   0.757 -0.7643 -0.2394 -0.3648
  292TMC3    C3 4400   3.420   3.389   0.769 -0.4142  0.3462 -0.2585
  292TMC3    C4 4401   3.441   3.550   0.542 -0.0986  0.3913 -0.0129
  292TMC3    C5 4402   3.329   3.476   0.562 -0.7154  1.1641 -0.1356
  292TMC3    C6 4403   3.311   3.399   0.680  0.0298  0.3948 -0.3028
  292TMC3     C 4404   3.650   3.638   0.641  0.2479 -0.3907  0.0826
  292TMC3     O 4405   3.729   3.646   0.737 -0.3195 -0.0692 -0.2270
  292TMC3     H 4406   3.619   3.474   0.816 -1.3893  2.0964  0.3938
  292TMC3    H1 4407   3.456   3.617   0.459  0.3107 -0.7654 -0.8638
  292TMC3    H2 4408   3.224   3.335   0.689  0.3681  0.0202  0.2347
  292TMC3    C7 4409   3.249   3.439   0.450  0.3340  0.2561 -0.0573
  292TMC3    C8 4410   3.420   3.302   0.881 -0.2446  0.4405  0.2089
  292TMC3    O1 4411   3.281   3.473   0.338 -0.2445  0.0473  0.1565
  292TMC3    O2 4412   3.529   3.255   0.914 -0.3625 -0.2639  0.1278
  293MPD2     C 4413   0.733   0.804  12.546 -0.2485  0.0665  0.8019
  293MPD2    C1 4414   0.668   0.710  12.620  0.2550 -0.0353  0.5808
  293MPD2    C2 4415   0.688   0.700  12.756  0.1851 -0.3292  0.4962
  293MPD2    C3 4416   0.770   0.790  12.818  0.3155  0.2214  0.1901
  293MPD2    C4 4417   0.828   0.895  12.743 -0.2545 -1.0108 -0.3602
  293MPD2    C5 4418   0.820   0.887  12.607  0.6389 -0.8215 -0.5125
  293MPD2     H 4419   0.631   0.629  12.815 -0.9588  0.5532  0.4467
  293MPD2    H1 4420   0.892   0.973  12.781 -0.0582 -2.3027  1.9808
  293MPD2    H2 4421   0.741   0.801  12.438  1.0659  0.9584  0.8685
  293MPD2    H3 4422   0.873   0.955  12.541  0.4990  0.6488  0.8899
  293MPD2     N 4423   0.803   0.789  12.956  1.2381 -0.4218  0.0599
  293MPD2    H5 4424   0.860   0.860  13.001  0.6343 -1.5137  2.5150
  293MPD2    N1 4425   0.595   0.627  12.534 -0.5872  0.0262 -0.9520
  293MPD2    H7 4426   0.613   0.642  12.435 -1.5001  0.0496 -1.1156
  294TMC3    C1 4427   0.441   0.460  12.469 -0.1222  0.4203 -1.1688
  294TMC3    C2 4428   0.310   0.439  12.480  0.1118 -0.3237 -0.1445
  294TMC3    C3 4429   0.247   0.372  12.380  0.1672  0.1751 -0.4031
  294TMC3    C4 4430   0.516   0.423  12.356 -0.4319 -0.7938 -0.3781
  294TMC3    C5 4431   0.441   0.368  12.248 -0.0563 -0.0061 -0.2368
  294TMC3    C6 4432   0.306   0.342  12.259 -0.6631  0.5618 -0.7303
  294TMC3     C 4433   0.506   0.535  12.574  0.0500  0.4912 -0.0862
  294TMC3     O 4434   0.463   0.525  12.687 -0.5871  0.4200 -0.5708
  294TMC3     H 4435   0.253   0.471  12.566 -0.6057  0.4690 -0.9202
  294TMC3    H1 4436   0.623   0.442  12.350 -0.2841 -1.4987  0.0133
  294TMC3    H2 4437   0.252   0.299  12.175 -1.3606 -0.0796  0.0488
  294TMC3    C7 4438   0.518   0.315  12.135  0.2428  0.2131  0.0093
  294TMC3    C8 4439   0.097   0.350  12.397 -0.4115  0.1962 -0.4268
  294TMC3    O1 4440   0.637   0.341  12.121 -0.2725 -0.4008  0.1401
  294TMC3    O2 4441   0.044   0.398  12.497  0.1583  0.5814 -0.1010
  295MPD2     C 4442   0.992   4.009  17.541 -0.6096  0.2213 -0.4456
  295MPD2    C1 4443   1.065   4.059  17.647 -0.2226 -0.2171 -0.6444
  295MPD2    C2 4444   0.994   4.107   0.063  0.0441 -0.1990 -0.6002
  295MPD2    C3 4445   0.854   4.104   0.067 -0.0228  0.1385  0.3345
  295MPD2    C4 4446   0.793   4.038  17.658 -0.8809 -0.2493  0.3528
  295MPD2    C5 4447   0.858   3.987  17.548  0.0607  0.0385  0.0057
  295MPD2     H 4448   1.046   4.145   0.150  0.9693 -2.9514  0.0610
  295MPD2    H1 4449   0.687   4.014  17.660 -1.1684  0.9590 -0.9690
  295MPD2    H2 4450   1.040   3.961  17.456 -1.0205  0.9970 -1.1145
  295MPD2    H3 4451   0.805   3.936  17.469  2.3522 -1.8019 -0.3429
  295MPD2     N 4452   0.775   4.152   0.176  0.0166  0.4309 -0.1457
  295MPD2    H5 4453   0.678   4.121   0.178 -0.0477  0.6032 -0.6814
  295MPD2    N1 4454   1.208   4.073  17.640 -0.6960  0.3526  0.7370
  295MPD2    H7 4455   1.242   4.130   0.024 -0.0139  1.4174 -0.3576
  296TMC3    C1 4456   0.737   4.227   0.396  0.5506 -0.6161  0.6214
  296TMC3    C2 4457   0.788   4.311   0.491  0.5006 -0.5757  0.2846
  296TMC3    C3 4458   0.749   4.293   0.625 -0.0563 -0.4153 -0.8193
  296TMC3    C4 4459   0.660   4.119   0.435 -0.3720  0.4383  0.1576
  296TMC3    C5 4460   0.625   4.103   0.569 -0.4612  0.3644 -0.9518
  296TMC3    C6 4461   0.676   4.186   0.670 -0.2841  0.2210 -0.1069
  296TMC3     C 4462   0.826   4.225   0.276  0.7284 -0.4193  0.4909
  296TMC3     O 4463   0.935   4.279   0.286 -0.0024  0.0861  0.2428
  296TMC3     H 4464   0.846   4.398   0.463 -1.9898  1.0724  0.2348
  296TMC3    H1 4465   0.614   4.048   0.367 -0.5795  3.0791 -2.4216
  296TMC3    H2 4466   0.626   4.190   0.766  0.5093  1.6384  0.2411
  296TMC3    C7 4467   0.534   3.998   0.611 -0.6122  0.3128 -0.3816
  296TMC3    C8 4468   0.826   4.360   0.731 -0.4652  0.1630 -0.0268
  296TMC3    O1 4469   0.486   3.935   0.519 -0.1373 -0.0046  0.7902
  296TMC3    O2 4470   0.854   4.477   0.711  0.4234 -0.2430 -0.3073
  297MPD2     C 4471   3.108   1.326  16.134 -0.7398  0.7835  0.1077
  297MPD2    C1 4472   3.152   1.406  16.034  0.4747 -0.3950 -0.7106
  297MPD2    C2 4473   3.251   1.497  16.057  0.5554  0.0349 -0.9905
  297MPD2    C3 4474   3.298   1.520  16.185 -0.4384 -0.6199 -0.0695
  297MPD2    C4 4475   3.254   1.438  16.285 -0.3469 -0.2999  0.0355
  297MPD2    C5 4476   3.152   1.343  16.260 -0.3212  0.1957 -0.3099
  297MPD2     H 4477   3.280   1.574  15.986 -0.5665 -0.1113 -1.6124
  297MPD2    H1 4478   3.283   1.448  16.389 -0.6053 -1.3909  0.2208
  297MPD2    H2 4479   3.029   1.253  16.119  0.2922 -0.5390  1.1473
  297MPD2    H3 4480   3.110   1.294  16.347 -2.2395  0.3978 -1.1236
  297MPD2     N 4481   3.388   1.631  16.206 -0.4671 -0.0691 -0.1737
  297MPD2    H5 4482   3.422   1.683  16.125  0.3685  0.4426  0.4894
  297MPD2    N1 4483   3.091   1.409  15.908  0.1698 -0.2402 -0.4486
  297MPD2    H7 4484   3.142   1.462  15.838  0.9465 -0.8931 -0.3761
  298TMC3    C1 4485   2.927   1.398  15.746 -0.0262  0.1046  0.8484
  298TMC3    C2 4486   3.020   1.431  15.648 -0.6860 -0.1094  0.4510
  298TMC3    C3 4487   2.969   1.476  15.526 -0.4491  0.2495 -0.9423
  298TMC3    C4 4488   2.795   1.384  15.716  0.5487 -0.5607 -0.0993
  298TMC3    C5 4489   2.752   1.431  15.593  0.1208 -0.1578 -0.0228
  298TMC3    C6 4490   2.842   1.471  15.493 -0.2634 -0.0099  0.4473
  298TMC3     C 4491   2.972   1.353  15.873  1.1028 -1.7395  0.0670
  298TMC3     O 4492   2.883   1.305  15.943 -0.4668  0.4530 -0.0866
  298TMC3     H 4493   3.126   1.441  15.666 -0.1135 -1.9425 -2.0199
  298TMC3    H1 4494   2.725   1.345  15.789  1.1567  1.5542  1.5725
  298TMC3    H2 4495   2.793   1.518  15.408 -0.0540 -1.2455 -0.3592
  298TMC3    C7 4496   2.608   1.454  15.557 -1.5937 -0.0216 -0.2117
  298TMC3    C8 4497   3.057   1.492  15.410  0.0797  0.2549 -0.5310
  298TMC3    O1 4498   2.591   1.463  15.437 -0.3183  0.0388  0.6020
  298TMC3    O2 4499   3.177   1.495  15.438 -0.2108  0.3137  0.2810
  299MPD2     C 4500   3.522   0.955  10.548 -0.2711  0.2336  0.3312
  299MPD2    C1 4501   3.599   1.042  10.464 -0.0477 -0.6201  0.4497
  299MPD2    C2 4502   3.540   1.099  10.348 -0.0723  0.3642 -0.5170
  299MPD2    C3 4503   3.405   1.084  10.331 -0.1776 -0.5272  0.4907
  299MPD2    C4 4504   3.328   1.023  10.422 -0.9150 -0.3981  0.2917
  299MPD2    C5 4505   3.390   0.952  10.521  0.1906  0.2673 -0.1761
  299MPD2     H 4506   3.603   1.145  10.273 -2.3420  1.0438 -1.9998
  299MPD2    H1 4507   3.220   1.022  10.412 -0.8457  0.1162 -0.4389
  299MPD2    H2 4508   3.564   0.905  10.634  1.5513  0.1827 -0.5894
  299MPD2    H3 4509   3.330   0.886  10.582  0.7667  0.7173  0.8713
  299MPD2     N 4510   3.340   1.150  10.229 -0.9588  0.1487 -1.1258
  299MPD2    H5 4511   3.240   1.137  10.233 -0.9743  0.9807  1.4801
  299MPD2    N1 4512   3.739   1.060  10.500 -0.3354 -0.2112  0.4714
  299MPD2    H7 4513   3.777   1.001  10.572 -3.4783 -0.4549  1.9257
  300TMC3    C1 4514   3.300   1.205  10.011  0.4688 -0.7626 -0.2767
  300TMC3    C2 4515   3.326   1.263   9.885  0.2600  0.0201 -0.1490
  300TMC3    C3 4516   3.219   1.284   9.798 -0.2714 -0.5465 -0.1240
  300TMC3    C4 4517   3.175   1.146  10.031  0.4008 -0.0320 -0.1870
  300TMC3    C5 4518   3.078   1.159   9.937 -0.4785 -0.0385  0.3822
  300TMC3    C6 4519   3.100   1.225   9.819  0.3758 -0.1993  0.6270
  300TMC3     C 4520   3.395   1.195  10.114  0.6339  0.1520 -0.2143
  300TMC3     O 4521   3.509   1.215  10.082 -0.7409 -0.6911 -0.3416
  300TMC3     H 4522   3.422   1.313   9.878  0.3776 -0.3821 -1.4494
  300TMC3    H1 4523   3.150   1.083  10.115  0.1612 -0.3560 -0.4988
  300TMC3    H2 4524   3.019   1.228   9.746  0.7279 -3.8447  0.0724
  300TMC3    C7 4525   2.939   1.131   9.967  0.2385 -0.2227 -0.1804
  300TMC3    C8 4526   3.220   1.421   9.765 -0.4059 -0.2618  0.4799
  300TMC3    O1 4527   2.867   1.098   9.873 -0.1225  0.0944 -0.1193
  300TMC3    O2 4528   3.325   1.484   9.756 -0.1450  0.8800  0.0799
  301MPD2     C 4529   1.164   2.302   1.440  0.0277  0.1615  0.5640
  301MPD2    C1 4530   1.088   2.287   1.323 -0.2201 -0.3344 -0.3796
  301MPD2    C2 4531   1.106   2.178   1.240  0.2582  0.6808 -0.1422
  301MPD2    C3 4532   1.201   2.082   1.269  0.2177  0.0352 -0.3848
  301MPD2    C4 4533   1.275   2.097   1.382  0.0716 -0.0326 -0.3218
  301MPD2    C5 4534   1.256   2.207   1.464  0.6934 -0.1346  0.1633
  301MPD2     H 4535   1.042   2.171   1.152 -0.6151 -3.2407  0.7968
  301MPD2    H1 4536   1.350   2.030   1.423 -0.1574 -0.7135 -0.9979
  301MPD2    H2 4537   1.156   2.382   1.512 -3.5569 -0.0308  0.3685
  301MPD2    H3 4538   1.315   2.213   1.556 -2.2888  1.4238  1.9628
  301MPD2     N 4539   1.228   1.975   1.183 -0.5084 -0.3829 -0.5256
  301MPD2    H5 4540   1.306   1.919   1.215 -1.5025 -0.9426  0.9271
  301MPD2    N1 4541   0.984   2.389   1.280 -0.4674 -0.7789  0.0369
  301MPD2    H7 4542   0.918   2.367   1.206  0.6364 -0.7638 -0.9484
  302TMC3    C1 4543   1.193   1.818   0.997  0.1941  0.1929 -0.0673
  302TMC3    C2 4544   1.289   1.732   1.040  0.4564  0.3600  0.4644
  302TMC3    C3 4545   1.342   1.647   0.951  0.3061 -0.2961 -0.4191
  302TMC3    C4 4546   1.139   1.806   0.868 -0.1918  0.1376 -0.2932
  302TMC3    C5 4547   1.189   1.712   0.786  0.4249  0.3748 -0.8556
  302TMC3    C6 4548   1.295   1.638   0.823 -0.5040 -0.2411  0.3448
  302TMC3     C 4549   1.152   1.936   1.075  0.1714 -0.6730  0.2965
  302TMC3     O 4550   1.054   1.994   1.023 -0.4345  0.0439  0.2579
  302TMC3     H 4551   1.323   1.732   1.143  1.4411  0.6355  0.1418
  302TMC3    H1 4552   1.081   1.883   0.819 -1.5080 -2.2101 -2.4839
  302TMC3    H2 4553   1.347   1.574   0.753  1.5528 -0.5584  2.1597
  302TMC3    C7 4554   1.098   1.650   0.689  0.2862  0.1817 -0.8551
  302TMC3    C8 4555   1.460   1.560   0.987  0.4531 -0.3827 -0.9656
  302TMC3    O1 4556   1.143   1.550   0.629  0.0337  0.2253 -0.0350
  302TMC3    O2 4557   1.516   1.500   0.898 -0.1086  0.2746  0.2116
  303MPD2     C 4558   1.024   0.452  10.292 -0.4000 -0.2188  0.6429
  303MPD2    C1 4559   0.953   0.362  10.217 -0.4249 -0.3675  0.6090
  303MPD2    C2 4560   0.840   0.397  10.152  0.1318  0.0098  0.7947
  303MPD2    C3 4561   0.795   0.532  10.159  0.6976  0.1998 -0.2609
  303MPD2    C4 4562   0.873   0.627  10.225  0.1987 -0.0007 -0.6770
  303MPD2    C5 4563   0.982   0.584  10.300 -0.3459 -0.0588 -0.0298
  303MPD2     H 4564   0.785   0.324  10.092  2.0166  0.8080 -1.9258
  303MPD2    H1 4565   0.831   0.727  10.226  2.1286  0.8029  0.6530
  303MPD2    H2 4566   1.108   0.419  10.350  0.2000  0.5033  0.1949
  303MPD2    H3 4567   1.036   0.654  10.363 -0.1317  0.7699 -1.1295
  303MPD2     N 4568   0.683   0.573  10.078  0.9052 -0.6146 -0.1817
  303MPD2    H5 4569   0.678   0.672  10.056 -2.9162 -0.9666 -0.9798
  303MPD2    N1 4570   1.002   0.231  10.204  0.1666 -0.2489  0.3536
  303MPD2    H7 4571   1.069   0.209  10.278  1.0510  1.5593  0.1092
  304TMC3    C1 4572   1.030   0.011  10.131  0.0313 -0.1084  1.0655
  304TMC3    C2 4573   0.985   4.668  10.242  0.1087 -0.0967 -0.1678
  304TMC3    C3 4574   0.994   4.530  10.244  0.8201  0.0470  0.4307
  304TMC3    C4 4575   1.066   4.671  10.021 -0.1105  0.4835 -0.1488
  304TMC3    C5 4576   1.087   4.535  10.024 -0.0977  0.1601 -0.1295
  304TMC3    C6 4577   1.057   4.464  10.136  0.6280 -0.3235  0.0512
  304TMC3     C 4578   0.977   0.144  10.104 -0.5905  0.8083 -0.5168
  304TMC3     O 4579   0.908   0.164  10.005  0.4493 -0.0906  0.8409
  304TMC3     H 4580   0.920   4.717  10.313 -1.0353 -2.6290  0.5400
  304TMC3    H1 4581   1.094   0.006   9.933  0.0227 -0.2522 -0.5803
  304TMC3    H2 4582   1.079   4.357  10.136  0.4495 -0.3616 -0.2908
  304TMC3    C7 4583   1.046   4.460   9.911 -0.2010 -0.4288 -0.0770
  304TMC3    C8 4584   0.861   4.470  10.285 -0.2609  0.2178 -0.1439
  304TMC3    O1 4585   0.967   4.368   9.939  0.5902  0.3963  0.3084
  304TMC3    O2 4586   0.802   4.501  10.385  0.0547 -0.3606  0.0883
  305MPD2     C 4587   3.944   2.991  13.791  0.7115  0.3666  0.0196
  305MPD2    C1 4588   3.919   2.859  13.824  0.2632 -0.8323  0.4715
  305MPD2    C2 4589   3.910   2.761  13.726 -0.0074  0.5242 -0.2738
  305MPD2    C3 4590   3.933   2.805  13.595 -0.7121  0.2833 -1.0283
  305MPD2    C4 4591   3.936   2.940  13.567 -0.8103  0.1606  0.0994
  305MPD2    C5 4592   3.939   3.034  13.663 -0.7018 -0.3418  0.0364
  305MPD2     H 4593   3.889   2.657  13.749 -2.6706  0.6315 -2.0939
  305MPD2    H1 4594   3.929   2.964  13.461  0.4501 -1.8794 -0.4283
  305MPD2    H2 4595   3.949   3.068  13.868  0.3587  0.0786  0.3307
  305MPD2    H3 4596   3.940   3.138  13.636 -3.6077 -0.4427 -0.4643
  305MPD2     N 4597   3.960   2.713  13.486 -0.4645  0.0999 -0.5592
  305MPD2    H5 4598   3.992   2.750  13.398 -1.3788  1.0456 -0.4959
  305MPD2    N1 4599   3.923   2.822  13.963  0.1348 -0.5017  0.4900
  305MPD2    H7 4600   3.904   2.897  14.029  0.2636 -0.3181  0.3187
  306TMC3    C1 4601   3.903   2.686  14.151 -0.5384 -0.3666 -0.1442
  306TMC3    C2 4602   3.920   2.556  14.202  0.4069 -0.6784  0.6171
  306TMC3    C3 4603   3.878   2.532  14.332 -1.1640 -0.6715  0.4786
  306TMC3    C4 4604   3.859   2.787  14.224  0.1765  0.6231  0.2586
  306TMC3    C5 4605   3.821   2.762  14.352  0.0325 -0.2767  0.3793
  306TMC3    C6 4606   3.838   2.637  14.408 -0.0791  0.0995 -0.3802
  306TMC3     C 4607   3.937   2.690  14.008 -0.3650 -0.6609  0.0876
  306TMC3     O 4608   3.971   2.584  13.954 -0.0664  0.5913  0.2726
  306TMC3     H 4609   3.969   2.476  14.147 -1.9049 -0.8088 -1.2551
  306TMC3    H1 4610   3.864   2.893  14.202 -1.5375  0.3777 -1.3322
  306TMC3    H2 4611   3.813   2.621  14.513 -0.7763 -2.4874 -0.9478
  306TMC3    C7 4612   3.805   2.870  14.450 -0.0003  1.1714 -0.1303
  306TMC3    C8 4613   3.948   2.423  14.394 -0.1193  0.0048  0.1488
  306TMC3    O1 4614   3.760   2.973  14.402  0.4933 -0.2615 -0.4750
  306TMC3    O2 4615   4.025   2.357  14.326  0.6301  0.5563 -0.0030
  307MPD2     C 4616   1.687   4.620   0.581 -0.1299  0.0172  0.0567
  307MPD2    C1 4617   1.692   0.031   0.591 -0.4323  0.1233 -1.0060
  307MPD2    C2 4618   1.604   0.094   0.678 -0.2075 -0.3525 -0.2959
  307MPD2    C3 4619   1.505   0.025   0.752  0.4598  0.0884  0.7589
  307MPD2    C4 4620   1.498   4.609   0.736  0.4160 -0.4005  0.5737
  307MPD2    C5 4621   1.590   4.549   0.648  0.0308  0.5230 -0.4420
  307MPD2     H 4622   1.607   0.202   0.686 -2.9119 -0.3503  0.8710
  307MPD2    H1 4623   1.430   4.548   0.794  1.1794  1.3022  3.2444
  307MPD2    H2 4624   1.765   4.562   0.533 -0.4089 -1.1752  1.0510
  307MPD2    H3 4625   1.583   4.444   0.622  0.6313  0.4365 -0.2506
  307MPD2     N 4626   1.406   0.109   0.809 -0.4832  0.0589 -0.2890
  307MPD2    H5 4627   1.421   0.209   0.797  0.6704 -0.5011 -3.5906
  307MPD2    N1 4628   1.785   0.109   0.517  0.0418 -0.1141  0.2359
  307MPD2    H7 4629   1.783   0.210   0.523  0.2715 -0.1182  0.4005
  308TMC3    C1 4630   1.062   0.292   0.768  0.1963 -0.1368 -0.8442
  308TMC3    C2 4631   1.128   0.413   0.795  0.0872  0.5380 -0.6299
  308TMC3    C3 4632   1.233   0.412   0.877  0.4576 -0.1855 -0.3775
  308TMC3    C4 4633   1.104   0.176   0.818  0.5899 -0.0406 -0.5834
  308TMC3    C5 4634   1.213   0.173   0.899  0.3370  0.8074 -0.0116
  308TMC3    C6 4635   1.271   0.293   0.935  0.1062 -0.4350  0.0794
  308TMC3     C 4636   0.938   0.295   0.688 -0.5297 -0.2567  0.5544
  308TMC3     O 4637   0.871   0.194   0.706 -0.4486  0.7825 -0.5442
  308TMC3     H 4638   1.080   0.507   0.767  3.0153  1.9642 -0.8227
  308TMC3    H1 4639   1.061   0.081   0.786  1.3638 -0.5205 -0.2006
  308TMC3    H2 4640   1.349   0.284   1.009 -1.0137 -0.1043  1.2932
  308TMC3    C7 4641   1.298   0.062   0.875 -0.3413 -0.2696 -0.1655
  308TMC3    C8 4642   1.277   0.539   0.931  1.1576 -0.3586 -0.2577
  308TMC3    O1 4643   1.259   4.671   0.902 -0.0918  0.3960  0.4940
  308TMC3    O2 4644   1.301   0.554   1.050 -0.0694 -0.1981  0.3423
  309MPD2     C 4645   0.700   0.988  16.871 -0.7355 -0.1545 -0.6307
  309MPD2    C1 4646   0.673   1.081  16.778  1.6071 -0.1711  0.4346
  309MPD2    C2 4647   0.576   1.175  16.808 -0.0147 -0.5856  0.0238
  309MPD2    C3 4648   0.509   1.171  16.930 -0.0619  0.2437  0.2409
  309MPD2    C4 4649   0.536   1.075  17.020 -0.1711 -0.1068 -0.3943
  309MPD2    C5 4650   0.635   0.984  16.988 -0.0414  0.9889 -0.2555
  309MPD2     H 4651   0.571   1.267  16.752 -1.1808 -0.0705  0.9516
  309MPD2    H1 4652   0.488   1.080  17.117 -0.1747 -0.9565 -0.3484
  309MPD2    H2 4653   0.783   0.923  16.845  0.8972  0.6826  2.6092
  309MPD2    H3 4654   0.658   0.903  17.057 -1.2642  0.0227 -0.9829
  309MPD2     N 4655   0.408   1.266  16.967  0.1175  0.3234 -0.1506
  309MPD2    H5 4656   0.384   1.268  17.065 -0.3876 -1.9918 -0.2345
  309MPD2    N1 4657   0.741   1.091  16.652  1.0201 -0.6510  0.5269
  309MPD2    H7 4658   0.724   1.172  16.593 -0.5963 -3.3496 -2.6905
  310TMC3    C1 4659   0.879   1.047  16.472 -0.1173  0.3204 -0.1326
  310TMC3    C2 4660   0.833   1.162  16.414 -0.3673 -0.1604 -0.2309
  310TMC3    C3 4661   0.887   1.204  16.299  1.0331 -0.1542 -0.1641
  310TMC3    C4 4662   0.995   0.989  16.422  0.1426 -0.4083  0.3129
  310TMC3    C5 4663   1.057   1.044  16.309 -0.6567 -0.2861 -0.2264
  310TMC3    C6 4664   1.004   1.151  16.252  0.3986  0.2482 -0.2817
  310TMC3     C 4665   0.831   1.004  16.604  0.3377  0.0898 -0.4169
  310TMC3     O 4666   0.887   0.909  16.659 -1.0971  0.1507 -0.1796
  310TMC3     H 4667   0.739   1.214  16.435 -1.0790 -1.7264  0.4773
  310TMC3    H1 4668   1.045   0.908  16.475  0.7016 -1.1343 -1.3419
  310TMC3    H2 4669   1.044   1.203  16.167  2.4710  0.2696  0.7227
  310TMC3    C7 4670   1.172   0.977  16.264  0.6880 -0.0929  0.3490
  310TMC3    C8 4671   0.858   1.322  16.231  0.4264  0.9575  0.5605
  310TMC3    O1 4672   1.234   0.911  16.343 -0.2154  0.6884 -0.1050
  310TMC3    O2 4673   0.869   1.318  16.110 -0.5128  0.2331  0.4120
  311MPD2     C 4674   2.935   2.164  12.732  0.0310  0.4881  0.2707
  311MPD2    C1 4675   2.946   2.303  12.762  0.5148 -0.1567 -0.0382
  311MPD2    C2 4676   2.833   2.373  12.796 -0.6205  0.1462  0.5256
  311MPD2    C3 4677   2.711   2.307  12.810 -0.1284  0.5070 -0.0608
  311MPD2    C4 4678   2.694   2.171  12.785 -0.6883 -0.2911 -0.0984
  311MPD2    C5 4679   2.813   2.112  12.739 -0.0747  0.1880  0.1421
  311MPD2     H 4680   2.843   2.479  12.818  2.2043 -0.4047  1.8967
  311MPD2    H1 4681   2.593   2.130  12.786 -1.3191  1.2305 -0.8389
  311MPD2    H2 4682   3.014   2.094  12.706 -2.2498 -1.9277 -0.1415
  311MPD2    H3 4683   2.812   2.005  12.719 -2.3251  0.0182  1.1436
  311MPD2     N 4684   2.600   2.394  12.831  0.5371  0.1845  0.2978
  311MPD2    H5 4685   2.625   2.491  12.844 -0.2071  0.5526 -0.9587
  311MPD2    N1 4686   3.068   2.375  12.758  0.7881 -0.4105 -0.9105
  311MPD2    H7 4687   3.064   2.474  12.781 -0.3241 -0.9838  1.3326
  312TMC3    C1 4688   2.387   2.483  12.847  0.7837 -0.6657  0.6252
  312TMC3    C2 4689   2.256   2.463  12.799 -0.4307 -0.1691  0.0494
  312TMC3    C3 4690   2.168   2.563  12.825  1.1482 -0.4110 -0.1421
  312TMC3    C4 4691   2.432   2.586  12.927  0.1762  0.3086 -0.8181
  312TMC3    C5 4692   2.334   2.677  12.958 -0.3335  0.6318  0.7946
  312TMC3    C6 4693   2.202   2.670  12.904 -0.4003 -0.1932 -0.3903
  312TMC3     C 4694   2.469   2.365  12.820  0.4011  0.1986  0.1403
  312TMC3     O 4695   2.408   2.257  12.813  0.7272 -0.4836 -0.0261
  312TMC3     H 4696   2.242   2.370  12.745  1.1278 -0.0459 -0.5639
  312TMC3    H1 4697   2.530   2.587  12.974 -0.2452 -0.1316  0.0638
  312TMC3    H2 4698   2.127   2.744  12.926  0.5053  0.9043 -0.9561
  312TMC3    C7 4699   2.361   2.785  13.052  0.6506  0.5618  0.2776
  312TMC3    C8 4700   2.027   2.544  12.779  0.2306 -0.7126  0.0354
  312TMC3    O1 4701   2.297   2.889  13.040 -0.0973  0.0395  0.3148
  312TMC3    O2 4702   1.995   2.435  12.742 -0.1296 -0.2079  0.2804
  313MPD2     C 4703   2.531   1.521  10.619 -0.0695 -0.7253 -0.4067
  313MPD2    C1 4704   2.413   1.575  10.670  0.0894  1.2076 -0.5956
  313MPD2    C2 4705   2.288   1.505  10.658 -0.0535 -0.7591 -0.4554
  313MPD2    C3 4706   2.282   1.384  10.597  0.2449 -1.0600  0.4349
  313MPD2    C4 4707   2.396   1.345  10.531 -0.0874 -0.1571  0.2782
  313MPD2    C5 4708   2.513   1.413  10.544  1.1558 -0.6923  0.2177
  313MPD2     H 4709   2.208   1.568  10.694 -1.7637 -2.5278 -1.2082
  313MPD2    H1 4710   2.408   1.263  10.461 -2.3105 -0.1187 -0.1670
  313MPD2    H2 4711   2.627   1.572  10.620 -1.5695  2.0977  0.2468
  313MPD2    H3 4712   2.593   1.370  10.484  0.7320 -1.4456  0.2037
  313MPD2     N 4713   2.157   1.315  10.575 -0.2294 -0.2609  0.2420
  313MPD2    H5 4714   2.155   1.227  10.525 -1.2502  0.2865 -0.6763
  313MPD2    N1 4715   2.412   1.690  10.746  0.2568  0.0879  0.1072
  313MPD2    H7 4716   2.323   1.733  10.767 -0.4068  0.1675 -2.8142
  314TMC3    C1 4717   2.501   1.872  10.860  0.2630 -0.0960  0.3664
  314TMC3    C2 4718   2.557   1.918  10.975  0.2935  0.4091 -1.3131
  314TMC3    C3 4719   2.520   2.036  11.024 -0.2688 -0.4940 -0.3756
  314TMC3    C4 4720   2.405   1.954  10.800 -0.0259  0.0732  0.7427
  314TMC3    C5 4721   2.370   2.071  10.851  0.1610 -0.1352 -0.3305
  314TMC3    C6 4722   2.421   2.115  10.968 -0.1773  0.3035  0.3504
  314TMC3     C 4723   2.531   1.746  10.798 -0.5591 -0.3968 -0.4011
  314TMC3     O 4724   2.640   1.698  10.813 -0.1610  0.2588  0.2804
  314TMC3     H 4725   2.640   1.859  11.012  1.0691  2.4071  0.1350
  314TMC3    H1 4726   2.360   1.937  10.702  1.0150 -1.7073  0.5643
  314TMC3    H2 4727   2.420   2.220  10.992  0.3608  0.3240  0.2976
  314TMC3    C7 4728   2.309   2.168  10.764  0.1212  0.0800  0.3401
  314TMC3    C8 4729   2.588   2.094  11.138  1.5216 -0.1029 -0.4202
  314TMC3    O1 4730   2.233   2.252  10.814 -0.0279  0.8360 -0.3776
  314TMC3    O2 4731   2.533   2.184  11.196 -0.8515  0.5526  0.0681
  315MPD2     C 4732   2.217   0.876  17.218 -0.4175 -0.1110  0.1644
  315MPD2    C1 4733   2.261   0.950  17.322 -0.3537 -0.9990 -0.1103
  315MPD2    C2 4734   2.269   1.086  17.312 -0.0890  0.6996  0.2669
  315MPD2    C3 4735   2.237   1.152  17.195  0.3326 -0.0284 -0.4891
  315MPD2    C4 4736   2.183   1.084  17.093 -0.4215 -0.7760  0.2601
  315MPD2    C5 4737   2.172   0.946  17.110 -0.1976 -0.6791 -0.3330
  315MPD2     H 4738   2.323   1.132  17.393 -0.8409  0.7551  0.7345
  315MPD2    H1 4739   2.152   1.132  17.000 -0.3302  2.2014  1.7908
  315MPD2    H2 4740   2.204   0.769  17.228  0.6781 -0.2548 -0.0075
  315MPD2    H3 4741   2.127   0.892  17.028 -0.6036  2.0447 -1.8996
  315MPD2     N 4742   2.273   1.290  17.187 -0.0195  0.1613  0.0466
  315MPD2    H5 4743   2.338   1.320  17.258 -0.6317 -0.1020  0.7235
  315MPD2    N1 4744   2.294   0.891  17.445 -0.5257  0.0528 -0.0111
  315MPD2    H7 4745   2.336   0.952  17.515 -2.7590  4.1310 -2.1624
  316TMC3    C1 4746   2.346   1.492  17.088 -0.1774  0.5327  0.5050
  316TMC3    C2 4747   2.368   1.546  17.212  0.2551 -0.0688 -0.4526
  316TMC3    C3 4748   2.444   1.666  17.225  0.3681 -0.0109  0.3024
  316TMC3    C4 4749   2.380   1.557  16.975  0.0761  0.7058  0.1251
  316TMC3    C5 4750   2.465   1.664  16.997  0.2299  0.5333 -0.6237
  316TMC3    C6 4751   2.494   1.726  17.112 -0.3791 -0.2940 -0.1264
  316TMC3     C 4752   2.264   1.368  17.072  0.5182 -0.6086 -0.5562
  316TMC3     O 4753   2.205   1.355  16.971  0.1295  0.5018 -0.2018
  316TMC3     H 4754   2.345   1.490  17.302  4.5283 -0.1195  0.6076
  316TMC3    H1 4755   2.346   1.517  16.880  1.3982  0.4578 -0.2473
  316TMC3    H2 4756   2.546   1.820  17.128  0.4199 -0.6764 -0.5037
  316TMC3    C7 4757   2.526   1.711  16.871  0.0327  0.7827  0.3523
  316TMC3    C8 4758   2.504   1.705  17.355 -0.3035 -0.8776 -0.8481
  316TMC3    O1 4759   2.631   1.764  16.892  0.0631  0.0610 -0.1821
  316TMC3    O2 4760   2.541   1.821  17.373 -0.2777 -0.2007 -0.8037
  317MPD2     C 4761   3.997   4.116  12.842 -0.7948 -0.6487  1.1192
  317MPD2    C1 4762   4.130   4.141  12.812  0.1661 -0.2055  0.0669
  317MPD2    C2 4763   4.228   4.125  12.910  0.0051  0.0315 -0.0741
  317MPD2    C3 4764   4.192   4.070  13.034 -0.2199  0.1524  0.0542
  317MPD2    C4 4765   4.058   4.057  13.064  0.1009  0.0935  0.2770
  317MPD2    C5 4766   3.963   4.084  12.969  0.0122 -0.3913 -0.6636
  317MPD2     H 4767   4.331   4.143  12.884  1.1727 -0.3288  4.2270
  317MPD2    H1 4768   4.027   4.024  13.163 -0.5225 -1.0892 -0.3111
  317MPD2    H2 4769   3.922   4.101  12.765  0.1056 -0.3845  0.1863
  317MPD2    H3 4770   3.858   4.063  12.985 -0.5273  1.5595 -1.6026
  317MPD2     N 4771   4.287   4.017  13.127  0.6272 -0.1341 -0.1314
  317MPD2    H5 4772   4.246   3.972  13.208  0.8272 -1.5036 -0.8016
  317MPD2    N1 4773   4.178   4.158  12.681 -0.1555 -0.5256  0.5202
  317MPD2    H7 4774   4.279   4.150  12.688 -0.0589  0.4162  0.1568
  318TMC3    C1 4775   4.494   3.941  13.212  0.0880 -0.1680  0.7917
  318TMC3    C2 4776   4.440   3.817  13.240  0.3142 -0.1997 -0.7785
  318TMC3    C3 4777   4.500   3.738  13.344  0.1544  0.2696  0.0239
  318TMC3    C4 4778   4.602   3.991  13.281  0.1375 -0.6042 -0.3060
  318TMC3    C5 4779   4.647   3.918  13.391  0.5406  0.1758  0.4251
  318TMC3    C6 4780   4.599   3.793  13.424 -0.1166 -1.0859  0.4513
  318TMC3     C 4781   4.425   4.037  13.122 -0.8557 -0.1512  0.1591
  318TMC3     O 4782   4.495   4.115  13.061 -0.4149 -0.0456 -0.4131
  318TMC3     H 4783   4.360   3.782  13.176  0.6754 -3.4641  0.5568
  318TMC3    H1 4784   4.653   4.079  13.244 -0.5080 -0.6792 -1.3784
  318TMC3    H2 4785   4.634   3.731  13.506  1.6724  0.2810  0.7171
  318TMC3    C7 4786   0.056   3.955  13.434  0.6273  0.3427  0.2482
  318TMC3    C8 4787   4.433   3.614  13.385 -0.4725 -0.7531 -0.0975
  318TMC3    O1 4788   0.100   4.057  13.384  0.0520 -0.3310  0.4878
  318TMC3    O2 4789   4.467   3.557  13.488 -0.0578 -0.3120 -0.1453
  319MPD2     C 4790   1.022   0.720  16.143  0.1462  0.4439  0.8052
  319MPD2    C1 4791   0.971   0.685  16.266 -0.1553 -0.0425  0.0012
  319MPD2    C2 4792   0.832   0.693  16.291 -0.4340  0.4954 -0.0956
  319MPD2    C3 4793   0.748   0.726  16.189  0.5420 -0.7691  0.4382
  319MPD2    C4 4794   0.800   0.777  16.075 -0.2712  0.0385  0.4149
  319MPD2    C5 4795   0.938   0.767  16.049 -0.6215 -0.2146 -0.3505
  319MPD2     H 4796   0.791   0.663  16.387  0.2468  2.6653  0.8796
  319MPD2    H1 4797   0.733   0.819  16.001  0.1898 -0.0309 -0.0415
  319MPD2    H2 4798   1.128   0.722  16.119 -0.2861 -0.5296 -1.2152
  319MPD2    H3 4799   0.975   0.811  15.957 -0.1740 -2.2809 -1.1584
  319MPD2     N 4800   0.609   0.726  16.199  0.6742  0.4318 -0.7039
  319MPD2    H5 4801   0.563   0.737  16.109  0.2660 -1.3521 -0.7174
  319MPD2    N1 4802   1.045   0.640  16.375  0.3941  0.1354 -0.0120
  319MPD2    H7 4803   0.998   0.636  16.465  3.1374 -1.2104  1.3602
  320TMC3    C1 4804   0.386   0.678  16.275 -0.0406 -0.3000 -0.6483
  320TMC3    C2 4805   0.340   0.760  16.175  0.0886 -0.2512  0.0867
  320TMC3    C3 4806   0.207   0.746  16.144  0.2102  0.1647  0.5526
  320TMC3    C4 4807   0.301   0.597  16.342  0.1718 -0.3007  0.1731
  320TMC3    C5 4808   0.172   0.584  16.299  0.2658  0.5443 -0.0706
  320TMC3    C6 4809   0.122   0.661  16.201 -0.0089 -0.1890 -0.0356
  320TMC3     C 4810   0.531   0.675  16.302 -0.6415  0.2437  0.5193
  320TMC3     O 4811   0.576   0.615  16.399 -0.0610 -0.1322  0.0194
  320TMC3     H 4812   0.406   0.837  16.137 -0.8206 -0.5463 -2.0540
  320TMC3    H1 4813   0.342   0.533  16.420 -1.8205 -1.8323 -0.0541
  320TMC3    H2 4814   0.015   0.654  16.186  0.1473 -0.9278 -0.7803
  320TMC3    C7 4815   0.116   0.453  16.302 -0.6067 -0.2926 -0.4820
  320TMC3    C8 4816   0.157   0.854  16.062 -0.1642  0.4650 -0.1699
  320TMC3    O1 4817   0.050   0.417  16.205 -0.2336  0.0872 -0.0128
  320TMC3    O2 4818   0.200   0.968  16.076  0.0228  0.3994  0.1799
  321TMC3    C1 4819   1.241   0.645  16.493 -0.4995  0.0034 -0.4394
  321TMC3    C2 4820   1.173   0.708  16.591 -0.0004 -0.5249 -0.2618
  321TMC3    C3 4821   1.246   0.767  16.693  0.0233 -0.4803  0.6191
  321TMC3    C4 4822   1.378   0.630  16.485  0.5024 -0.9308  0.1077
  321TMC3    C5 4823   1.443   0.683  16.593 -0.2490 -0.4093 -0.1117
  321TMC3    C6 4824   1.381   0.758  16.692 -0.1196 -0.2077  0.4479
  321TMC3     C 4825   1.174   0.615  16.373 -0.1914 -0.0498  0.6878
  321TMC3     O 4826   1.241   0.574  16.280  0.1823 -0.4179  0.4153
  321TMC3     H 4827   1.066   0.720  16.600  0.3879  1.2691  1.9188
  321TMC3    H1 4828   1.425   0.563  16.414  2.2890  0.3239  0.1157
  321TMC3    H2 4829   1.431   0.811  16.773 -1.2624 -2.7465  2.8286
  321TMC3    C7 4830   1.560   0.610  16.635  0.5906  0.3826 -0.5479
  321TMC3    C8 4831   1.213   0.726  16.822  0.1467 -0.2905  0.1925
  321TMC3    O1 4832   1.638   0.553  16.557  0.2047  0.2042 -0.6190
  321TMC3    O2 4833   1.310   0.691  16.884 -0.2394  0.1495 -0.4237
  322MPD2     C 4834   3.937   1.981  13.378 -0.3763  0.6915  0.7420
  322MPD2    C1 4835   3.983   1.889  13.473  1.0655  0.4323  0.6842
  322MPD2    C2 4836   4.040   1.775  13.421  0.1261  0.9708 -0.1906
  322MPD2    C3 4837   4.045   1.759  13.285 -1.3758 -0.7845 -0.0987
  322MPD2    C4 4838   3.988   1.848  13.196 -1.0316 -0.2360 -0.1601
  322MPD2    C5 4839   3.943   1.965  13.245 -0.4629 -0.0469 -0.0899
  322MPD2     H 4840   4.082   1.704  13.491 -0.5229  0.6753 -0.1059
  322MPD2    H1 4841   3.977   1.840  13.088 -1.6232  0.9657 -0.1905
  322MPD2    H2 4842   3.901   2.076  13.416 -0.1767  0.0914  2.4436
  322MPD2    H3 4843   3.926   2.048  13.177 -0.6062 -0.4673 -0.5613
  322MPD2     N 4844   4.098   1.633  13.238 -0.2127 -0.8455  0.1414
  322MPD2    H5 4845   4.129   1.568  13.308  2.0187  1.6651  1.5008
  322MPD2    N1 4846   4.000   1.937  13.608  0.8067  0.0492 -0.4575
  322MPD2    H7 4847   3.952   2.024  13.627  1.9135  0.4784  0.3986
  323TMC3    C1 4848   4.031   1.940  13.840  0.2526  0.6243 -0.7371
  323TMC3    C2 4849   4.038   2.077  13.839 -0.3252 -0.3979 -0.4395
  323TMC3    C3 4850   4.075   2.136  13.961 -0.0519  0.8771  0.4770
  323TMC3    C4 4851   4.047   1.868  13.955  0.0724 -0.3513  0.0844
  323TMC3    C5 4852   4.076   1.932  14.075  0.6075 -0.4198  0.5197
  323TMC3    C6 4853   4.091   2.067  14.081  0.7488  0.1412  0.5884
  323TMC3     C 4854   4.037   1.867  13.714 -0.1796 -0.2714  0.2531
  323TMC3     O 4855   4.064   1.748  13.711  0.1781 -0.7138  0.2236
  323TMC3     H 4856   4.034   2.129  13.744  0.0516  0.7439  0.1721
  323TMC3    H1 4857   4.032   1.760  13.961  3.3620 -0.7786  0.6012
  323TMC3    H2 4858   4.120   2.108  14.178 -1.0230 -0.8409  1.5286
  323TMC3    C7 4859   4.130   1.847  14.180 -0.9502 -0.6029 -0.7615
  323TMC3    C8 4860   4.130   2.267  13.958 -0.0050  0.7516  1.0986
  323TMC3    O1 4861   4.174   1.738  14.143 -0.2934  0.7992 -0.0673
  323TMC3    O2 4862   4.137   2.325  13.853  0.5876  0.2191  0.1407
  324MPD2     C 4863   0.808   3.077  14.291  0.1862  0.3065 -1.0973
  324MPD2    C1 4864   0.787   3.193  14.363  0.7779 -0.0090  0.1374
  324MPD2    C2 4865   0.651   3.234  14.365  0.2997  0.0380 -0.5693
  324MPD2    C3 4866   0.552   3.148  14.314  0.0974 -0.1519  0.2161
  324MPD2    C4 4867   0.589   3.032  14.248 -0.8196  0.2096 -0.3459
  324MPD2    C5 4868   0.714   2.996  14.236  0.0036 -0.0245 -0.6877
  324MPD2     H 4869   0.624   3.325  14.417  1.0993 -0.7921  1.2810
  324MPD2    H1 4870   0.522   2.959  14.205  0.4263  0.0563 -2.0647
  324MPD2    H2 4871   0.904   3.034  14.267 -0.0952 -0.1255 -1.4348
  324MPD2    H3 4872   0.740   2.905  14.183  1.8813 -0.5003  1.0396
  324MPD2     N 4873   0.410   3.174  14.335  0.2015 -0.1909 -0.9391
  324MPD2    H5 4874   0.342   3.105  14.305  1.9399 -2.5190  0.5814
  324MPD2    N1 4875   0.882   3.278  14.418 -0.4541  0.2294  0.7681
  324MPD2    H7 4876   0.847   3.365  14.458  0.2348  0.4129  0.9854
  325TMC3    C1 4877   0.213   3.287  14.422  0.1781  0.1277  0.1289
  325TMC3    C2 4878   0.139   3.177  14.375 -0.0343  0.0452 -0.1215
  325TMC3    C3 4879   4.719   3.168  14.395  0.5420  0.2076  0.8210
  325TMC3    C4 4880   0.150   3.393  14.486  0.5066  0.2466 -1.3589
  325TMC3    C5 4881   0.012   3.378  14.493 -0.2528 -0.3389  0.7993
  325TMC3    C6 4882   4.656   3.267  14.459  0.1418  0.0532  0.2978
  325TMC3     C 4883   0.361   3.282  14.414  0.2051 -0.3253 -0.2280
  325TMC3     O 4884   0.419   3.376  14.465  0.8785  0.0625  0.7251
  325TMC3     H 4885   0.189   3.085  14.346 -0.4312 -0.0285 -0.5895
  325TMC3    H1 4886   0.205   3.471  14.537  1.4061 -2.2024  1.3742
  325TMC3    H2 4887   4.550   3.264  14.478  0.2274 -0.6812  0.6845
  325TMC3    C7 4888   4.675   3.497  14.537 -0.3888  0.1410 -0.1765
  325TMC3    C8 4889   4.641   3.083  14.307 -0.2373  0.5425 -0.4717
  325TMC3    O1 4890   4.572   3.499  14.604 -0.2207 -0.0084 -0.6015
  325TMC3    O2 4891   4.710   3.030  14.222  0.6769  0.0253 -0.0099
  326MPD2     C 4892   2.323   3.956  11.245  0.8371 -0.0113  0.4506
  326MPD2    C1 4893   2.284   4.018  11.128  0.1557 -0.5096  0.1657
  326MPD2    C2 4894   2.360   4.125  11.092 -0.1140 -0.5473  0.4264
  326MPD2    C3 4895   2.479   4.167  11.155 -0.8505  0.1018 -0.1829
  326MPD2    C4 4896   2.520   4.092  11.262 -0.2688 -0.4919  0.0767
  326MPD2    C5 4897   2.435   3.992  11.310  0.3035  0.0963  0.1718
  326MPD2     H 4898   2.323   4.178  11.005 -2.3482  1.0713  2.3519
  326MPD2    H1 4899   2.607   4.115  11.323 -0.7130  3.9248 -0.9623
  326MPD2    H2 4900   2.260   3.874  11.279  0.6676 -0.7680 -1.6855
  326MPD2    H3 4901   2.466   3.933  11.395 -2.4256  1.2775  1.9827
  326MPD2     N 4902   2.552   4.277  11.101  0.7550 -0.0286  0.4146
  326MPD2    H5 4903   2.634   4.309  11.152  1.8195  0.1577 -1.4268
  326MPD2    N1 4904   2.171   3.980  11.048 -0.0035  0.0497 -0.1503
  326MPD2    H7 4905   2.142   4.054  10.986  0.3143 -0.3297 -0.7530
  327TMC3    C1 4906   2.019   3.848  10.953  0.1116 -0.0224 -0.0177
  327TMC3    C2 4907   1.895   3.910  10.940 -0.4398 -0.4091 -0.2970
  327TMC3    C3 4908   1.846   3.947  10.817  0.1013 -0.1497  1.2855
  327TMC3    C4 4909   2.097   3.836  10.843 -0.3500 -0.4961 -0.2976
  327TMC3    C5 4910   2.042   3.873  10.718  0.6689  0.0737  0.2077
  327TMC3    C6 4911   1.920   3.925  10.701  0.0854  0.2202 -0.0648
  327TMC3     C 4912   2.092   3.869  11.073  0.6098  0.2750  1.0610
  327TMC3     O 4913   2.128   3.770  11.136 -0.3866  0.2321 -0.3350
  327TMC3     H 4914   1.845   3.946  11.029 -1.4133 -0.1062 -0.9646
  327TMC3    H1 4915   2.196   3.795  10.856 -0.0389  0.4133  0.2000
  327TMC3    H2 4916   1.891   3.951  10.600  0.6236  0.6307 -0.1150
  327TMC3    C7 4917   2.135   3.906  10.623  0.0865 -0.7256 -0.1125
  327TMC3    C8 4918   1.724   4.023  10.797  0.0978 -0.0679 -0.2236
  327TMC3    O1 4919   2.097   3.943  10.510 -0.1813 -0.3445 -0.3661
  327TMC3    O2 4920   1.729   4.090  10.694  0.2515  0.5335  0.4748
  328MPD2     C 4921   0.106   3.970  17.164  0.2304 -0.4135  0.0758
  328MPD2    C1 4922   0.010   3.968  17.063  0.2719 -0.0544 -0.5471
  328MPD2    C2 4923   4.682   4.087  17.009 -0.0571 -0.0481  0.2012
  328MPD2    C3 4924   4.710   4.210  17.065 -0.1145 -0.8775 -0.8634
  328MPD2    C4 4925   0.083   4.215  17.170  0.5071 -0.2343 -0.4684
  328MPD2    C5 4926   0.141   4.095  17.210  0.0974 -0.0496 -0.5965
  328MPD2     H 4927   4.608   4.078  16.930  1.0585 -0.8709 -0.7377
  328MPD2    H1 4928   0.126   4.308  17.206  2.0183 -1.2205  0.2942
  328MPD2    H2 4929   0.153   3.879  17.199  0.9464  0.2392  0.7985
  328MPD2    H3 4930   0.193   4.097  17.305  1.2150 -1.4438 -1.1762
  328MPD2     N 4931   4.660   4.336  17.023  0.3308  0.0588  0.2377
  328MPD2    H5 4932   4.684   4.416  17.081  1.4530 -0.2685  0.2296
  328MPD2    N1 4933   4.692   3.845  17.015 -0.3334 -0.2872 -0.5790
  328MPD2    H7 4934   4.720   3.765  17.071 -1.3588  0.1882  0.6145
  329TMC3    C1 4935   4.585   3.683  16.882 -0.1788 -0.0639  0.6039
  329TMC3    C2 4936   4.455   3.663  16.846  0.5013 -0.1904  0.2298
  329TMC3    C3 4937   4.406   3.538  16.854 -0.2760 -0.5431 -0.3004
  329TMC3    C4 4938   4.662   3.584  16.934  0.3195  0.0872  0.4454
  329TMC3    C5 4939   4.600   3.462  16.955 -0.4812 -0.2006  0.3037
  329TMC3    C6 4940   4.479   3.436  16.898  0.0162 -0.1173 -0.1772
  329TMC3     C 4941   4.602   3.824  16.913 -0.1065  0.1841 -0.1875
  329TMC3     O 4942   4.563   3.899  16.828  0.3381 -0.1282  0.0707
  329TMC3     H 4943   4.397   3.749  16.817  0.8853  0.1066  0.3537
  329TMC3    H1 4944   0.041   3.605  16.965  0.2811 -0.1403  0.7292
  329TMC3    H2 4945   4.435   3.338  16.907  0.3068 -0.2947 -0.7203
  329TMC3    C7 4946   4.671   3.348  17.008 -0.0008  0.2171  0.7248
  329TMC3    C8 4947   4.266   3.540  16.883 -0.3724  0.9624 -0.6745
  329TMC3    O1 4948   4.628   3.235  16.984 -0.2632 -0.2065 -0.0756
  329TMC3    O2 4949   4.189   3.458  16.828  0.4146  0.7887  0.3418
  330TMC3    C1 4950   2.409   2.911  10.086 -1.2442  0.0416 -0.7707
  330TMC3    C2 4951   2.376   2.845   9.971  0.8117  0.0471 -0.4621
  330TMC3    C3 4952   2.332   2.714   9.978  0.4879  0.3429 -0.3930
  330TMC3    C4 4953   2.413   2.840  10.205  0.0068 -0.0159 -0.0057
  330TMC3    C5 4954   2.381   2.710  10.208 -0.4673  0.2506 -0.4260
  330TMC3    C6 4955   2.333   2.645  10.092 -0.7564  0.8197  0.1833
  330TMC3     C 4956   2.456   3.050  10.094  0.2754  1.3235  0.2724
  330TMC3     O 4957   2.499   3.088  10.206 -0.1560 -0.2544 -0.4016
  330TMC3     H 4958   2.377   2.910   9.884 -0.8689 -0.2785 -0.7269
  330TMC3    H1 4959   2.464   2.877  10.293 -1.9895  0.6474  0.8684
  330TMC3    H2 4960   2.324   2.537  10.097 -0.3807  0.7425 -0.8530
  330TMC3    C7 4961   2.450   2.637  10.315 -0.2212 -0.2048  0.0645
  330TMC3    C8 4962   2.272   2.666   9.852 -0.0232 -0.4825 -0.0287
  330TMC3    O1 4963   2.430   2.685  10.425 -0.8424  0.3765  0.0693
  330TMC3    O2 4964   2.255   2.750   9.764 -0.4935  0.7075  0.0050
  331MPD2     C 4965   4.538   2.514  12.648  0.8238 -0.3217  0.2666
  331MPD2    C1 4966   4.675   2.505  12.661 -0.1525 -0.6467  0.2175
  331MPD2    C2 4967   0.021   2.396  12.621 -0.9294  0.4792  0.5595
  331MPD2    C3 4968   4.675   2.287  12.562  0.4401 -0.8245  0.5942
  331MPD2    C4 4969   4.541   2.297  12.548  0.5921 -0.3657  0.2162
  331MPD2    C5 4970   4.475   2.406  12.586  0.3830 -0.2698  0.5233
  331MPD2     H 4971   0.128   2.400  12.611 -1.1977  1.5551 -1.8884
  331MPD2    H1 4972   4.481   2.224  12.495  0.7560 -1.6133  1.7589
  331MPD2    H2 4973   4.478   2.596  12.684 -0.5395 -0.3836 -1.9058
  331MPD2    H3 4974   4.368   2.412  12.574  0.1640 -2.3233  1.4302
  331MPD2     N 4975   0.031   2.197  12.501 -0.2562  0.0925 -0.7494
  331MPD2    H5 4976   0.125   2.190  12.539 -0.9503  0.6776  1.0940
  331MPD2    N1 4977   0.017   2.626  12.699  0.1693 -0.3511  0.2372
  331MPD2    H7 4978   4.690   2.713  12.720  1.0976  0.0394  0.8009
  332TMC3    C1 4979   0.108   2.047  12.363 -0.3535 -1.4241  0.2450
  332TMC3    C2 4980   0.169   2.090  12.243  0.1748  0.5520 -0.0972
  332TMC3    C3 4981   0.300   2.118  12.243  0.0849 -0.0183  0.3878
  332TMC3    C4 4982   0.190   2.023  12.471  0.6658 -0.1617  0.0140
  332TMC3    C5 4983   0.322   2.054  12.468 -0.0592 -0.2668 -0.4042
  332TMC3    C6 4984   0.380   2.107  12.354  0.1919  0.3443 -0.1198
  332TMC3     C 4985   4.715   2.118  12.395 -0.1866 -0.2514  0.8487
  332TMC3     O 4986   4.630   2.152  12.310  0.1480 -0.1148  1.0529
  332TMC3     H 4987   0.104   2.117  12.161 -0.4142 -2.4080 -0.6152
  332TMC3    H1 4988   0.147   1.994  12.566  1.4603  1.6719  0.9306
  332TMC3    H2 4989   0.486   2.127  12.343  0.9329 -2.4288  1.9831
  332TMC3    C7 4990   0.375   2.120  12.585  0.3039 -0.2159 -0.4039
  332TMC3    C8 4991   0.368   2.188  12.131  0.2061 -0.1580 -0.1423
  332TMC3    O1 4992   0.288   2.182  12.639  0.2046  0.1186 -0.7717
  332TMC3    O2 4993   0.477   2.239  12.154  0.1285  0.1239 -0.1743
  333MPD2     C 4994   0.333   2.386  10.820  0.1164 -0.4377 -0.1521
  333MPD2    C1 4995   0.456   2.348  10.871 -0.9005 -0.0106  0.8286
  333MPD2    C2 4996   0.475   2.226  10.943 -0.5234  0.1163 -0.0751
  333MPD2    C3 4997   0.360   2.151  10.980 -0.1833 -0.3842  0.6143
  333MPD2    C4 4998   0.237   2.181  10.929 -0.4131  0.2830 -0.6193
  333MPD2    C5 4999   0.231   2.296  10.854  0.8950  0.0989 -0.2354
  333MPD2     H 5000   0.569   2.193  10.986 -1.2345 -1.8165 -0.0157
  333MPD2    H1 5001   0.144   2.138  10.964 -0.1293  0.1658 -0.0081
  333MPD2    H2 5002   0.315   2.478  10.766  0.6325 -0.4484 -0.3468
  333MPD2    H3 5003   0.134   2.336  10.828 -0.2065 -1.1339  1.9813
  333MPD2     N 5004   0.376   2.044  11.073  0.4381 -0.8348  0.1150
  333MPD2    H5 5005   0.467   2.038  11.118  0.5710  0.3867  0.0183
  333MPD2    N1 5006   0.566   2.443  10.848  0.1769  0.4420 -0.0869
  333MPD2    H7 5007   0.547   2.525  10.792  1.1744  0.5035 -0.3447
  334TMC3    C1 5008   0.802   2.501  10.815  0.3643  0.2323 -0.7096
  334TMC3    C2 5009   0.914   2.451  10.749  0.1854 -0.0664 -0.2334
  334TMC3    C3 5010   1.005   2.545  10.707 -0.4348  0.5783 -1.0962
  334TMC3    C4 5011   0.772   2.632  10.826  0.4779 -0.1223  0.0697
  334TMC3    C5 5012   0.866   2.719  10.780  0.5028  0.2112  0.3943
  334TMC3    C6 5013   0.989   2.680  10.730 -0.4196 -0.0162 -0.7204
  334TMC3     C 5014   0.702   2.409  10.860 -0.0893 -0.2184  0.0094
  334TMC3     O 5015   0.741   2.294  10.880  0.1110  0.1074 -0.3052
  334TMC3     H 5016   0.921   2.345  10.729  1.2009  0.2569 -1.6164
  334TMC3    H1 5017   0.692   2.669  10.889  0.0444 -0.0488 -0.5233
  334TMC3    H2 5018   1.048   2.759  10.684 -0.8446  1.9404  2.0978
  334TMC3    C7 5019   0.831   2.860  10.767 -0.2837  0.0914  0.1415
  334TMC3    C8 5020   1.125   2.483  10.654 -0.2863 -0.0385  0.4395
  334TMC3    O1 5021   0.924   2.941  10.749 -0.3784  0.3437 -0.1242
  334TMC3    O2 5022   1.106   2.377  10.596 -0.2887  0.9425 -0.2741
  335TMC3    C1 5023   0.654   4.164  17.265 -0.6852  0.2259  1.2475
  335TMC3    C2 5024   0.595   4.142  17.151  0.0703 -0.1129  0.6965
  335TMC3    C3 5025   0.678   4.110  17.051 -0.1294  0.3963  0.3474
  335TMC3    C4 5026   0.789   4.177  17.277 -0.3072 -0.4071 -0.3782
  335TMC3    C5 5027   0.874   4.155  17.175 -0.1242 -0.5133  0.7032
  335TMC3    C6 5028   0.821   4.117  17.055 -0.2051 -0.7777 -0.1098
  335TMC3     C 5029   0.563   4.211  17.377 -0.0361 -0.3055  0.6648
  335TMC3     O 5030   0.454   4.155  17.383  0.4472  0.4937  0.6619
  335TMC3     H 5031   0.488   4.123  17.152 -0.0758  0.6871  0.2908
  335TMC3    H1 5032   0.832   4.196  17.375 -2.6150  2.3243  0.0835
  335TMC3    H2 5033   0.884   4.083  16.974 -0.0340 -0.3001 -0.1772
  335TMC3    C7 5034   1.012   4.156  17.190 -0.1795  0.4816 -0.4359
  335TMC3    C8 5035   0.627   3.994  16.977  0.1533 -0.5036  0.2266
  335TMC3    O1 5036   1.076   4.085  17.113 -0.2673 -0.0975  0.3346
  335TMC3    O2 5037   0.702   3.905  16.944 -0.1910 -0.8385  0.7959
  336MPD2     C 5038   0.239   2.033  16.233  0.2341 -0.2390  0.3059
  336MPD2    C1 5039   0.232   1.966  16.112 -0.2770 -0.2221  0.5818
  336MPD2    C2 5040   0.269   1.832  16.112  0.7810 -0.3532  0.0685
  336MPD2    C3 5041   0.323   1.772  16.229  0.4350 -1.3135 -0.0195
  336MPD2    C4 5042   0.326   1.838  16.351  0.1784 -0.3339 -0.1661
  336MPD2    C5 5043   0.284   1.972  16.356  0.5964 -0.2789 -0.1270
  336MPD2     H 5044   0.257   1.781  16.017  1.8005  1.5780 -1.0861
  336MPD2    H1 5045   0.361   1.797  16.446  2.2033 -0.3471 -0.9242
  336MPD2    H2 5046   0.237   2.140  16.251 -2.7867 -0.1935 -0.2011
  336MPD2    H3 5047   0.292   2.026  16.450 -1.1507 -1.5304  0.7369
  336MPD2     N 5048   0.356   1.630  16.225 -0.0795 -0.0889 -0.6395
  336MPD2    H5 5049   0.385   1.598  16.316 -0.5102  1.4706  0.0434
  336MPD2    N1 5050   0.180   2.015  15.989  0.1586  0.1870  0.6190
  336MPD2    H7 5051   0.169   1.957  15.906 -0.7567  0.1671  0.7589
  337TMC3    C1 5052   0.097   2.158  15.837 -0.1737  0.4219 -0.1886
  337TMC3    C2 5053   4.686   2.161  15.853 -0.1601 -0.3317 -0.0531
  337TMC3    C3 5054   4.608   2.164  15.740  0.5273  0.0322 -0.2874
  337TMC3    C4 5055   0.156   2.157  15.714  0.4631 -0.3955 -0.1525
  337TMC3    C5 5056   0.069   2.145  15.609  0.2128  0.3138  0.2218
  337TMC3    C6 5057   4.653   2.148  15.615  0.0671 -0.1423  0.5478
  337TMC3     C 5058   0.163   2.147  15.962 -0.5930  0.5728  0.5134
  337TMC3     O 5059   0.177   2.245  16.029 -0.0117  0.0507 -0.1013
  337TMC3     H 5060   4.640   2.172  15.951  0.6350 -0.7856  0.3792
  337TMC3    H1 5061   0.263   2.146  15.703  0.1734 -1.8709 -1.5593
  337TMC3    H2 5062   4.590   2.153  15.526  0.9137 -0.6052 -0.0759
  337TMC3    C7 5063   0.127   2.081  15.494 -0.2060  0.0953  0.1329
  337TMC3    C8 5064   4.461   2.157  15.764 -0.9907 -0.4241  0.4649
  337TMC3    O1 5065   0.230   2.023  15.514 -0.2005  0.4623 -0.3571
  337TMC3    O2 5066   4.432   2.180  15.878 -0.1327  0.4559  0.2136
  338MPD2     C 5067   0.721   1.262   0.735  0.0267  0.0451 -0.1201
  338MPD2    C1 5068   0.653   1.267   0.613  0.5805 -0.3912 -0.0576
  338MPD2    C2 5069   0.531   1.338   0.602  0.0652  0.4155  1.2109
  338MPD2    C3 5070   0.480   1.389   0.720 -0.8581 -0.0008  0.0113
  338MPD2    C4 5071   0.540   1.376   0.840  0.5199  0.2867 -0.4289
  338MPD2    C5 5072   0.663   1.312   0.845  0.2991 -0.0497 -0.8147
  338MPD2     H 5073   0.470   1.340   0.513 -0.4788  0.7472  1.5868
  338MPD2    H1 5074   0.505   1.403   0.939 -0.1999 -0.6027 -0.4348
  338MPD2    H2 5075   0.818   1.212   0.738  0.1926  0.3771  0.0767
  338MPD2    H3 5076   0.709   1.313   0.943 -0.7545  0.6916 -0.3308
  338MPD2     N 5077   0.351   1.463   0.716  0.0771  1.1234  0.6036
  338MPD2    H5 5078   0.311   1.480   0.625  0.9188 -0.7922 -0.1212
  338MPD2    N1 5079   0.727   1.204   0.503  0.4845 -0.0625 -0.0885
  338MPD2    H7 5080   0.812   1.151   0.518  0.7212 -0.5801 -3.2190
  339TMC3    C1 5081   0.151   1.575   0.799 -0.4850 -1.3383 -0.5735
  339TMC3    C2 5082   0.077   1.600   0.912  0.3710 -0.5147 -0.2319
  339TMC3    C3 5083   4.692   1.682   0.889  0.7104  0.1925 -0.0949
  339TMC3    C4 5084   0.120   1.617   0.673 -0.6908 -0.3652 -0.9770
  339TMC3    C5 5085   0.003   1.686   0.654 -0.4828 -1.2074  0.4736
  339TMC3    C6 5086   4.661   1.739   0.769 -0.3531 -0.7976  0.7463
  339TMC3     C 5087   0.282   1.507   0.824 -0.1091 -0.5608  0.6439
  339TMC3     O 5088   0.309   1.481   0.938  0.3010  0.3337  0.1789
  339TMC3     H 5089   0.121   1.584   1.009 -1.9257 -1.1713  0.6919
  339TMC3    H1 5090   0.190   1.615   0.590  0.6213  0.8674  0.1100
  339TMC3    H2 5091   4.573   1.803   0.761 -0.8895 -1.3242  2.4754
  339TMC3    C7 5092   4.714   1.759   0.531 -0.9824  0.0025 -0.1423
  339TMC3    C8 5093   4.613   1.716   0.999 -0.7529 -0.6356  0.1160
  339TMC3    O1 5094   4.693   1.878   0.528  0.6939 -0.6508 -0.4637
  339TMC3    O2 5095   4.560   1.826   1.006  0.2159 -0.4481 -0.2793
  340MPD2     C 5096   0.322   3.237  10.085  0.6102 -0.0289  0.1238
  340MPD2    C1 5097   0.426   3.282  10.007 -0.0932 -0.6020 -0.2301
  340MPD2    C2 5098   0.529   3.353  10.065  0.5952 -0.1918 -0.8466
  340MPD2    C3 5099   0.526   3.380  10.199 -0.5028  0.3658  0.0199
  340MPD2    C4 5100   0.424   3.339  10.274  0.3820 -0.5992  0.4308
  340MPD2    C5 5101   0.323   3.265  10.220  0.5730 -0.7171  0.2796
  340MPD2     H 5102   0.618   3.378  10.009  1.4890 -0.1013  0.5957
  340MPD2    H1 5103   0.419   3.359  10.380  2.1809 -2.7560  0.9258
  340MPD2    H2 5104   0.239   3.181  10.044  1.2840 -1.3700  0.5827
  340MPD2    H3 5105   0.254   3.211  10.283  0.3946 -1.0143 -0.1708
  340MPD2     N 5106   0.627   3.451  10.271 -0.2058  0.0903  0.5111
  340MPD2    H5 5107   0.626   3.441  10.372  2.3435 -2.7010  0.2416
  340MPD2    N1 5108   0.423   3.243   9.870 -0.6298  0.8106  0.2154
  340MPD2    H7 5109   0.336   3.196   9.847  0.0546 -1.7392  2.7056
  341TMC3    C1 5110   0.526   3.139   9.678  0.5137 -0.4913 -0.3266
  341TMC3    C2 5111   0.399   3.124   9.621  0.5124  0.2102  0.0567
  341TMC3    C3 5112   0.400   3.063   9.499  0.8838 -0.2370  0.4723
  341TMC3    C4 5113   0.646   3.096   9.621 -0.2677  0.2465 -0.3226
  341TMC3    C5 5114   0.635   3.034   9.500 -0.0448 -0.1956 -0.9544
  341TMC3    C6 5115   0.517   3.019   9.437 -0.4784  0.0968  0.4565
  341TMC3     C 5116   0.540   3.224   9.793 -0.2276 -0.4753  0.0392
  341TMC3     O 5117   0.651   3.279   9.796  0.6160 -0.1239  0.2582
  341TMC3     H 5118   0.304   3.167   9.649  1.0306  0.7513  0.9873
  341TMC3    H1 5119   0.737   3.097   9.680 -0.1747 -1.0395 -0.4389
  341TMC3    H2 5120   0.499   2.984   9.336 -0.2536 -0.0375  0.4637
  341TMC3    C7 5121   0.735   2.943   9.469 -0.3459  0.7212  0.5218
  341TMC3    C8 5122   0.276   3.015   9.454  0.1832  0.9204 -0.3995
  341TMC3    O1 5123   0.804   2.898   9.558 -0.0826  0.0521 -0.7866
  341TMC3    O2 5124   0.185   3.013   9.540  0.3545  0.4967  0.1182
  342MPD2     C 5125   3.141   2.183  17.600 -0.2126  0.2993 -0.5879
  342MPD2    C1 5126   3.195   2.238  17.486 -0.3804 -0.8292 -0.2463
  342MPD2    C2 5127   3.184   2.377  17.462 -0.1051 -0.9020  0.1014
  342MPD2    C3 5128   3.118   2.457  17.548  0.3445  0.4373 -0.5839
  342MPD2    C4 5129   3.057   2.395  17.656 -0.4759  0.2818 -0.1684
  342MPD2    C5 5130   3.065   2.265  17.682 -0.8774  0.2356 -0.1213
  342MPD2     H 5131   3.225   2.411  17.367 -1.4953 -1.3318 -0.6543
  342MPD2    H1 5132   2.995   2.442   0.039 -0.5472 -1.2598  0.7241
  342MPD2    H2 5133   3.139   2.080  17.633 -0.2088  0.5882  0.3317
  342MPD2    H3 5134   3.017   2.225   0.078 -2.6254  0.1894 -1.1001
  342MPD2     N 5135   3.108   2.597  17.540  0.4815 -0.5589 -0.1277
  342MPD2    H5 5136   3.052   2.642  17.612 -2.5026 -2.3506 -1.3069
  342MPD2    N1 5137   3.246   2.152  17.384 -0.1763  0.2240 -0.2317
  342MPD2    H7 5138   3.271   2.197  17.297  0.2139 -1.7113 -1.1151
  343TMC3    C1 5139   3.291   1.960  17.266  0.3174  1.0653  0.1239
  343TMC3    C2 5140   3.403   2.008  17.206 -0.9028  0.1449  0.3193
  343TMC3    C3 5141   3.474   1.923  17.117  0.8978  0.3601 -0.1358
  343TMC3    C4 5142   3.236   1.840  17.235  0.4329 -0.9632  0.7119
  343TMC3    C5 5143   3.303   1.764  17.144 -0.4077  0.0886  0.2149
  343TMC3    C6 5144   3.428   1.796  17.098 -0.7309 -0.1209 -0.2341
  343TMC3     C 5145   3.254   2.014  17.397  0.0165 -0.4562 -0.0551
  343TMC3     O 5146   3.213   1.932  17.478  0.5919 -0.1819  0.2083
  343TMC3     H 5147   3.453   2.092  17.252  0.8251 -0.4631 -0.4478
  343TMC3    H1 5148   3.136   1.818  17.270 -0.4770  0.0406 -1.2880
  343TMC3    H2 5149   3.466   1.722  17.029 -1.2211  0.7279 -1.4365
  343TMC3    C7 5150   3.261   1.623  17.137  0.2813 -0.9233 -0.1673
  343TMC3    C8 5151   3.608   1.954  17.090  0.0046  0.2585  0.3531
  343TMC3    O1 5152   3.302   1.555  17.044 -0.1558 -0.0511  0.1027
  343TMC3    O2 5153   3.658   2.052  17.144 -0.6622 -0.0403  0.9757
  344MPD2     C 5154   4.643   1.261  10.378  0.2643 -0.7915 -0.7632
  344MPD2    C1 5155   4.520   1.308  10.343  0.7368  0.3408 -0.1377
  344MPD2    C2 5156   4.506   1.434  10.269  0.3012 -0.4952 -0.4250
  344MPD2    C3 5157   4.617   1.496  10.218  0.1358 -0.1874 -0.3796
  344MPD2    C4 5158   0.019   1.444  10.249 -0.3017  0.1282 -0.9303
  344MPD2    C5 5159   0.028   1.332  10.323  0.5540 -0.4450  0.0049
  344MPD2     H 5160   4.410   1.477  10.244  0.1869 -0.4222  0.1420
  344MPD2    H1 5161   0.109   1.486  10.206 -1.2204  3.4879  0.3871
  344MPD2    H2 5162   4.661   1.187  10.456  0.7077  0.4981  0.3617
  344MPD2    H3 5163   0.132   1.315  10.352  0.9855  0.9572 -0.7203
  344MPD2     N 5164   4.619   1.617  10.155  0.6723 -0.5629 -0.1207
  344MPD2    H5 5165   4.704   1.673  10.154  2.1405 -2.7960 -0.0333
  344MPD2    N1 5166   4.413   1.240  10.400  0.4008  1.4651  0.4674
  344MPD2    H7 5167   4.438   1.172  10.471 -0.0072 -2.3296 -3.0412
  345TMC3    C1 5168   4.527   1.808  10.044  0.0084  0.0917  0.9231
  345TMC3    C2 5169   4.654   1.856  10.020 -0.1688  0.4599  0.4257
  345TMC3    C3 5170   4.664   1.978   9.953  0.6973  0.3219 -0.4120
  345TMC3    C4 5171   4.412   1.874   9.996  0.4174 -0.6430 -0.1014
  345TMC3    C5 5172   4.428   1.991   9.934 -0.9551  0.2929  0.1748
  345TMC3    C6 5173   4.550   2.045   9.913 -0.3255  0.7118  0.2886
  345TMC3     C 5174   4.506   1.683  10.109  0.1792  0.2585  0.3132
  345TMC3     O 5175   4.392   1.649  10.110  0.2134 -0.2909 -0.0225
  345TMC3     H 5176   0.018   1.800  10.051  0.4501  1.9620  1.4390
  345TMC3    H1 5177   4.311   1.841  10.021 -0.6840  2.8124 -0.0836
  345TMC3    H2 5178   4.566   2.133   9.852  0.4147 -0.1500 -0.7513
  345TMC3    C7 5179   4.326   2.088   9.935  1.0477 -0.1155 -0.0374
  345TMC3    C8 5180   0.049   2.073  10.002  0.3571  0.0260  0.5841
  345TMC3    O1 5181   4.363   2.202   9.964 -0.0837  0.3855 -0.4388
  345TMC3    O2 5182   0.016   2.191   9.996 -0.6602  0.2691  0.0182
  346MPD2     C 5183   4.125   3.200  14.355  0.6749  0.4736  0.1612
  346MPD2    C1 5184   4.217   3.290  14.312  0.0069  0.8618  0.3966
  346MPD2    C2 5185   4.277   3.375  14.402  0.3531  0.1187 -0.1176
  346MPD2    C3 5186   4.233   3.379  14.536  0.2899 -0.0570  0.2704
  346MPD2    C4 5187   4.127   3.295  14.569 -0.9334 -0.6903 -0.3370
  346MPD2    C5 5188   4.074   3.212  14.479 -0.6474  0.0391 -0.3197
  346MPD2     H 5189   4.357   3.445  14.378  1.8762 -1.2710  0.9279
  346MPD2    H1 5190   4.089   3.290  14.671  1.1176  0.1440  0.4716
  346MPD2    H2 5191   4.095   3.113  14.298 -0.0107  0.9663 -0.2254
  346MPD2    H3 5192   3.993   3.150  14.516  0.9579 -2.7258 -1.4232
  346MPD2     N 5193   4.292   3.464  14.631 -0.2143 -0.2200 -0.1439
  346MPD2    H5 5194   4.372   3.516  14.596 -0.5655 -0.4733 -1.3230
  346MPD2    N1 5195   4.256   3.283  14.183  0.1805 -0.0071  0.5818
  346MPD2    H7 5196   4.332   3.344  14.155  0.4054 -0.2763  0.6030
  347TMC3    C1 5197   4.343   3.570  14.832  0.0672 -0.0176 -0.2771
  347TMC3    C2 5198   4.371   3.693  14.768  0.3460 -0.1876  0.1079
  347TMC3    C3 5199   4.437   3.789  14.842  0.6781 -0.1260 -0.2278
  347TMC3    C4 5200   4.383   3.549  14.964 -0.9093  0.6276  0.5571
  347TMC3    C5 5201   4.447   3.648  15.032  0.0485 -0.3537  0.2298
  347TMC3    C6 5202   4.463   3.777  14.975  0.0279 -0.1766 -0.1052
  347TMC3     C 5203   4.273   3.463  14.766 -0.3042 -0.0494 -0.3927
  347TMC3     O 5204   4.195   3.407  14.839 -0.2937 -0.0117 -0.2759
  347TMC3     H 5205   4.325   3.728  14.676  1.6114 -2.2887 -1.3035
  347TMC3    H1 5206   4.367   3.452  15.011 -2.2362  1.2011  1.2692
  347TMC3    H2 5207   4.492   3.865  15.031  1.0597 -0.5552 -0.0420
  347TMC3    C7 5208   4.466   3.622  15.173  0.0759 -0.1353  0.2541
  347TMC3    C8 5209   4.422   3.930  14.794 -0.4364 -0.1674  0.1104
  347TMC3    O1 5210   4.402   3.533  15.224 -0.3492 -0.1388 -0.5638
  347TMC3    O2 5211   4.369   4.004  14.874  0.2529  0.1287 -0.0548
  348MPD2     C 5212   2.987   3.199  12.316  0.4285  0.5670 -0.3989
  348MPD2    C1 5213   3.037   3.142  12.196  0.6343  0.3925  0.7233
  348MPD2    C2 5214   2.975   3.184  12.076  0.8977  0.0247 -0.2646
  348MPD2    C3 5215   2.870   3.276  12.077  0.0712  0.0421 -0.6931
  348MPD2    C4 5216   2.827   3.328  12.192 -0.3636 -0.1150 -0.1421
  348MPD2    C5 5217   2.893   3.296  12.311 -0.1767  0.0069  0.1441
  348MPD2     H 5218   3.007   3.132  11.987  4.5293 -0.0400  1.0821
  348MPD2    H1 5219   2.750   3.404  12.200 -1.0063 -0.9274  1.5209
  348MPD2    H2 5220   3.038   3.190  12.412  0.5843  2.1667 -0.3223
  348MPD2    H3 5221   2.860   3.348  12.400  3.2071  1.9047  0.2893
  348MPD2     N 5222   2.812   3.315  11.951  0.4296 -0.3651  0.5516
  348MPD2    H5 5223   2.859   3.279  11.868  0.1107  2.0385 -0.6824
  348MPD2    N1 5224   3.143   3.053  12.190 -0.1882 -0.3495 -0.2583
  348MPD2    H7 5225   3.177   3.035  12.096  1.1762 -1.3867  0.4380
  349TMC3    C1 5226   3.305   2.905  12.263 -0.5944 -0.2088 -0.6505
  349TMC3    C2 5227   3.297   2.780  12.307  0.6400 -0.3532  0.6353
  349TMC3    C3 5228   3.339   2.685  12.217  0.4987  0.2548  0.4860
  349TMC3    C4 5229   3.364   2.939  12.146 -0.4553 -0.2464  1.0750
  349TMC3    C5 5230   3.373   2.837  12.050  0.0065 -0.2251  0.5502
  349TMC3    C6 5231   3.357   2.705  12.085 -0.0085  0.3335 -0.1342
  349TMC3     C 5232   3.203   3.005  12.302  0.3228 -0.2816  0.1472
  349TMC3     O 5233   3.183   3.018  12.423  0.0652 -0.2322 -0.4585
  349TMC3     H 5234   3.254   2.752  12.402 -0.4118 -1.8026 -0.2587
  349TMC3    H1 5235   3.387   3.039  12.113  0.8443 -0.6881  0.6551
  349TMC3    H2 5236   3.373   2.631  12.007  2.6530  0.9329 -0.1349
  349TMC3    C7 5237   3.288   2.861  11.935 -0.1871 -0.0141  0.4522
  349TMC3    C8 5238   3.346   2.554  12.274  0.0301  0.8437  0.3816
  349TMC3    O1 5239   3.212   2.771  11.903 -0.6056 -0.2561  0.2318
  349TMC3    O2 5240   3.265   2.532  12.366 -0.0133 -0.1264 -0.2325
  350MPD2     C 5241   1.408   1.020   9.943 -0.6187  0.7775  0.1135
  350MPD2    C1 5242   1.383   0.937  10.055 -0.3073 -0.8330 -0.3191
  350MPD2    C2 5243   1.466   0.956  10.166  0.4884 -0.4640 -0.0680
  350MPD2    C3 5244   1.565   1.048  10.175  0.1139 -0.0544 -0.4507
  350MPD2    C4 5245   1.579   1.137  10.073  0.4550  0.2008 -0.0366
  350MPD2    C5 5246   1.505   1.117   9.955  0.0579 -0.0500 -0.1888
  350MPD2     H 5247   1.439   0.893  10.250  0.5925 -0.7101 -0.2203
  350MPD2    H1 5248   1.641   1.226  10.073  0.2893  0.3219  1.2282
  350MPD2    H2 5249   1.350   1.020   9.851  2.5259  0.5073 -1.8448
  350MPD2    H3 5250   1.529   1.168   9.862  1.7385 -0.9580 -0.2505
  350MPD2     N 5251   1.637   1.058  10.296 -0.6602  0.2764 -0.7161
  350MPD2    H5 5252   1.606   1.013  10.382  0.1233  1.1407  0.0251
  350MPD2    N1 5253   1.282   0.834  10.061  0.4230 -0.0689  0.4106
  350MPD2    H7 5254   1.293   0.761  10.130 -1.4304 -0.9077 -0.1765
  351TMC3    C1 5255   1.133   0.669   9.961 -0.3227 -0.0226  0.1540
  351TMC3    C2 5256   1.218   0.560   9.988  0.0116  0.4482  0.1673
  351TMC3    C3 5257   1.171   0.437   9.966  0.5328 -0.3726  0.0360
  351TMC3    C4 5258   1.012   0.657   9.900  0.2098 -0.4864  0.2780
  351TMC3    C5 5259   0.971   0.524   9.885 -0.5605 -0.7074  0.4124
  351TMC3    C6 5260   1.055   0.415   9.908 -0.4278  0.3056 -0.3196
  351TMC3     C 5261   1.191   0.804   9.955 -0.0129 -0.1237 -0.9337
  351TMC3     O 5262   1.142   0.871   9.864  0.0632 -0.0231 -0.4325
  351TMC3     H 5263   1.325   0.569  10.000  0.0724 -1.8070  1.3817
  351TMC3    H1 5264   0.943   0.738   9.883 -1.1254 -2.0241 -1.7190
  351TMC3    H2 5265   1.039   0.312   9.880  1.1995 -0.1142  0.3148
  351TMC3    C7 5266   0.852   0.506   9.802 -0.1814 -0.6554  0.0161
  351TMC3    C8 5267   1.259   0.320   9.963 -0.3690 -0.3679  0.1920
  351TMC3    O1 5268   0.798   0.611   9.776  0.0788  0.0108  0.1677
  351TMC3    O2 5269   1.241   0.226   9.883  0.1371  0.6972 -1.0837
  352MPD2     C 5270   0.864   3.420   1.253 -0.9237  0.1895 -0.3877
  352MPD2    C1 5271   0.785   3.358   1.159  0.5678  0.4871  0.2812
  352MPD2    C2 5272   0.788   3.225   1.142 -0.0887 -0.3359  0.5742
  352MPD2    C3 5273   0.870   3.141   1.221  0.1526 -0.2626 -0.7231
  352MPD2    C4 5274   0.946   3.199   1.312  0.2869 -0.7216 -0.0078
  352MPD2    C5 5275   0.949   3.339   1.331 -0.2054 -0.6304  0.6495
  352MPD2     H 5276   0.714   3.181   1.077  1.9215  0.5615 -2.3082
  352MPD2    H1 5277   1.015   3.135   1.367  0.8518  1.3375  1.7049
  352MPD2    H2 5278   0.855   3.527   1.262  1.4677  0.3541  0.0734
  352MPD2    H3 5279   1.025   3.393   1.386  0.6378 -1.3063  0.1512
  352MPD2     N 5280   0.859   2.999   1.225  0.6703 -0.1314 -0.3963
  352MPD2    H5 5281   0.902   2.961   1.308  0.4302 -0.4932 -0.4376
  352MPD2    N1 5282   0.706   3.444   1.081 -0.4157 -0.4127 -0.4413
  352MPD2    H7 5283   0.694   3.541   1.110  0.2386 -0.7511  0.9827
  353TMC3    C1 5284   0.787   2.776   1.180  0.5521 -0.2185  0.3395
  353TMC3    C2 5285   0.882   2.717   1.257 -0.1211 -0.1186  0.6876
  353TMC3    C3 5286   0.857   2.588   1.290  0.1385  0.0229 -0.2495
  353TMC3    C4 5287   0.678   2.705   1.139  0.1090 -0.2907 -0.0684
  353TMC3    C5 5288   0.656   2.572   1.178  0.5868  0.3800  0.5623
  353TMC3    C6 5289   0.741   2.514   1.267  0.1138 -0.4115  0.1248
  353TMC3     C 5290   0.782   2.920   1.145 -0.5477 -1.5450 -0.5981
  353TMC3     O 5291   0.716   2.950   1.047  0.1241 -0.2779 -0.2323
  353TMC3     H 5292   0.977   2.763   1.281 -1.0980  1.5559  1.3219
  353TMC3    H1 5293   0.598   2.757   1.087  1.4970  0.4862 -1.4249
  353TMC3    H2 5294   0.733   2.407   1.286  2.2168 -0.6211 -0.1573
  353TMC3    C7 5295   0.545   2.505   1.122 -0.0265 -0.3683 -0.1767
  353TMC3    C8 5296   0.972   2.514   1.340 -0.0386  0.1566  0.0769
  353TMC3    O1 5297   0.502   2.549   1.016 -0.1126 -0.0294 -0.7683
  353TMC3    O2 5298   1.060   2.567   1.406  0.6758 -0.2204  0.0546
  354TMC3    C1 5299   2.412   4.548  13.606 -0.2380 -0.8230  0.3879
  354TMC3    C2 5300   2.538   4.609  13.590 -0.1933  0.7658 -0.0431
  354TMC3    C3 5301   2.599   4.600  13.469  0.0951  0.8939 -0.3641
  354TMC3    C4 5302   2.350   4.496  13.496  0.6337  0.2075 -0.0639
  354TMC3    C5 5303   2.421   4.477  13.387  0.0473 -0.3986 -0.4031
  354TMC3    C6 5304   2.551   4.521  13.368 -0.5605 -0.3879  1.0295
  354TMC3     C 5305   2.371   4.503  13.739 -0.8045 -0.0763  0.0728
  354TMC3     O 5306   2.266   4.439  13.749  0.4215  0.2053  0.2063
  354TMC3     H 5307   2.597   4.655  13.668  1.4151 -1.1636 -0.1318
  354TMC3    H1 5308   2.253   4.449  13.503  0.8677 -0.4482 -1.1902
  354TMC3    H2 5309   2.621   4.487  13.292 -1.2325  0.9795 -0.2181
  354TMC3    C7 5310   2.337   4.478  13.266  0.7026 -0.1844  0.1629
  354TMC3    C8 5311   2.653   4.722  13.419 -1.3744  0.6748  0.4140
  354TMC3    O1 5312   2.220   4.510  13.276 -0.4365  0.3268 -0.1219
  354TMC3    O2 5313   2.716   0.072  13.500  0.4499 -0.1793  0.6239
  355MPD2     C 5314   2.096   0.420  11.815  0.1567  0.3460  0.2902
  355MPD2    C1 5315   2.192   0.461  11.728  0.1040 -0.3229  0.1827
  355MPD2    C2 5316   2.324   0.465  11.776  0.5890 -0.2697 -0.4850
  355MPD2    C3 5317   2.357   0.423  11.907 -0.0166  0.1568  0.1031
  355MPD2    C4 5318   2.260   0.375  11.989  0.3396  0.3024  0.0419
  355MPD2    C5 5319   2.131   0.375  11.940 -0.3695 -0.4911 -0.4230
  355MPD2     H 5320   2.407   0.504  11.718  1.3163  0.0234  0.7628
  355MPD2    H1 5321   2.281   0.334  12.087 -1.7305 -1.5011 -0.2784
  355MPD2    H2 5322   1.992   0.394  11.797  1.0402 -3.9773  1.2799
  355MPD2    H3 5323   2.059   0.328  12.005 -0.8776 -0.6826 -1.1255
  355MPD2     N 5324   2.491   0.429  11.951  0.5541  0.5261 -0.2776
  355MPD2    H5 5325   2.500   0.389  12.044 -2.8640  0.2614 -0.0422
  355MPD2    N1 5326   2.148   0.495  11.595  0.3056 -0.2815  0.2684
  355MPD2    H7 5327   2.058   0.456  11.569  0.9443  0.4080 -3.0745
  356TMC3    C1 5328   2.716   0.444  11.956  0.4037 -0.0792 -0.3141
  356TMC3    C2 5329   2.828   0.426  11.881  0.5676 -0.0303 -0.4482
  356TMC3    C3 5330   2.945   0.477  11.920 -0.4648 -0.5479 -1.2529
  356TMC3    C4 5331   2.734   0.543  12.059  0.4682 -0.0255  0.5985
  356TMC3    C5 5332   2.850   0.591  12.095  0.0473 -0.3359  0.6444
  356TMC3    C6 5333   2.964   0.567  12.021  0.4778  0.2186  1.0741
  356TMC3     C 5334   2.602   0.460  11.878 -0.4194  0.4528 -0.5293
  356TMC3     O 5335   2.625   0.521  11.776 -0.1417  0.3844  0.4947
  356TMC3     H 5336   2.817   0.379  11.784  1.2854 -1.9305  0.3928
  356TMC3    H1 5337   2.643   0.586  12.098 -0.2524  0.5650 -1.6963
  356TMC3    H2 5338   3.062   0.600  12.054  0.4417 -0.8315  2.2299
  356TMC3    C7 5339   2.845   0.710  12.187  0.9791  0.6086  0.1238
  356TMC3    C8 5340   3.050   0.464  11.825  0.4804 -0.1588 -0.5414
  356TMC3    O1 5341   2.748   0.717  12.265  0.6137  0.4195  0.1654
  356TMC3    O2 5342   3.068   0.364  11.754 -0.4610 -0.4410 -0.3368
  357MPD2     C 5343   2.100   4.426   0.873 -0.1712 -0.5264  0.4603
  357MPD2    C1 5344   2.137   4.310   0.944  0.4293 -0.0052 -0.3802
  357MPD2    C2 5345   2.040   4.225   0.994  0.4569  0.0211  0.2143
  357MPD2    C3 5346   1.907   4.252   0.977 -0.1177 -0.2615 -0.3529
  357MPD2    C4 5347   1.875   4.367   0.910  0.1737 -0.3677 -0.0161
  357MPD2    C5 5348   1.967   4.459   0.858  0.0448 -0.4794 -0.4075
  357MPD2     H 5349   2.075   4.139   1.048  2.1556  0.1483 -0.6903
  357MPD2    H1 5350   1.773   4.393   0.884  0.7759  1.0539 -0.9277
  357MPD2    H2 5351   2.176   4.484   0.822 -0.4617 -0.2109  0.3874
  357MPD2    H3 5352   1.937   4.554   0.814 -1.6617 -0.7512  0.1799
  357MPD2     N 5353   1.803   4.171   1.031  0.5907 -0.6973 -0.0821
  357MPD2    H5 5354   1.713   4.218   1.035  1.4944  0.9535  0.9732
  357MPD2    N1 5355   2.277   4.278   0.948  0.3349 -0.2224  0.0330
  357MPD2    H7 5356   2.339   4.334   0.889 -0.9709  1.0395 -0.1279
  358TMC3    C1 5357   2.470   4.160   0.973  0.1649  0.1231  0.4585
  358TMC3    C2 5358   2.485   4.124   0.844  0.0742  0.4262 -0.5420
  358TMC3    C3 5359   2.612   4.110   0.803 -0.2521  0.6655 -0.2395
  358TMC3    C4 5360   2.578   4.189   1.060  0.5973  1.2904  0.1663
  358TMC3    C5 5361   2.698   4.196   1.000  0.0322 -0.5251  0.4619
  358TMC3    C6 5362   2.719   4.163   0.870 -0.0529  0.1151  0.8818
  358TMC3     C 5363   2.338   4.186   1.024 -0.7718  0.3722  0.0168
  358TMC3     O 5364   2.299   4.117   1.118 -0.2903  0.9337 -0.1353
  358TMC3     H 5365   2.402   4.124   0.774 -0.4320  2.1137  0.0437
  358TMC3    H1 5366   2.556   4.224   1.160 -2.0032 -2.4316  0.9205
  358TMC3    H2 5367   2.821   4.146   0.839 -0.9830  1.2733 -2.8103
  358TMC3    C7 5368   2.797   4.246   1.089 -0.8268  0.1156 -0.3824
  358TMC3    C8 5369   2.637   4.091   0.657 -0.5312  0.4356 -0.0333
  358TMC3    O1 5370   2.767   4.315   1.186 -0.3819  0.0823  0.0697
  358TMC3    O2 5371   2.728   4.151   0.602 -0.5781  0.4872  0.1261
  359MPD2     C 5372   2.500   4.335  12.476 -0.5806  0.0004  0.7006
  359MPD2    C1 5373   2.525   4.223  12.405  0.0127 -0.1542  0.2047
  359MPD2    C2 5374   2.446   4.111  12.423  0.2798 -0.1721  0.4760
  359MPD2    C3 5375   2.358   4.108  12.528  0.6084  0.0002  0.2087
  359MPD2    C4 5376   2.349   4.213  12.614 -0.7638  0.0683 -0.5375
  359MPD2    C5 5377   2.413   4.334  12.581 -0.0627 -0.1743  0.4500
  359MPD2     H 5378   2.464   4.028  12.356  0.1520 -0.5479  0.9060
  359MPD2    H1 5379   2.282   4.220  12.700  1.3867 -0.5956  1.1962
  359MPD2    H2 5380   2.550   4.429  12.456  0.6841 -0.5230  1.3569
  359MPD2    H3 5381   2.393   4.421  12.643 -2.5311 -0.7410  0.4775
  359MPD2     N 5382   2.291   3.988  12.564  0.1062 -0.0514  0.4040
  359MPD2    H5 5383   2.227   3.992  12.643  1.1692  1.2103  1.2132
  359MPD2    N1 5384   2.619   4.223  12.304  0.1699  0.1740 -0.2720
  359MPD2    H7 5385   2.620   4.140  12.245 -0.4498  0.6896 -1.0104
  360TMC3    C1 5386   2.796   4.285  12.172 -0.2624  0.2864  0.4320
  360TMC3    C2 5387   2.926   4.334  12.172  0.4352 -0.0591 -0.3586
  360TMC3    C3 5388   3.030   4.268  12.125 -0.2654  0.0127  0.1394
  360TMC3    C4 5389   2.762   4.189  12.081  0.0702 -0.4446 -0.4970
  360TMC3    C5 5390   2.869   4.142  12.007 -0.4517 -0.3701 -0.2296
  360TMC3    C6 5391   3.005   4.162  12.040  0.5610 -0.6423 -0.3505
  360TMC3     C 5392   2.707   4.326  12.278 -0.2111  0.2457  0.1392
  360TMC3     O 5393   2.750   4.419  12.343  0.7894  0.3529 -0.1153
  360TMC3     H 5394   2.947   4.426  12.226 -2.6470  0.3414  0.1950
  360TMC3    H1 5395   2.658   4.186  12.049 -0.1193  0.1724  0.0523
  360TMC3    H2 5396   3.086   4.116  11.985  1.1002  0.9590 -0.8800
  360TMC3    C7 5397   2.839   4.080  11.879  0.5194 -0.4979 -0.4931
  360TMC3    C8 5398   3.143   4.358  12.088  0.1479  0.2539  0.6215
  360TMC3    O1 5399   2.931   4.090  11.796  0.2700  0.2024  0.1474
  360TMC3    O2 5400   3.129   4.480  12.075  0.3811 -0.1733  0.6512
  361MPD2     C 5401   4.089   2.713  16.744 -0.5925 -0.2298 -1.0046
  361MPD2    C1 5402   4.120   2.806  16.835 -0.3901 -0.3441 -0.4255
  361MPD2    C2 5403   4.244   2.799  16.902 -0.2525  0.1755  0.1154
  361MPD2    C3 5404   4.342   2.706  16.859 -0.1625  0.4350 -0.1625
  361MPD2    C4 5405   4.304   2.617  16.759  0.4916 -1.1306  0.1678
  361MPD2    C5 5406   4.183   2.619  16.706  0.2520  0.5315  0.5042
  361MPD2     H 5407   4.265   2.861  16.989 -0.6977 -1.1872  1.1841
  361MPD2    H1 5408   4.377   2.546  16.723  1.9473  0.5729 -0.2746
  361MPD2    H2 5409   3.996   2.707  16.688 -2.3208  1.7268  1.6250
  361MPD2    H3 5410   4.158   2.552  16.625  0.4060  0.8623  0.1860
  361MPD2     N 5411   4.467   2.698  16.915 -0.5734  0.2420  0.0478
  361MPD2    H5 5412   4.518   2.617  16.881 -0.7505  0.3056 -0.3775
  361MPD2    N1 5413   4.038   2.916  16.860  0.3879  0.4289 -0.0357
  361MPD2    H7 5414   4.077   2.985  16.924 -1.1060  1.9707 -0.7977
  362TMC3    C1 5415   3.871   3.081  16.837 -0.1685 -0.1136  0.8829
  362TMC3    C2 5416   3.908   3.141  16.952 -0.7056  0.4232 -0.1259
  362TMC3    C3 5417   3.847   3.257  16.991  0.0682 -0.0570  0.0641
  362TMC3    C4 5418   3.768   3.129  16.764 -0.0768 -0.1313  0.2609
  362TMC3    C5 5419   3.730   3.256  16.796  0.2009 -0.0134 -0.4851
  362TMC3    C6 5420   3.764   3.326  16.910  0.1050  0.4891  0.0017
  362TMC3     C 5421   3.923   2.950  16.797 -0.3810 -0.6803 -0.2563
  362TMC3     O 5422   3.862   2.890  16.711  0.1009  0.3078 -0.0294
  362TMC3     H 5423   3.962   3.079  17.023 -1.1059  1.4131  1.0446
  362TMC3    H1 5424   3.751   3.075  16.672  0.6447 -1.4008  0.8738
  362TMC3    H2 5425   3.731   3.426  16.933  0.2303  1.0178 -2.1255
  362TMC3    C7 5426   3.720   3.348  16.683 -0.3844 -0.2409 -0.2264
  362TMC3    C8 5427   3.885   3.314  17.119 -0.2297  0.0972 -0.7876
  362TMC3    O1 5428   3.749   3.462  16.695  0.8255 -0.5695 -0.1845
  362TMC3    O2 5429   3.992   3.280  17.165 -0.2076  0.9678  0.8405
  363TMC3    C1 5430   2.420   0.017   9.645 -0.6501 -0.3887  0.1432
  363TMC3    C2 5431   2.455   4.666   9.757 -0.4306  0.4194 -0.4591
  363TMC3    C3 5432   2.384   4.671   9.874  0.3797 -0.0351  0.4624
  363TMC3    C4 5433   2.323   0.113   9.660  0.4494  0.5625  0.3870
  363TMC3    C5 5434   2.259   0.126   9.780 -0.2423 -0.5686 -0.1024
  363TMC3    C6 5435   2.289   0.051   9.884 -0.5550 -0.3991  0.0989
  363TMC3     C 5436   2.463   4.704   9.508 -0.1222  0.4785  0.1913
  363TMC3     O 5437   2.434   0.067   9.426 -0.1483  0.1303  0.2510
  363TMC3     H 5438   2.534   4.594   9.741 -2.9450 -2.2051 -1.0564
  363TMC3    H1 5439   2.303   0.180   9.578  0.2370  0.4883  0.3788
  363TMC3    H2 5440   2.225   0.044   9.971  0.4290  0.5590  0.8862
  363TMC3    C7 5441   2.138   0.200   9.774  0.3374 -0.7733  0.3943
  363TMC3    C8 5442   2.424   4.606   9.995 -0.7658  0.3362  0.3744
  363TMC3    O1 5443   2.090   0.193   9.658  0.3940 -0.7204 -0.5045
  363TMC3    O2 5444   2.399   4.653  10.104 -0.9440  0.2076  0.0315
  364MPD2     C 5445   1.260   4.230  10.909  0.4074  0.4191 -0.1119
  364MPD2    C1 5446   1.344   4.253  10.797 -0.3307  0.2663  0.1908
  364MPD2    C2 5447   1.468   4.178  10.791  0.4381  0.4393  0.2307
  364MPD2    C3 5448   1.507   4.098  10.893  0.1873  0.1702  0.1328
  364MPD2    C4 5449   1.422   4.074  11.001 -0.1320  0.0948  0.9750
  364MPD2    C5 5450   1.304   4.137  11.003  0.1168 -0.1980 -0.0767
  364MPD2     H 5451   1.527   4.179  10.700  0.7042 -1.4673  0.3854
  364MPD2    H1 5452   1.447   3.998  11.075  2.3218  0.4264  0.4991
  364MPD2    H2 5453   1.165   4.281  10.912 -0.0667 -0.3835 -1.2242
  364MPD2    H3 5454   1.235   4.121  11.085 -1.4663  0.6258 -1.2243
  364MPD2     N 5455   1.631   4.033  10.903 -0.0437 -0.2075 -0.6779
  364MPD2    H5 5456   1.630   3.961  10.975 -0.8356  2.4265  1.9650
  364MPD2    N1 5457   1.298   4.330  10.680 -0.2057 -0.0180  0.5045
  364MPD2    H7 5458   1.201   4.361  10.685  0.3897  1.5014  2.5156
  365TMC3    C1 5459   1.323   4.434  10.458 -0.4508 -0.4551 -0.7480
  365TMC3    C2 5460   1.386   4.417  10.337  0.4359  0.0381 -0.1001
  365TMC3    C3 5461   1.400   4.530  10.260 -0.7091 -0.4676 -0.4150
  365TMC3    C4 5462   1.290   4.556  10.504 -0.5548  0.6170  0.0437
  365TMC3    C5 5463   1.285   4.660  10.413  0.0009 -0.2702  0.1107
  365TMC3    C6 5464   1.345   4.653  10.292  1.2890  0.1598 -0.3243
  365TMC3     C 5465   1.378   4.353  10.571 -0.0295  0.3152 -0.1676
  365TMC3     O 5466   1.498   4.324  10.553  0.3598  0.0740 -0.2619
  365TMC3     H 5467   1.400   4.319  10.294 -1.8710  0.0182 -0.7952
  365TMC3    H1 5468   1.247   4.564  10.604 -2.4778 -1.9237 -0.5628
  365TMC3    H2 5469   1.342   0.009  10.218  1.0802 -0.0026 -0.4860
  365TMC3    C7 5470   1.250   0.075  10.461  0.0523  0.1978 -1.1837
  365TMC3    C8 5471   1.445   4.514  10.124  0.2637  0.0260 -0.1869
  365TMC3    O1 5472   1.195   0.151  10.381 -0.7022  0.4356  0.0570
  365TMC3    O2 5473   1.402   4.593  10.040  0.0325  0.3152  0.1247
  366MPD2     C 5474   4.586   0.573  15.472 -0.1507  0.7897  0.3563
  366MPD2    C1 5475   4.651   0.694  15.463  0.3654  0.0482  0.4063
  366MPD2    C2 5476   0.067   0.694  15.487 -0.7961  0.0015  0.2387
  366MPD2    C3 5477   0.141   0.581  15.508 -0.5953  0.3774  0.8264
  366MPD2    C4 5478   0.068   0.466  15.514  0.3580 -0.6720 -0.6201
  366MPD2    C5 5479   4.659   0.459  15.500 -0.2591  0.0316  0.0237
  366MPD2     H 5480   0.122   0.786  15.470 -0.7584  0.0536  0.6410
  366MPD2    H1 5481   0.108   0.365  15.514  0.0002 -0.8058 -2.3967
  366MPD2    H2 5482   4.481   0.568  15.448 -0.3816  0.0222  1.5203
  366MPD2    H3 5483   4.607   0.366  15.521  0.5229 -0.5604 -0.6323
  366MPD2     N 5484   0.285   0.578  15.520 -0.0723  0.2701  0.4291
  366MPD2    H5 5485   0.330   0.668  15.510 -0.5498  0.3604 -1.0059
  366MPD2    N1 5486   4.588   0.812  15.426  0.2335 -0.5630  0.4120
  366MPD2    H7 5487   4.649   0.893  15.428 -2.0059  1.1640 -0.6987
  367TMC3    C1 5488   4.430   0.976  15.372 -0.4612  0.1656  0.2538
  367TMC3    C2 5489   4.493   1.073  15.439 -0.3468 -0.1411  0.6176
  367TMC3    C3 5490   4.441   1.203  15.441 -0.0427 -0.2807 -0.1065
  367TMC3    C4 5491   4.309   0.996  15.311 -0.8729  0.2688  0.9188
  367TMC3    C5 5492   4.261   1.123  15.314 -0.1314 -0.4929 -0.6152
  367TMC3    C6 5493   4.323   1.228  15.379  0.0877 -0.1796 -0.3928
  367TMC3     C 5494   4.454   0.845  15.428 -0.6157  0.6807 -0.5594
  367TMC3     O 5495   4.354   0.770  15.438 -0.3419 -0.8739 -0.4107
  367TMC3     H 5496   4.585   1.053  15.494  0.6792  0.1337 -1.0080
  367TMC3    H1 5497   4.254   0.920  15.255 -1.4428 -0.6651  2.7558
  367TMC3    H2 5498   4.277   1.326  15.387  0.3048 -0.0502 -0.7333
  367TMC3    C7 5499   4.151   1.141  15.221  0.8035 -0.6960 -0.6457
  367TMC3    C8 5500   4.530   1.313  15.501 -0.2728  0.0012 -0.4302
  367TMC3    O1 5501   4.083   1.042  15.194  0.5643 -0.1272  0.0316
  367TMC3    O2 5502   4.639   1.271  15.538  0.9814 -0.5368  0.3057
  368MPD2     C 5503   0.651   3.210  13.165 -0.1366 -0.4420  0.4059
  368MPD2    C1 5504   0.628   3.301  13.067  0.6863  0.5960  0.3250
  368MPD2    C2 5505   0.738   3.349  13.005 -0.3402  0.0102 -0.0826
  368MPD2    C3 5506   0.866   3.321  13.042  0.6748 -0.5525 -0.2377
  368MPD2    C4 5507   0.893   3.245  13.155 -0.0635  0.0354 -0.0841
  368MPD2    C5 5508   0.777   3.186  13.210 -0.1274  0.1019  0.2476
  368MPD2     H 5509   0.726   3.406  12.913  0.5724 -2.3657 -1.6842
  368MPD2    H1 5510   0.991   3.227  13.197  0.0056  0.0979 -0.2168
  368MPD2    H2 5511   0.573   3.145  13.202 -2.1365  0.9217 -1.4337
  368MPD2    H3 5512   0.794   3.126  13.299 -0.3057 -0.1383  0.1219
  368MPD2     N 5513   0.981   3.373  12.976 -0.2973 -0.0286  0.5106
  368MPD2    H5 5514   1.066   3.368  13.031 -0.1859 -1.4378  0.2025
  368MPD2    N1 5515   0.498   3.331  13.030  0.2602  0.3448 -0.1843
  368MPD2    H7 5516   0.428   3.265  13.063 -0.0356 -0.0960 -1.6872
  369TMC3    C1 5517   0.311   3.462  12.960 -0.3071 -0.8169  0.4954
  369TMC3    C2 5518   0.271   3.561  12.875  0.1713 -0.0314 -0.0851
  369TMC3    C3 5519   0.149   3.547  12.814 -0.0175  0.4833 -0.4309
  369TMC3    C4 5520   0.222   3.364  12.998 -0.6686 -0.4498  0.5961
  369TMC3    C5 5521   0.105   3.352  12.937  0.1329 -0.1938 -0.0810
  369TMC3    C6 5522   0.063   3.449  12.849 -0.1836  0.3276  0.6031
  369TMC3     C 5523   0.455   3.444  12.971 -0.1584  0.5974 -0.3368
  369TMC3     O 5524   0.525   3.540  12.939  0.7048  0.3435  0.4237
  369TMC3     H 5525   0.315   3.660  12.877 -0.2990  0.2053 -1.5041
  369TMC3    H1 5526   0.260   3.287  13.064 -1.4564  0.2690  1.8844
  369TMC3    H2 5527   4.684   3.450  12.812 -0.1840  0.8521  0.6198
  369TMC3    C7 5528   0.002   3.296  13.028 -0.8403 -0.3567 -0.4610
  369TMC3    C8 5529   0.120   3.631  12.701 -0.7316 -0.1680  0.0179
  369TMC3    O1 5530   0.039   3.253  13.140  0.4079  0.3323  0.4810
  369TMC3    O2 5531   0.003   3.633  12.655  0.7023 -0.3386 -0.5668
  370TMC3    C1 5532   0.612   3.550  15.768 -0.2634 -0.1437  0.8476
  370TMC3    C2 5533   0.651   3.538  15.896  0.3126  0.0934  0.6145
  370TMC3    C3 5534   0.660   3.407  15.947 -0.6496 -0.6613  0.8309
  370TMC3    C4 5535   0.594   3.441  15.689  0.8148 -0.1767 -0.7673
  370TMC3    C5 5536   0.611   3.311  15.738 -0.5143  0.9939  0.6435
  370TMC3    C6 5537   0.645   3.295  15.873  0.0852  0.3694 -0.6587
  370TMC3     C 5538   0.592   3.686  15.708  0.2754 -0.8239  0.4133
  370TMC3     O 5539   0.525   3.686  15.603 -0.5684  0.0704 -0.3701
  370TMC3     H 5540   0.664   3.627  15.957 -0.3554  1.6041 -1.4569
  370TMC3    H1 5541   0.579   3.458  15.583  0.1405 -0.6872 -0.7591
  370TMC3    H2 5542   0.633   3.198  15.919  2.0718  0.4705  0.0689
  370TMC3    C7 5543   0.615   3.206  15.640  0.2623  0.8769  0.5043
  370TMC3    C8 5544   0.628   3.387  16.088 -0.0022 -0.1815  0.1965
  370TMC3    O1 5545   0.525   3.211  15.555 -0.2548 -0.2000 -0.3534
  370TMC3    O2 5546   0.580   3.281  16.115 -0.2024 -0.1686  0.1886
  371TMC3    C1 5547   1.688   1.992  15.413 -0.5476  0.0479  0.6722
  371TMC3    C2 5548   1.638   1.917  15.311  0.9900  0.1335  0.9158
  371TMC3    C3 5549   1.612   1.976  15.188  0.7456  0.1887  0.2896
  371TMC3    C4 5550   1.709   2.122  15.402 -0.4664  0.1491  0.0753
  371TMC3    C5 5551   1.688   2.177  15.278 -0.2012  0.8668 -0.0040
  371TMC3    C6 5552   1.640   2.109  15.171 -0.5468  0.7868 -0.2071
  371TMC3     C 5553   1.718   1.929  15.541  0.7198  0.4226  0.1041
  371TMC3     O 5554   1.727   2.002  15.641 -0.6802 -0.3104 -0.4041
  371TMC3     H 5555   1.609   1.813  15.324 -2.2601  0.8762 -0.5568
  371TMC3    H1 5556   1.742   2.189  15.481  1.5219 -0.3119 -0.3601
  371TMC3    H2 5557   1.620   2.159  15.077 -2.7535  1.1378  0.4494
  371TMC3    C7 5558   1.724   2.315  15.260  0.0242 -0.2265 -0.0619
  371TMC3    C8 5559   1.515   1.914  15.093 -0.1409  0.3380 -0.0133
  371TMC3    O1 5560   1.736   2.369  15.365 -0.3285 -0.2438  0.1667
  371TMC3    O2 5561   1.565   1.901  14.981 -0.8853  0.6625  0.1158
  372MPD2     C 5562   1.955   3.596  13.291  0.1722 -0.3747 -0.3229
  372MPD2    C1 5563   2.017   3.601  13.415  0.7081  0.2846  0.0844
  372MPD2    C2 5564   1.969   3.510  13.510 -0.3614 -0.1004  0.3519
  372MPD2    C3 5565   1.865   3.419  13.492  0.3806 -0.7486 -0.2154
  372MPD2    C4 5566   1.804   3.436  13.374 -0.1129  0.2428 -0.6064
  372MPD2    C5 5567   1.847   3.524  13.271  0.5681 -0.4289  0.3345
  372MPD2     H 5568   2.016   3.513  13.608 -1.4342  1.1984  0.8214
  372MPD2    H1 5569   1.714   3.380  13.349 -0.2118  0.3208 -0.4222
  372MPD2    H2 5570   1.993   3.650  13.205  2.2137  0.9248  1.3895
  372MPD2    H3 5571   1.793   3.537  13.177 -2.0245  0.4803  1.9418
  372MPD2     N 5572   1.820   3.332  13.596  0.6592  0.0769 -0.0121
  372MPD2    H5 5573   1.870   3.332  13.685 -0.1440  0.7163  0.4408
  372MPD2    N1 5574   2.144   3.649  13.439 -0.5174 -0.1670  0.3977
  372MPD2    H7 5575   2.189   3.615  13.523 -1.3744 -2.1168  0.0670
  373TMC3    C1 5576   1.706   3.145  13.701  0.3195 -0.4190  0.5639
  373TMC3    C2 5577   1.711   3.203  13.825 -0.2268  0.8964 -0.1317
  373TMC3    C3 5578   1.681   3.124  13.933 -0.4532  0.7362  0.2905
  373TMC3    C4 5579   1.684   3.011  13.683  0.0599 -0.2627  0.5263
  373TMC3    C5 5580   1.667   2.935  13.796  0.5223 -0.2682  0.2510
  373TMC3    C6 5581   1.670   2.985  13.924  0.1340 -0.1630  0.0740
  373TMC3     C 5582   1.724   3.231  13.583  0.7438 -0.4699  0.1206
  373TMC3     O 5583   1.669   3.191  13.483 -0.1384  0.2084 -0.4176
  373TMC3     H 5584   1.706   3.311  13.835  2.2083  1.0103 -0.1824
  373TMC3    H1 5585   1.689   2.972  13.582 -0.5432  1.8057 -0.2950
  373TMC3    H2 5586   1.681   2.922  14.012 -1.3105 -1.9875 -1.0420
  373TMC3    C7 5587   1.676   2.794  13.777  0.1470  0.1404 -0.1223
  373TMC3    C8 5588   1.725   3.178  14.058  0.6572  0.4858 -0.2235
  373TMC3    O1 5589   1.724   2.754  13.674 -0.2517  0.5733  0.2153
  373TMC3    O2 5590   1.804   3.274  14.049 -0.1036 -0.0274 -0.3942
  374TMC3    C1 5591   1.882   2.469   9.908  0.7327 -0.1797  0.1357
  374TMC3    C2 5592   1.925   2.592   9.909 -0.7781  0.4672  0.3222
  374TMC3    C3 5593   1.862   2.686   9.833 -0.1991 -0.2378  0.4399
  374TMC3    C4 5594   1.771   2.434   9.827 -0.8849 -0.7136  0.5326
  374TMC3    C5 5595   1.716   2.530   9.753  0.1227  0.1562  0.1203
  374TMC3    C6 5596   1.764   2.656   9.748 -0.1423 -0.1150  0.5231
  374TMC3     C 5597   1.958   2.368   9.970  0.0107 -0.0697 -0.4548
  374TMC3     O 5598   2.014   2.413  10.070  0.2442 -0.1856 -0.0579
  374TMC3     H 5599   2.013   2.620   9.965 -0.1868  1.0213 -0.9061
  374TMC3    H1 5600   1.717   2.342   9.844 -1.3402 -0.6349 -0.5097
  374TMC3    H2 5601   1.707   2.738   9.705  1.8091  1.6601  1.3466
  374TMC3    C7 5602   1.646   2.483   9.641 -0.0704 -0.0553 -0.6717
  374TMC3    C8 5603   1.911   2.823   9.838  0.2952  0.1513  0.4839
  374TMC3    O1 5604   1.670   2.374   9.595 -0.3140  0.1929  0.1216
  374TMC3    O2 5605   1.867   2.894   9.745 -0.4953 -0.3460  0.1834
  375MPD2     C 5606   2.410   4.249  17.026 -0.1947  0.6020  0.3003
  375MPD2    C1 5607   2.317   4.252  16.922 -0.0769 -0.6823  0.3934
  375MPD2    C2 5608   2.353   4.282  16.789  0.2533  0.4063  0.0726
  375MPD2    C3 5609   2.483   4.333  16.768 -0.1740  0.5933  0.0517
  375MPD2    C4 5610   2.580   4.338  16.868 -0.6501 -0.0366  0.1015
  375MPD2    C5 5611   2.542   4.293  16.995  0.4737  0.2765  0.0371
  375MPD2     H 5612   2.281   4.290  16.708  1.2558  0.4851 -0.7988
  375MPD2    H1 5613   2.681   4.369  16.842 -1.2020  0.4832 -1.3575
  375MPD2    H2 5614   2.387   4.216  17.126 -2.1033 -0.8760 -0.6087
  375MPD2    H3 5615   2.616   4.302  17.074  2.0995 -2.2179 -1.2183
  375MPD2     N 5616   2.534   4.365  16.637  0.0136  0.2657 -0.1054
  375MPD2    H5 5617   2.635   4.370  16.627 -0.2211  0.1162 -2.5822
  375MPD2    N1 5618   2.183   4.219  16.949 -0.4948 -0.0326  0.8891
  375MPD2    H7 5619   2.125   4.217  16.866  1.3401 -0.4741 -0.3850
  376TMC3    C1 5620   2.534   4.389  16.398 -0.4080 -0.0006  0.1960
  376TMC3    C2 5621   2.663   4.347  16.399 -0.1493 -0.2434 -0.3023
  376TMC3    C3 5622   2.719   4.332  16.276 -0.3526  0.4098  1.1302
  376TMC3    C4 5623   2.468   4.409  16.282  0.2885  0.4099 -0.2213
  376TMC3    C5 5624   2.527   4.383  16.157  0.5180  0.0674 -0.1872
  376TMC3    C6 5625   2.660   4.348  16.155  0.4198  0.0191 -0.3766
  376TMC3     C 5626   2.456   4.400  16.529  0.3476 -0.3618  0.0699
  376TMC3     O 5627   2.335   4.418  16.515 -0.0513  0.4247 -0.4860
  376TMC3     H 5628   2.715   4.331  16.492 -0.8607  0.2846  0.1823
  376TMC3    H1 5629   2.364   4.440  16.280 -0.3751 -1.7107  2.0566
  376TMC3    H2 5630   2.719   4.341  16.065  0.2692  0.9349 -0.5464
  376TMC3    C7 5631   2.449   4.373  16.034  0.6290  0.5242  0.2936
  376TMC3    C8 5632   2.853   4.274  16.282  0.2285 -0.0968  0.3110
  376TMC3    O1 5633   2.507   4.372  15.926  0.1978  0.4395 -0.4214
  376TMC3    O2 5634   2.940   4.324  16.209 -0.1596  0.7348  0.2635
  377MPD2     C 5635   4.370   3.497  12.058  0.4911  0.6080  0.1230
  377MPD2    C1 5636   4.428   3.495  12.183 -0.4245  0.3365 -0.6278
  377MPD2    C2 5637   4.352   3.522  12.293  0.4836  0.2450 -0.0072
  377MPD2    C3 5638   4.214   3.521  12.281  0.1623  0.7445 -0.5808
  377MPD2    C4 5639   4.156   3.516  12.158 -0.3580  0.3757  0.4223
  377MPD2    C5 5640   4.235   3.515  12.050 -0.2551  0.3288  0.0286
  377MPD2     H 5641   4.393   3.540  12.392 -2.7236 -1.3679  1.6198
  377MPD2    H1 5642   4.048   3.512  12.156 -0.2704 -2.7782  0.6408
  377MPD2    H2 5643   4.428   3.495  11.966 -1.2839 -1.6000 -0.9419
  377MPD2    H3 5644   4.189   3.530  11.953 -1.7855 -1.3418  0.5125
  377MPD2     N 5645   4.128   3.522  12.392 -0.3170  0.3343 -0.8367
  377MPD2    H5 5646   4.028   3.519  12.372  0.0777 -1.1821 -2.5212
  377MPD2    N1 5647   4.571   3.468  12.192  0.5650  0.4096 -0.3405
  377MPD2    H7 5648   4.626   3.462  12.107  0.0490 -0.1575 -0.6294
  378TMC3    C1 5649   0.252   3.465  12.180 -0.4144 -0.4069  0.6064
  378TMC3    C2 5650   0.113   3.487  12.188  0.2434 -0.1681  0.2790
  378TMC3    C3 5651   0.053   3.450  12.305 -0.0572  0.1835 -0.1553
  378TMC3    C4 5652   0.316   3.400  12.281 -1.0561  0.0416 -0.6313
  378TMC3    C5 5653   0.253   3.371  12.394 -0.3529  0.2341 -0.0941
  378TMC3    C6 5654   0.118   3.390  12.406 -0.2366  1.0000  0.1271
  378TMC3     C 5655   0.315   3.495  12.055 -0.2469 -0.6456 -0.0157
  378TMC3     O 5656   0.245   3.511  11.957  0.1723  0.3739  0.4520
  378TMC3     H 5657   0.067   3.554  12.116 -3.3334 -1.5081  1.2896
  378TMC3    H1 5658   0.424   3.389  12.270 -0.5715  1.7850  2.5390
  378TMC3    H2 5659   0.069   3.384  12.503 -1.2819 -0.4497 -0.4911
  378TMC3    C7 5660   0.319   3.332  12.521 -0.2050 -0.2520 -0.3912
  378TMC3    C8 5661   4.638   3.457  12.313  0.0526  0.1223  0.0332
  378TMC3    O1 5662   0.241   3.295  12.614  0.7914 -0.2728 -0.1674
  378TMC3    O2 5663   4.591   3.432  12.423  0.6281 -0.2616 -0.0648
  379MPD2     C 5664   0.644   1.794  16.216 -0.0997 -0.3625 -0.4555
  379MPD2    C1 5665   0.688   1.712  16.115 -0.3263  0.6321  0.7121
  379MPD2    C2 5666   0.739   1.585  16.143 -0.8092  0.5143 -0.3763
  379MPD2    C3 5667   0.746   1.544  16.275 -0.2196  0.4235  0.0369
  379MPD2    C4 5668   0.704   1.628  16.376  0.8014 -0.1102 -0.3264
  379MPD2    C5 5669   0.655   1.757  16.345 -0.0952 -0.2378 -0.9754
  379MPD2     H 5670   0.778   1.518  16.067  3.0770  1.9042  0.3844
  379MPD2    H1 5671   0.722   1.597  16.478  2.6265 -1.7841 -1.1558
  379MPD2    H2 5672   0.600   1.887  16.184 -1.9055 -0.8973  0.4976
  379MPD2    H3 5673   0.628   1.821  16.428 -1.1418 -0.4494 -1.1494
  379MPD2     N 5674   0.806   1.417  16.319  0.2484  0.1306 -0.7749
  379MPD2    H5 5675   0.824   1.408  16.418  0.4088 -1.8807 -0.9915
  379MPD2    N1 5676   0.666   1.751  15.982 -0.3828 -0.4282 -0.5505
  379MPD2    H7 5677   0.630   1.845  15.972  1.4059  0.2656 -0.4647
  380TMC3    C1 5678   0.603   1.719  15.761 -0.6866 -0.2366 -0.3050
  380TMC3    C2 5679   0.641   1.648  15.648  0.3077  0.0394  0.0702
  380TMC3    C3 5680   0.554   1.619  15.551 -0.0302  0.9444 -0.8800
  380TMC3    C4 5681   0.470   1.752  15.783 -0.3362 -0.2231  1.2810
  380TMC3    C5 5682   0.375   1.713  15.684  0.1030  0.3841 -0.3383
  380TMC3    C6 5683   0.422   1.645  15.573 -0.3225 -0.0476  0.2047
  380TMC3     C 5684   0.667   1.665  15.876  0.3764  0.3192 -0.8353
  380TMC3     O 5685   0.701   1.544  15.862 -0.6811 -0.0040 -0.9164
  380TMC3     H 5686   0.743   1.613  15.638  0.0175 -0.9740  0.6648
  380TMC3    H1 5687   0.441   1.803  15.874  1.4043 -1.5264  2.5726
  380TMC3    H2 5688   0.360   1.641  15.484  1.5170 -2.6533 -0.9507
  380TMC3    C7 5689   0.231   1.732  15.700  0.2520  0.3207  0.4109
  380TMC3    C8 5690   0.604   1.560  15.430  0.3472 -0.1794 -0.8484
  380TMC3    O1 5691   0.196   1.813  15.786 -0.5005 -0.3093 -0.2254
  380TMC3    O2 5692   0.722   1.574  15.410  0.1816 -0.1251  0.5818
  381TMC3    C1 5693   0.626   2.639  15.971 -0.6039  0.9701  0.4149
  381TMC3    C2 5694   0.684   2.763  15.946 -0.2587 -0.1447 -0.3635
  381TMC3    C3 5695   0.714   2.855  16.054  0.1241 -0.2592 -0.4370
  381TMC3    C4 5696   0.584   2.614  16.098  0.5979  0.0810 -0.0558
  381TMC3    C5 5697   0.607   2.705  16.198  0.7974  0.4223 -0.6881
  381TMC3    C6 5698   0.672   2.826  16.186 -0.9761  0.9774 -0.0058
  381TMC3     C 5699   0.595   2.543  15.871  0.1395  0.3596 -0.1214
  381TMC3     O 5700   0.512   2.457  15.900  0.1282 -0.3410  0.0320
  381TMC3     H 5701   0.716   2.783  15.844 -0.2317 -0.2497 -0.3756
  381TMC3    H1 5702   0.527   2.527  16.128  0.7502 -0.0723 -0.2114
  381TMC3    H2 5703   0.704   2.894  16.265  1.9392 -1.4711  0.9239
  381TMC3    C7 5704   0.594   2.649  16.331  0.8903 -0.6395 -0.3524
  381TMC3    C8 5705   0.793   2.973  16.031  0.2684 -0.1217  0.0799
  381TMC3    O1 5706   0.627   2.534  16.349 -0.5200 -0.4467 -0.3242
  381TMC3    O2 5707   0.818   2.991  15.911 -0.7747 -0.0451 -0.4703
  382MPD2     C 5708   0.230   0.455  17.263  0.3577  0.2696  0.2056
  382MPD2    C1 5709   0.144   0.512  17.354 -0.2280  0.8500 -0.4938
  382MPD2    C2 5710   0.030   0.436  17.392  0.5165  0.1767 -0.0712
  382MPD2    C3 5711   0.013   0.312  17.328 -0.3187 -0.2569 -0.0394
  382MPD2    C4 5712   0.104   0.262  17.237 -0.2750  0.0328  0.2259
  382MPD2    C5 5713   0.211   0.336  17.202 -0.0214 -0.0130 -0.1369
  382MPD2     H 5714   4.682   0.482  17.460  0.1890 -0.3968 -0.0214
  382MPD2    H1 5715   0.090   0.164  17.193 -1.9202 -0.1663  1.2113
  382MPD2    H2 5716   0.320   0.509  17.236 -0.2839  1.7918  1.0516
  382MPD2    H3 5717   0.285   0.303  17.131  1.2763  0.1290  1.1521
  382MPD2     N 5718   4.635   0.224  17.350 -0.3918  0.0284 -0.3095
  382MPD2    H5 5719   4.622   0.155  17.276 -0.3412 -1.8489  1.4158
  382MPD2    N1 5720   0.174   0.635  17.414  0.4779 -0.1704 -0.0121
  382MPD2    H7 5721   0.111   0.662  17.490  0.6911  0.5563 -0.0933
  383TMC3    C1 5722   4.469   0.117  17.470  0.1174 -0.1204  0.0120
  383TMC3    C2 5723   4.437   0.058  17.348 -0.7181  0.2904 -0.0749
  383TMC3    C3 5724   4.367   4.663  17.359  0.3161  0.3574  0.5252
  383TMC3    C4 5725   4.464   0.046  17.590 -0.3375  0.3651  0.3619
  383TMC3    C5 5726   4.407   4.645  17.588 -0.1609 -0.1166 -0.0515
  383TMC3    C6 5727   4.357   4.596  17.471  0.1332  0.4251  0.0688
  383TMC3     C 5728   4.555   0.225  17.464 -0.5914 -0.1954 -0.4128
  383TMC3     O 5729   4.569   0.297  17.565  0.0980 -0.2929 -1.0679
  383TMC3     H 5730   4.418   0.118  17.260  0.4891 -0.6070 -0.9580
  383TMC3    H1 5731   4.509   0.089  17.679  2.4466  0.7429 -1.2424
  383TMC3    H2 5732   4.297   4.506  17.474 -0.5801  0.9071  0.2724
  383TMC3    C7 5733   4.395   4.564   0.019 -0.1648  0.1384  0.1926
  383TMC3    C8 5734   4.313   4.612  17.239 -0.2925  0.1881  0.5559
  383TMC3    O1 5735   4.372   4.445   0.002 -0.3193 -0.3022  0.0024
  383TMC3    O2 5736   4.257   4.693  17.163 -0.0150  0.4632 -1.0713
  384MPD2     C 5737   1.364   1.502  12.212  0.7097  0.6828 -0.2115
  384MPD2    C1 5738   1.413   1.436  12.319 -0.2042  0.4290 -0.3734
  384MPD2    C2 5739   1.486   1.319  12.292  0.2997 -0.1396 -0.4206
  384MPD2    C3 5740   1.508   1.273  12.162 -0.1622  0.6012  0.2514
  384MPD2    C4 5741   1.456   1.338  12.056 -0.2236  0.0564  0.0054
  384MPD2    C5 5742   1.378   1.448  12.084 -0.0198  0.1731 -0.2139
  384MPD2     H 5743   1.529   1.257  12.369 -0.1939  0.4554  0.3349
  384MPD2    H1 5744   1.449   1.295  11.956 -2.6540 -2.4974  1.2511
  384MPD2    H2 5745   1.306   1.593  12.216 -0.4722 -0.2883  4.1724
  384MPD2    H3 5746   1.325   1.503  12.007 -1.0097  2.9301  2.4031
  384MPD2     N 5747   1.580   1.156  12.165  0.2110 -0.0944  0.2892
  384MPD2    H5 5748   1.633   1.124  12.245 -0.9391  0.0176  1.0868
  384MPD2    N1 5749   1.375   1.466  12.450 -0.4154  0.4762 -0.5951
  384MPD2    H7 5750   1.424   1.412  12.521 -1.3974  0.9568  0.4459
  385TMC3    C1 5751   1.717   0.980  12.100 -0.1175 -0.0345  0.4674
  385TMC3    C2 5752   1.704   0.848  12.057 -0.2049 -0.2092 -0.0170
  385TMC3    C3 5753   1.702   0.758  12.159 -0.7798  0.2730  0.3235
  385TMC3    C4 5754   1.771   1.002  12.216 -0.3632 -0.1760 -0.0276
  385TMC3    C5 5755   1.795   0.913  12.307 -0.1803 -0.5617 -0.3416
  385TMC3    C6 5756   1.755   0.784  12.284  0.2867 -0.8366 -0.0730
  385TMC3     C 5757   1.610   1.073  12.057 -0.1319 -0.6687 -0.5696
  385TMC3     O 5758   1.585   1.074  11.935 -0.6598 -0.1991 -0.2189
  385TMC3     H 5759   1.672   0.825  11.956 -1.9524 -1.6043  0.8593
  385TMC3    H1 5760   1.812   1.102  12.223  2.9001 -1.5493  0.1563
  385TMC3    H2 5761   1.791   0.703  12.347 -0.2357 -0.2886  0.9392
  385TMC3    C7 5762   1.753   0.973  12.428 -0.0945  0.6222  0.3931
  385TMC3    C8 5763   1.703   0.613  12.131 -0.0717  0.7138 -0.5501
  385TMC3    O1 5764   1.691   1.078  12.401 -0.4502 -0.0962  0.1048
  385TMC3    O2 5765   1.737   0.533  12.217 -0.0113 -0.2649  0.4360
  386TMC3    C1 5766   0.881   3.810  11.726 -0.2688  0.2998  0.8943
  386TMC3    C2 5767   0.969   3.836  11.618  0.3767 -0.3852  0.8823
  386TMC3    C3 5768   0.922   3.930  11.536 -0.3932 -0.2618 -0.2857
  386TMC3    C4 5769   0.772   3.886  11.751  0.1625 -1.0858 -0.2092
  386TMC3    C5 5770   0.728   3.965  11.652 -0.4088  0.1723  0.5526
  386TMC3    C6 5771   0.801   3.991  11.541 -0.1519  0.7258 -0.5501
  386TMC3     C 5772   0.928   3.746  11.843  0.1025 -0.5140  0.1157
  386TMC3     O 5773   0.890   3.790  11.956 -0.2017  0.1145  0.1655
  386TMC3     H 5774   1.053   3.770  11.601 -0.4341 -0.7461 -1.6722
  386TMC3    H1 5775   0.705   3.869  11.835 -0.6952  0.5852 -0.5523
  386TMC3    H2 5776   0.783   4.080  11.481 -0.0937  0.9581 -0.2183
  386TMC3    C7 5777   0.586   4.014  11.668 -0.8695 -0.5661 -0.3359
  386TMC3    C8 5778   0.991   3.963  11.412 -0.3075  0.7200 -0.3027
  386TMC3    O1 5779   0.538   4.032  11.782  0.9818 -0.3850 -0.4574
  386TMC3    O2 5780   0.939   4.034  11.330 -0.3147 -0.3863  0.4336
  387MPD2     C 5781   3.730   3.431   9.509  0.4014 -0.7763 -0.4039
  387MPD2    C1 5782   3.859   3.449   9.549 -0.1392 -0.1042  0.4962
  387MPD2    C2 5783   3.950   3.340   9.540  0.4285  0.7890  0.2327
  387MPD2    C3 5784   3.903   3.217   9.501 -0.4687  0.7087 -0.2866
  387MPD2    C4 5785   3.772   3.202   9.454 -0.1945  0.3426  0.4301
  387MPD2    C5 5786   3.694   3.311   9.463  0.2187  0.4226 -0.4505
  387MPD2     H 5787   4.053   3.357   9.572  1.1824  2.1008 -2.9238
  387MPD2    H1 5788   3.726   3.106   9.432 -1.8805  1.4316 -0.7494
  387MPD2    H2 5789   3.653   3.507   9.509  0.8962 -0.2718  0.6232
  387MPD2    H3 5790   3.594   3.288   9.428  0.0271  0.9094 -0.2260
  387MPD2     N 5791   3.993   3.106   9.503  0.2188 -0.1944  0.5511
  387MPD2    H5 5792   4.071   3.124   9.566 -0.2588  0.8886  0.8290
  387MPD2    N1 5793   3.908   3.558   9.619  0.1185  0.3794 -0.2886
  387MPD2    H7 5794   4.006   3.554   9.647  0.1673 -1.8186 -0.7927
  388TMC3    C1 5795   3.883   3.730   9.787 -0.6922 -0.5138  0.7879
  388TMC3    C2 5796   3.841   3.852   9.820  0.3421  0.0279 -0.2489
  388TMC3    C3 5797   3.847   3.892   9.951  1.0678 -0.3259 -0.0285
  388TMC3    C4 5798   3.937   3.638   9.879  0.7856 -0.2492  0.0481
  388TMC3    C5 5799   3.932   3.680  10.011 -0.1830  0.1385  0.2201
  388TMC3    C6 5800   3.889   3.807  10.048 -0.2692  0.1777 -0.0262
  388TMC3     C 5801   3.834   3.670   9.664 -0.0932  0.4643 -0.1754
  388TMC3     O 5802   3.723   3.701   9.620  0.2092  0.0573 -0.0718
  388TMC3     H 5803   3.786   3.909   9.746  0.3791  1.0104  0.4948
  388TMC3    H1 5804   3.957   3.536   9.848 -0.7343 -0.5560  0.0729
  388TMC3    H2 5805   3.881   3.819  10.156 -1.6329 -2.8814  0.2382
  388TMC3    C7 5806   3.987   3.590  10.108  0.6836  0.1204  0.3793
  388TMC3    C8 5807   3.762   4.005   9.985 -0.3348  0.1129 -0.5250
  388TMC3    O1 5808   3.937   3.584  10.219 -0.2182  0.3619 -0.7865
  388TMC3    O2 5809   3.676   4.041   9.900  0.6684  0.4133  0.1076
  389MPD2     C 5810   3.633   1.486  11.075  0.0866 -0.2979  0.6509
  389MPD2    C1 5811   3.538   1.414  11.000  0.0225 -0.1411  0.3136
  389MPD2    C2 5812   3.424   1.354  11.067 -0.2958 -0.7445 -0.1860
  389MPD2    C3 5813   3.413   1.367  11.207  0.5064  0.1892 -0.1221
  389MPD2    C4 5814   3.516   1.432  11.274  0.8865  0.1392  0.0984
  389MPD2    C5 5815   3.621   1.489  11.214  0.2455 -0.2649  0.1490
  389MPD2     H 5816   3.338   1.319  11.012 -0.5061 -0.2771 -0.1502
  389MPD2    H1 5817   3.514   1.450  11.381 -1.3818 -1.7082  0.3581
  389MPD2    H2 5818   3.713   1.533  11.018 -0.2098 -0.1199  0.3808
  389MPD2    H3 5819   3.692   1.541  11.277 -2.3880  2.6780  0.7359
  389MPD2     N 5820   3.303   1.320  11.281  0.5021 -0.6823  0.0547
  389MPD2    H5 5821   3.289   1.357  11.374 -0.1321 -0.6039 -0.0643
  389MPD2    N1 5822   3.555   1.414  10.861  0.2864 -0.4383  0.3758
  389MPD2    H7 5823   3.636   1.465  10.826  0.0180  0.5120  1.1420
  390TMC3    C1 5824   3.096   1.195  11.324  0.0854 -0.4420 -0.4960
  390TMC3    C2 5825   3.085   1.265  11.441 -0.2542 -0.5249 -0.8009
  390TMC3    C3 5826   2.957   1.285  11.488 -0.2761 -0.4285  0.0674
  390TMC3    C4 5827   2.982   1.152  11.247  0.1969  0.2777  0.1216
  390TMC3    C5 5828   2.867   1.209  11.282  0.0511  0.0270 -0.4601
  390TMC3    C6 5829   2.852   1.280  11.399 -0.1077  0.3887  0.2906
  390TMC3     C 5830   3.214   1.223  11.235 -0.2470 -0.5641  0.1458
  390TMC3     O 5831   3.221   1.161  11.131 -0.1043  0.3418  0.0803
  390TMC3     H 5832   3.173   1.253  11.502 -0.1853 -2.5998 -1.3038
  390TMC3    H1 5833   2.992   1.108  11.148 -0.5540 -0.5585  0.4214
  390TMC3    H2 5834   2.768   1.346  11.416  0.5997  0.3309  3.9999
  390TMC3    C7 5835   2.750   1.126  11.240 -0.2036  0.4087 -0.0501
  390TMC3    C8 5836   2.953   1.383  11.601 -0.4209 -0.3696 -0.1985
  390TMC3    O1 5837   2.769   1.046  11.149 -0.2997  0.6582  0.8134
  390TMC3    O2 5838   3.053   1.447  11.628 -0.5878 -0.0083  0.3381
  391MPD2     C 5839   2.219   3.127  11.404 -0.7436  0.1172  0.4656
  391MPD2    C1 5840   2.331   3.181  11.349  0.1029 -1.2113 -0.0929
  391MPD2    C2 5841   2.358   3.174  11.213  0.3975 -0.1620  0.1901
  391MPD2    C3 5842   2.274   3.108  11.126  0.2259 -0.5606  0.4643
  391MPD2    C4 5843   2.163   3.055  11.179 -0.0595  1.0900 -0.4455
  391MPD2    C5 5844   2.136   3.060  11.316  0.1065 -0.3330 -0.5700
  391MPD2     H 5845   2.448   3.223  11.176 -0.4710  0.5046 -1.0164
  391MPD2    H1 5846   2.099   2.995  11.114  1.5458  0.4202 -1.3968
  391MPD2    H2 5847   2.204   3.124  11.511  0.4569 -2.4478  0.5570
  391MPD2    H3 5848   2.051   3.004  11.351 -0.0518 -0.6716 -1.5050
  391MPD2     N 5849   2.315   3.107  10.991  0.7839  0.6775  0.3496
  391MPD2    H5 5850   2.408   3.140  10.970  0.8768  0.8843  1.0874
  391MPD2    N1 5851   2.426   3.249  11.426  0.1200 -0.4328  0.4074
  391MPD2    H7 5852   2.507   3.292  11.383 -0.3895 -0.6238 -0.7436
  392TMC3    C1 5853   2.280   3.104  10.747  0.1740 -0.1840  0.0900
  392TMC3    C2 5854   2.200   3.075  10.638 -0.0514 -0.2722 -0.1762
  392TMC3    C3 5855   2.227   3.118  10.516 -0.0013 -0.3730  0.3976
  392TMC3    C4 5856   2.403   3.153  10.727  0.3015 -0.0343 -0.3444
  392TMC3    C5 5857   2.431   3.187  10.599  0.3089 -0.3811 -0.1132
  392TMC3    C6 5858   2.347   3.178  10.483 -0.1372 -0.1211  0.3303
  392TMC3     C 5859   2.232   3.073  10.883  0.1615  0.3959 -0.0613
  392TMC3     O 5860   2.115   3.036  10.879 -0.3708 -0.5190  0.4860
  392TMC3     H 5861   2.103   3.030  10.653  0.0172 -0.1550  0.6485
  392TMC3    H1 5862   2.478   3.169  10.803  0.3408  0.4316 -0.4811
  392TMC3    H2 5863   2.371   3.201  10.380 -1.7057 -1.1678 -0.2491
  392TMC3    C7 5864   2.558   3.251  10.582  0.2444  0.0745  0.5773
  392TMC3    C8 5865   2.150   3.062  10.411  0.3871  0.2931 -0.8366
  392TMC3    O1 5866   2.602   3.310  10.677 -0.1462 -0.0821  0.1667
  392TMC3    O2 5867   2.139   2.939  10.410  0.0445 -0.0906 -1.0428
  393TMC3    C1 5868   1.631   1.779  11.347 -0.0034 -0.3437  0.0354
  393TMC3    C2 5869   1.524   1.858  11.339 -0.4775  0.3158 -0.0361
  393TMC3    C3 5870   1.399   1.815  11.383 -0.3192  0.1349 -0.6624
  393TMC3    C4 5871   1.622   1.656  11.409 -0.5827  0.1257 -0.0892
  393TMC3    C5 5872   1.500   1.613  11.451 -0.0964  0.1482 -0.3370
  393TMC3    C6 5873   1.386   1.687  11.429  0.1960  0.1908 -0.2067
  393TMC3     C 5874   1.695   1.761  11.222  0.1988  0.8624 -0.7557
  393TMC3     O 5875   1.717   1.647  11.182 -0.5031 -0.1760 -0.5938
  393TMC3     H 5876   1.529   1.953  11.286 -0.5904 -0.0990 -0.7899
  393TMC3    H1 5877   1.711   1.598  11.432 -0.5782  1.0545  2.3036
  393TMC3    H2 5878   1.286   1.645  11.436 -0.2990  1.1031 -1.6882
  393TMC3    C7 5879   1.475   1.477  11.419  0.0568  0.1959 -0.1988
  393TMC3    C8 5880   1.306   1.840  11.279  0.1547 -0.3177 -0.1685
  393TMC3    O1 5881   1.386   1.418  11.481  0.4128 -0.7575 -0.1848
  393TMC3    O2 5882   1.279   1.746  11.207 -0.5131  0.3857  0.4309
  394TMC3    C1 5883   3.509   1.368  10.635 -0.5783  0.0369  0.8921
  394TMC3    C2 5884   3.407   1.368  10.542 -0.7974 -0.0117  0.6290
  394TMC3    C3 5885   3.409   1.459  10.442 -0.8392 -0.7786  0.5659
  394TMC3    C4 5886   3.628   1.430  10.609  0.2891 -0.5423 -0.2413
  394TMC3    C5 5887   3.627   1.510  10.496 -0.3743  0.2188  0.1240
  394TMC3    C6 5888   3.518   1.528  10.413 -0.0771  0.0838 -0.7365
  394TMC3     C 5889   3.477   1.347  10.772  0.8635 -0.0579 -0.4204
  394TMC3     O 5890   3.374   1.289  10.790  0.0192 -0.1032  0.3165
  394TMC3     H 5891   3.319   1.315  10.576 -1.0276  0.2214  0.4021
  394TMC3    H1 5892   3.719   1.421  10.666 -0.2297  0.6919  0.7730
  394TMC3    H2 5893   3.514   1.614  10.347 -0.3135 -0.3000 -1.2210
  394TMC3    C7 5894   3.742   1.601  10.470 -0.6348  0.1564  0.0562
  394TMC3    C8 5895   3.279   1.507  10.384  0.0581 -0.1579 -0.8359
  394TMC3    O1 5896   3.710   1.688  10.393  0.0162 -0.9399 -0.0917
  394TMC3    O2 5897   3.185   1.502  10.460 -0.1969 -0.5088  0.1515
  395TMC3    C1 5898   3.457   3.686  14.488 -0.6715 -0.9186  0.3886
  395TMC3    C2 5899   3.419   3.674  14.354 -0.1598 -0.5175  0.4446
  395TMC3    C3 5900   3.495   3.741  14.260  0.1513  0.3773 -0.8819
  395TMC3    C4 5901   3.571   3.754  14.532 -0.3103 -0.4628  0.4685
  395TMC3    C5 5902   3.647   3.807  14.432 -0.0809 -0.2921  0.1004
  395TMC3    C6 5903   3.616   3.797  14.297 -0.3277  0.1066  0.4354
  395TMC3     C 5904   3.369   3.663  14.596  0.2232  0.4228  0.1562
  395TMC3     O 5905   3.398   3.698  14.709 -0.2072 -0.4647  0.5639
  395TMC3     H 5906   3.318   3.644  14.331  0.6540 -2.9920  0.0999
  395TMC3    H1 5907   3.604   3.761  14.635 -0.9606 -0.3330  0.6664
  395TMC3    H2 5908   3.653   3.875  14.231 -0.4844  0.3319  0.6138
  395TMC3    C7 5909   3.735   3.912  14.477  0.1632 -0.0625  0.1422
  395TMC3    C8 5910   3.429   3.810  14.155  0.3392  0.8512  0.0979
  395TMC3    O1 5911   3.737   3.951  14.594  0.0269 -0.1470 -0.1753
  395TMC3    O2 5912   3.471   3.920  14.125  0.1287 -0.0462  0.1257
  396MPD2     C 5913   2.740   0.175  16.836 -0.2815  0.3901 -0.2232
  396MPD2    C1 5914   2.836   0.215  16.920  0.2108 -0.2291 -0.1308
  396MPD2    C2 5915   2.921   0.320  16.893  0.3953  0.4199  0.3973
  396MPD2    C3 5916   2.905   0.394  16.777  0.0200 -0.2768  0.4226
  396MPD2    C4 5917   2.814   0.353  16.686 -0.4645  0.3243 -0.2685
  396MPD2    C5 5918   2.731   0.251  16.721  0.4307  0.1219  0.1605
  396MPD2     H 5919   2.990   0.350  16.971  1.8757  1.8281 -1.4704
  396MPD2    H1 5920   2.813   0.386  16.582  1.1690  1.0383 -0.0728
  396MPD2    H2 5921   2.668   0.097  16.858  1.4534 -1.1556 -0.0250
  396MPD2    H3 5922   2.654   0.212  16.655  1.1259 -1.2431  0.1606
  396MPD2     N 5923   2.989   0.505  16.761  0.1827 -0.1164  0.1692
  396MPD2    H5 5924   3.065   0.526  16.825 -0.2966 -0.1530  0.7469
  396MPD2    N1 5925   2.843   0.146  17.044  1.0224 -0.3097 -0.3170
  396MPD2    H7 5926   2.791   0.061  17.061  1.8024 -0.9695 -1.2981
  397TMC3    C1 5927   2.890   0.091  17.274  0.8874 -0.0420 -1.0356
  397TMC3    C2 5928   3.013   0.043  17.298  0.1686  0.5019  0.1643
  397TMC3    C3 5929   3.040   4.632  17.275 -0.0777  0.3713 -0.1221
  397TMC3    C4 5930   2.789   0.001  17.254 -0.0798  0.5597  0.4718
  397TMC3    C5 5931   2.812   4.591  17.272  0.8476 -0.2444  0.0603
  397TMC3    C6 5932   2.943   4.541  17.275 -0.5136 -0.1307 -0.1360
  397TMC3     C 5933   2.903   0.184  17.163 -0.1566  0.3218 -1.0077
  397TMC3     O 5934   2.971   0.279  17.178 -0.4698  0.0777  0.0766
  397TMC3     H 5935   3.086   0.122  17.298 -0.7135  1.3138  0.3130
  397TMC3    H1 5936   2.688   0.030  17.229  0.8158  2.4279 -0.9435
  397TMC3    H2 5937   2.962   4.435  17.267  0.1619  0.1453 -2.2689
  397TMC3    C7 5938   2.699   4.500  17.299 -0.0787  0.2994  0.3852
  397TMC3    C8 5939   3.115   4.608  17.155  0.3114  0.0465  0.9323
  397TMC3    O1 5940   2.587   4.537  17.270 -0.2933 -0.2811 -0.3393
  397TMC3    O2 5941   3.054   4.540  17.074  0.1800  0.6198  0.2482
  398MPD2     C 5942   0.962   1.042  17.611 -0.3835 -0.1211  0.3367
  398MPD2    C1 5943   1.008   0.974   0.030 -0.4372 -0.4303  0.1407
  398MPD2    C2 5944   1.068   1.049   0.134  0.1109  0.0695 -0.1698
  398MPD2    C3 5945   1.103   1.177   0.117 -0.2590  0.2728 -0.2774
  398MPD2    C4 5946   1.047   1.251   0.007 -0.0374 -0.4417 -0.4826
  398MPD2    C5 5947   0.984   1.180  17.602 -0.0494  0.3380 -0.1966
  398MPD2     H 5948   1.081   0.999   0.230  0.6456 -0.2403 -0.4006
  398MPD2    H1 5949   1.062   1.358  17.691 -0.0219 -0.2807  1.7177
  398MPD2    H2 5950   0.911   0.997  17.527  1.3586  0.5548 -1.0902
  398MPD2    H3 5951   0.939   1.234  17.520  1.1923  0.4924 -0.7891
  398MPD2     N 5952   1.189   1.234   0.216  0.3910  0.6116 -0.2135
  398MPD2    H5 5953   1.222   1.167   0.286 -0.2530  3.4832  2.8498
  398MPD2    N1 5954   0.995   0.832   0.048  0.1266 -0.1708 -0.0703
  398MPD2    H7 5955   1.030   0.796   0.137 -0.1298 -2.8430 -1.0512
  399TMC3    C1 5956   0.927   0.609  17.676 -0.8675 -0.1501 -0.3080
  399TMC3    C2 5957   0.993   0.566   0.096  0.4308 -0.5795  0.3603
  399TMC3    C3 5958   0.941   0.458   0.163 -0.1239 -0.3005 -0.8469
  399TMC3    C4 5959   0.826   0.541  17.610  0.3686  0.6008  0.0203
  399TMC3    C5 5960   0.790   0.428  17.671  0.0109  1.0689  0.3229
  399TMC3    C6 5961   0.843   0.380   0.095 -0.0276 -0.0603  0.2515
  399TMC3     C 5962   0.939   0.750  17.648  0.1048  0.3001 -0.2417
  399TMC3     O 5963   0.879   0.779  17.544  0.2996 -0.6462 -0.0745
  399TMC3     H 5964   1.081   0.618   0.132 -0.5717  1.5273 -0.2318
  399TMC3    H1 5965   0.764   0.589  17.535  0.7394  0.1079 -0.6061
  399TMC3    H2 5966   0.795   0.300   0.149  0.7574 -1.4235 -1.0491
  399TMC3    C7 5967   0.673   0.360  17.626 -0.0868  0.1265 -0.1995
  399TMC3    C8 5968   1.030   0.400   0.264  0.8824  0.2254  0.2073
  399TMC3    O1 5969   0.602   0.314   0.023  0.4582 -0.2548  0.4574
  399TMC3    O2 5970   1.115   0.473   0.312  0.4255  0.1013  0.3761
  400TMC3    C1 5971   4.524   4.487  16.899 -0.9092 -0.6617  1.1594
  400TMC3    C2 5972   4.412   4.489  16.826  0.2708 -0.0773 -0.3171
  400TMC3    C3 5973   4.337   4.601  16.831 -0.1750 -0.0900  0.0014
  400TMC3    C4 5974   4.578   4.601  16.956 -0.0287  0.1252 -0.1876
  400TMC3    C5 5975   4.510   4.717  16.928  0.3882 -0.0040 -0.1320
  400TMC3    C6 5976   4.387   4.721  16.874 -0.4914  0.2030 -0.2349
  400TMC3     C 5977   4.579   4.354  16.919  0.0975 -0.3217 -1.1632
  400TMC3     O 5978   4.568   4.279  16.825  0.6262  0.4472 -0.0124
  400TMC3     H 5979   4.376   4.392  16.792  0.1756  0.1614 -0.8949
  400TMC3    H1 5980   4.682   4.600  16.986  0.4057 -0.6318 -1.7159
  400TMC3    H2 5981   4.324   0.087  16.868 -0.9906 -0.1123  0.4044
  400TMC3    C7 5982   4.578   0.118  16.959  0.0826  0.0815 -0.5782
  400TMC3    C8 5983   4.204   4.614  16.765  0.1413 -0.5581 -0.2461
  400TMC3    O1 5984   4.696   0.104  16.939  0.1439 -0.1109 -0.2417
  400TMC3    O2 5985   4.144   4.720  16.769 -0.0174  0.2203 -0.1705
  401MPD2     C 5986   2.491   2.996   0.737  1.0219  0.4989 -0.1128
  401MPD2    C1 5987   2.443   2.911   0.840 -0.1703  0.9147 -0.4210
  401MPD2    C2 5988   2.401   2.781   0.799 -0.8844  0.3192 -0.0511
  401MPD2    C3 5989   2.419   2.741   0.669  0.4745 -0.5072  0.4029
  401MPD2    C4 5990   2.473   2.822   0.572  0.6170 -0.3874  0.6403
  401MPD2    C5 5991   2.527   2.938   0.615  0.6808 -0.4830 -0.2920
  401MPD2     H 5992   2.373   2.701   0.866  0.8558  0.4315  0.8312
  401MPD2    H1 5993   2.509   2.792   0.474  0.2552 -1.4454  0.8282
  401MPD2    H2 5994   2.540   3.089   0.763 -0.0926  0.2829  2.7988
  401MPD2    H3 5995   2.593   2.991   0.547 -1.1954  1.1203 -0.8913
  401MPD2     N 5996   2.393   2.607   0.640 -0.0564  0.0952  0.3177
  401MPD2    H5 5997   2.399   2.548   0.722  0.0132  0.2704  0.4380
  401MPD2    N1 5998   2.422   2.942   0.977 -0.0629 -0.0711  0.5915
  401MPD2    H7 5999   2.422   2.860   1.036 -3.8365 -1.3343 -1.1592
  402TMC3    C1 6000   2.417   2.399   0.537 -0.3770 -0.4867 -0.5380
  402TMC3    C2 6001   2.375   2.330   0.646 -0.2917  0.2653 -0.1442
  402TMC3    C3 6002   2.420   2.202   0.660  0.8879  0.8463 -0.0403
  402TMC3    C4 6003   2.489   2.334   0.440 -0.3631  0.0672  0.5687
  402TMC3    C5 6004   2.534   2.209   0.455 -0.2762  1.0452  0.0311
  402TMC3    C6 6005   2.497   2.131   0.566 -0.3935 -0.2559  0.3926
  402TMC3     C 6006   2.397   2.543   0.519  0.2674  0.3212  0.1340
  402TMC3     O 6007   2.409   2.580   0.403 -0.1294 -0.2735 -0.5588
  402TMC3     H 6008   2.309   2.371   0.723 -0.8100  1.2021 -1.0771
  402TMC3    H1 6009   2.533   2.390   0.358 -0.2222 -1.7481 -0.6040
  402TMC3    H2 6010   2.520   2.025   0.576 -1.8989 -0.7823 -1.7092
  402TMC3    C7 6011   2.606   2.153   0.345 -0.0981  0.4058  0.0294
  402TMC3    C8 6012   2.408   2.127   0.786  0.0176 -0.1009 -0.6629
  402TMC3    O1 6013   2.615   2.229   0.249 -0.3945 -0.3571  0.3294
  402TMC3    O2 6014   2.485   2.034   0.806  0.1616 -0.5013 -0.3911
  403MPD2     C 6015   0.909   1.317  13.237 -0.0540  0.3430  0.1126
  403MPD2    C1 6016   0.945   1.227  13.334 -0.3518  0.5478  0.0903
  403MPD2    C2 6017   1.040   1.265  13.428  0.3794  0.3198 -0.1805
  403MPD2    C3 6018   1.091   1.392  13.432  0.2558 -0.7970 -0.1329
  403MPD2    C4 6019   1.040   1.484  13.346 -0.0244  0.9738 -0.1407
  403MPD2    C5 6020   0.957   1.446  13.245  0.0826 -0.3271 -0.2195
  403MPD2     H 6021   1.072   1.186  13.496  0.9957  0.7374  0.0108
  403MPD2    H1 6022   1.067   1.589  13.352  0.0522  0.9266  0.4013
  403MPD2    H2 6023   0.827   1.302  13.167 -1.2553 -1.0498  1.8328
  403MPD2    H3 6024   0.933   1.532  13.183 -1.1288 -0.6225 -0.1615
  403MPD2     N 6025   1.190   1.420  13.523 -0.2009  0.3634  0.2673
  403MPD2    H5 6026   1.237   1.343  13.569 -0.4147 -0.8978 -1.6366
  403MPD2    N1 6027   0.891   1.096  13.322 -0.4775 -0.6415  0.5653
  403MPD2    H7 6028   0.844   1.082  13.233  0.9908 -2.2458  0.0343
  404TMC3    C1 6029   0.877   0.863  13.350  0.3129 -0.4577 -0.8302
  404TMC3    C2 6030   0.883   0.760  13.443  0.4478  0.6713  0.4207
  404TMC3    C3 6031   0.856   0.634  13.394 -0.2972  0.5017  0.0391
  404TMC3    C4 6032   0.845   0.850  13.215  0.5568  0.8504  0.4679
  404TMC3    C5 6033   0.809   0.721  13.181 -0.2013  0.2252  1.5163
  404TMC3    C6 6034   0.818   0.613  13.263 -0.1468  0.0546 -0.1076
  404TMC3     C 6035   0.903   0.993  13.411  0.2538  0.1517 -0.7222
  404TMC3     O 6036   0.959   0.999  13.521  0.3121 -0.6281  0.0396
  404TMC3     H 6037   0.915   0.770  13.546  1.6535  2.1263 -0.0984
  404TMC3    H1 6038   0.823   0.927  13.142 -0.0824 -0.3033 -0.5415
  404TMC3    H2 6039   0.798   0.513  13.225 -1.6846 -0.2976  1.5926
  404TMC3    C7 6040   0.762   0.694  13.051 -0.3072 -0.2797  0.0680
  404TMC3    C8 6041   0.879   0.523  13.481  0.3684  0.2139 -0.4463
  404TMC3    O1 6042   0.699   0.591  13.030 -0.4858 -0.2458  0.2365
  404TMC3    O2 6043   0.917   0.425  13.421  0.2601  0.5174  0.1652
  405MPD2     C 6044   1.388   2.069  14.791  0.6495 -0.6192 -0.2407
  405MPD2    C1 6045   1.388   1.958  14.704 -0.1778 -0.3436 -0.4138
  405MPD2    C2 6046   1.308   1.961  14.593 -0.5443 -0.5212  1.0594
  405MPD2    C3 6047   1.221   2.061  14.569  0.7503 -0.2761 -0.1560
  405MPD2    C4 6048   1.214   2.163  14.656  0.0926 -0.1068 -0.6663
  405MPD2    C5 6049   1.306   2.173  14.759 -0.4158 -0.0838  1.0473
  405MPD2     H 6050   1.288   1.879  14.525 -1.1598  1.2159 -0.8707
  405MPD2    H1 6051   1.133   2.236  14.661  1.2595  1.2087 -0.8689
  405MPD2    H2 6052   1.443   2.063  14.884  1.9836  0.3084 -0.9684
  405MPD2    H3 6053   1.293   2.256  14.828 -0.0656 -0.9517  2.1616
  405MPD2     N 6054   1.124   2.035  14.466  0.1758  0.3171  0.1866
  405MPD2    H5 6055   1.136   1.949  14.414  0.4348  0.5843 -0.2007
  405MPD2    N1 6056   1.469   1.846  14.736 -0.7885 -0.0764 -0.0360
  405MPD2    H7 6057   1.515   1.847  14.826 -1.9093  0.0528  0.5331
  406TMC3    C1 6058   0.705   2.011  14.266 -0.9232 -0.2242  0.3802
  406TMC3    C2 6059   0.724   1.874  14.241  0.3740  0.3034 -0.1460
  406TMC3    C3 6060   0.832   1.826  14.306  0.7815  0.0397 -0.0111
  406TMC3    C4 6061   0.798   2.089  14.324 -0.5335  0.3782 -0.2101
  406TMC3    C5 6062   0.914   2.037  14.374 -0.4743 -0.0369  0.5304
  406TMC3    C6 6063   0.930   1.903  14.361 -0.0526  0.5843  0.1195
  406TMC3     C 6064   0.567   2.056  14.260 -0.1699  0.5137 -0.5717
  406TMC3     O 6065   0.529   2.125  14.354 -0.6081 -0.5001  0.3129
  406TMC3     H 6066   0.656   1.806  14.191  0.7348 -0.1712  0.0128
  406TMC3    H1 6067   0.768   2.192  14.339  0.4398  0.7524 -0.8823
  406TMC3    H2 6068   0.997   1.847  14.426  0.6838  2.3849  0.8875
  406TMC3    C7 6069   1.010   2.110  14.434 -0.0208 -0.0893 -0.6865
  406TMC3    C8 6070   0.872   1.694  14.265 -0.0644 -0.0243 -0.0077
  406TMC3    O1 6071   0.987   2.227  14.465  0.4847 -0.1670 -0.8849
  406TMC3    O2 6072   0.791   1.608  14.234  0.1432 -0.6201 -0.2060
  407MPD2     C 6073   3.378   2.825   9.441 -0.0632  0.0784 -0.3678
  407MPD2    C1 6074   3.512   2.810   9.461 -0.6301  0.0499 -0.2499
  407MPD2    C2 6075   3.576   2.890   9.550  0.4589  0.1650  1.1294
  407MPD2    C3 6076   3.508   2.978   9.632 -0.4352 -0.0609 -0.5447
  407MPD2    C4 6077   3.372   2.989   9.618 -0.3662 -0.3843 -0.8396
  407MPD2    C5 6078   3.310   2.911   9.521  0.8388  0.5760 -0.2042
  407MPD2     H 6079   3.683   2.881   9.566  0.7851  0.2519 -0.9799
  407MPD2    H1 6080   3.313   3.041   9.693 -0.7179  0.2228 -1.5373
  407MPD2    H2 6081   3.315   2.770   9.373 -1.9256  0.4269  1.0656
  407MPD2    H3 6082   3.204   2.887   9.524  0.6143  1.8546  1.7025
  407MPD2     N 6083   3.578   3.059   9.725  0.0928  0.2209 -0.4836
  407MPD2    H5 6084   3.517   3.133   9.758 -1.7768 -2.0133  1.1370
  407MPD2    N1 6085   3.591   2.718   9.388  0.4649 -0.1966 -0.0693
  407MPD2    H7 6086   3.687   2.704   9.419  1.5061 -1.2857 -3.7696
  408TMC3    C1 6087   3.647   2.543   9.251 -0.5668  0.1704  0.5834
  408TMC3    C2 6088   3.780   2.580   9.255  0.3546 -0.2247  0.3944
  408TMC3    C3 6089   3.876   2.508   9.192 -0.0936 -0.5687 -0.5436
  408TMC3    C4 6090   3.602   2.437   9.177 -0.3450 -0.2564  0.4971
  408TMC3    C5 6091   3.700   2.363   9.121 -0.0897 -0.0100 -0.4054
  408TMC3    C6 6092   3.830   2.390   9.144 -0.1122  0.3296 -0.2658
  408TMC3     C 6093   3.542   2.640   9.277 -0.2019 -1.2053  0.7452
  408TMC3     O 6094   3.436   2.640   9.218 -0.2375 -0.4454 -0.2850
  408TMC3     H 6095   3.810   2.677   9.294 -3.1986  1.1566 -0.2797
  408TMC3    H1 6096   3.499   2.424   9.148  0.4091 -0.4109 -2.1523
  408TMC3    H2 6097   3.907   2.324   9.106  1.2825  2.2321 -0.7572
  408TMC3    C7 6098   3.664   2.224   9.092 -0.1546  0.6177  0.1565
  408TMC3    C8 6099   4.005   2.505   9.247 -0.1744 -0.3725 -0.2731
  408TMC3    O1 6100   3.741   2.168   9.017 -0.2353  0.4029 -0.5609
  408TMC3    O2 6101   4.045   2.406   9.307  0.3667  0.4212  0.5054
  409MPD2     C 6102   2.992   4.081  17.304 -0.2138 -0.6654 -0.1847
  409MPD2    C1 6103   3.126   4.050  17.323 -0.0782 -0.2913  0.1651
  409MPD2    C2 6104   3.227   4.115  17.258  0.4204 -0.0886  0.1626
  409MPD2    C3 6105   3.199   4.206  17.158 -0.0870  0.5219 -1.1167
  409MPD2    C4 6106   3.069   4.233  17.134  0.7329  0.2912 -1.1224
  409MPD2    C5 6107   2.972   4.174  17.211  0.6310 -0.2236  1.0443
  409MPD2     H 6108   3.330   4.103  17.287  0.6530 -1.4001 -1.2264
  409MPD2    H1 6109   3.049   4.315  17.066 -0.5992  1.0731  0.2005
  409MPD2    H2 6110   2.906   4.048  17.362 -2.7727  3.4389 -1.7206
  409MPD2    H3 6111   2.870   4.208  17.199  0.4729 -1.8123 -2.1766
  409MPD2     N 6112   3.295   4.278  17.087  0.5000  0.8236 -0.5818
  409MPD2    H5 6113   3.264   4.356  17.029  0.4076  1.1755 -0.0658
  409MPD2    N1 6114   3.167   3.946  17.416 -0.0725  0.2585  0.3822
  409MPD2    H7 6115   3.265   3.921  17.410  0.1274  1.4716 -1.5060
  410TMC3    C1 6116   3.497   4.370  17.013 -0.1613 -0.1501  0.0094
  410TMC3    C2 6117   3.627   4.365  17.031 -0.4650  0.5499  0.5576
  410TMC3    C3 6118   3.707   4.455  16.966  0.4132 -0.0421  0.2827
  410TMC3    C4 6119   3.434   4.453  16.925  0.4081 -0.4557 -0.9890
  410TMC3    C5 6120   3.518   4.543  16.859 -0.1370 -0.0787  0.1258
  410TMC3    C6 6121   3.657   4.544  16.877 -0.7045 -0.5212 -0.0158
  410TMC3     C 6122   3.428   4.269  17.091  0.0577  0.1627  0.1548
  410TMC3     O 6123   3.502   4.191  17.150  0.1478  0.0704 -0.1217
  410TMC3     H 6124   3.682   4.310  17.106  0.5821 -0.4941 -0.9755
  410TMC3    H1 6125   3.327   4.459  16.906 -0.0014 -2.3020  0.8160
  410TMC3    H2 6126   3.718   4.605  16.812 -2.1181  1.5440  0.5651
  410TMC3    C7 6127   3.460   4.593  16.737 -1.0275 -0.3911  0.0681
  410TMC3    C8 6128   3.848   4.457  17.001  0.4053 -0.2984  0.0975
  410TMC3    O1 6129   3.362   4.538  16.690 -0.4431  0.0288  0.3257
  410TMC3    O2 6130   3.908   4.562  16.985  0.2030  0.3197 -0.0633
  411MPD2     C 6131   4.085   0.284  14.362 -0.0288  0.2446 -0.1638
  411MPD2    C1 6132   3.961   0.273  14.425 -0.4861 -0.2265 -0.3792
  411MPD2    C2 6133   3.895   0.152  14.424  0.4916 -0.5920 -0.1528
  411MPD2    C3 6134   3.959   0.042  14.362  0.8358 -0.7636 -0.0613
  411MPD2    C4 6135   4.075   0.060  14.293 -0.9136  0.3198  0.5357
  411MPD2    C5 6136   4.145   0.173  14.298 -0.8256  0.3545  0.0002
  411MPD2     H 6137   3.793   0.150  14.462 -0.5554  2.6215 -2.7430
  411MPD2    H1 6138   4.123   4.693  14.256 -1.4052 -0.5719  2.0508
  411MPD2    H2 6139   4.136   0.380  14.364  0.3892  0.0378 -0.7789
  411MPD2    H3 6140   4.243   0.189  14.253 -0.3644 -0.6032  0.6677
  411MPD2     N 6141   3.887   4.640  14.352 -0.0216  0.0745 -0.3048
  411MPD2    H5 6142   3.929   4.573  14.289 -1.9147  0.1838 -1.6798
  411MPD2    N1 6143   3.908   0.389  14.490 -0.3321 -0.1998  0.8054
  411MPD2    H7 6144   3.954   0.475  14.466  1.4097 -1.5071 -0.4890
  412TMC3    C1 6145   3.719   4.472  14.361  0.0821  0.2831 -0.3773
  412TMC3    C2 6146   3.591   4.438  14.405  0.0833  0.0699 -0.1385
  412TMC3    C3 6147   3.529   4.332  14.345  0.7544 -0.6226 -0.1995
  412TMC3    C4 6148   3.779   4.401  14.264 -0.0663 -0.0079 -0.4951
  412TMC3    C5 6149   3.716   4.287  14.218 -0.5677  0.6901  0.1260
  412TMC3    C6 6150   3.598   4.245  14.269 -0.1377 -0.3977 -0.0491
  412TMC3     C 6151   3.772   4.601  14.418  0.4274  0.2289  0.2713
  412TMC3     O 6152   3.712   4.659  14.510  0.3404  0.2626 -0.3601
  412TMC3     H 6153   3.537   4.502  14.473  0.1228  0.6573 -0.6621
  412TMC3    H1 6154   3.879   4.429  14.233  0.6986 -2.2892 -0.0759
  412TMC3    H2 6155   3.544   4.160  14.229 -1.0137 -0.3807  1.0756
  412TMC3    C7 6156   3.731   4.278  14.071 -0.1564 -0.2051 -0.0115
  412TMC3    C8 6157   3.392   4.345  14.314 -0.5215  0.2039  0.2965
  412TMC3    O1 6158   3.818   4.340  14.010 -0.3162 -0.6226 -0.1000
  412TMC3    O2 6159   3.323   4.241  14.303  0.0343 -0.0607 -0.1323
  413MPD2     C 6160   0.299   2.950  15.129 -0.3184  0.2919 -0.6040
  413MPD2    C1 6161   0.198   2.904  15.049 -0.2427  0.0293 -0.1442
  413MPD2    C2 6162   0.229   2.792  14.972 -0.5078  0.6509  0.3998
  413MPD2    C3 6163   0.352   2.726  14.983 -0.4985 -0.3641  0.8199
  413MPD2    C4 6164   0.453   2.790  15.050  0.2490 -0.5794  0.3530
  413MPD2    C5 6165   0.429   2.908  15.126 -0.2115 -0.6002 -0.4545
  413MPD2     H 6166   0.156   2.746  14.907 -0.0898 -3.2295  2.7190
  413MPD2    H1 6167   0.556   2.763  15.031  0.2262 -0.0294 -0.5705
  413MPD2    H2 6168   0.284   3.036  15.194 -1.2515 -2.3295  2.6587
  413MPD2    H3 6169   0.503   2.962  15.184  0.4186 -0.6449 -1.2172
  413MPD2     N 6170   0.376   2.609  14.908  0.2262 -0.2038 -0.3526
  413MPD2    H5 6171   0.310   2.580  14.835  0.6863 -0.1464 -0.7906
  413MPD2    N1 6172   0.066   2.959  15.070  0.2358  0.2113 -0.3687
  413MPD2    H7 6173   0.064   3.038  15.134 -2.4684  0.5374 -0.8637
  414TMC3    C1 6174   0.516   2.431  14.836  0.1021  0.0552 -0.7003
  414TMC3    C2 6175   0.598   2.324  14.870  0.5261 -0.2871 -0.0471
  414TMC3    C3 6176   0.660   2.261  14.758 -0.6760 -0.3689  0.8105
  414TMC3    C4 6177   0.500   2.469  14.705  0.2935 -0.4137  0.4411
  414TMC3    C5 6178   0.549   2.395  14.603 -0.1657 -0.4665  0.2073
  414TMC3    C6 6179   0.621   2.288  14.632 -0.3699 -0.0837 -0.3702
  414TMC3     C 6180   0.478   2.522  14.939  0.2365 -0.3484  0.1058
  414TMC3     O 6181   0.555   2.526  15.035 -0.4496  0.5719  0.5134
  414TMC3     H 6182   0.605   2.286  14.971 -1.2723 -2.0242 -0.5945
  414TMC3    H1 6183   0.448   2.559  14.673  3.5747  0.7676 -1.6000
  414TMC3    H2 6184   0.667   2.232  14.552  2.0882  0.1362  0.8870
  414TMC3    C7 6185   0.616   2.479  14.508 -0.6722  0.2128 -0.4074
  414TMC3    C8 6186   0.750   2.158  14.777 -0.3939  0.3463 -0.3691
  414TMC3    O1 6187   0.554   2.560  14.445 -0.1805  0.4605  0.5467
  414TMC3    O2 6188   0.723   2.054  14.719 -1.1223 -0.1161  0.1586
  415TMC3    C1 6189   0.488   0.556   9.937 -0.4572 -0.5850  0.1114
  415TMC3    C2 6190   0.516   0.682   9.890  0.2530 -0.2063 -0.0557
  415TMC3    C3 6191   0.440   0.707   9.777 -0.3088  1.2524 -0.2764
  415TMC3    C4 6192   0.387   0.474   9.895  0.3813  0.6160 -0.0908
  415TMC3    C5 6193   0.302   0.522   9.792  0.1446 -0.2625  0.3946
  415TMC3    C6 6194   0.338   0.635   9.726 -0.0233  0.5787  0.7145
  415TMC3     C 6195   0.579   0.491  10.028  0.6401  0.1699  0.3069
  415TMC3     O 6196   0.554   0.376  10.054 -0.0080  0.8501  0.3547
  415TMC3     H 6197   0.579   0.759   9.935 -2.1502  0.9872  1.2754
  415TMC3    H1 6198   0.367   0.384   9.952 -0.4802  0.9422  0.1235
  415TMC3    H2 6199   0.299   0.672   9.632  1.0096 -0.1631 -0.0002
  415TMC3    C7 6200   0.199   0.446   9.733  0.4660  0.1258 -0.1318
  415TMC3    C8 6201   0.482   0.827   9.711  0.4928 -0.2553  0.2503
  415TMC3    O1 6202   0.134   0.500   9.645  0.6574  0.2311  0.1289
  415TMC3    O2 6203   0.395   0.882   9.648 -0.5297 -0.2626 -0.4579
  416MPD2     C 6204   3.221   4.588  11.481 -0.7705 -0.1851  0.7796
  416MPD2    C1 6205   3.098   4.575  11.423 -0.0812 -0.5958 -0.0914
  416MPD2    C2 6206   3.080   4.490  11.314  0.8166 -0.2669 -0.6510
  416MPD2    C3 6207   3.172   4.399  11.277  0.5551  0.1811 -0.1984
  416MPD2    C4 6208   3.296   4.394  11.352 -0.1524  0.1303 -0.2665
  416MPD2    C5 6209   3.316   4.497  11.443  0.0775  0.0531  0.3913
  416MPD2     H 6210   2.979   4.483  11.274 -0.8881  1.9924  3.1931
  416MPD2    H1 6211   3.378   4.326  11.332  1.2439  2.4677 -2.4708
  416MPD2    H2 6212   3.250   4.657  11.559 -0.7049  1.0249 -0.3319
  416MPD2    H3 6213   3.412   4.504  11.493 -0.0946  1.4271  0.5341
  416MPD2     N 6214   3.137   4.292  11.193 -0.3570  0.0343 -0.4966
  416MPD2    H5 6215   3.201   4.214  11.199 -1.7568 -1.1957 -1.4619
  416MPD2    N1 6216   2.993   4.660  11.461  0.3759 -0.0400 -0.1265
  416MPD2    H7 6217   3.019   0.007  11.531  0.7448 -1.4174  1.1086
  417TMC3    C1 6218   2.781   0.029  11.496  0.9710 -0.1245 -0.1843
  417TMC3    C2 6219   2.793   0.035  11.630  0.3156 -0.7842  0.2469
  417TMC3    C3 6220   2.710   0.118  11.696 -0.3635 -0.2637  0.4412
  417TMC3    C4 6221   2.683   0.096  11.428 -0.4788 -0.2044 -0.3176
  417TMC3    C5 6222   2.596   0.171  11.501  0.1823  1.1080 -0.2784
  417TMC3    C6 6223   2.603   0.180  11.641 -0.0593 -0.2807  0.3658
  417TMC3     C 6224   2.865   4.669  11.410  1.0294 -0.2540 -0.7761
  417TMC3     O 6225   2.812   4.603  11.322 -0.3295 -0.0707 -0.0851
  417TMC3     H 6226   2.849   4.690  11.695 -0.5698 -1.3737  0.4039
  417TMC3    H1 6227   2.678   0.083  11.321 -1.2603 -0.8820 -0.2018
  417TMC3    H2 6228   2.541   0.254  11.690  0.1150 -0.2213  0.4969
  417TMC3    C7 6229   2.473   0.210  11.445 -0.3140 -0.3567 -0.0988
  417TMC3    C8 6230   2.711   0.108  11.839 -0.5963  0.4965  0.2545
  417TMC3    O1 6231   2.479   0.264  11.337  0.2157 -0.6441  0.4796
  417TMC3    O2 6232   2.604   0.128  11.893  0.5662  0.5590 -0.1060
  418TMC3    C1 6233   1.564   1.159   0.228  0.1698 -0.9563 -0.5455
  418TMC3    C2 6234   1.476   1.257   0.184 -0.0420  0.3492  0.0447
  418TMC3    C3 6235   1.392   1.326   0.269 -0.3261 -0.3265 -0.7737
  418TMC3    C4 6236   1.556   1.113   0.365  0.2524 -0.3463 -0.3889
  418TMC3    C5 6237   1.488   1.190   0.452  0.6337  0.1514 -0.3401
  418TMC3    C6 6238   1.400   1.290   0.406  0.6095 -0.3655  0.1981
  418TMC3     C 6239   1.651   1.111   0.130 -0.0747 -0.2409  0.5940
  418TMC3     O 6240   1.690   1.186   0.042  0.0544  0.1024 -0.0880
  418TMC3     H 6241   1.477   1.291   0.081  0.0995 -0.3608 -0.1861
  418TMC3    H1 6242   1.624   1.039   0.406 -0.0529 -1.6485 -2.2255
  418TMC3    H2 6243   1.331   1.335   0.476 -1.2409 -1.0662 -1.1988
  418TMC3    C7 6244   1.475   1.148   0.587  0.1572 -0.0331  0.2675
  418TMC3    C8 6245   1.258   1.353   0.207  0.0824  0.4026  0.2985
  418TMC3    O1 6246   1.476   1.233   0.672  0.2511  0.0336  0.1086
  418TMC3    O2 6247   1.233   1.455   0.140 -0.2786 -0.5094 -0.2244
  419MPD2     C 6248   0.214   4.440  12.386 -0.4651  0.3832 -0.1727
  419MPD2    C1 6249   0.100   4.512  12.338  0.4745  0.3187  0.4396
  419MPD2    C2 6250   0.061   4.614  12.414  0.1594  0.2435  0.0483
  419MPD2    C3 6251   0.130   4.650  12.530  1.0671 -0.0064 -0.1025
  419MPD2    C4 6252   0.247   4.586  12.573  0.7094  0.9554 -0.2949
  419MPD2    C5 6253   0.289   4.476  12.498 -0.8168 -0.4865  0.7276
  419MPD2     H 6254   4.699   4.676  12.387  1.7848  1.0522 -3.0795
  419MPD2    H1 6255   0.302   4.610  12.663 -2.2417  1.2073  1.4515
  419MPD2    H2 6256   0.247   4.352  12.331  0.5620  1.4695 -1.3161
  419MPD2    H3 6257   0.369   4.411  12.532 -0.7461 -1.2044 -0.7986
  419MPD2     N 6258   0.070   0.029  12.611 -1.2856  0.1497 -0.1103
  419MPD2    H5 6259   4.700   0.058  12.583 -1.4370 -0.1114  0.1194
  419MPD2    N1 6260   0.043   4.495  12.214  0.6019 -0.3135 -0.0858
  419MPD2    H7 6261   4.684   4.553  12.198  0.4201  0.0903  2.4239
  420TMC3    C1 6262   0.037   0.200  12.767  0.1572  0.0033  0.1899
  420TMC3    C2 6263   4.633   0.206  12.715 -0.0924  0.6332 -0.5169
  420TMC3    C3 6264   4.534   0.231  12.796  0.1180 -0.5005 -0.1690
  420TMC3    C4 6265   0.068   0.237  12.894  0.1439 -0.5137  0.0577
  420TMC3    C5 6266   4.685   0.254  12.978  0.2562  0.1017 -0.7060
  420TMC3    C6 6267   4.553   0.257  12.931  0.0281 -0.8820  0.0629
  420TMC3     C 6268   0.133   0.096  12.713  0.7475 -0.9839  0.1545
  420TMC3     O 6269   0.251   0.091  12.749 -0.1378 -0.1187  0.2613
  420TMC3     H 6270   4.623   0.198  12.607  0.5088  1.3317 -0.6229
  420TMC3    H1 6271   0.166   0.253  12.936  1.2651 -1.7187 -2.1010
  420TMC3    H2 6272   4.470   0.280  12.998 -1.7415 -2.2389 -1.6672
  420TMC3    C7 6273   4.709   0.255  13.124  0.1056 -0.5530 -0.0393
  420TMC3    C8 6274   4.411   0.278  12.732  0.4467 -0.9956 -0.6227
  420TMC3    O1 6275   0.082   0.326  13.162  0.0976 -0.6174 -0.3199
  420TMC3    O2 6276   4.422   0.371  12.654 -0.7396 -0.3440  0.6407
  421TMC3    C1 6277   1.346   1.548  13.653 -0.3541 -0.3522 -0.5498
  421TMC3    C2 6278   1.341   1.660  13.734  0.1330 -0.4601  0.5821
  421TMC3    C3 6279   1.421   1.657  13.844  0.1934 -0.0645  0.8831
  421TMC3    C4 6280   1.428   1.437  13.684 -0.3189  0.1459 -1.0858
  421TMC3    C5 6281   1.508   1.443  13.786  0.4865  0.0338  0.3293
  421TMC3    C6 6282   1.503   1.549  13.867 -0.5430 -0.3874 -0.5958
  421TMC3     C 6283   1.239   1.541  13.559  0.5832  0.3289  0.0126
  421TMC3     O 6284   1.196   1.654  13.525  0.7072 -0.4509 -0.4494
  421TMC3     H 6285   1.272   1.744  13.724  0.3454 -0.6105 -2.1127
  421TMC3    H1 6286   1.424   1.357  13.610  0.1908 -1.4298  0.5942
  421TMC3    H2 6287   1.577   1.547  13.946  0.6688 -0.0600 -1.7158
  421TMC3    C7 6288   1.618   1.348  13.795 -0.6632 -0.3355  0.2616
  421TMC3    C8 6289   1.483   1.778  13.902 -0.0011 -0.4350 -0.0741
  421TMC3    O1 6290   1.710   1.380  13.867  0.0171 -0.4860  0.4788
  421TMC3    O2 6291   1.477   1.884  13.839 -0.0754  1.2984  0.3462
  422TMC3    C1 6292   3.497   2.466  12.593 -0.2213 -0.1192 -0.2257
  422TMC3    C2 6293   3.465   2.599  12.611 -0.0539 -0.1870 -0.1261
  422TMC3    C3 6294   3.365   2.636  12.697  0.0853  0.4475  0.0795
  422TMC3    C4 6295   3.404   2.375  12.645  0.7724 -0.4669  0.1166
  422TMC3    C5 6296   3.296   2.415  12.718 -0.5009  0.5842 -0.6077
  422TMC3    C6 6297   3.273   2.544  12.754  0.1291  0.1881  0.2071
  422TMC3     C 6298   3.603   2.422  12.502 -0.5554  0.5741  0.0608
  422TMC3     O 6299   3.665   2.506  12.435 -0.2151  0.1636  0.2908
  422TMC3     H 6300   3.524   2.673  12.558 -0.1392 -0.5075 -0.6654
  422TMC3    H1 6301   3.422   2.269  12.628 -0.4170 -1.0976  2.8473
  422TMC3    H2 6302   3.187   2.573  12.814  0.3323  0.0556  0.5601
  422TMC3    C7 6303   3.185   2.320  12.716 -0.3239 -0.1476  0.8822
  422TMC3    C8 6304   3.343   2.781  12.720 -0.2329  0.1914 -0.8586
  422TMC3    O1 6305   3.208   2.214  12.665 -0.4458 -0.2629 -0.6457
  422TMC3    O2 6306   3.431   2.859  12.681  0.1918  0.5285 -0.1907
  423MPD2     C 6307   0.792   3.773   0.370 -0.7655  0.3369 -0.5405
  423MPD2    C1 6308   0.767   3.644   0.404 -0.0778  0.5402  0.1064
  423MPD2    C2 6309   0.803   3.539   0.318 -0.9315 -0.4647  0.1704
  423MPD2    C3 6310   0.868   3.568   0.201  0.6748  0.7356 -0.2530
  423MPD2    C4 6311   0.894   3.703   0.172 -0.4705 -0.5496  0.1595
  423MPD2    C5 6312   0.855   3.804   0.252 -0.4504  0.4655 -0.4322
  423MPD2     H 6313   0.783   3.436   0.345 -3.3010  0.5455  2.3209
  423MPD2    H1 6314   0.934   3.725   0.073 -0.1124 -0.8238  0.2442
  423MPD2    H2 6315   0.768   3.855   0.437 -0.1886  2.1110 -2.4814
  423MPD2    H3 6316   0.868   3.910   0.237 -0.5057  1.0244  3.3400
  423MPD2     N 6317   0.912   3.475   0.100  0.0372  0.2289  0.0110
  423MPD2    H5 6318   0.939   3.510   0.008  0.6816 -0.8056 -0.1934
  423MPD2    N1 6319   0.703   3.613   0.525 -0.0475  0.1272  0.3836
  423MPD2    H7 6320   0.652   3.525   0.524  0.0427  0.0899 -1.7702
  424TMC3    C1 6321   0.587   3.651   0.725  0.5507  0.2175  0.2472
  424TMC3    C2 6322   0.624   3.618   0.848  0.0498  0.1270 -0.6322
  424TMC3    C3 6323   0.554   3.519   0.918  0.8322  0.2160 -0.0008
  424TMC3    C4 6324   0.483   3.593   0.661 -0.3673 -0.7487  0.5945
  424TMC3    C5 6325   0.409   3.501   0.730 -0.1941 -0.6781  0.0588
  424TMC3    C6 6326   0.440   3.463   0.859  0.0591 -0.2131  0.7688
  424TMC3     C 6327   0.692   3.696   0.638  0.2619  0.2653 -0.0216
  424TMC3     O 6328   0.751   3.800   0.666 -0.2741 -0.1881 -0.2707
  424TMC3     H 6329   0.719   3.653   0.887 -0.0647  0.4817 -0.6657
  424TMC3    H1 6330   0.450   3.636   0.567  2.1645 -1.3691 -0.5885
  424TMC3    H2 6331   0.382   3.386   0.909  0.3269  0.6527  2.4014
  424TMC3    C7 6332   0.275   3.473   0.675  0.0470 -0.0130 -0.6252
  424TMC3    C8 6333   0.626   3.408   0.975 -0.0989 -1.1500  0.6809
  424TMC3    O1 6334   0.254   3.490   0.556  0.1132 -0.0223 -0.2833
  424TMC3    O2 6335   0.632   3.305   0.911  0.5197  0.1007  0.0869
  425MPD2     C 6336   3.830   3.046  17.317 -0.3134 -0.5094 -0.1723
  425MPD2    C1 6337   3.756   2.952  17.247 -0.4031 -0.5494  0.1353
  425MPD2    C2 6338   3.621   2.951  17.270 -0.9098 -0.0345 -0.3860
  425MPD2    C3 6339   3.562   3.047  17.348 -0.1658 -0.2753 -0.3128
  425MPD2    C4 6340   3.633   3.144  17.409 -0.7085  0.7219 -0.2104
  425MPD2    C5 6341   3.772   3.144  17.396  0.1788  0.0535 -0.3043
  425MPD2     H 6342   3.560   2.869  17.235 -3.4127  1.8088 -0.3221
  425MPD2    H1 6343   3.592   3.222  17.471  0.8449 -0.0366  1.7429
  425MPD2    H2 6344   3.938   3.045  17.305 -0.0615 -0.2173  2.0761
  425MPD2    H3 6345   3.834   3.221  17.440 -1.1259  1.5784 -1.1548
  425MPD2     N 6346   3.424   3.041  17.359 -0.2541  0.2788 -0.1319
  425MPD2    H5 6347   3.394   2.957  17.310  4.1900 -1.1671 -0.3378
  425MPD2    N1 6348   3.823   2.860  17.168 -0.1940  0.0842  0.0980
  425MPD2    H7 6349   3.921   2.864  17.195 -0.3222 -0.9934  0.7388
  426TMC3    C1 6350   3.854   2.653  17.057 -0.8879  0.2902  0.1732
  426TMC3    C2 6351   3.826   2.586  16.937  0.2006  0.1440  0.0001
  426TMC3    C3 6352   3.845   2.450  16.936  0.2251 -0.2260 -0.3728
  426TMC3    C4 6353   3.894   2.591  17.170  0.0419 -0.3896 -0.0686
  426TMC3    C5 6354   3.907   2.456  17.162  1.1705  0.1102  0.0104
  426TMC3    C6 6355   3.885   2.384  17.045  0.3930  0.6356 -0.2570
  426TMC3     C 6356   3.772   2.769  17.081 -0.0605 -1.0988  0.0915
  426TMC3     O 6357   3.669   2.780  17.015 -0.1753 -0.2022  0.1038
  426TMC3     H 6358   3.801   2.634  16.843 -0.9893 -1.4175 -0.4856
  426TMC3    H1 6359   3.885   2.645  17.264  2.1161 -0.7496  0.3485
  426TMC3    H2 6360   3.895   2.276  17.043  0.0215  0.6205 -1.7049
  426TMC3    C7 6361   3.951   2.385  17.274 -0.1379 -0.1082 -0.0221
  426TMC3    C8 6362   3.849   2.373  16.811 -0.0443  0.5450 -0.6137
  426TMC3    O1 6363   4.030   2.295  17.250  0.0295 -0.8709  0.0645
  426TMC3    O2 6364   3.933   2.394  16.727  0.6081 -0.2411 -0.7068
  427MPD2     C 6365   3.085   0.452  14.628  0.1758  0.0405  0.3985
  427MPD2    C1 6366   3.036   0.320  14.638 -0.3423  0.7056  0.4222
  427MPD2    C2 6367   2.900   0.297  14.616  0.6926 -0.6123  0.0084
  427MPD2    C3 6368   2.817   0.400  14.576 -0.1187  0.0493  0.0820
  427MPD2    C4 6369   2.869   0.529  14.565 -0.7252  0.9134  0.5515
  427MPD2    C5 6370   3.000   0.554  14.590 -0.0668  0.4440 -0.3210
  427MPD2     H 6371   2.861   0.196  14.622  1.1820 -0.8355 -0.6645
  427MPD2    H1 6372   2.804   0.615  14.553 -1.2145  0.3415 -0.8719
  427MPD2    H2 6373   3.189   0.478  14.645  0.5083 -1.2439  0.3158
  427MPD2    H3 6374   3.032   0.657  14.572 -0.6602  0.2974 -2.1277
  427MPD2     N 6375   2.680   0.379  14.541  0.5842  0.5387 -0.6012
  427MPD2    H5 6376   2.643   0.459  14.491  0.8459  0.0886 -1.5045
  427MPD2    N1 6377   3.107   0.209  14.693  0.2734  0.0775 -0.5277
  427MPD2    H7 6378   3.063   0.120  14.714  3.3782 -1.3465 -0.0872
  428TMC3    C1 6379   3.288   0.089  14.803 -0.1112  0.3102 -0.1745
  428TMC3    C2 6380   3.203   4.712  14.837 -1.0271 -0.7484 -0.5023
  428TMC3    C3 6381   3.241   4.615  14.928  0.2212 -0.2038 -0.0464
  428TMC3    C4 6382   3.404   0.108  14.875  0.3489  0.4991  0.0547
  428TMC3    C5 6383   3.443   0.010  14.966 -0.3392  0.9095 -0.0433
  428TMC3    C6 6384   3.362   4.626  15.001 -0.8463  0.0741  0.2366
  428TMC3     C 6385   3.246   0.205  14.722 -0.2516 -0.1249 -0.6041
  428TMC3     O 6386   3.325   0.293  14.688 -0.2633  0.5909  0.3067
  428TMC3     H 6387   3.109   4.704  14.785 -1.5297  0.6219  0.1988
  428TMC3    H1 6388   3.475   0.186  14.852  0.6996 -0.6407 -2.7525
  428TMC3    H2 6389   3.396   4.552  15.072  3.0569  0.0309 -1.6443
  428TMC3    C7 6390   3.508   0.066  15.078  0.4779  0.1543 -0.6359
  428TMC3    C8 6391   3.141   4.528  14.988 -1.0011  0.6028 -0.2284
  428TMC3    O1 6392   3.462   0.034  15.184 -0.4929  0.1668  0.2124
  428TMC3    O2 6393   3.187   4.447  15.067 -0.2368  0.1789 -0.4826
  429MPD2     C 6394   3.667   0.500   0.031  0.0050  0.3952  0.1536
  429MPD2    C1 6395   3.736   0.433  17.624  0.6749 -0.3993  0.2089
  429MPD2    C2 6396   3.820   0.499  17.537  0.0122  0.0961 -0.2113
  429MPD2    C3 6397   3.834   0.634  17.548  0.2576  0.5546 -0.2604
  429MPD2    C4 6398   3.783   0.702  17.658  0.4187 -0.1903  0.1252
  429MPD2    C5 6399   3.706   0.631   0.051  0.6210 -0.2027  0.2203
  429MPD2     H 6400   3.869   0.449  17.454 -0.1197  0.2818 -0.4000
  429MPD2    H1 6401   3.801   0.805  17.686  1.8446 -0.3491 -0.2459
  429MPD2    H2 6402   3.599   0.456   0.104 -1.2414  1.4457 -0.3652
  429MPD2    H3 6403   3.680   0.686   0.140  1.6210  0.6431 -0.0199
  429MPD2     N 6404   3.921   0.693  17.455  0.2195 -0.0899  0.3161
  429MPD2    H5 6405   3.966   0.632  17.388 -0.8685 -0.9163  0.3506
  429MPD2    N1 6406   3.728   0.290  17.602  0.2698  0.2335 -0.1483
  429MPD2    H7 6407   3.751   0.256  17.509 -1.2024  2.1133 -1.2172
  430TMC3    C1 6408   4.037   0.865  17.348 -0.1712 -0.2242  0.1593
  430TMC3    C2 6409   3.985   0.927  17.238 -0.7095  0.3872  0.0171
  430TMC3    C3 6410   4.065   0.925  17.126  0.2727 -0.7595 -0.8725
  430TMC3    C4 6411   4.150   0.791  17.348 -0.0024  0.3585  0.1861
  430TMC3    C5 6412   4.228   0.796  17.237  0.8495  0.7177 -0.3809
  430TMC3    C6 6413   4.179   0.854  17.123  0.3499  0.1165 -0.7736
  430TMC3     C 6414   3.937   0.829  17.442  0.0452 -0.6684 -0.3784
  430TMC3     O 6415   3.854   0.914  17.468 -0.5905 -0.0273 -0.4961
  430TMC3     H 6416   3.884   0.965  17.248 -0.4372  1.4599 -1.4095
  430TMC3    H1 6417   4.170   0.728  17.434  2.8127  1.3148  0.2615
  430TMC3    H2 6418   4.240   0.867  17.034  1.6594 -1.7661 -0.1361
  430TMC3    C7 6419   4.307   0.675  17.217  0.0580  0.7447 -0.2457
  430TMC3    C8 6420   3.994   0.923  17.005 -0.9235 -0.2976 -0.8796
  430TMC3    O1 6421   4.250   0.573  17.253 -0.0273 -0.0060 -0.5406
  430TMC3    O2 6422   4.035   0.849  16.919 -0.6376 -0.1480 -0.1152
  431MPD2     C 6423   4.535   0.260  12.366 -0.0640  0.4576 -0.0388
  431MPD2    C1 6424   4.645   0.215  12.286 -0.3794  0.1646 -0.0950
  431MPD2    C2 6425   4.615   0.130  12.180 -0.4709 -0.3767  0.7028
  431MPD2    C3 6426   4.487   0.074  12.168 -0.8849 -1.1943 -0.6854
  431MPD2    C4 6427   4.384   0.120  12.248  0.7363  0.0932 -0.4260
  431MPD2    C5 6428   4.404   0.210  12.345  0.5204  0.0639  0.1841
  431MPD2     H 6429   4.696   0.105  12.112 -0.5144  0.0687  0.4947
  431MPD2    H1 6430   4.284   0.081  12.235  0.2878  1.6262 -1.6662
  431MPD2    H2 6431   4.538   0.332  12.448  1.9520  1.0857 -0.6659
  431MPD2    H3 6432   4.327   0.243  12.414 -1.4300 -1.2678 -1.3483
  431MPD2     N 6433   4.473   4.693  12.071 -0.6162 -0.0913  0.1115
  431MPD2    H5 6434   4.390   4.636  12.083 -0.0539 -0.5786  1.7690
  431MPD2    N1 6435   0.055   0.255  12.305 -1.0419 -0.0734 -0.4212
  431MPD2    H7 6436   0.119   0.213  12.238 -0.7891  1.5445 -1.2008
  432TMC3    C1 6437   4.558   4.553  11.910  0.2484 -0.5734 -0.0204
  432TMC3    C2 6438   4.631   4.548  11.791 -0.0123 -0.0670  0.5167
  432TMC3    C3 6439   0.016   4.466  11.777  0.2482  0.2837 -0.2133
  432TMC3    C4 6440   4.599   4.468  12.017 -0.0395 -0.3216 -0.2630
  432TMC3    C5 6441   4.716   4.397  12.001  0.3971  0.6754  0.0206
  432TMC3    C6 6442   0.056   4.389  11.882  0.2965  0.3008 -0.2391
  432TMC3     C 6443   4.543   4.688  11.953 -0.0027  0.5285 -0.1626
  432TMC3     O 6444   4.628   0.042  11.904 -0.4647 -0.3029  0.3276
  432TMC3     H 6445   4.608   4.619  11.712 -0.0375  0.0095  0.5925
  432TMC3    H1 6446   4.558   4.480  12.116  1.9108  1.2544  0.3404
  432TMC3    H2 6447   0.140   4.321  11.871 -0.0907 -0.0871 -0.8128
  432TMC3    C7 6448   0.081   4.397  12.115 -0.0638 -0.0972  0.5642
  432TMC3    C8 6449   0.082   4.466  11.643  0.4930 -0.0869  0.1253
  432TMC3    O1 6450   0.191   4.344  12.105 -0.3947  0.1977 -0.1246
  432TMC3    O2 6451   0.023   4.517  11.546  0.1555 -0.1678  0.0598
  433MPD2     C 6452   3.637   3.666  10.860  0.0624  0.2141  0.6249
  433MPD2    C1 6453   3.546   3.602  10.945  0.4041 -0.7200 -0.7010
  433MPD2    C2 6454   3.532   3.651  11.077  0.7087  0.3600 -0.1607
  433MPD2    C3 6455   3.617   3.744  11.124  0.5172 -0.3755 -0.3804
  433MPD2    C4 6456   3.714   3.809  11.038 -0.1197 -0.2917 -0.4389
  433MPD2    C5 6457   3.712   3.776  10.902 -0.0951  0.1080 -0.4134
  433MPD2     H 6458   3.450   3.613  11.137 -0.1893  0.0354 -1.5661
  433MPD2    H1 6459   3.782   3.885  11.074 -1.1917  1.3299 -1.8202
  433MPD2    H2 6460   3.653   3.631  10.759  1.0394 -1.2826  1.2930
  433MPD2    H3 6461   3.781   3.815  10.829  2.2769  0.2850  1.9068
  433MPD2     N 6462   3.613   3.767  11.259 -0.4172 -0.2807 -0.3967
  433MPD2    H5 6463   3.550   3.719  11.324 -0.0670  1.6465  1.3698
  433MPD2    N1 6464   3.467   3.502  10.884  0.0880 -0.0613  0.6063
  433MPD2    H7 6465   3.468   3.497  10.783 -1.8785  0.1917  0.5902
  434TMC3    C1 6466   3.332   3.307  10.872 -0.5992  0.1153 -0.1863
  434TMC3    C2 6467   3.275   3.212  10.947 -0.7537  0.1766  0.8995
  434TMC3    C3 6468   3.231   3.099  10.884  0.0654  0.5167  0.1362
  434TMC3    C4 6469   3.335   3.302  10.740 -0.4161  0.0341 -0.2993
  434TMC3    C5 6470   3.290   3.194  10.676  0.6059  0.0791  0.1878
  434TMC3    C6 6471   3.239   3.089  10.748 -0.3197 -0.4424 -0.4459
  434TMC3     C 6472   3.392   3.414  10.958  0.0788 -0.0899  0.0732
  434TMC3     O 6473   3.384   3.401  11.079 -0.7545  0.8162  0.2982
  434TMC3     H 6474   3.246   3.228  11.050  1.5001  0.0968  1.5390
  434TMC3    H1 6475   3.368   3.390  10.685  0.9553 -0.0952  0.3186
  434TMC3    H2 6476   3.214   3.000  10.690 -2.2498  0.2697 -0.7170
  434TMC3    C7 6477   3.311   3.187  10.533 -0.2589 -0.6497  0.0937
  434TMC3    C8 6478   3.243   2.970  10.961  0.5146 -0.1994 -0.7606
  434TMC3    O1 6479   3.323   3.294  10.478 -0.3199  0.1417 -0.3993
  434TMC3    O2 6480   3.190   2.865  10.927 -0.2160  0.7173  0.4808
  435MPD2     C 6481   0.526   3.297  15.157 -0.5541 -0.4749 -0.0286
  435MPD2    C1 6482   0.537   3.392  15.257 -0.5733 -0.2012 -0.0605
  435MPD2    C2 6483   0.675   3.409  15.301 -0.0672  0.3309 -0.1407
  435MPD2    C3 6484   0.777   3.332  15.259  0.7543  0.2630 -0.4728
  435MPD2    C4 6485   0.754   3.241  15.164  0.0037  0.1439 -0.0858
  435MPD2    C5 6486   0.627   3.215  15.126  0.1322 -0.5793 -0.4206
  435MPD2     H 6487   0.697   3.472  15.387  0.9795 -0.2880  0.0521
  435MPD2    H1 6488   0.827   3.177  15.116 -1.5468 -0.7278 -1.2960
  435MPD2    H2 6489   0.427   3.269  15.123 -1.7026 -0.8716  3.6402
  435MPD2    H3 6490   0.603   3.133  15.059 -1.5385  0.1915 -0.7378
  435MPD2     N 6491   0.900   3.348  15.322 -0.9919  0.1309 -0.1152
  435MPD2    H5 6492   0.912   3.417  15.395 -1.2677  0.2783 -0.2114
  435MPD2    N1 6493   0.431   3.453  15.321  0.1022 -0.2798 -0.5173
  435MPD2    H7 6494   0.449   3.495  15.412 -0.4634 -1.0107 -0.0701
  436TMC3    C1 6495   0.213   3.616  15.597  0.0659  0.0094  0.0526
  436TMC3    C2 6496   0.234   3.512  15.513 -0.5010 -0.9876  0.4313
  436TMC3    C3 6497   0.215   3.538  15.379 -0.0578  0.1194 -0.7975
  436TMC3    C4 6498   0.163   3.736  15.550 -0.2902 -0.2478  0.6961
  436TMC3    C5 6499   0.161   3.764  15.413  0.2121  0.3583  0.9789
  436TMC3    C6 6500   0.182   3.658  15.329  0.2868 -0.0274  0.1055
  436TMC3     C 6501   0.237   3.604  15.736  0.1946 -0.1587  0.5346
  436TMC3     O 6502   0.276   3.492  15.759 -0.0382  0.2459 -0.3971
  436TMC3     H 6503   0.291   3.424  15.541  4.4957  1.8983 -0.6280
  436TMC3    H1 6504   0.151   3.822  15.615  0.9180  1.4207 -1.2835
  436TMC3    H2 6505   0.197   3.670  15.223  0.4970  0.6241  0.2069
  436TMC3    C7 6506   0.183   3.898  15.362  0.0235 -0.3054  0.3936
  436TMC3    C8 6507   0.298   3.462  15.283  0.2141  0.3695  0.0284
  436TMC3    O1 6508   0.243   3.910  15.255  0.0976 -0.1784 -0.4440
  436TMC3    O2 6509   0.247   3.422  15.179 -0.4967 -0.0235  0.3548
  437TMC3    C1 6510   4.355   1.065  12.237 -0.2969  0.0205 -0.2846
  437TMC3    C2 6511   4.328   1.148  12.129  0.0432  0.7510  0.7209
  437TMC3    C3 6512   4.400   1.141  12.016 -0.3947  0.5572 -0.0627
  437TMC3    C4 6513   4.456   0.973  12.226 -0.6735  0.6291  0.0651
  437TMC3    C5 6514   4.526   0.961  12.107 -1.0086  0.5135 -0.8723
  437TMC3    C6 6515   4.497   1.043  12.001  0.1452 -0.3809 -0.1941
  437TMC3     C 6516   4.248   1.050  12.334 -0.0317 -0.3399  0.5494
  437TMC3     O 6517   4.153   1.126  12.324  0.1001  0.1577 -0.0862
  437TMC3     H 6518   4.246   1.219  12.133 -1.4292 -0.9053 -0.2708
  437TMC3    H1 6519   4.477   0.888  12.290 -2.4449 -1.2453 -1.8143
  437TMC3    H2 6520   4.552   1.019  11.911 -0.2686 -1.6090 -0.1213
  437TMC3    C7 6521   4.654   0.893  12.099  0.2447 -0.9272 -0.4231
  437TMC3    C8 6522   4.360   1.231  11.901  0.0159 -0.8302  0.4624
  437TMC3    O1 6523   4.712   0.885  11.992 -0.8810  0.1529  0.1787
  437TMC3    O2 6524   4.278   1.318  11.924 -0.3099 -0.6816 -0.7278
  438MPD2     C 6525   1.636   1.620  16.318  0.8541 -0.2640 -0.5110
  438MPD2    C1 6526   1.711   1.569  16.418 -0.3205 -0.5895 -0.3424
  438MPD2    C2 6527   1.652   1.526  16.536 -0.1257 -0.3533 -0.4893
  438MPD2    C3 6528   1.517   1.557  16.558 -0.4241  0.0690 -0.4957
  438MPD2    C4 6529   1.451   1.622  16.461 -0.0020  0.2873  0.3966
  438MPD2    C5 6530   1.508   1.657  16.340 -0.4620  0.1485  0.0901
  438MPD2     H 6531   1.712   1.489  16.618 -0.4744  1.6032  0.6369
  438MPD2    H1 6532   1.345   1.639  16.476  0.0238  0.4398  0.4081
  438MPD2    H2 6533   1.673   1.635  16.217  0.1738  2.3185 -0.3592
  438MPD2    H3 6534   1.441   1.709  16.272 -0.7241  0.3272  0.4835
  438MPD2     N 6535   1.436   1.520  16.673 -0.7035 -0.2436 -0.0102
  438MPD2    H5 6536   1.345   1.565  16.681 -0.3015  0.4131  0.8529
  438MPD2    N1 6537   1.844   1.524  16.400  0.4071  0.3550 -0.2976
  438MPD2    H7 6538   1.877   1.457  16.469 -3.4096 -1.1389  0.0840
  439TMC3    C1 6539   2.039   1.463  16.295 -0.4209 -0.4165 -0.4829
  439TMC3    C2 6540   2.098   1.442  16.171 -1.3206 -0.8355 -1.0714
  439TMC3    C3 6541   2.226   1.412  16.167  0.2333  0.0460  0.2712
  439TMC3    C4 6542   2.111   1.444  16.416  0.3421  0.7709 -0.0230
  439TMC3    C5 6543   2.249   1.415  16.401  0.1460  0.7997  0.5655
  439TMC3    C6 6544   2.305   1.393  16.277  0.1795 -0.3332  0.1294
  439TMC3     C 6545   1.917   1.534  16.290 -0.4503  0.1718 -0.7168
  439TMC3     O 6546   1.898   1.606  16.191  0.0797 -0.5175  0.5225
  439TMC3     H 6547   2.032   1.447  16.085 -0.0300 -0.0412 -2.0193
  439TMC3    H1 6548   2.073   1.470  16.514 -2.2325  1.3555 -1.1667
  439TMC3    H2 6549   2.413   1.383  16.271  0.0229 -1.0847 -1.3326
  439TMC3    C7 6550   2.325   1.340  16.509  0.8294 -0.9042  0.6691
  439TMC3    C8 6551   2.280   1.344  16.052  0.1149  0.0871 -0.6447
  439TMC3    O1 6552   2.446   1.353  16.493 -0.1006  0.4205 -0.0555
  439TMC3    O2 6553   2.384   1.284  16.068  0.1709  0.2297 -0.0731
  440MPD2     C 6554   0.406   1.707  14.513  0.1686 -0.3479 -0.6598
  440MPD2    C1 6555   0.502   1.770  14.593 -0.0894 -0.5045 -0.0455
  440MPD2    C2 6556   0.623   1.712  14.615 -0.2764 -0.2281  0.4759
  440MPD2    C3 6557   0.650   1.587  14.564 -0.3988  0.3442 -0.0870
  440MPD2    C4 6558   0.553   1.524  14.489 -0.2212 -0.2544 -0.3152
  440MPD2    C5 6559   0.427   1.577  14.469  0.1225  0.7947 -0.1489
  440MPD2     H 6560   0.700   1.768  14.667 -1.2393  1.3517  0.1987
  440MPD2    H1 6561   0.575   1.433  14.434 -0.9728 -0.2258 -0.6718
  440MPD2    H2 6562   0.309   1.753  14.496  1.1058  0.9426 -2.5169
  440MPD2    H3 6563   0.352   1.536  14.402  0.7776  1.6589 -1.4054
  440MPD2     N 6564   0.771   1.521  14.592  0.3818 -0.3646 -0.0296
  440MPD2    H5 6565   0.786   1.427  14.556 -0.5561  0.1448 -1.7729
  440MPD2    N1 6566   0.486   1.897  14.644  0.5507  0.2375 -0.0711
  440MPD2    H7 6567   0.566   1.940  14.688  0.2972 -0.7559  1.3448
  441TMC3    C1 6568   0.978   1.507  14.702  0.8224  0.3620  0.2906
  441TMC3    C2 6569   1.104   1.565  14.720  0.0538  1.2494  0.0872
  441TMC3    C3 6570   1.160   1.557  14.843  0.3970  0.0803  0.5708
  441TMC3    C4 6571   0.928   1.430  14.798  0.4492 -0.5555  0.2573
  441TMC3    C5 6572   0.996   1.408  14.915  0.0381 -0.3533 -0.2946
  441TMC3    C6 6573   1.110   1.476  14.938 -0.4840 -0.6569  0.1293
  441TMC3     C 6574   0.879   1.593  14.651 -0.0847 -0.2833 -0.5878
  441TMC3     O 6575   0.910   1.710  14.640  0.0586 -0.2172  0.5893
  441TMC3     H 6576   1.133   1.644  14.651  1.5904  0.2304 -0.4332
  441TMC3    H1 6577   0.829   1.386  14.790 -0.5040  2.4687 -4.1831
  441TMC3    H2 6578   1.139   1.485  15.042  1.4049  2.4945 -0.6515
  441TMC3    C7 6579   0.921   1.380  15.036  0.3352  0.9741 -0.4760
  441TMC3    C8 6580   1.175   1.688  14.898  0.2409  0.5373 -1.0313
  441TMC3    O1 6581   0.951   1.450  15.131 -0.4347 -0.2302  0.1047
  441TMC3    O2 6582   1.246   1.692  14.996  0.6740  0.0506  0.1143
  442MPD2     C 6583   3.556   2.588  16.709 -0.3658  0.0981 -0.6577
  442MPD2    C1 6584   3.478   2.483  16.745  0.4100 -0.1812 -0.5653
  442MPD2    C2 6585   3.483   2.364  16.663 -0.4479 -0.9056 -0.0782
  442MPD2    C3 6586   3.560   2.355  16.547  0.1843 -0.4806  1.0749
  442MPD2    C4 6587   3.633   2.465  16.510 -0.4962  0.2527  0.5210
  442MPD2    C5 6588   3.623   2.580  16.591 -0.2129  0.4347 -0.0650
  442MPD2     H 6589   3.418   2.284  16.699  2.9444 -3.5364  0.1632
  442MPD2    H1 6590   3.702   2.468  16.427 -0.0075 -1.3138  0.8574
  442MPD2    H2 6591   3.556   2.681  16.765 -0.9725  1.2257 -2.5309
  442MPD2    H3 6592   3.680   2.665  16.557 -1.7370  0.7137 -1.9344
  442MPD2     N 6593   3.574   2.239  16.467  1.2212  0.3646  0.3501
  442MPD2    H5 6594   3.640   2.261  16.393 -0.4065 -0.6436 -1.3860
  442MPD2    N1 6595   3.380   2.498  16.840 -0.0669  0.7383 -0.0872
  442MPD2    H7 6596   3.322   2.418  16.865  0.2713  0.4961 -0.0871
  443TMC3    C1 6597   3.234   2.609  16.982 -0.6221  0.1645 -0.4504
  443TMC3    C2 6598   3.133   2.694  16.962 -0.2466 -0.0312  0.5367
  443TMC3    C3 6599   3.010   2.650  17.000 -0.7680  0.0767 -0.4242
  443TMC3    C4 6600   3.210   2.482  17.039  0.4048 -0.4375  0.3584
  443TMC3    C5 6601   3.086   2.446  17.076  0.1285 -0.6382  0.6398
  443TMC3    C6 6602   2.981   2.529  17.061  0.2436  0.0308  0.6023
  443TMC3     C 6603   3.344   2.620  16.894  0.7720 -0.3195  0.3552
  443TMC3     O 6604   3.378   2.735  16.867  0.4076 -0.3505 -0.3822
  443TMC3     H 6605   3.156   2.778  16.897 -2.5697  0.9452  0.9453
  443TMC3    H1 6606   3.288   2.412  17.065  1.6273  0.8104  0.0611
  443TMC3    H2 6607   2.878   2.497  17.072  0.0478  1.1942  2.2329
  443TMC3    C7 6608   3.069   2.309  17.140 -0.2666 -0.4407 -0.2442
  443TMC3    C8 6609   2.908   2.752  17.001  0.5513 -0.4795 -0.2172
  443TMC3    O1 6610   3.151   2.225  17.108 -0.5103  0.1054 -0.3391
  443TMC3    O2 6611   2.840   2.753  17.101  0.0718  0.4057  0.5869
  444MPD2     C 6612   3.890   1.963  16.994  0.1530  0.5225 -0.2293
  444MPD2    C1 6613   3.812   1.855  16.987  0.9805  0.0953  0.6654
  444MPD2    C2 6614   3.862   1.741  16.929 -0.4870  0.8484  0.1435
  444MPD2    C3 6615   3.995   1.739  16.888  0.6364  0.2612 -0.1944
  444MPD2    C4 6616   4.079   1.846  16.927  0.6426 -0.9346  0.3555
  444MPD2    C5 6617   4.025   1.961  16.965  0.2418  0.4462  0.1593
  444MPD2     H 6618   3.788   1.663  16.918  0.9588 -0.3261 -1.0923
  444MPD2    H1 6619   4.185   1.845  16.903  0.1330 -1.4687 -1.9585
  444MPD2    H2 6620   3.857   2.054  17.043  1.7518  0.3720  1.1068
  444MPD2    H3 6621   4.090   2.038  17.005 -0.3016  0.3084  1.3049
  444MPD2     N 6622   4.044   1.614  16.847  0.0290  0.3726 -0.0773
  444MPD2    H5 6623   3.976   1.540  16.835  0.9453 -0.5736  0.5741
  444MPD2    N1 6624   3.672   1.851  17.025  0.0278  0.3714 -0.2004
  444MPD2    H7 6625   3.629   1.759  17.021 -2.3704  1.4385  1.2210
  445TMC3    C1 6626   4.201   1.460  16.755  0.0361 -0.2457  0.0103
  445TMC3    C2 6627   4.092   1.388  16.710 -0.2973  0.1886  0.3987
  445TMC3    C3 6628   4.118   1.278  16.634 -0.2304 -0.1887  0.0076
  445TMC3    C4 6629   4.328   1.428  16.734  0.6274  1.0701 -0.5001
  445TMC3    C5 6630   4.349   1.312  16.660 -0.1262 -0.2815  0.2478
  445TMC3    C6 6631   4.247   1.240  16.603 -0.4210  0.0211 -0.0980
  445TMC3     C 6632   4.178   1.592  16.812  0.6540  1.0387  0.2204
  445TMC3     O 6633   4.282   1.655  16.843 -0.6263 -0.0789 -0.3811
  445TMC3     H 6634   3.993   1.433  16.717 -0.8505 -0.8126 -0.9300
  445TMC3    H1 6635   4.404   1.485  16.785  1.3922 -0.6582  0.2836
  445TMC3    H2 6636   4.265   1.167  16.524 -0.1808  0.2336 -0.2391
  445TMC3    C7 6637   4.489   1.292  16.620  0.0355  0.2651  0.3171
  445TMC3    C8 6638   4.012   1.250  16.533 -0.1261 -0.2728 -0.4795
  445TMC3    O1 6639   4.567   1.387  16.638 -0.3262  0.2216 -0.2872
  445TMC3    O2 6640   3.939   1.342  16.503 -0.1633 -0.0590  0.4426
  446MPD2     C 6641   3.410   2.887  11.602 -0.4847  0.2589  0.1083
  446MPD2    C1 6642   3.337   2.953  11.507  0.4279 -0.4214 -0.0805
  446MPD2    C2 6643   3.396   3.062  11.442 -0.1236  0.4387  0.6022
  446MPD2    C3 6644   3.526   3.102  11.466 -0.6884  0.1715 -0.3297
  446MPD2    C4 6645   3.595   3.033  11.567 -0.4484  0.3824  0.4610
  446MPD2    C5 6646   3.538   2.928  11.629  0.3151  0.3800  0.7976
  446MPD2     H 6647   3.344   3.121  11.366 -3.1486 -3.3475 -0.2741
  446MPD2    H1 6648   3.696   3.067  11.586  0.0804 -0.2156 -1.2618
  446MPD2    H2 6649   3.369   2.811  11.667  1.7065 -0.0448  1.1558
  446MPD2    H3 6650   3.594   2.881  11.709 -0.4380 -0.2860  0.9238
  446MPD2     N 6651   3.578   3.215  11.400 -0.1141 -0.4988  0.0506
  446MPD2    H5 6652   3.509   3.276  11.357  0.7076  1.3541  1.3286
  446MPD2    N1 6653   3.212   2.908  11.461 -0.9260 -0.1626 -0.5106
  446MPD2    H7 6654   3.168   2.958  11.384  0.8497  0.1503 -1.3119
  447TMC3    C1 6655   3.742   3.326  11.267 -0.1565 -0.1936  0.2143
  447TMC3    C2 6656   3.655   3.322  11.161  0.5256 -0.2447 -0.0862
  447TMC3    C3 6657   3.710   3.337  11.035  0.0318 -0.0834  0.0683
  447TMC3    C4 6658   3.879   3.346  11.256 -1.0200  0.7455 -0.7412
  447TMC3    C5 6659   3.926   3.376  11.129 -0.8484 -0.3212 -0.2242
  447TMC3    C6 6660   3.845   3.364  11.022  0.1868 -0.8683 -0.4470
  447TMC3     C 6661   3.710   3.244  11.384  0.0868  0.0725  0.6578
  447TMC3     O 6662   3.805   3.185  11.431  0.2599  0.5176 -0.1595
  447TMC3     H 6663   3.554   3.284  11.165  0.4899 -0.1428 -0.0309
  447TMC3    H1 6664   3.952   3.326  11.333 -0.7116 -0.9275 -1.4575
  447TMC3    H2 6665   3.886   3.388  10.924  0.9892 -1.3832 -0.2375
  447TMC3    C7 6666   4.070   3.364  11.090  0.0151  0.2512  0.2331
  447TMC3    C8 6667   3.660   3.246  10.935 -0.3437 -0.3892 -0.0583
  447TMC3    O1 6668   4.096   3.310  10.983  0.6967 -0.3341 -0.2621
  447TMC3    O2 6669   3.587   3.161  10.975 -0.6626 -0.5952  0.1317
  448TMC3    C1 6670   2.163   3.136  16.419 -0.2118 -0.3389  0.6002
  448TMC3    C2 6671   2.186   3.030  16.333 -0.0835  0.0179  0.0515
  448TMC3    C3 6672   2.211   2.909  16.392  0.0268  0.0416  0.2972
  448TMC3    C4 6673   2.169   3.120  16.556  0.3030 -0.3845 -0.1231
  448TMC3    C5 6674   2.214   3.003  16.610  0.3027  0.4030  0.3486
  448TMC3    C6 6675   2.237   2.900  16.527 -0.6821  0.1818 -0.5190
  448TMC3     C 6676   2.090   3.236  16.359  0.5811  0.1887  0.3818
  448TMC3     O 6677   2.031   3.203  16.256 -0.1917 -0.0832 -0.3406
  448TMC3     H 6678   2.170   3.040  16.226 -1.5220  2.3890  0.4911
  448TMC3    H1 6679   2.122   3.185  16.629  0.7001  0.3965 -0.5645
  448TMC3    H2 6680   2.246   2.801  16.570 -1.3498  0.8401  1.1242
  448TMC3    C7 6681   2.288   3.015  16.732  0.1770 -0.0916 -0.4319
  448TMC3    C8 6682   2.198   2.778  16.324  0.0691 -0.0138 -0.6357
  448TMC3    O1 6683   2.308   3.130  16.767 -0.4313 -0.4323  0.0233
  448TMC3    O2 6684   2.215   2.673  16.382 -0.3756 -0.3957 -0.3558
  449MPD2     C 6685   3.410   1.415  13.751 -0.1483 -0.3407 -0.1429
  449MPD2    C1 6686   3.309   1.468  13.679  0.1590 -0.3509  0.1416
  449MPD2    C2 6687   3.189   1.478  13.740  0.2730  0.1818  0.3623
  449MPD2    C3 6688   3.158   1.437  13.867 -0.2047  0.6038 -0.1097
  449MPD2    C4 6689   3.261   1.387  13.944 -0.1341  0.8398  0.8455
  449MPD2    C5 6690   3.387   1.391  13.884 -0.2061 -0.2909 -0.5857
  449MPD2     H 6691   3.114   1.518  13.672  0.1355 -0.0172  0.3977
  449MPD2    H1 6692   3.248   1.350  14.045  0.2129  1.5018  1.1239
  449MPD2    H2 6693   3.512   1.415  13.717  0.2227  0.4866  0.9629
  449MPD2    H3 6694   3.467   1.358  13.950 -1.1334 -0.6198  0.3777
  449MPD2     N 6695   3.018   1.439  13.899 -0.3017  0.0779  0.1963
  449MPD2    H5 6696   2.956   1.470  13.825  1.9178  1.6218 -1.0253
  449MPD2    N1 6697   3.320   1.522  13.552 -0.1291 -0.5275  0.2382
  449MPD2    H7 6698   3.233   1.546  13.506 -0.3013 -2.7846 -0.6476
  450TMC3    C1 6699   3.396   1.603  13.364 -0.6971  0.4757 -0.1147
  450TMC3    C2 6700   3.444   1.566  13.247  0.1910  0.7309 -0.1547
  450TMC3    C3 6701   3.352   1.575  13.142 -0.5196  0.3003 -0.3557
  450TMC3    C4 6702   3.273   1.664  13.376  0.1097 -0.4628 -0.3892
  450TMC3    C5 6703   3.193   1.681  13.268  0.1266 -0.7152  0.5434
  450TMC3    C6 6704   3.223   1.615  13.156  0.6848  0.3905  0.8922
  450TMC3     C 6705   3.430   1.523  13.478  0.0727 -0.0510 -0.2718
  450TMC3     O 6706   3.541   1.473  13.494 -0.6892  0.1544 -0.8239
  450TMC3     H 6707   3.540   1.516  13.246  1.2381  2.5929  5.4225
  450TMC3    H1 6708   3.261   1.736  13.456  2.5089 -0.6881  0.1778
  450TMC3    H2 6709   3.168   1.630  13.064  0.7830  0.2885  0.8160
  450TMC3    C7 6710   3.069   1.636  13.323  0.2842  0.5402 -0.3243
  450TMC3    C8 6711   3.403   1.576  13.008  0.1104 -0.2006 -0.1768
  450TMC3    O1 6712   3.077   1.568  13.426  0.3600 -0.7354  0.9705
  450TMC3    O2 6713   3.327   1.596  12.911  0.3273 -0.6686 -0.1597
  451MPD2     C 6714   4.224   4.688   1.407 -0.3638  0.2412 -0.3738
  451MPD2    C1 6715   4.270   0.044   1.302  0.3014 -0.9840 -0.3359
  451MPD2    C2 6716   4.368   4.722   1.212  0.6418  0.0477  0.0788
  451MPD2    C3 6717   4.409   4.596   1.232  0.9213  0.0299 -0.0074
  451MPD2    C4 6718   4.348   4.510   1.320  0.5722 -0.8523  0.1125
  451MPD2    C5 6719   4.257   4.558   1.408  0.3538  0.5387 -0.1614
  451MPD2     H 6720   4.420   0.067   1.144  0.9191  0.9844  1.2140
  451MPD2    H1 6721   4.382   4.407   1.330 -0.9594 -1.0542  3.1517
  451MPD2    H2 6722   4.165   0.006   1.488 -0.4914 -0.7200  0.0096
  451MPD2    H3 6723   4.216   4.496   1.487  0.3711 -1.5838 -1.8354
  451MPD2     N 6724   4.515   4.533   1.157  0.2786 -0.1609  0.0638
  451MPD2    H5 6725   4.540   4.440   1.190 -0.5125 -0.3852  0.0462
  451MPD2    N1 6726   4.227   0.182   1.296 -0.2849 -0.3776 -0.3559
  451MPD2    H7 6727   4.154   0.210   1.360 -0.4886 -0.2524 -0.6392
  452TMC3    C1 6728   4.666   4.498   0.992  0.6805 -0.2813 -0.3252
  452TMC3    C2 6729   0.004   4.413   1.078  0.5066  0.2182  0.5518
  452TMC3    C3 6730   0.065   4.307   1.020  0.0394 -0.2997 -0.2392
  452TMC3    C4 6731   4.675   4.484   0.857 -0.6680  0.8179 -0.7122
  452TMC3    C5 6732   0.016   4.379   0.804  0.7110 -0.2850 -0.0160
  452TMC3    C6 6733   0.072   4.280   0.882  0.2788  0.6793  0.1762
  452TMC3     C 6734   4.561   4.572   1.038  0.2554  0.3263 -0.1717
  452TMC3     O 6735   4.520   4.659   0.960 -0.2660  0.0278  0.3788
  452TMC3     H 6736   0.004   4.427   1.185 -0.6133 -1.1711  0.7378
  452TMC3    H1 6737   4.630   4.552   0.786 -0.6618  1.2088 -0.3417
  452TMC3    H2 6738   0.137   4.202   0.843 -1.8656 -1.0202  0.0281
  452TMC3    C7 6739   0.016   4.364   0.656  0.0123  0.4726 -1.1582
  452TMC3    C8 6740   0.142   4.235   1.116 -0.0461  0.0483 -0.1959
  452TMC3    O1 6741   0.025   4.467   0.592  0.3492  0.0333 -0.3383
  452TMC3    O2 6742   0.098   4.215   1.225 -0.6184  0.0761  0.0473
  453TMC3    C1 6743   0.932   2.241  12.303  0.0022 -0.4163  0.2382
  453TMC3    C2 6744   0.875   2.127  12.365  0.1826  0.0014  0.1125
  453TMC3    C3 6745   0.782   2.063  12.290 -0.5042  0.0746  0.1992
  453TMC3    C4 6746   0.897   2.282  12.175 -0.1266 -0.0338  0.3485
  453TMC3    C5 6747   0.802   2.209  12.111  0.0404  0.5705  0.0159
  453TMC3    C6 6748   0.745   2.100  12.163 -0.1172  0.6487  0.4883
  453TMC3     C 6749   1.064   2.276  12.343 -0.1198 -0.2322 -0.6364
  453TMC3     O 6750   1.108   2.371  12.276  0.0967  0.9063  0.3192
  453TMC3     H 6751   0.904   2.097  12.465  0.5608  1.1461  0.3414
  453TMC3    H1 6752   0.928   2.372  12.123  0.5452  0.6983  2.0086
  453TMC3    H2 6753   0.656   2.061  12.115  0.0852  0.7398  0.0434
  453TMC3    C7 6754   0.789   2.228  11.970  0.3743  0.3008  0.1081
  453TMC3    C8 6755   0.744   1.933  12.346 -0.1412 -0.9580 -0.6286
  453TMC3    O1 6756   0.789   2.343  11.923 -0.1395  0.2380  0.0056
  453TMC3    O2 6757   0.658   1.937  12.435 -0.0245  0.3895  0.1511
  454MPD2     C 6758   0.102   1.519  16.382 -0.0181 -0.3619 -0.0670
  454MPD2    C1 6759   0.017   1.616  16.341  0.4100  0.4040 -0.9047
  454MPD2    C2 6760   4.691   1.712  16.434 -0.0763  0.6459  0.2250
  454MPD2    C3 6761   4.711   1.689  16.570 -0.6105  0.6284 -0.1309
  454MPD2    C4 6762   0.078   1.591  16.607 -0.4426  0.5761 -0.2998
  454MPD2    C5 6763   0.136   1.510  16.512 -0.3441  0.4233  1.3223
  454MPD2     H 6764   4.620   1.782  16.391  0.8384  0.6674 -1.2418
  454MPD2    H1 6765   0.108   1.569  16.709 -1.5760 -1.0104 -0.3124
  454MPD2    H2 6766   0.145   1.451  16.309  1.3982  0.6218 -0.1606
  454MPD2    H3 6767   0.208   1.435  16.543  1.8674  1.5331 -1.1320
  454MPD2     N 6768   4.642   1.757  16.675  0.0204  0.3602  0.5772
  454MPD2    H5 6769   4.688   1.754  16.765  2.6198 -2.7315 -0.8504
  454MPD2    N1 6770   4.698   1.629  16.204  0.6120 -0.3172 -0.3886
  454MPD2    H7 6771   4.646   1.714  16.187  0.7395  0.3707  2.5753
  455TMC3    C1 6772   4.438   1.826  16.556 -0.1135  0.8200 -0.1739
  455TMC3    C2 6773   4.361   1.934  16.525  0.0422 -0.4131  0.0091
  455TMC3    C3 6774   4.231   1.913  16.477 -0.0879  0.3702 -0.0872
  455TMC3    C4 6775   4.407   1.695  16.513  0.2386  0.2303 -0.0472
  455TMC3    C5 6776   4.289   1.684  16.442 -0.0528 -0.2613 -0.2128
  455TMC3    C6 6777   4.191   1.784  16.439  0.0110 -0.1070 -0.1277
  455TMC3     C 6778   4.549   1.853  16.650 -0.1743 -0.3456 -0.0001
  455TMC3     O 6779   4.533   1.941  16.734  0.3939  0.0473 -0.2777
  455TMC3     H 6780   4.395   2.031  16.560  0.9623 -0.5683 -0.4535
  455TMC3    H1 6781   4.480   1.617  16.532  1.6660  1.7337  0.6558
  455TMC3    H2 6782   4.098   1.768  16.386  1.3146 -3.9988 -1.2017
  455TMC3    C7 6783   4.253   1.556  16.374 -0.6602 -0.4754  0.5369
  455TMC3    C8 6784   4.128   1.997  16.531  0.0178 -0.4809  0.6947
  455TMC3    O1 6785   4.138   1.532  16.337 -0.4409 -0.2855 -0.1379
  455TMC3    O2 6786   4.160   2.111  16.570  0.5568  0.6018 -0.1541
  456MPD2     C 6787   2.338   1.593  15.532  0.2051  0.1290  0.1061
  456MPD2    C1 6788   2.406   1.567  15.653  0.3440  0.2740 -0.1564
  456MPD2    C2 6789   2.343   1.615  15.767  0.3341 -0.3349 -0.8784
  456MPD2    C3 6790   2.232   1.693  15.758 -0.3624  0.5338 -0.4270
  456MPD2    C4 6791   2.160   1.706  15.640  0.4284 -0.3463 -0.4597
  456MPD2    C5 6792   2.217   1.650  15.525 -0.5192 -1.0126  0.3138
  456MPD2     H 6793   2.401   1.607  15.858 -0.4198  1.7584 -0.2176
  456MPD2    H1 6794   2.063   1.755  15.641  0.5699 -0.0562 -0.7064
  456MPD2    H2 6795   2.380   1.561  15.437  0.1925 -0.5919  0.3413
  456MPD2    H3 6796   2.173   1.672  15.428 -0.1545 -0.3922  0.2880
  456MPD2     N 6797   2.194   1.769  15.870 -0.4079 -0.3279  0.1733
  456MPD2    H5 6798   2.244   1.748  15.956  0.1095  3.0831  0.7321
  456MPD2    N1 6799   2.530   1.496  15.661  0.0089  0.2015  0.0868
  456MPD2    H7 6800   2.565   1.481  15.755 -0.2476 -1.0818 -0.0228
  457TMC3    C1 6801   2.099   1.934  16.012  0.1963  0.0304 -0.1341
  457TMC3    C2 6802   2.066   2.065  16.020  0.5092  0.2142 -0.7240
  457TMC3    C3 6803   2.057   2.123  16.148  0.7704 -0.5989  0.1645
  457TMC3    C4 6804   2.116   1.858  16.125  0.2641 -0.1100 -0.0014
  457TMC3    C5 6805   2.106   1.914  16.246 -0.1408  0.2016 -0.3407
  457TMC3    C6 6806   2.078   2.046  16.263  0.1844 -0.2632  0.4789
  457TMC3     C 6807   2.113   1.881  15.878  0.6509  0.0556  0.6467
  457TMC3     O 6808   2.079   1.951  15.785 -0.0387  0.2771 -0.1307
  457TMC3     H 6809   2.060   2.133  15.935 -1.7465  0.4688 -0.3738
  457TMC3    H1 6810   2.103   1.751  16.119  0.5373 -0.2751  2.4802
  457TMC3    H2 6811   2.077   2.093  16.361 -1.3240  1.7326 -0.5090
  457TMC3    C7 6812   2.165   1.847  16.357  0.2768 -0.5745  0.0031
  457TMC3    C8 6813   2.085   2.263  16.163  0.3361 -0.2511 -0.2586
  457TMC3    O1 6814   2.121   1.878  16.465 -0.4249  0.0165 -0.1112
  457TMC3    O2 6815   2.130   2.307  16.269 -0.3038  0.1874 -0.2557
  458MPD2     C 6816   0.398   0.850  12.327 -0.0056 -0.4097 -0.2494
  458MPD2    C1 6817   0.302   0.850  12.426 -0.1472 -0.2085  0.1000
  458MPD2    C2 6818   0.168   0.871  12.388 -0.1071 -0.4911 -0.3325
  458MPD2    C3 6819   0.128   0.880  12.253 -0.6248 -0.4224  0.0294
  458MPD2    C4 6820   0.224   0.869  12.156 -0.1688  0.1314  0.4452
  458MPD2    C5 6821   0.352   0.862  12.197  0.0388  0.3549 -0.3318
  458MPD2     H 6822   0.088   0.893  12.459  0.5313 -0.9921  0.5420
  458MPD2    H1 6823   0.203   0.887  12.051  1.6124 -1.5154 -0.1855
  458MPD2    H2 6824   0.504   0.844  12.346  0.1310  0.6378 -0.7058
  458MPD2    H3 6825   0.429   0.867  12.121 -0.7851  2.2117 -1.0521
  458MPD2     N 6826   4.714   0.893  12.228 -0.0082 -0.3558 -0.2503
  458MPD2    H5 6827   4.655   0.909  12.309 -0.7397 -1.1162 -0.6304
  458MPD2    N1 6828   0.355   0.845  12.557 -0.4575  0.8601 -0.0847
  458MPD2    H7 6829   0.456   0.849  12.564 -0.5644  0.3840  1.7584
  459TMC3    C1 6830   0.363   0.861  12.786  0.8725 -0.2073  0.1376
  459TMC3    C2 6831   0.439   0.967  12.778 -0.7188 -0.4194 -0.1774
  459TMC3    C3 6832   0.498   0.998  12.890  0.1443 -0.2946 -0.1092
  459TMC3    C4 6833   0.345   0.782  12.898  0.0998  0.0375 -0.7920
  459TMC3    C5 6834   0.415   0.816  13.011  0.4155 -0.5940 -0.0274
  459TMC3    C6 6835   0.493   0.930  13.016  0.5154 -0.2702  0.8123
  459TMC3     C 6836   0.281   0.829  12.668  0.2461 -0.2735  0.1704
  459TMC3     O 6837   0.166   0.800  12.685  0.6283  0.2218  0.0975
  459TMC3     H 6838   0.456   1.020  12.685 -2.3124  0.3559 -0.0252
  459TMC3    H1 6839   0.283   0.695  12.882 -0.8582  0.5610  0.0042
  459TMC3    H2 6840   0.553   0.965  13.100 -0.0884 -0.5906  1.3818
  459TMC3    C7 6841   0.403   0.729  13.121 -0.2234  0.1994  0.4427
  459TMC3    C8 6842   0.576   1.123  12.894  0.1073 -0.1333  0.1166
  459TMC3    O1 6843   0.371   0.610  13.095 -0.2084 -0.1286 -0.2928
  459TMC3    O2 6844   0.656   1.134  12.982  0.5181  0.2722  0.0740
  460MPD2     C 6845   3.640   3.035  10.731  0.0338  1.0314  0.2456
  460MPD2    C1 6846   3.688   3.162  10.709 -0.5219  0.2710  0.8554
  460MPD2    C2 6847   3.730   3.189  10.583  0.0938  0.4089  0.1500
  460MPD2    C3 6848   3.731   3.096  10.485 -0.0804 -0.5539 -0.2247
  460MPD2    C4 6849   3.678   2.967  10.514  0.7108 -0.0030 -0.8945
  460MPD2    C5 6850   3.633   2.939  10.636  0.2612  0.3860  0.3871
  460MPD2     H 6851   3.772   3.289  10.573  0.5666  0.1965 -0.0052
  460MPD2    H1 6852   3.672   2.885  10.443  0.2167 -1.3954  0.7477
  460MPD2    H2 6853   3.591   2.988  10.815  1.2499  0.6350  0.7433
  460MPD2    H3 6854   3.590   2.841  10.653 -0.0209  0.2375 -1.1873
  460MPD2     N 6855   3.773   3.135  10.356  0.9321 -0.2043 -0.6673
  460MPD2    H5 6856   3.789   3.236  10.353  1.4346 -0.2793 -0.4026
  460MPD2    N1 6857   3.697   3.264  10.802 -0.0444 -0.1100 -0.5519
  460MPD2    H7 6858   3.745   3.352  10.784  0.7765 -0.9584 -2.4952
  461TMC3    C1 6859   3.772   3.134  10.123 -0.0565 -0.6745 -0.9883
  461TMC3    C2 6860   3.760   3.061  10.007 -0.3206  0.9411 -0.2241
  461TMC3    C3 6861   3.720   3.119   9.892  0.3045 -0.5403  0.6023
  461TMC3    C4 6862   3.736   3.266  10.116  0.6828  0.1573 -0.2716
  461TMC3    C5 6863   3.706   3.325   9.993 -0.2302  0.0408 -0.4338
  461TMC3    C6 6864   3.697   3.250   9.883  0.1317 -0.3776  0.5340
  461TMC3     C 6865   3.780   3.056  10.245  0.3649  0.0947 -0.2848
  461TMC3     O 6866   3.793   2.932  10.245  0.4165  0.7215 -0.3330
  461TMC3     H 6867   3.763   2.952  10.006 -0.4503  0.9040  2.6628
  461TMC3    H1 6868   3.744   3.326  10.205 -0.7885  0.9370 -0.6566
  461TMC3    H2 6869   3.669   3.293   9.787 -0.8891  2.1961  1.9792
  461TMC3    C7 6870   3.653   3.467   9.988 -0.4249  0.2358  1.0015
  461TMC3    C8 6871   3.698   3.032   9.781 -0.2546 -0.1511 -0.4863
  461TMC3    O1 6872   3.646   3.517   9.878  0.3017  0.1672 -0.0580
  461TMC3    O2 6873   3.764   2.929   9.776  0.0258  0.3850  0.6553
  462TMC3    C1 6874   3.926   4.232  17.559 -0.1030  0.3433  0.3479
  462TMC3    C2 6875   3.945   4.160  17.440  0.2113 -0.0883 -0.3511
  462TMC3    C3 6876   3.881   4.040  17.437 -0.0440  0.7369 -0.4898
  462TMC3    C4 6877   3.877   4.171  17.671 -0.5939  0.2791  0.2706
  462TMC3    C5 6878   3.803   4.063  17.655  0.2913 -0.9029 -0.9374
  462TMC3    C6 6879   3.799   3.997  17.538  0.2426  0.6822 -0.4926
  462TMC3     C 6880   3.985   4.362  17.570  0.4310 -0.5142 -0.3589
  462TMC3     O 6881   4.008   4.403  17.685 -0.1836 -0.4862  0.0986
  462TMC3     H 6882   4.002   4.198  17.356 -1.4749  0.5454 -1.2241
  462TMC3    H1 6883   3.876   4.225   0.073 -1.2115  0.7870 -0.0319
  462TMC3    H2 6884   3.748   3.902  17.524 -1.4457  1.5827 -0.4449
  462TMC3    C7 6885   3.780   3.973   0.082  0.1367 -0.5470 -0.1634
  462TMC3    C8 6886   3.863   3.977  17.309  0.5454  0.3732 -0.4088
  462TMC3    O1 6887   3.708   3.874   0.063  0.0309 -0.1294 -0.2047
  462TMC3    O2 6888   3.747   3.964  17.277 -0.0684 -0.0033  0.2333
  463MPD2     C 6889   0.489   2.690   1.519 -0.4736  0.3124 -0.3099
  463MPD2    C1 6890   0.387   2.728   1.432 -0.0954 -1.1572  0.4190
  463MPD2    C2 6891   0.397   2.859   1.382  0.3680  0.4690  0.2226
  463MPD2    C3 6892   0.490   2.950   1.429  0.5694  0.0273 -0.0647
  463MPD2    C4 6893   0.579   2.910   1.521  0.2447  0.0539  0.8986
  463MPD2    C5 6894   0.577   2.783   1.569 -0.2049  0.5229 -0.4180
  463MPD2     H 6895   0.306   2.883   1.327 -0.8432 -0.1464  1.9719
  463MPD2    H1 6896   0.657   2.978   1.554  1.8874 -1.1919 -0.3874
  463MPD2    H2 6897   0.491   2.592   1.564 -1.2833  0.4042 -0.0543
  463MPD2    H3 6898   0.652   2.741   1.635  1.2680 -0.8778 -3.0048
  463MPD2     N 6899   0.496   3.081   1.375  0.0313  0.2147 -0.0582
  463MPD2    H5 6900   0.581   3.133   1.394  0.0043  0.7071 -1.2560
  463MPD2    N1 6901   0.284   2.639   1.383 -0.4544 -0.0385 -0.0909
  463MPD2    H7 6902   0.217   2.663   1.311  1.0866 -1.0548 -1.8433
  464TMC3    C1 6903   0.139   2.462   1.370  0.1137 -0.4218 -0.1987
  464TMC3    C2 6904   0.110   2.504   1.235  0.0624  0.4323  0.4771
  464TMC3    C3 6905   0.005   2.428   1.181 -1.2950  0.5759 -0.3271
  464TMC3    C4 6906   0.072   2.369   1.443  0.1929  0.2024 -0.1161
  464TMC3    C5 6907   4.683   2.316   1.383  0.1724  0.8919  0.1450
  464TMC3    C6 6908   4.653   2.336   1.253  0.9762  0.7039 -0.1221
  464TMC3     C 6909   0.251   2.523   1.441 -0.6361  0.2385 -0.5216
  464TMC3     O 6910   0.307   2.466   1.537  0.1307  0.4254  0.1057
  464TMC3     H 6911   0.179   2.563   1.175  0.2991  1.2028  1.4925
  464TMC3    H1 6912   0.088   2.344   1.547 -0.1734 -1.2650 -0.4158
  464TMC3    H2 6913   4.569   2.298   1.197 -0.3490 -2.0691  3.8087
  464TMC3    C7 6914   4.593   2.234   1.468 -0.2797 -0.0540 -0.0294
  464TMC3    C8 6915   4.708   2.440   1.033 -0.0398 -0.7307 -0.7000
  464TMC3    O1 6916   4.614   2.219   1.587 -0.6093  0.1855  0.7986
  464TMC3    O2 6917   0.026   2.549   0.989 -0.1063 -0.0945  0.5807
  465MPD2     C 6918   1.436   1.709  15.832  0.7778  0.4759  0.1475
  465MPD2    C1 6919   1.331   1.667  15.917  0.7533  0.7150 -0.3200
  465MPD2    C2 6920   1.227   1.747  15.939  0.2988 -0.0376  0.5634
  465MPD2    C3 6921   1.226   1.877  15.880  0.3772  0.1657 -0.5647
  465MPD2    C4 6922   1.327   1.915  15.795 -0.3718 -0.8810  0.0981
  465MPD2    C5 6923   1.428   1.829  15.768 -0.0949  0.2375 -0.0979
  465MPD2     H 6924   1.149   1.710  16.004 -1.2575 -0.0782 -1.3103
  465MPD2    H1 6925   1.315   2.001  15.731  0.6635 -2.0605 -1.6878
  465MPD2    H2 6926   1.532   1.661  15.816  0.1812 -0.2422 -1.3027
  465MPD2    H3 6927   1.493   1.846  15.683 -0.3356  1.5050 -0.0228
  465MPD2     N 6928   1.112   1.953  15.915  0.1154  0.2721 -0.4555
  465MPD2    H5 6929   1.056   1.901  15.982 -0.5439  0.5223 -0.8150
  465MPD2    N1 6930   1.335   1.551  15.995 -0.1415  0.6256  0.0909
  465MPD2    H7 6931   1.266   1.528  16.066 -0.0333 -0.3415 -0.1225
  466TMC3    C1 6932   0.823   2.168  16.113  0.3741  0.1673 -0.3131
  466TMC3    C2 6933   0.814   2.304  16.098 -0.1688  0.2666 -0.1667
  466TMC3    C3 6934   0.882   2.359  15.993 -0.3892 -0.1380  0.1137
  466TMC3    C4 6935   0.918   2.096  16.049 -0.1232 -0.9690  0.9763
  466TMC3    C5 6936   0.978   2.154  15.943 -0.5561  0.1066 -0.3851
  466TMC3    C6 6937   0.961   2.287  15.906  0.2556  0.4239  0.2112
  466TMC3     C 6938   0.778   2.114  16.237 -0.8980 -0.1169  0.5856
  466TMC3     O 6939   0.852   2.042  16.299  0.1141  0.1431 -0.1430
  466TMC3     H 6940   0.756   2.364  16.168 -0.3042  1.7504 -1.5590
  466TMC3    H1 6941   0.925   1.990  16.073  3.4243 -0.6985  1.0712
  466TMC3    H2 6942   1.007   2.339  15.823  0.3298  1.5092  0.9381
  466TMC3    C7 6943   1.086   2.084  15.876  0.1037 -0.5020 -0.0030
  466TMC3    C8 6944   0.930   2.493  16.009  0.1667  0.5177 -0.3211
  466TMC3    O1 6945   1.154   2.152  15.797  0.0480 -0.3874 -0.1600
  466TMC3    O2 6946   0.956   2.552  15.905 -0.2444  1.1983 -0.0375
  467TMC3    C1 6947   2.208   0.458  13.656  0.5144  0.3057  0.6961
  467TMC3    C2 6948   2.249   0.483  13.527 -0.3420 -0.6473  0.2888
  467TMC3    C3 6949   2.147   0.509  13.433  0.2243 -0.5241  0.0068
  467TMC3    C4 6950   2.081   0.457  13.697  0.2896  0.5877 -0.4656
  467TMC3    C5 6951   1.988   0.478  13.603 -0.3702  0.2717 -0.6316
  467TMC3    C6 6952   2.017   0.514  13.478 -0.6444  0.0855  0.0933
  467TMC3     C 6953   2.318   0.478  13.745 -0.1096 -0.1360  0.1301
  467TMC3     O 6954   2.382   0.577  13.718 -0.0134  0.1951  0.1422
  467TMC3     H 6955   2.353   0.511  13.511 -0.1566 -1.3742  0.2565
  467TMC3    H1 6956   2.063   0.447  13.804 -1.4154 -2.5305 -1.0272
  467TMC3    H2 6957   1.938   0.531  13.406 -0.6969 -1.8276 -0.2982
  467TMC3    C7 6958   1.859   0.528  13.644  0.0350 -0.9605  0.4905
  467TMC3    C8 6959   2.176   0.595  13.320  0.3269 -0.4868 -0.1642
  467TMC3    O1 6960   1.813   0.614  13.571 -0.0111 -0.1293 -0.1537
  467TMC3    O2 6961   2.099   0.690  13.297  0.1786  0.0345 -0.0299
  468MPD2     C 6962   0.491   3.233  10.662  0.1170 -0.5237 -0.0084
  468MPD2    C1 6963   0.629   3.241  10.689  0.4352  0.0034 -0.5589
  468MPD2    C2 6964   0.696   3.124  10.730  0.3571 -0.3944 -0.4020
  468MPD2    C3 6965   0.631   3.003  10.728  0.2744 -0.4570  0.5572
  468MPD2    C4 6966   0.496   2.999  10.711  0.0130  0.6138 -0.3079
  468MPD2    C5 6967   0.430   3.111  10.674 -0.6374 -0.4527  0.2864
  468MPD2     H 6968   0.799   3.131  10.764  1.0446 -0.6889 -2.4437
  468MPD2    H1 6969   0.452   2.900  10.714 -0.0490  0.6697  0.6628
  468MPD2    H2 6970   0.427   3.316  10.634 -0.4526 -0.6073  1.0430
  468MPD2    H3 6971   0.323   3.108  10.658 -0.7381 -0.2362  0.9491
  468MPD2     N 6972   0.695   2.882  10.757  0.0661  0.8317  0.4686
  468MPD2    H5 6973   0.630   2.812  10.792  1.0362  0.0445  0.6901
  468MPD2    N1 6974   0.698   3.368  10.694  0.0845  0.2583 -0.2365
  468MPD2    H7 6975   0.782   3.375  10.751  0.7736  0.9066 -1.3276
  469TMC3    C1 6976   0.714   3.605  10.705 -0.4334 -0.2391  0.0166
  469TMC3    C2 6977   0.850   3.598  10.726  0.4941  0.5104  0.4477
  469TMC3    C3 6978   0.915   3.705  10.765  0.0496  0.0300 -0.4353
  469TMC3    C4 6979   0.641   3.719  10.713 -0.1600  0.1410 -0.0052
  469TMC3    C5 6980   0.709   3.819  10.765 -0.5875  0.3277 -0.6700
  469TMC3    C6 6981   0.841   3.819  10.798  0.3610  0.8631  0.1671
  469TMC3     C 6982   0.643   3.490  10.647 -0.1267  0.0225  0.0225
  469TMC3     O 6983   0.566   3.514  10.555 -0.4106  0.0513 -0.0407
  469TMC3     H 6984   0.913   3.510  10.723  1.2428  1.1185 -1.7108
  469TMC3    H1 6985   0.539   3.707  10.678  0.2558  0.2589 -1.2597
  469TMC3    H2 6986   0.889   3.914  10.820 -0.0454  1.2135 -0.4538
  469TMC3    C7 6987   0.631   3.922  10.836 -0.2876  0.1342 -0.1075
  469TMC3    C8 6988   1.044   3.696  10.830  0.3316  0.0352  0.2400
  469TMC3    O1 6989   0.691   4.015  10.888  0.2861  0.0302 -0.2849
  469TMC3    O2 6990   1.125   3.615  10.789  0.1592 -0.0573  0.8473
  470TMC3    C1 6991   3.430   3.954   0.842 -0.3188  0.9509 -0.1010
  470TMC3    C2 6992   3.426   4.075   0.796 -0.3320  0.0737  0.5279
  470TMC3    C3 6993   3.540   4.152   0.817 -0.4701  0.2249  0.0513
  470TMC3    C4 6994   3.537   3.899   0.901 -0.3131  0.0242  0.6166
  470TMC3    C5 6995   3.647   3.979   0.927 -0.1112 -0.4413  0.1191
  470TMC3    C6 6996   3.656   4.110   0.875 -0.5716 -0.5008  0.7514
  470TMC3     C 6997   3.328   3.862   0.805  0.2709  0.5519 -0.4811
  470TMC3     O 6998   3.263   3.880   0.700 -0.4628  0.2817  0.9192
  470TMC3     H 6999   3.333   4.108   0.751  0.2523  0.7359 -0.2047
  470TMC3    H1 7000   3.536   3.797   0.936  2.8198 -0.0703  0.3711
  470TMC3    H2 7001   3.729   4.183   0.907  0.2739 -0.5712 -1.0356
  470TMC3    C7 7002   3.759   3.927   0.996 -0.4422 -0.3106  0.2484
  470TMC3    C8 7003   3.522   4.296   0.816 -0.5828  0.9637  0.1238
  470TMC3    O1 7004   3.869   3.975   0.983  0.0137 -0.3665 -0.0984
  470TMC3    O2 7005   3.406   4.340   0.828  0.7410 -0.5929  0.2303
  471MPD2     C 7006   3.626   1.065  16.687  0.3617 -0.1769  0.4093
  471MPD2    C1 7007   3.707   0.955  16.685  0.3580 -0.5655 -0.1765
  471MPD2    C2 7008   3.786   0.933  16.790  0.2406 -0.0997 -0.2595
  471MPD2    C3 7009   3.800   1.019  16.900  0.6775  0.2232  0.1586
  471MPD2    C4 7010   3.709   1.124  16.903  0.4157 -0.3466 -0.2713
  471MPD2    C5 7011   3.623   1.146  16.799  0.0931  0.5712  0.5953
  471MPD2     H 7012   3.842   0.841  16.780  0.4250  0.2807 -2.6684
  471MPD2    H1 7013   3.703   1.190  16.988 -2.1415  1.4095 -1.7938
  471MPD2    H2 7014   3.563   1.090  16.603  0.9209 -1.3202 -0.3585
  471MPD2    H3 7015   3.563   1.236  16.804 -0.3996  0.2856 -0.1006
  471MPD2     N 7016   3.883   1.001  17.011 -0.6156 -0.0017 -0.1336
  471MPD2    H5 7017   3.865   1.051  17.097 -0.0377  1.6347 -0.9691
  471MPD2    N1 7018   3.709   0.868  16.574 -0.5582 -0.4554 -0.3264
  471MPD2    H7 7019   3.783   0.798  16.580  2.7147  2.8963 -1.4772
  472TMC3    C1 7020   3.636   0.739  16.386  0.4406 -0.0552  0.2011
  472TMC3    C2 7021   3.573   0.744  16.261  0.9090 -0.7165 -0.7751
  472TMC3    C3 7022   3.593   0.623  16.193  0.6086  0.9110 -0.2554
  472TMC3    C4 7023   3.713   0.641  16.444  0.3645 -0.0770  0.0124
  472TMC3    C5 7024   3.721   0.529  16.359  0.3035  0.6884  0.4413
  472TMC3    C6 7025   3.666   0.523  16.239  0.3370 -0.0704 -0.0454
  472TMC3     C 7026   3.611   0.857  16.475  0.3652 -0.3496 -0.5198
  472TMC3     O 7027   3.514   0.933  16.459  0.4738 -0.5960  0.5865
  472TMC3     H 7028   3.506   0.822  16.228  0.4166 -0.9410 -0.3033
  472TMC3    H1 7029   3.715   0.631  16.552 -1.1240 -1.7393 -0.1128
  472TMC3    H2 7030   3.694   0.437  16.178  0.4628  0.1971 -0.3661
  472TMC3    C7 7031   3.701   0.409  16.425  0.0299  0.7998  0.1723
  472TMC3    C8 7032   3.469   0.562  16.140  0.1001  0.6374 -0.0829
  472TMC3    O1 7033   3.772   0.386  16.520 -0.1769  0.4310  0.0497
  472TMC3    O2 7034   3.463   0.440  16.143  0.0513  0.0282 -0.2516
  473MPD2     C 7035   3.468   2.849  13.916  0.0074 -0.1029 -0.4109
  473MPD2    C1 7036   3.502   2.967  13.857 -0.3602  1.5656 -0.1404
  473MPD2    C2 7037   3.582   3.059  13.925 -0.6524 -0.5732  0.0246
  473MPD2    C3 7038   3.629   3.031  14.054  0.5314 -0.1416  0.0473
  473MPD2    C4 7039   3.598   2.905  14.109 -0.3053 -0.1916  0.7479
  473MPD2    C5 7040   3.521   2.815  14.039 -0.2322 -0.2791 -0.5929
  473MPD2     H 7041   3.603   3.156  13.882 -0.4362 -0.7615 -0.2929
  473MPD2    H1 7042   3.630   2.873  14.208  0.7117  0.4787  0.6313
  473MPD2    H2 7043   3.398   2.778  13.873 -0.6625  0.2523  0.0908
  473MPD2    H3 7044   3.497   2.722  14.089  0.1050 -1.1258 -2.0126
  473MPD2     N 7045   3.709   3.121  14.129  0.6882  0.0700  0.0345
  473MPD2    H5 7046   3.729   3.092  14.224  0.6886  0.4567  0.1524
  473MPD2    N1 7047   3.441   3.010  13.733  0.2072  0.3807 -0.4391
  473MPD2    H7 7048   3.467   3.100  13.694  2.5650  0.0451  0.3478
  474TMC3    C1 7049   3.820   3.308  14.216 -0.0392 -0.4471 -0.2433
  474TMC3    C2 7050   3.902   3.407  14.173  0.8948  0.5211 -0.7253
  474TMC3    C3 7051   3.926   3.519  14.244 -0.1704 -0.6240 -0.1155
  474TMC3    C4 7052   3.762   3.309  14.340 -0.6142 -0.4958 -0.3932
  474TMC3    C5 7053   3.789   3.421  14.410  0.7592 -0.0636 -0.5861
  474TMC3    C6 7054   3.865   3.523  14.365 -0.4167  0.1818  0.9846
  474TMC3     C 7055   3.769   3.238  14.097  0.1453 -0.5722  0.8323
  474TMC3     O 7056   3.777   3.298  13.989 -0.2044  0.6306 -0.5530
  474TMC3     H 7057   3.968   3.379  14.092 -1.6408 -3.7241 -1.2849
  474TMC3    H1 7058   3.703   3.228  14.380  2.1773 -2.7815 -0.8903
  474TMC3    H2 7059   3.869   3.622  14.408  0.4253  0.7050 -0.2937
  474TMC3    C7 7060   3.731   3.440  14.542  0.5947  0.5249 -0.0523
  474TMC3    C8 7061   3.895   3.633  14.162 -0.0194  0.0049 -0.2996
  474TMC3    O1 7062   3.625   3.380  14.554  0.2266  0.6240  0.2120
  474TMC3    O2 7063   3.908   3.748  14.209  0.0178  0.0810  0.2482
  475MPD2     C 7064   1.481   1.113  11.047  0.1100 -0.0184 -0.2090
  475MPD2    C1 7065   1.568   1.216  11.008  0.0509 -0.0394 -0.4219
  475MPD2    C2 7066   1.589   1.317  11.105 -0.1288  0.0790 -0.8879
  475MPD2    C3 7067   1.514   1.326  11.219  0.1846 -0.2442  0.1450
  475MPD2    C4 7068   1.426   1.227  11.251  0.3517 -0.0176 -0.1265
  475MPD2    C5 7069   1.410   1.123  11.160  0.4000  0.4185 -0.6508
  475MPD2     H 7070   1.670   1.384  11.076 -0.3373  0.9664  0.6106
  475MPD2    H1 7071   1.377   1.232  11.347 -0.3098  4.2256 -0.6857
  475MPD2    H2 7072   1.471   1.025  10.984  1.5520  0.6649 -1.4110
  475MPD2    H3 7073   1.331   1.052  11.182  1.2781 -0.7487 -1.2824
  475MPD2     N 7074   1.540   1.433  11.303  0.3655  0.0675 -0.1024
  475MPD2    H5 7075   1.615   1.491  11.266 -1.5168  2.5764  0.0653
  475MPD2    N1 7076   1.646   1.221  10.893 -0.0866  0.1422  0.1921
  475MPD2    H7 7077   1.713   1.296  10.876 -1.4335  1.2655 -0.2171
  476TMC3    C1 7078   1.729   1.168  10.684  0.7339 -0.0849 -0.1923
  476TMC3    C2 7079   1.694   1.126  10.556 -0.3681 -0.1530 -0.2979
  476TMC3    C3 7080   1.787   1.149  10.455  0.0048  0.6678 -0.2966
  476TMC3    C4 7081   1.854   1.220  10.712 -0.0657 -1.3025  0.0205
  476TMC3    C5 7082   1.941   1.239  10.609 -0.1078 -0.2847  0.0296
  476TMC3    C6 7083   1.910   1.210  10.475  0.1570  0.1241  0.3661
  476TMC3     C 7084   1.634   1.138  10.788  0.2133 -0.1955  0.0882
  476TMC3     O 7085   1.556   1.046  10.765  0.2115 -0.2483 -0.8635
  476TMC3     H 7086   1.602   1.072  10.540  0.9196 -2.7425  0.9231
  476TMC3    H1 7087   1.877   1.255  10.812 -1.1873  1.2272 -0.5974
  476TMC3    H2 7088   1.974   1.244  10.394 -1.1317  2.0737  0.1750
  476TMC3    C7 7089   2.042   1.343  10.644 -0.4403 -0.3597 -0.4439
  476TMC3    C8 7090   1.747   1.144  10.317 -0.1969 -0.4771 -0.3598
  476TMC3    O1 7091   2.007   1.424  10.732  0.7686 -0.4639  0.1809
  476TMC3    O2 7092   1.810   1.214  10.237 -0.2742 -0.6750  0.3146
  477MPD2     C 7093   4.174   2.199  11.457  0.8583  0.2274  0.0222
  477MPD2    C1 7094   4.185   2.291  11.559 -0.5532  0.1419 -0.3241
  477MPD2    C2 7095   4.231   2.248  11.691 -0.6047  0.3594 -0.0213
  477MPD2    C3 7096   4.259   2.117  11.720  0.4184  0.3638 -0.5487
  477MPD2    C4 7097   4.263   2.033  11.609 -0.4552 -0.2595  0.4911
  477MPD2    C5 7098   4.219   2.073  11.483  1.0261 -0.3649  0.4384
  477MPD2     H 7099   4.246   2.324  11.766  3.0419 -0.0186 -0.4019
  477MPD2    H1 7100   4.288   1.928  11.614  0.4244  0.0067  1.5235
  477MPD2    H2 7101   4.129   2.217  11.360  1.7398 -0.0618 -0.4360
  477MPD2    H3 7102   4.205   1.996  11.409 -1.4398  0.8185 -0.3176
  477MPD2     N 7103   4.294   2.068  11.852 -0.1542 -0.2132  0.3570
  477MPD2    H5 7104   4.326   1.972  11.860  0.9213  0.1840  0.8265
  477MPD2    N1 7105   4.138   2.422  11.529  0.0183 -0.4626 -0.3611
  477MPD2    H7 7106   4.106   2.430  11.433  1.9622  0.0272 -0.9850
  478TMC3    C1 7107   4.099   2.654  11.532  0.1912  0.2509  0.3384
  478TMC3    C2 7108   4.122   2.778  11.590 -0.7139 -0.6529 -0.4311
  478TMC3    C3 7109   4.043   2.883  11.560  0.6298  0.3527  0.2068
  478TMC3    C4 7110   3.996   2.650  11.440 -0.0079 -0.3052  0.3345
  478TMC3    C5 7111   3.924   2.760  11.397  0.1727 -0.0602 -0.4394
  478TMC3    C6 7112   3.949   2.881  11.458 -0.2358 -0.2572  0.3093
  478TMC3     C 7113   4.163   2.537  11.597 -0.4075  0.7124 -0.0830
  478TMC3     O 7114   4.240   2.556  11.691  0.3880 -0.0999  0.0561
  478TMC3     H 7115   4.197   2.792  11.668 -0.3084 -0.3651 -0.8694
  478TMC3    H1 7116   3.967   2.553  11.400 -2.9846 -0.3795  2.6796
  478TMC3    H2 7117   3.872   2.956  11.452 -1.3680 -1.4344  0.1019
  478TMC3    C7 7118   3.782   2.729  11.362  0.5142  0.5546  0.7080
  478TMC3    C8 7119   3.999   2.942  11.686 -0.0858 -0.1874  0.3481
  478TMC3    O1 7120   3.741   2.628  11.423 -0.3717 -0.4542 -1.2275
  478TMC3    O2 7121   4.015   2.879  11.791 -0.1079 -0.2190 -0.3158
  479MPD2     C 7122   3.801   0.270  15.067  0.0826 -0.3476 -0.4353
  479MPD2    C1 7123   3.681   0.233  15.123 -0.2165  0.1217  0.6194
  479MPD2    C2 7124   3.638   0.275  15.250 -0.7105 -1.4188  0.5573
  479MPD2    C3 7125   3.709   0.362  15.324 -0.0339 -0.1693 -0.5227
  479MPD2    C4 7126   3.823   0.418  15.261 -0.2698  0.0509 -0.0407
  479MPD2    C5 7127   3.869   0.371  15.139  0.8349 -0.6935  0.2918
  479MPD2     H 7128   3.539   0.250  15.286 -2.5990  3.5316 -1.1402
  479MPD2    H1 7129   3.881   0.496  15.307 -0.9842  0.1518  0.6820
  479MPD2    H2 7130   3.833   0.240  14.968  2.4638  0.7864  0.0002
  479MPD2    H3 7131   3.950   0.426  15.094 -0.8200  1.3327 -0.2399
  479MPD2     N 7132   3.664   0.389  15.454  0.0393  0.0424 -0.5814
  479MPD2    H5 7133   3.581   0.337  15.479 -0.5603  1.2323 -0.0875
  479MPD2    N1 7134   3.602   0.154  15.040 -0.1925 -0.0681  0.5606
  479MPD2    H7 7135   3.630   0.127  14.946 -0.3806  0.2831  0.4048
  480TMC3    C1 7136   3.467   0.358  15.766  0.2430 -0.4684  0.7687
  480TMC3    C2 7137   3.354   0.412  15.717 -0.3952  0.1653 -0.8902
  480TMC3    C3 7138   3.363   0.517  15.624 -0.6099 -0.1530 -0.1710
  480TMC3    C4 7139   3.592   0.398  15.725  0.2724  0.1773 -0.7519
  480TMC3    C5 7140   3.602   0.507  15.643  0.1470  0.0368 -0.0716
  480TMC3    C6 7141   3.489   0.570  15.595  0.0058  0.7960  0.1761
  480TMC3     C 7142   3.461   0.247  15.863  0.5772  0.3156 -0.7955
  480TMC3     O 7143   3.564   0.178  15.852 -0.5182 -0.2275 -0.3839
  480TMC3     H 7144   3.258   0.368  15.741  1.6544 -2.7100  1.9774
  480TMC3    H1 7145   3.685   0.352  15.757  0.5425  0.7257 -0.7314
  480TMC3    H2 7146   3.498   0.653  15.525 -0.2899  1.8799  1.4098
  480TMC3    C7 7147   3.695   0.501  15.539  0.1339  0.1162  0.4045
  480TMC3    C8 7148   3.278   0.495  15.506 -0.3360  0.4386  0.2302
  480TMC3    O1 7149   3.738   0.610  15.499 -0.0963 -0.2756 -0.3812
  480TMC3    O2 7150   3.167   0.450  15.534 -0.1002 -0.1072 -0.6483
  481MPD2     C 7151   0.435   4.357  13.852 -0.4250 -0.3245 -0.1591
  481MPD2    C1 7152   0.309   4.313  13.893  0.0843 -0.6487  0.2668
  481MPD2    C2 7153   0.289   4.297  14.028  0.6769 -0.3581 -0.1009
  481MPD2    C3 7154   0.384   4.326  14.122  0.9209  0.2682 -0.4015
  481MPD2    C4 7155   0.508   4.366  14.078  0.0356 -0.7757  0.2010
  481MPD2    C5 7156   0.536   4.379  13.943 -0.0807  0.5411 -0.3798
  481MPD2     H 7157   0.198   4.265  14.076  0.7550 -0.4482 -0.0118
  481MPD2    H1 7158   0.592   4.377  14.146  1.4059  0.2072 -1.6445
  481MPD2    H2 7159   0.459   4.371  13.748 -1.9197 -1.3984 -0.6535
  481MPD2    H3 7160   0.635   4.402  13.909 -1.2249  1.5049 -3.0209
  481MPD2     N 7161   0.358   4.320  14.262 -0.4473 -0.1545 -0.4559
  481MPD2    H5 7162   0.430   4.341  14.331 -1.4776 -3.8192  1.8014
  481MPD2    N1 7163   0.215   4.276  13.798  0.0045 -0.8774  0.3505
  481MPD2    H7 7164   0.234   4.290  13.699 -0.1121 -2.8254  0.0529
  482TMC3    C1 7165   0.003   4.219  13.712 -0.5249 -0.3151 -0.1082
  482TMC3    C2 7166   4.635   4.120  13.725  0.2477  0.4185  0.1368
  482TMC3    C3 7167   4.522   4.125  13.643 -0.3041 -0.3467 -0.2139
  482TMC3    C4 7168   4.705   4.329  13.635 -0.6130  0.1435 -0.5622
  482TMC3    C5 7169   4.589   4.338  13.568 -0.5598  0.5717  0.1071
  482TMC3    C6 7170   4.500   4.237  13.561  0.3981 -0.2229  0.4360
  482TMC3     C 7171   0.095   4.220  13.824 -0.5591  0.2637  0.2326
  482TMC3     O 7172   0.074   4.147  13.919 -0.3206  0.8468  0.6905
  482TMC3     H 7173   4.646   4.039  13.796  1.6038 -0.4779 -1.0988
  482TMC3    H1 7174   0.059   4.406  13.639 -1.6086  1.1391 -0.5636
  482TMC3    H2 7175   4.416   4.244  13.493  0.3965 -1.0581  0.3493
  482TMC3    C7 7176   4.577   4.447  13.476  0.0138  0.3363  0.0814
  482TMC3    C8 7177   4.438   4.012  13.643 -0.5141  0.2575 -0.4010
  482TMC3    O1 7178   4.534   4.422  13.362  0.3069  0.3135  0.1214
  482TMC3    O2 7179   4.468   3.930  13.728 -0.3357 -0.1339  0.1853
  483TMC3    C1 7180   2.520   3.063   1.162  0.3259 -0.2496 -0.0241
  483TMC3    C2 7181   2.615   3.166   1.173  0.4492  0.0823  0.4075
  483TMC3    C3 7182   2.722   3.150   1.256 -0.3823  0.6969 -1.1554
  483TMC3    C4 7183   2.522   2.958   1.242  0.0392 -0.0108  0.2092
  483TMC3    C5 7184   2.626   2.952   1.336 -0.1582  0.8487 -0.2383
  483TMC3    C6 7185   2.725   3.049   1.349 -0.6956  0.0419 -0.3578
  483TMC3     C 7186   2.459   3.066   1.032  0.0004 -0.2118  0.4604
  483TMC3     O 7187   2.444   3.178   0.980 -1.0946 -0.5000 -0.3187
  483TMC3     H 7188   2.634   3.235   1.091 -1.4946 -0.3474 -0.4035
  483TMC3    H1 7189   2.441   2.887   1.248  1.0293 -1.1866 -0.4953
  483TMC3    H2 7190   2.807   3.038   1.419 -1.4591 -1.0980  0.3560
  483TMC3    C7 7191   2.661   2.823   1.395  0.1723 -0.0624 -0.1583
  483TMC3    C8 7192   2.851   3.194   1.205 -0.2857 -0.6514  0.9447
  483TMC3    O1 7193   2.772   2.819   1.445 -0.1379 -0.2937 -0.0734
  483TMC3    O2 7194   2.841   3.272   1.113 -0.0795 -0.6966  0.2363
  484MPD2     C 7195   0.498   1.462  12.789  0.0082 -0.3650 -0.0419
  484MPD2    C1 7196   0.578   1.356  12.811 -0.4347  0.1813 -0.0081
  484MPD2    C2 7197   0.713   1.374  12.830  0.2312 -0.5432 -0.8512
  484MPD2    C3 7198   0.766   1.504  12.829  0.1950  0.3223  0.5089
  484MPD2    C4 7199   0.680   1.615  12.819 -0.2587 -0.2272  0.4813
  484MPD2    C5 7200   0.550   1.590  12.795 -0.4017  0.1829 -0.0410
  484MPD2     H 7201   0.771   1.283  12.842 -2.5664 -2.0231  1.4082
  484MPD2    H1 7202   0.711   1.718  12.833 -2.9602  0.6497 -0.0952
  484MPD2    H2 7203   0.391   1.465  12.773 -0.3491 -1.3816  2.2049
  484MPD2    H3 7204   0.480   1.672  12.783  0.9650  0.9690 -2.7203
  484MPD2     N 7205   0.906   1.530  12.820 -0.1993  0.0374 -0.2005
  484MPD2    H5 7206   0.947   1.622  12.808 -1.0357  0.5510  0.9318
  484MPD2    N1 7207   0.521   1.227  12.819 -1.0366 -0.2685 -0.5394
  484MPD2    H7 7208   0.445   1.213  12.754 -1.3338 -1.7787  0.1217
  485TMC3    C1 7209   1.138   1.453  12.785 -0.4068  0.5635  0.0175
  485TMC3    C2 7210   1.235   1.362  12.827  0.3583  0.3356  0.4405
  485TMC3    C3 7211   1.361   1.389  12.776 -0.0508 -0.3854 -0.2842
  485TMC3    C4 7212   1.159   1.554  12.694  0.1498  1.0166  0.6079
  485TMC3    C5 7213   1.283   1.566  12.642 -0.0092  0.0514  0.0204
  485TMC3    C6 7214   1.390   1.493  12.694 -0.5352 -0.5119  0.0363
  485TMC3     C 7215   1.002   1.431  12.838 -0.0641 -0.1401 -0.1576
  485TMC3     O 7216   0.995   1.320  12.888  0.0316 -0.2028  0.1956
  485TMC3     H 7217   1.222   1.276  12.891 -1.2892 -0.6151 -1.1702
  485TMC3    H1 7218   1.077   1.605  12.643 -0.2986  1.7866  2.1121
  485TMC3    H2 7219   1.490   1.516  12.660  0.0906 -1.7373  1.0433
  485TMC3    C7 7220   1.285   1.557  12.494  0.4160 -0.0742  0.2246
  485TMC3    C8 7221   1.437   1.270  12.734  1.0159  1.2335  0.1289
  485TMC3    O1 7222   1.199   1.610  12.426  0.1952 -0.2745  0.3225
  485TMC3    O2 7223   1.488   1.286  12.623 -0.4179  0.0998 -0.0184
  486MPD2     C 7224   3.172   0.424  12.549 -0.2953  0.2269  0.4239
  486MPD2    C1 7225   3.060   0.361  12.594 -0.3485 -0.7642  0.0909
  486MPD2    C2 7226   2.954   0.445  12.621  0.0200 -1.0286  0.4293
  486MPD2    C3 7227   2.964   0.580  12.597  0.2115 -0.0555 -0.5909
  486MPD2    C4 7228   3.076   0.642  12.553 -0.2360  0.1171 -0.4299
  486MPD2    C5 7229   3.181   0.557  12.522 -0.1127  0.5085  0.2252
  486MPD2     H 7230   2.867   0.397  12.666 -0.6750 -0.4651 -0.3141
  486MPD2    H1 7231   3.089   0.748  12.532 -0.0918  0.5030  1.6445
  486MPD2    H2 7232   3.255   0.355  12.535 -0.1825  0.8642 -2.0299
  486MPD2    H3 7233   3.278   0.599  12.496  0.4878 -0.9399  0.0729
  486MPD2     N 7234   2.837   0.648  12.611  0.2104 -0.6375  0.0602
  486MPD2    H5 7235   2.751   0.603  12.640 -1.9340  2.2214 -1.8300
  486MPD2    N1 7236   3.075   0.226  12.629  0.1941 -0.0209  1.0127
  486MPD2    H7 7237   3.169   0.190  12.642  0.2195 -0.7444 -1.3294
  487TMC3    C1 7238   2.982   0.009  12.653 -0.1754 -0.1235  0.7380
  487TMC3    C2 7239   2.873   4.648  12.638  0.4411 -0.2588  0.3431
  487TMC3    C3 7240   2.874   4.523  12.697 -0.0522  0.5264 -0.2417
  487TMC3    C4 7241   3.093   4.698  12.736  0.3826 -0.1351  0.2383
  487TMC3    C5 7242   3.084   4.573  12.788 -0.1668  0.6265 -0.8058
  487TMC3    C6 7243   2.990   4.483  12.758 -0.3964 -0.0829  0.3441
  487TMC3     C 7244   2.958   0.152  12.638 -0.4967 -0.9827  0.1430
  487TMC3     O 7245   2.843   0.175  12.610 -0.4417 -0.2513  1.1044
  487TMC3     H 7246   2.789   4.685  12.581 -0.7393 -1.7565  1.1154
  487TMC3    H1 7247   3.156   0.052  12.780  0.2700  0.9174 -1.4355
  487TMC3    H2 7248   2.991   4.385  12.804  2.3165 -0.7610 -1.1591
  487TMC3    C7 7249   3.108   4.590  12.929  0.1569  0.6245  0.2892
  487TMC3    C8 7250   2.756   4.484  12.775 -0.0010 -0.4015 -0.7484
  487TMC3    O1 7251   3.201   4.655  12.974  0.1113 -0.3000 -0.3917
  487TMC3    O2 7252   2.779   4.393  12.854 -0.1427  0.0106 -0.0794
  488MPD2     C 7253   3.055   1.771  16.324 -0.5108 -0.3084  0.2411
  488MPD2    C1 7254   3.061   1.858  16.434 -1.3273  0.1409  0.2361
  488MPD2    C2 7255   3.017   1.806  16.558  0.0728  0.8457 -0.2224
  488MPD2    C3 7256   2.977   1.671  16.566 -0.3916 -0.5193  0.1403
  488MPD2    C4 7257   2.974   1.589  16.457  0.0491  0.3734  0.0147
  488MPD2    C5 7258   3.012   1.639  16.337 -0.7832 -0.1552  0.6343
  488MPD2     H 7259   3.024   1.871  16.645  0.4304  1.4127 -0.6749
  488MPD2    H1 7260   2.939   1.487  16.465 -2.0292  0.9346 -1.9620
  488MPD2    H2 7261   3.091   1.794  16.224 -0.9630  1.4421  0.4773
  488MPD2    H3 7262   3.003   1.573  16.251 -1.5057  0.2792  0.3745
  488MPD2     N 7263   2.942   1.626  16.692  0.4265 -0.5065  0.1721
  488MPD2    H5 7264   2.945   1.705  16.755  1.6764 -0.6013  0.2234
  488MPD2    N1 7265   3.103   1.990  16.427 -0.2297 -0.2633 -0.5805
  488MPD2    H7 7266   3.117   2.046  16.511 -0.6148  0.6429 -1.1307
  489TMC3    C1 7267   2.891   1.509  16.883  0.1649 -0.6375 -0.3320
  489TMC3    C2 7268   2.937   1.622  16.945 -0.4708 -0.0539  0.4748
  489TMC3    C3 7269   2.926   1.641  17.076 -0.2705  0.2947  0.3633
  489TMC3    C4 7270   2.823   1.412  16.947 -0.5214 -0.2440  0.2252
  489TMC3    C5 7271   2.804   1.438  17.081  0.3229  0.4540  0.0835
  489TMC3    C6 7272   2.864   1.541  17.147 -1.4001  0.2265  0.2990
  489TMC3     C 7273   2.913   1.498  16.740 -0.4340  0.9021 -0.2114
  489TMC3     O 7274   2.899   1.392  16.677 -0.5744 -0.4348 -0.7924
  489TMC3     H 7275   3.006   1.692  16.898  0.7776 -0.9474  0.9894
  489TMC3    H1 7276   2.779   1.332  16.888 -1.5553  0.6789 -0.2599
  489TMC3    H2 7277   2.857   1.550  17.255 -1.6007 -0.5044  0.3463
  489TMC3    C7 7278   2.744   1.336  17.169 -0.2396  0.2910 -0.5128
  489TMC3    C8 7279   2.931   1.779  17.115  0.0721  0.1092  0.2742
  489TMC3    O1 7280   2.744   1.355  17.288  0.1667  0.5710 -0.2511
  489TMC3    O2 7281   2.977   1.852  17.030  0.3295  0.0981 -0.2118
  490MPD2     C 7282   3.575   1.874  17.478 -0.4231  0.6617 -0.0907
  490MPD2    C1 7283   3.631   1.760  17.425  0.6005 -0.2308 -0.0808
  490MPD2    C2 7284   3.753   1.764  17.364 -0.8096 -0.4128 -0.2529
  490MPD2    C3 7285   3.833   1.875  17.384  0.3490  0.3862  0.5313
  490MPD2    C4 7286   3.780   1.985  17.446 -0.3776  0.6473  0.0996
  490MPD2    C5 7287   3.651   1.990  17.487 -0.1645  1.1011 -0.3686
  490MPD2     H 7288   3.782   1.680  17.301 -0.6916  0.6059 -1.5662
  490MPD2    H1 7289   3.850   2.066  17.461 -0.4868  0.1715  3.3106
  490MPD2    H2 7290   3.481   1.869  17.532  0.8413  0.8047  2.1194
  490MPD2    H3 7291   3.609   2.072  17.544  1.4836  0.6435  1.4882
  490MPD2     N 7292   3.967   1.889  17.343 -0.0897  0.1141  0.1419
  490MPD2    H5 7293   4.003   1.983  17.357  0.2167 -0.0747  0.6473
  490MPD2    N1 7294   3.570   1.633  17.409 -1.1327 -0.4017 -0.3500
  490MPD2    H7 7295   3.632   1.562  17.371  0.4108 -0.1376  1.7150
  491TMC3    C1 7296   3.445   1.451  17.482 -0.5730 -0.0391 -0.3654
  491TMC3    C2 7297   3.397   1.402  17.600 -0.7788 -0.5848 -0.4611
  491TMC3    C3 7298   3.375   1.262  17.596  0.9573  0.8135 -0.2472
  491TMC3    C4 7299   3.464   1.377  17.369 -0.0682 -0.1396  0.4984
  491TMC3    C5 7300   3.450   1.245  17.383  0.5268  0.2987 -0.1586
  491TMC3    C6 7301   3.417   1.176  17.499  0.0872  0.1316  0.4012
  491TMC3     C 7302   3.447   1.599  17.459  0.3144 -0.6023 -0.0810
  491TMC3     O 7303   3.353   1.657  17.510  0.1458  0.4127 -0.8405
  491TMC3     H 7304   3.402   1.461  17.690 -0.4349 -0.8920 -0.2791
  491TMC3    H1 7305   3.482   1.424  17.272 -2.8092 -0.1441 -0.0220
  491TMC3    H2 7306   3.391   1.071  17.498 -1.4827  0.5214  0.4074
  491TMC3    C7 7307   3.461   1.170  17.260  0.2657  0.0838  0.0163
  491TMC3    C8 7308   3.345   1.223   0.038 -1.4053 -0.3625 -0.4538
  491TMC3    O1 7309   3.428   1.215  17.149 -0.2546 -0.4486  0.3937
  491TMC3    O2 7310   3.254   1.287   0.090 -0.5672  0.0764 -0.7249
  492MPD2     C 7311   4.355   1.176  11.016 -0.0635  0.1539  0.2131
  492MPD2    C1 7312   4.243   1.105  10.970  0.3100 -0.0918 -0.5198
  492MPD2    C2 7313   4.165   1.032  11.056  0.1852 -1.0259 -0.8423
  492MPD2    C3 7314   4.199   1.026  11.188 -0.6813 -0.2496  0.4070
  492MPD2    C4 7315   4.310   1.097  11.239  0.5697  0.4485  0.9715
  492MPD2    C5 7316   4.385   1.173  11.149  0.7545 -0.4227  0.3749
  492MPD2     H 7317   4.088   0.971  11.011 -1.8101  0.5259  0.5220
  492MPD2    H1 7318   4.332   1.098  11.345 -0.2273 -0.7284  1.1402
  492MPD2    H2 7319   4.417   1.226  10.943  0.0369 -2.4948 -1.5067
  492MPD2    H3 7320   4.471   1.230  11.183  1.3837 -0.4545 -1.1555
  492MPD2     N 7321   4.114   0.964  11.281 -0.0863 -0.7542 -0.1336
  492MPD2    H5 7322   4.137   0.975  11.379 -0.5697 -0.1184 -0.0895
  492MPD2    N1 7323   4.227   1.107  10.831  0.3748  0.3037  0.1992
  492MPD2    H7 7324   4.267   1.184  10.778  0.3309  0.3243  0.1960
  493TMC3    C1 7325   4.115   1.088  10.642  0.2062  0.4040 -0.3046
  493TMC3    C2 7326   4.222   1.145  10.572  1.0136  0.1139  0.0001
  493TMC3    C3 7327   4.187   1.207  10.456 -0.4137 -0.2675  0.0424
  493TMC3    C4 7328   3.990   1.074  10.600  0.2469  0.2506 -0.0577
  493TMC3    C5 7329   3.960   1.138  10.482 -0.0948  0.0587 -0.5243
  493TMC3    C6 7330   4.060   1.202  10.414 -0.1353  0.1524 -0.2130
  493TMC3     C 7331   4.138   1.031  10.766  0.6801 -0.3577 -0.1882
  493TMC3     O 7332   4.094   0.918  10.792 -0.2085  0.4148 -0.3114
  493TMC3     H 7333   4.323   1.130  10.606  0.6915 -0.9975  0.4551
  493TMC3    H1 7334   3.917   1.023  10.662 -0.5011  1.7007  0.2844
  493TMC3    H2 7335   4.033   1.240  10.316  2.1206  2.4761  0.0791
  493TMC3    C7 7336   3.824   1.143  10.430  0.4175 -0.1534 -0.1400
  493TMC3    C8 7337   4.281   1.261  10.365 -0.2247 -0.0412  0.7226
  493TMC3    O1 7338   3.798   1.231  10.350  0.0205 -0.2869  0.2998
  493TMC3    O2 7339   4.242   1.314  10.263 -0.2684 -0.4887  0.2128
  494TMC3    C1 7340   0.526   3.134   0.463  0.1166 -0.5023  0.1666
  494TMC3    C2 7341   0.513   2.998   0.470 -1.0248  0.1091 -0.4795
  494TMC3    C3 7342   0.460   2.934   0.362  0.2728  0.5949 -0.2227
  494TMC3    C4 7343   0.516   3.201   0.349 -0.3389  0.1545  0.4884
  494TMC3    C5 7344   0.458   3.133   0.243  0.7624 -0.1055  0.0547
  494TMC3    C6 7345   0.425   2.999   0.249  0.1712 -0.0675  0.3342
  494TMC3     C 7346   0.558   3.215   0.580  0.2898 -0.5448  0.1562
  494TMC3     O 7347   0.641   3.304   0.566 -0.5771 -0.3451 -0.1881
  494TMC3     H 7348   0.518   2.932   0.556  0.8231 -0.0134 -0.6667
  494TMC3    H1 7349   0.531   3.308   0.355  0.1195  0.0584  0.9834
  494TMC3    H2 7350   0.400   2.949   0.156 -2.4028 -0.7692  1.4089
  494TMC3    C7 7351   0.482   3.186   0.108 -0.0470 -0.0027  0.2827
  494TMC3    C8 7352   0.394   2.809   0.387 -0.1285  0.0504  0.3478
  494TMC3    O1 7353   0.450   3.120   0.014  0.2129  0.1077  0.5092
  494TMC3    O2 7354   0.434   2.740   0.482  0.6962  0.1065 -0.1784
  495TMC3    C1 7355   3.791   0.525  14.654 -0.2072 -0.0881 -1.0720
  495TMC3    C2 7356   3.724   0.600  14.559 -0.0939  0.2735 -0.2536
  495TMC3    C3 7357   3.606   0.663  14.580  0.1779 -0.5873 -0.2607
  495TMC3    C4 7358   3.741   0.513  14.777 -0.3286 -0.4167 -0.2798
  495TMC3    C5 7359   3.624   0.576  14.797 -0.2001 -0.2310  1.1847
  495TMC3    C6 7360   3.549   0.645  14.703 -0.2790 -0.1668 -0.0301
  495TMC3     C 7361   3.827   0.390  14.605  0.1752 -0.2299 -0.0681
  495TMC3     O 7362   3.765   0.296  14.653  0.6249  0.5897  0.5470
  495TMC3     H 7363   3.748   0.593  14.453  2.8591 -1.6811  0.5209
  495TMC3    H1 7364   3.788   0.453  14.854 -1.8576 -0.2483  0.7845
  495TMC3    H2 7365   3.451   0.681  14.732 -1.3319 -1.3570 -2.1921
  495TMC3    C7 7366   3.555   0.538  14.915  0.2706  0.3108 -0.3758
  495TMC3    C8 7367   3.505   0.672  14.480  0.2071 -0.5342 -0.0028
  495TMC3    O1 7368   3.630   0.531  15.014 -0.3533  0.3918 -0.0910
  495TMC3    O2 7369   3.421   0.582  14.476 -0.7029 -0.3546  0.5030
  496MPD2     C 7370   0.908   0.487  15.653 -0.2308  0.0297 -0.0009
  496MPD2    C1 7371   0.872   0.357  15.637  0.2018 -0.3784 -0.2661
  496MPD2    C2 7372   0.747   0.314  15.678  0.9810 -0.0459 -0.2376
  496MPD2    C3 7373   0.676   0.385  15.772  0.4653 -0.1632  0.0225
  496MPD2    C4 7374   0.725   0.517  15.808  0.2220 -0.5290  0.8868
  496MPD2    C5 7375   0.836   0.563  15.744  0.0654  0.0645 -0.4264
  496MPD2     H 7376   0.703   0.220  15.647 -0.1124  1.2349 -2.6202
  496MPD2    H1 7377   0.663   0.581  15.870 -0.0985 -1.9391  2.0040
  496MPD2    H2 7378   1.003   0.520  15.612  1.6601 -2.2337  2.4970
  496MPD2    H3 7379   0.861   0.667  15.763  2.4314 -0.2434 -1.8864
  496MPD2     N 7380   0.555   0.336  15.823 -0.1514  0.3296 -0.7569
  496MPD2    H5 7381   0.519   0.247  15.792  1.4236 -0.6094  0.0890
  496MPD2    N1 7382   0.955   0.270  15.558  0.1051  0.2013  0.1704
  496MPD2    H7 7383   1.047   0.309  15.538  0.5829 -0.4718  1.0516
  497TMC3    C1 7384   0.368   0.299  15.956 -0.4241 -0.5169  0.9225
  497TMC3    C2 7385   0.305   0.236  15.853 -0.1537 -0.8027 -0.4523
  497TMC3    C3 7386   0.240   0.118  15.878  0.0198  0.1518 -0.4603
  497TMC3    C4 7387   0.383   0.234  16.075 -0.0566 -0.3698  0.1035
  497TMC3    C5 7388   0.308   0.114  16.096  0.1395  0.1079 -0.0622
  497TMC3    C6 7389   0.235   0.055  15.996  0.1178  0.0198 -0.6635
  497TMC3     C 7390   0.479   0.385  15.924 -0.1225 -0.2305  0.2793
  497TMC3     O 7391   0.508   0.466  16.013 -0.0716 -0.1775  0.4122
  497TMC3     H 7392   0.286   0.296  15.765 -3.2277 -0.8698  0.1846
  497TMC3    H1 7393   0.439   0.280  16.156 -1.7350  2.1715 -0.1982
  497TMC3    H2 7394   0.179   4.685  16.003 -1.2657  0.6388 -3.3085
  497TMC3    C7 7395   0.333   0.031  16.207  0.1593 -0.5283  0.7584
  497TMC3    C8 7396   0.119   0.096  15.795  0.1689  0.2178 -0.3808
  497TMC3    O1 7397   0.264   4.648  16.205 -0.2573  0.2452 -0.3760
  497TMC3    O2 7398   0.026   0.059  15.866  0.8268  0.6419  0.6294
  498MPD2     C 7399   0.840   1.148   9.552 -1.1974  0.3655 -0.2941
  498MPD2    C1 7400   0.895   1.041   9.616  0.1226  0.5310  0.5245
  498MPD2    C2 7401   0.821   0.940   9.664  0.0529 -0.8655 -0.5622
  498MPD2    C3 7402   0.686   0.945   9.651 -1.1090  0.2579 -0.2694
  498MPD2    C4 7403   0.630   1.052   9.582 -0.5196 -0.3579 -0.3957
  498MPD2    C5 7404   0.708   1.152   9.532  0.2155 -0.3331  0.1368
  498MPD2     H 7405   0.872   0.855   9.708  0.2579  0.0084  0.8707
  498MPD2    H1 7406   0.523   1.050   9.570 -0.5725 -0.8593  0.1326
  498MPD2    H2 7407   0.904   1.215   9.496 -1.2149 -2.0416 -3.2137
  498MPD2    H3 7408   0.674   1.238   9.475 -1.7487 -1.5967 -0.6064
  498MPD2     N 7409   0.620   0.839   9.710  0.2221 -0.1089  1.0153
  498MPD2    H5 7410   0.673   0.768   9.760  0.7368 -1.0302 -0.8342
  498MPD2    N1 7411   1.034   1.026   9.635  0.3080  0.3931 -0.4362
  498MPD2    H7 7412   1.069   0.939   9.674  0.1227  0.4238 -0.2012
  499TMC3    C1 7413   1.253   1.083   9.586  0.8785  0.0315 -0.7037
  499TMC3    C2 7414   1.276   0.951   9.540 -0.5455  0.3866 -0.3558
  499TMC3    C3 7415   1.414   0.922   9.517 -0.7895 -0.4577  0.7871
  499TMC3    C4 7416   1.350   1.175   9.604  0.7334  0.0584 -0.2083
  499TMC3    C5 7417   1.479   1.144   9.580  0.5541 -0.4788 -0.5876
  499TMC3    C6 7418   1.510   1.016   9.537 -0.3500  0.0134  0.3281
  499TMC3     C 7419   1.120   1.129   9.603 -0.4125 -0.1890  0.5658
  499TMC3     O 7420   1.104   1.252   9.612  0.8398  0.0243 -0.1721
  499TMC3     H 7421   1.198   0.881   9.512  0.3835  0.0668 -2.0888
  499TMC3    H1 7422   1.337   1.276   9.643 -1.3915 -0.3938  0.2284
  499TMC3    H2 7423   1.610   0.989   9.509  0.3006  1.3585  1.3035
  499TMC3    C7 7424   1.572   1.249   9.549  0.0620  0.3809 -0.0512
  499TMC3    C8 7425   1.450   0.798   9.461 -0.2052  0.0676  0.3669
  499TMC3    O1 7426   1.525   1.340   9.482  0.0985  0.0866  0.1764
  499TMC3    O2 7427   1.562   0.764   9.485 -0.4698  0.0831  0.0609
  500MPD2     C 7428   3.390   1.910   9.984 -0.1846 -0.3860 -0.3474
  500MPD2    C1 7429   3.345   2.027  10.040 -0.5905  0.0437 -0.1386
  500MPD2    C2 7430   3.212   2.064  10.026  0.7289 -0.4091 -0.4721
  500MPD2    C3 7431   3.132   1.980   9.949  0.3977 -0.3955  0.8370
  500MPD2    C4 7432   3.187   1.870   9.876 -0.1214 -0.0596 -0.3111
  500MPD2    C5 7433   3.320   1.842   9.894  0.4398  0.0917 -0.8954
  500MPD2     H 7434   3.168   2.150  10.074 -0.4340 -0.6799 -1.0470
  500MPD2    H1 7435   3.128   1.812   9.806 -3.4295 -0.1735  2.5417
  500MPD2    H2 7436   3.496   1.887   9.984  0.0736  0.8812  1.9468
  500MPD2    H3 7437   3.365   1.776   9.820  1.0379  0.2506 -0.6763
  500MPD2     N 7438   2.992   2.013   9.928  0.0029  0.2884  0.2246
  500MPD2    H5 7439   2.938   1.950   9.870  2.4430 -2.2059  0.6635
  500MPD2    N1 7440   3.439   2.101  10.119  0.3072 -0.1398 -0.4518
  500MPD2    H7 7441   3.524   2.056  10.153 -0.3484 -0.6459  0.5470
  501TMC3    C1 7442   3.525   2.291  10.222 -0.4110  0.0251 -0.2819
  501TMC3    C2 7443   3.526   2.428  10.231 -0.2724 -0.6696 -0.4649
  501TMC3    C3 7444   3.606   2.495  10.317 -0.1820  0.2512 -0.1042
  501TMC3    C4 7445   3.613   2.222  10.302 -0.4146  0.3205 -0.0074
  501TMC3    C5 7446   3.698   2.287  10.379 -0.5052  0.3136  0.1856
  501TMC3    C6 7447   3.700   2.425  10.389 -0.0513 -0.0615  0.1356
  501TMC3     C 7448   3.418   2.233  10.142  0.3931  0.6233 -0.3075
  501TMC3     O 7449   3.342   2.314  10.088  0.0053 -0.1019 -0.9044
  501TMC3     H 7450   3.452   2.486  10.177  1.0852  0.7114 -0.8520
  501TMC3    H1 7451   3.600   2.115  10.314  2.5676 -0.1575 -1.2343
  501TMC3    H2 7452   3.766   2.481  10.455  1.9915 -1.9272 -0.3254
  501TMC3    C7 7453   3.800   2.209  10.450  0.5047  1.2761 -0.3833
  501TMC3    C8 7454   3.580   2.626  10.349  0.3766  0.7908  0.6270
  501TMC3    O1 7455   3.793   2.085  10.447 -0.2361  0.0226 -0.2618
  501TMC3    O2 7456   3.621   2.666  10.457  0.2453  0.3617  0.1181
  502TMC3    C1 7457   3.026   1.192  14.707  0.2791  0.0354  0.3270
  502TMC3    C2 7458   2.968   1.306  14.661 -0.5812  0.0527 -0.7022
  502TMC3    C3 7459   2.836   1.307  14.641  0.1302  0.4923  0.9608
  502TMC3    C4 7460   2.955   1.076  14.714  0.2936  0.8182  0.3865
  502TMC3    C5 7461   2.826   1.082  14.681 -0.1685 -0.3317  0.9744
  502TMC3    C6 7462   2.758   1.197  14.654  0.0956 -0.2725  0.1290
  502TMC3     C 7463   3.122   1.223  14.811  0.4607  0.0352 -0.4990
  502TMC3     O 7464   3.229   1.275  14.791 -0.3333 -0.0089  0.0821
  502TMC3     H 7465   3.026   1.397  14.658  0.4579 -0.6096 -0.4411
  502TMC3    H1 7466   3.009   0.986  14.744 -1.4461 -0.3074  0.1271
  502TMC3    H2 7467   2.656   1.206  14.617 -0.7877 -1.9930  2.1531
  502TMC3    C7 7468   2.750   0.965  14.720  0.0609 -0.1103  0.0812
  502TMC3    C8 7469   2.769   1.436  14.666  0.1630 -1.2755  0.1813
  502TMC3    O1 7470   2.806   0.852  14.713  0.0255 -0.3891  0.4517
  502TMC3    O2 7471   2.815   1.533  14.613 -0.3818 -0.3926 -0.2068
  503MPD2     C 7472   0.153   2.300  16.709  0.1116 -0.4212 -0.9086
  503MPD2    C1 7473   0.185   2.307  16.844 -0.3986  0.9033 -0.5389
  503MPD2    C2 7474   0.213   2.192  16.905 -0.0618 -0.7701  0.1115
  503MPD2    C3 7475   0.205   2.072  16.841  0.3012 -0.0406  0.8841
  503MPD2    C4 7476   0.162   2.063  16.713 -0.5760  0.1069  0.4263
  503MPD2    C5 7477   0.136   2.183  16.652  0.0912  0.6685  0.9310
  503MPD2     H 7478   0.252   2.195  17.006 -0.2694  0.2661  0.1534
  503MPD2    H1 7479   0.165   1.969  16.659  0.3860  0.2024  0.3057
  503MPD2    H2 7480   0.128   2.386  16.648 -1.8255 -0.6839 -0.4693
  503MPD2    H3 7481   0.117   2.171  16.546 -0.5203  0.3599  1.0727
  503MPD2     N 7482   0.236   1.955  16.913  0.0952  0.3512 -0.1483
  503MPD2    H5 7483   0.253   1.964  17.012  0.5640 -0.3035 -0.1662
  503MPD2    N1 7484   0.197   2.429  16.916 -0.4688  0.0887  0.0656
  503MPD2    H7 7485   0.219   2.422  17.015 -0.1028  0.4403  0.0111
  504TMC3    C1 7486   0.282   1.726  16.939  0.2528 -0.0740  0.5371
  504TMC3    C2 7487   0.252   1.730  17.076  0.6689 -0.1402  0.1644
  504TMC3    C3 7488   0.270   1.614  17.153 -0.6689 -0.4760 -0.2883
  504TMC3    C4 7489   0.303   1.599  16.879  0.8909  0.2401 -1.2238
  504TMC3    C5 7490   0.317   1.490  16.956 -0.4172  0.3671  1.1263
  504TMC3    C6 7491   0.301   1.498  17.090  0.1972 -0.2237 -0.4789
  504TMC3     C 7492   0.268   1.836  16.848 -0.1634 -0.0036  0.2001
  504TMC3     O 7493   0.300   1.822  16.730 -0.3783 -0.0774  0.0532
  504TMC3     H 7494   0.207   1.816  17.123  0.8754 -0.0877  0.2657
  504TMC3    H1 7495   0.337   1.593  16.776  0.3591  1.0638 -1.4455
  504TMC3    H2 7496   0.321   1.405  17.142 -3.6987  0.9077  3.0134
  504TMC3    C7 7497   0.372   1.373  16.887 -0.3330 -0.0434 -0.0268
  504TMC3    C8 7498   0.270   1.620  17.297  0.0981 -0.3543  0.1716
  504TMC3    O1 7499   0.385   1.382  16.766  0.2871 -0.0869 -0.5409
  504TMC3    O2 7500   0.229   1.721  17.349 -0.3381 -0.5992  0.2547
  505MPD2     C 7501   0.438   4.230  10.131 -0.1055 -0.1656 -0.1348
  505MPD2    C1 7502   0.520   4.252  10.018 -0.5801  0.0925  1.4747
  505MPD2    C2 7503   0.640   4.312  10.038  0.4438 -0.0830 -0.2754
  505MPD2    C3 7504   0.677   4.356  10.166 -0.1328 -0.2677 -0.6528
  505MPD2    C4 7505   0.596   4.333  10.273 -0.3134  0.1593  0.3964
  505MPD2    C5 7506   0.478   4.275  10.251  0.5590  0.4982  0.6888
  505MPD2     H 7507   0.717   4.329   9.963 -0.9290 -0.0555 -1.6870
  505MPD2    H1 7508   0.605   4.383  10.369 -0.9122  0.8251  0.1111
  505MPD2    H2 7509   0.343   4.178  10.121 -0.0101 -0.5754  1.1142
  505MPD2    H3 7510   0.419   4.258  10.340 -1.0205  1.2976 -0.1953
  505MPD2     N 7511   0.809   4.404  10.174 -0.1513 -0.1954  0.0079
  505MPD2    H5 7512   0.862   4.401  10.087  1.5413  0.3827  1.0110
  505MPD2    N1 7513   0.457   4.230   9.895  0.1078  0.1465  0.8487
  505MPD2    H7 7514   0.359   4.206   9.888  0.0058  0.1296  2.3863
  506TMC3    C1 7515   0.443   4.228   9.662  0.9360 -0.9236  0.7508
  506TMC3    C2 7516   0.352   4.329   9.651  1.0662 -0.3360  1.1349
  506TMC3    C3 7517   0.337   4.380   9.528  1.0035  0.4174  0.4632
  506TMC3    C4 7518   0.528   4.193   9.562 -0.4361 -0.2935  0.5348
  506TMC3    C5 7519   0.526   4.268   9.450  0.0270 -0.6614 -0.3585
  506TMC3    C6 7520   0.437   4.370   9.426 -0.1275 -0.2829 -0.5122
  506TMC3     C 7521   0.526   4.233   9.775  0.1485  0.0909  0.7884
  506TMC3     O 7522   0.648   4.246   9.753  0.8274 -0.1324 -0.2731
  506TMC3     H 7523   0.307   4.359   9.745  0.2154 -0.0005  0.6219
  506TMC3    H1 7524   0.600   4.113   9.574  1.2788  1.3592  1.2070
  506TMC3    H2 7525   0.457   4.433   9.340 -0.5595 -1.4208 -1.4463
  506TMC3    C7 7526   0.660   4.301   9.406  0.2249  0.4948 -0.3525
  506TMC3    C8 7527   0.248   4.492   9.503  0.3319  0.3086 -0.2929
  506TMC3    O1 7528   0.683   4.333   9.290 -0.2577 -0.1260 -0.1405
  506TMC3    O2 7529   0.206   4.511   9.389  0.3022 -0.3105 -0.1536
  507TMC3    C1 7530   1.544   1.461  14.842  0.0296 -0.0354  0.2870
  507TMC3    C2 7531   1.545   1.369  14.739  0.3507  0.2513  0.1107
  507TMC3    C3 7532   1.558   1.414  14.610 -0.2615  0.2053 -0.3188
  507TMC3    C4 7533   1.557   1.593  14.825  0.3692  0.5620  0.1516
  507TMC3    C5 7534   1.571   1.632  14.692 -0.3389 -0.5932 -0.5585
  507TMC3    C6 7535   1.579   1.542  14.583 -0.3735  0.4871  0.0791
  507TMC3     C 7536   1.504   1.424  14.975 -0.1220  0.7371  0.0895
  507TMC3     O 7537   1.552   1.487  15.065 -0.1219 -0.8730 -0.0126
  507TMC3     H 7538   1.527   1.265  14.765 -1.5810  0.9101  1.4848
  507TMC3    H1 7539   1.531   1.667  14.900  0.9369  0.4569  0.4465
  507TMC3    H2 7540   1.594   1.567  14.479  1.2417 -1.6925 -0.2069
  507TMC3    C7 7541   1.481   1.737  14.651  0.1141  0.4701 -0.2705
  507TMC3    C8 7542   1.464   1.354  14.516  0.3662 -0.6244  0.7010
  507TMC3    O1 7543   1.428   1.709  14.544  0.0245 -0.1091 -0.3013
  507TMC3    O2 7544   1.434   1.238  14.527 -0.5206  0.6699  0.4572
  508MPD2     C 7545   2.089   4.321  15.998  0.0164  0.2438  0.0007
  508MPD2    C1 7546   2.217   4.337  15.954  0.5931 -0.1889  1.2772
  508MPD2    C2 7547   2.245   4.314  15.822 -0.2590  0.0109 -0.2151
  508MPD2    C3 7548   2.142   4.282  15.737  0.5783  0.4352  0.7066
  508MPD2    C4 7549   2.014   4.271  15.785  0.8019 -0.0362 -0.0632
  508MPD2    C5 7550   1.986   4.296  15.910  0.1066 -0.5860 -0.2559
  508MPD2     H 7551   2.342   4.328  15.775 -0.2990  0.0862 -0.2761
  508MPD2    H1 7552   1.924   4.254  15.726  0.4133 -0.1680  0.5656
  508MPD2    H2 7553   2.058   4.342  16.100 -1.5207  2.0312 -0.8317
  508MPD2    H3 7554   1.884   4.297  15.946 -0.0065 -2.0361 -0.5199
  508MPD2     N 7555   2.171   4.274  15.597  0.2961 -0.1974 -0.8969
  508MPD2    H5 7556   2.263   4.301  15.563  0.9891  0.0414  1.1943
  508MPD2    N1 7557   2.312   4.367  16.053  1.0496 -0.3625  0.2830
  508MPD2    H7 7558   2.286   4.362  16.151  1.0190 -1.5718  0.2123
  509TMC3    C1 7559   2.138   4.299  15.156 -0.3711  0.1669  0.1198
  509TMC3    C2 7560   2.274   4.289  15.139 -0.2569  0.6247 -0.4471
  509TMC3    C3 7561   2.347   4.244  15.244 -0.0502  0.1296  0.3918
  509TMC3    C4 7562   2.071   4.260  15.263 -0.0609  0.2942  0.9208
  509TMC3    C5 7563   2.151   4.230  15.371  0.9751 -0.0591 -0.2135
  509TMC3    C6 7564   2.279   4.204  15.358 -0.7243 -0.6174 -0.4128
  509TMC3     C 7565   2.053   4.355  15.048 -1.3816  0.1489 -0.0097
  509TMC3     O 7566   1.933   4.323  15.055  0.1475 -0.1838 -0.1015
  509TMC3     H 7567   2.322   4.321  15.047 -1.9156 -2.3224 -2.3407
  509TMC3    H1 7568   1.969   4.292  15.280  0.1714  0.8659  1.2216
  509TMC3    H2 7569   2.333   4.161  15.442  0.2703  1.9821  0.2760
  509TMC3    C7 7570   2.084   4.215  15.501 -0.1675  0.6275  0.1958
  509TMC3    C8 7571   2.485   4.280  15.244  0.4710 -0.4221  0.3943
  509TMC3    O1 7572   1.973   4.165  15.508 -0.1809 -0.4664 -0.0567
  509TMC3    O2 7573   2.578   4.211  15.280  0.2431  0.4514  0.7492
  510MPD2     C 7574   0.038   0.664  14.728  0.4588  0.7328  0.5583
  510MPD2    C1 7575   0.081   0.534  14.752  0.3326 -0.2666  0.1815
  510MPD2    C2 7576   0.211   0.492  14.702  0.4957 -0.0726 -1.5751
  510MPD2    C3 7577   0.284   0.579  14.627  0.9225 -0.2490  0.0792
  510MPD2    C4 7578   0.240   0.704  14.602 -0.7278  1.3124 -0.0112
  510MPD2    C5 7579   0.119   0.749  14.655  0.0247 -0.2540  0.4327
  510MPD2     H 7580   0.253   0.393  14.717  2.7604  1.2230  0.6105
  510MPD2    H1 7581   0.297   0.781  14.552  0.4899  0.6086  0.3110
  510MPD2    H2 7582   4.680   0.701  14.790  1.0627  0.3583  1.5772
  510MPD2    H3 7583   0.084   0.850  14.639 -0.6614 -0.6491 -0.5167
  510MPD2     N 7584   0.418   0.545  14.591  0.7400 -0.5408 -0.2733
  510MPD2    H5 7585   0.464   0.470  14.642  0.9602  0.0052  0.3280
  510MPD2    N1 7586   4.722   0.453  14.830 -0.3384  0.0089 -0.0360
  510MPD2    H7 7587   4.639   0.495  14.872  0.8425  0.2199  2.0590
  511TMC3    C1 7588   4.617   0.270  14.932  1.0263  0.0130  0.5454
  511TMC3    C2 7589   4.560   0.337  15.034  0.2358 -0.2248 -0.3726
  511TMC3    C3 7590   4.441   0.285  15.081  0.7982 -0.1137 -0.5666
  511TMC3    C4 7591   4.560   0.147  14.886 -0.3178  0.9097  0.6107
  511TMC3    C5 7592   4.451   0.092  14.946  0.0270  0.1691 -0.6226
  511TMC3    C6 7593   4.388   0.163  15.045  0.2352  0.1245  0.8590
  511TMC3     C 7594   0.004   0.316  14.846 -0.2122  0.1015  0.1125
  511TMC3     O 7595   0.066   0.230  14.784  0.4209  1.3227 -0.0072
  511TMC3     H 7596   4.596   0.432  15.071 -0.8749 -1.1244  3.0155
  511TMC3    H1 7597   4.604   0.091  14.805  0.7609  0.8344  1.2398
  511TMC3    H2 7598   4.292   0.134  15.085 -0.4550  0.9918 -0.1651
  511TMC3    C7 7599   4.399   4.687  14.892  0.0596  0.1399  0.6025
  511TMC3    C8 7600   4.368   0.369  15.180 -0.5278 -0.2615 -0.5319
  511TMC3    O1 7601   4.452   4.644  14.789  0.1110 -0.9857  0.0731
  511TMC3    O2 7602   4.392   0.485  15.182 -0.6480 -0.3952 -0.3749
  512TMC3    C1 7603   3.659   4.709  12.879 -0.1792 -0.8108  0.4588
  512TMC3    C2 7604   3.751   4.700  12.983  0.5539 -0.5132  0.0696
  512TMC3    C3 7605   3.781   4.578  13.014  0.0741 -1.2999 -0.1435
  512TMC3    C4 7606   3.610   4.598  12.811 -0.6299 -0.0708 -0.1787
  512TMC3    C5 7607   3.651   4.477  12.849 -0.4446 -0.5421 -0.1694
  512TMC3    C6 7608   3.728   4.461  12.961  0.2078  0.2817  0.1001
  512TMC3     C 7609   3.628   0.118  12.819 -0.3436  0.4557  0.1539
  512TMC3     O 7610   3.589   0.120  12.701 -0.0693 -0.1108  0.4628
  512TMC3     H 7611   3.792   0.064  13.033 -0.5384  0.4816 -0.7590
  512TMC3    H1 7612   3.554   4.618  12.720 -0.1861  1.1377 -0.1810
  512TMC3    H2 7613   3.779   4.367  12.972  3.2746  2.0142  0.7245
  512TMC3    C7 7614   3.624   4.367  12.762  0.3332 -0.0043 -0.0804
  512TMC3    C8 7615   3.897   4.555  13.090  0.0562  0.2274  0.5129
  512TMC3    O1 7616   3.599   4.390  12.647  0.4223 -0.3464  0.2536
  512TMC3    O2 7617   3.965   4.460  13.061  0.4475 -0.2471 -0.0701
  513MPD2     C 7618   1.032   4.310  12.335 -0.6859 -0.2720 -0.9785
  513MPD2    C1 7619   0.973   4.225  12.419 -0.0757  0.2306 -0.2214
  513MPD2    C2 7620   0.962   4.250  12.556  0.7169 -0.5033 -0.0458
  513MPD2    C3 7621   1.025   4.356  12.606 -0.2168 -0.7348  0.2593
  513MPD2    C4 7622   1.090   4.437  12.520  0.0958 -0.0454 -0.1405
  513MPD2    C5 7623   1.097   4.416  12.386  0.0431  0.0055  0.4931
  513MPD2     H 7624   0.910   4.183  12.624  0.4832  0.5031  0.7566
  513MPD2    H1 7625   1.141   4.525  12.558  0.8753 -1.2898  1.7152
  513MPD2    H2 7626   1.038   4.290  12.229  0.4956  0.4093 -1.0393
  513MPD2    H3 7627   1.149   4.488  12.323  0.5388 -1.1360 -0.4046
  513MPD2     N 7628   1.015   4.377  12.745 -0.0239 -0.0250  0.0974
  513MPD2    H5 7629   0.945   4.320  12.791  0.8711 -3.4901 -2.8764
  513MPD2    N1 7630   0.905   4.116  12.358  0.1732 -0.5115  0.7309
  513MPD2    H7 7631   0.925   4.104  12.259  0.7595  0.0723  0.7765
  514TMC3    C1 7632   0.825   3.889  12.363 -0.1194  0.0599 -0.8261
  514TMC3    C2 7633   0.924   3.881  12.270  0.2296  0.1581  0.0306
  514TMC3    C3 7634   1.042   3.824  12.304  0.5163 -0.2509 -0.1809
  514TMC3    C4 7635   0.824   3.800  12.463  0.1438  0.2024  0.1644
  514TMC3    C5 7636   0.947   3.758  12.509 -0.5100 -0.1150  0.5602
  514TMC3    C6 7637   1.061   3.778  12.431 -0.0018  0.1626 -0.2289
  514TMC3     C 7638   0.823   4.025  12.421 -0.1287  0.0376  0.0785
  514TMC3     O 7639   0.764   4.042  12.526 -0.6263  0.1739 -0.1781
  514TMC3     H 7640   0.905   3.910  12.167  0.9527 -0.0073 -0.1519
  514TMC3    H1 7641   0.751   3.812  12.542 -0.4111  0.0667 -0.3238
  514TMC3    H2 7642   1.160   3.758  12.472  0.2867  2.5189  0.2041
  514TMC3    C7 7643   0.975   3.784  12.644  0.2410 -0.4279  0.1066
  514TMC3    C8 7644   1.150   3.826  12.212  0.2865 -0.1762  0.5631
  514TMC3    O1 7645   1.077   3.841  12.678  0.7650 -0.2389 -0.0413
  514TMC3    O2 7646   1.265   3.788  12.247 -0.2476  0.5182 -0.2135
  515MPD2     C 7647   3.064   1.938  14.939 -0.4345  0.7221  0.0735
  515MPD2    C1 7648   3.160   1.933  14.835  0.7412 -0.0211 -0.3689
  515MPD2    C2 7649   3.293   1.958  14.872  0.2085 -0.2163  0.1164
  515MPD2    C3 7650   3.336   1.982  15.002 -0.1417 -0.3526 -0.1670
  515MPD2    C4 7651   3.235   1.976  15.101 -0.4544 -0.3179  0.2572
  515MPD2    C5 7652   3.105   1.967  15.065 -0.4150  0.0870  0.5565
  515MPD2     H 7653   3.367   1.954  14.793 -2.2333  3.6719 -2.3278
  515MPD2    H1 7654   3.260   2.011  15.200  1.0111  3.7321 -1.5414
  515MPD2    H2 7655   2.958   1.919  14.925 -0.6959  0.1432  2.9239
  515MPD2    H3 7656   3.034   1.989  15.144  0.8337 -1.1194  2.0064
  515MPD2     N 7657   3.467   2.001  15.050  0.4070  0.0642  0.7131
  515MPD2    H5 7658   3.478   2.023  15.148  0.3613  0.3750  0.6480
  515MPD2    N1 7659   3.132   1.892  14.699  0.0443  0.1180 -0.1435
  515MPD2    H7 7660   3.211   1.885  14.635  1.2450  1.5243  1.1886
  516TMC3    C1 7661   3.018   1.788  14.532 -0.5485  0.3787 -0.4204
  516TMC3    C2 7662   2.963   1.842  14.417 -1.0590 -0.0534  0.3347
  516TMC3    C3 7663   2.984   1.770  14.302  0.7871  0.1434  0.1893
  516TMC3    C4 7664   3.108   1.684  14.534  0.0036  0.0928  0.3999
  516TMC3    C5 7665   3.132   1.617  14.417 -0.1111  0.3426  0.3088
  516TMC3    C6 7666   3.061   1.654  14.302  0.6756 -0.5783  0.0593
  516TMC3     C 7667   3.008   1.869  14.650 -0.0696  0.0613 -1.5384
  516TMC3     O 7668   2.895   1.890  14.696  0.1239  0.3819  0.3339
  516TMC3     H 7669   2.901   1.931  14.421 -0.2082  0.6423 -1.9002
  516TMC3    H1 7670   3.158   1.653  14.625  1.3988 -0.7221 -0.6470
  516TMC3    H2 7671   3.095   1.615  14.206  0.1596 -0.9935  0.0428
  516TMC3    C7 7672   3.222   1.504  14.428  0.5686 -0.9174  0.2117
  516TMC3    C8 7673   2.951   1.838  14.173 -0.0824  0.4805  0.0191
  516TMC3    O1 7674   3.313   1.506  14.515 -0.6195 -0.3095 -0.1770
  516TMC3    O2 7675   2.849   1.908  14.186  0.0788 -0.0340 -0.5302
  517MPD2     C 7676   2.853   3.166   0.261 -0.4129 -0.1459 -0.1372
  517MPD2    C1 7677   2.983   3.194   0.210  0.1038 -1.3511 -0.0985
  517MPD2    C2 7678   3.069   3.275   0.280  0.2896  0.3004 -0.6984
  517MPD2    C3 7679   3.036   3.322   0.409 -0.4724  0.4413  0.0357
  517MPD2    C4 7680   2.912   3.297   0.456 -0.4601  0.1949 -0.9325
  517MPD2    C5 7681   2.816   3.230   0.377 -0.3589 -0.4565  0.0455
  517MPD2     H 7682   3.168   3.283   0.237  1.2057 -0.1335  1.3229
  517MPD2    H1 7683   2.881   3.331   0.555  1.0050  0.2498 -0.4971
  517MPD2    H2 7684   2.779   3.110   0.206 -0.1945  0.9648 -1.5706
  517MPD2    H3 7685   2.711   3.231   0.405 -0.4451  0.1538 -0.2992
  517MPD2     N 7686   3.125   3.396   0.492  0.6048 -0.1110  0.6953
  517MPD2    H5 7687   3.101   3.395   0.590  1.2462 -0.9329  0.8439
  517MPD2    N1 7688   3.035   3.129   0.108  0.3304 -0.2868  0.4228
  517MPD2    H7 7689   3.122   3.164   0.071  0.0500  0.2205  0.2395
  518TMC3    C1 7690   3.056   2.987  17.621  0.1203  0.1507  0.5911
  518TMC3    C2 7691   3.057   2.855  17.580 -0.0298 -0.6595 -0.3137
  518TMC3    C3 7692   3.139   2.821  17.476  0.4478  0.2021 -0.0727
  518TMC3    C4 7693   3.129   3.084  17.550 -0.3588  0.0092  0.0860
  518TMC3    C5 7694   3.210   3.048  17.446 -0.3891  0.6700 -0.3307
  518TMC3    C6 7695   3.205   2.916  17.400  0.4879 -0.2966  0.5927
  518TMC3     C 7696   2.979   3.018   0.055 -0.9003 -0.3955  0.0921
  518TMC3     O 7697   2.916   2.935   0.121  0.4320 -0.1156  0.5636
  518TMC3     H 7698   3.004   2.782  17.641 -1.8580  1.8359  1.1087
  518TMC3    H1 7699   3.120   3.188  17.579 -2.5811  0.7544 -3.3599
  518TMC3    H2 7700   3.258   2.883  17.311  0.8089 -0.2742  0.7806
  518TMC3    C7 7701   3.338   3.107  17.439 -0.0997  0.1303 -0.2931
  518TMC3    C8 7702   3.168   2.680  17.451 -0.5645 -0.2886  0.5483
  518TMC3    O1 7703   3.358   3.213  17.500 -0.1876 -0.0056 -0.0291
  518TMC3    O2 7704   3.241   2.645  17.354  0.5439 -0.1243 -0.4702
  519MPD2     C 7705   0.207   1.598  14.205  0.6023  0.1293  0.0899
  519MPD2    C1 7706   0.147   1.528  14.106  0.1041 -0.5180  0.3375
  519MPD2    C2 7707   0.216   1.490  14.001 -0.9012 -0.0813 -0.3673
  519MPD2    C3 7708   0.348   1.530  13.987  0.1009  0.3758  0.2795
  519MPD2    C4 7709   0.408   1.611  14.076  0.1691  0.8272 -0.2244
  519MPD2    C5 7710   0.338   1.639  14.190  0.3751 -0.0887 -0.5965
  519MPD2     H 7711   0.175   1.424  13.926 -0.2045 -3.5690  2.3711
  519MPD2    H1 7712   0.508   1.650  14.057  0.5876 -0.8149 -1.4965
  519MPD2    H2 7713   0.164   1.626  14.300 -2.0439  0.0002 -1.0937
  519MPD2    H3 7714   0.384   1.704  14.264  0.2094 -0.6298 -0.0250
  519MPD2     N 7715   0.428   1.488  13.876 -0.2301 -0.2890  0.2304
  519MPD2    H5 7716   0.527   1.502  13.893 -0.0094 -1.6058  0.0505
  519MPD2    N1 7717   0.010   1.507  14.118 -0.0264 -0.5425  0.7557
  519MPD2    H7 7718   4.680   1.548  14.195  0.6028  1.1326  0.2901
  520TMC3    C1 7719   0.460   1.377  13.668  0.2131  0.4274 -0.7527
  520TMC3    C2 7720   0.402   1.332  13.553 -0.2245  0.0413  0.7774
  520TMC3    C3 7721   0.467   1.240  13.477 -0.3208  0.8316  0.9908
  520TMC3    C4 7722   0.576   1.327  13.714 -0.5516 -0.0098 -0.4518
  520TMC3    C5 7723   0.642   1.234  13.638 -0.4974  0.0887 -0.4528
  520TMC3    C6 7724   0.590   1.190  13.520  0.0688 -0.1368 -0.1739
  520TMC3     C 7725   0.369   1.448  13.757  0.8792  0.2882 -0.0561
  520TMC3     O 7726   0.251   1.458  13.722  0.6351 -0.5839 -0.1752
  520TMC3     H 7727   0.313   1.390  13.531  1.3143  2.5726  1.2033
  520TMC3    H1 7728   0.615   1.347  13.813 -0.1725 -3.2866  0.0519
  520TMC3    H2 7729   0.638   1.108  13.468 -1.5536 -1.2865  0.1245
  520TMC3    C7 7730   0.770   1.196  13.692 -0.0473 -0.3219  0.3041
  520TMC3    C8 7731   0.410   1.212  13.344  0.5327 -0.0312 -0.2096
  520TMC3    O1 7732   0.772   1.087  13.755 -0.4068  0.2155  0.3067
  520TMC3    O2 7733   0.482   1.143  13.272 -0.2484  0.3995  0.5639
  521MPD2     C 7734   1.215   4.341  17.426 -0.4833  0.1854 -0.5036
  521MPD2    C1 7735   1.190   4.264  17.319 -0.7140 -0.1787 -0.4880
  521MPD2    C2 7736   1.306   4.232  17.240  0.0089  0.4058  0.3287
  521MPD2    C3 7737   1.426   4.280  17.281  0.1786  0.8912 -0.2669
  521MPD2    C4 7738   1.446   4.362  17.386  0.3126 -0.2982 -0.1026
  521MPD2    C5 7739   1.338   4.399  17.462 -0.6401  0.0232  0.3324
  521MPD2     H 7740   1.297   4.170  17.152  0.9515 -0.2596  0.7004
  521MPD2    H1 7741   1.542   4.400  17.419  0.7785 -0.8727 -0.8057
  521MPD2    H2 7742   1.140   4.374  17.497  0.6273  0.9915  0.2863
  521MPD2    H3 7743   1.345   4.463  17.549  0.0399  0.6619 -0.1918
  521MPD2     N 7744   1.535   4.245  17.193 -0.1818  0.1195 -0.5624
  521MPD2    H5 7745   1.510   4.196  17.108  0.1268  1.3891 -1.3934
  521MPD2    N1 7746   1.055   4.242  17.283 -0.3356 -0.2621  0.6796
  521MPD2    H7 7747   0.987   4.297  17.335  0.6755  1.0892  0.5724
  522TMC3    C1 7748   1.756   4.253  17.087 -0.4056  0.0883  0.3887
  522TMC3    C2 7749   1.889   4.266  17.120  0.7334  0.5821  1.0482
  522TMC3    C3 7750   1.977   4.185  17.054 -0.0704 -0.5854  0.2373
  522TMC3    C4 7751   1.707   4.163  16.995  0.1520 -0.1007  0.0990
  522TMC3    C5 7752   1.802   4.085  16.931 -0.9980 -0.1481  0.8468
  522TMC3    C6 7753   1.938   4.102  16.952 -0.7616 -0.6237 -0.3050
  522TMC3     C 7754   1.667   4.293  17.194 -0.3905 -0.0689 -0.5418
  522TMC3     O 7755   1.716   4.368  17.274  0.2703  0.8231 -0.3325
  522TMC3     H 7756   1.923   4.337  17.195 -0.0467  4.0420 -1.9074
  522TMC3    H1 7757   1.600   4.157  16.979  0.2959 -0.7841 -0.5943
  522TMC3    H2 7758   2.011   4.031  16.912  0.1080  0.8291 -1.2879
  522TMC3    C7 7759   1.772   4.023  16.802  0.9149  0.2177  0.6280
  522TMC3    C8 7760   2.120   4.218  17.069  0.2156  0.1355  0.2823
  522TMC3    O1 7761   1.873   4.012  16.734  0.2695 -0.3428  0.6817
  522TMC3    O2 7762   2.160   4.258  17.178  0.0950  0.3233 -0.1713
  523MPD2     C 7763   3.633   3.735  10.239  0.0881  0.0385 -0.6143
  523MPD2    C1 7764   3.607   3.662  10.128 -0.2725 -0.0173  0.4759
  523MPD2    C2 7765   3.520   3.715  10.023  0.0214 -0.3440 -0.7047
  523MPD2    C3 7766   3.463   3.840  10.039 -0.0110  0.2491  0.6044
  523MPD2    C4 7767   3.505   3.917  10.144  0.1875  0.3841 -0.0759
  523MPD2    C5 7768   3.598   3.866  10.233 -0.0169  0.5352 -0.1796
  523MPD2     H 7769   3.484   3.645   9.949 -0.7330  0.5106 -1.1529
  523MPD2    H1 7770   3.461   4.014  10.163  0.1499  0.3329  0.1038
  523MPD2    H2 7771   3.693   3.694  10.318  1.4655  1.3710 -0.9652
  523MPD2    H3 7772   3.639   3.935  10.306  1.9558 -0.3884 -0.4130
  523MPD2     N 7773   3.350   3.886   9.975  0.7251 -0.6308  0.3600
  523MPD2    H5 7774   3.314   3.973  10.014 -0.1806 -1.3611  1.1567
  523MPD2    N1 7775   3.654   3.532  10.108  0.5709  0.4063  0.6892
  523MPD2    H7 7776   3.694   3.485  10.189  2.7416 -2.4300 -2.0112
  524TMC3    C1 7777   3.157   3.882   9.833 -0.0662 -0.1235  0.3455
  524TMC3    C2 7778   3.094   3.839   9.719 -0.2755  0.0455  0.1325
  524TMC3    C3 7779   2.974   3.895   9.693 -0.6006 -0.4799  0.0821
  524TMC3    C4 7780   3.082   3.928   9.933 -0.0633 -0.8135  0.9800
  524TMC3    C5 7781   2.953   3.968   9.898  0.3395  0.2212 -0.1958
  524TMC3    C6 7782   2.896   3.961   9.778  0.0101 -0.8975 -0.7478
  524TMC3     C 7783   3.287   3.832   9.865 -0.2034 -0.0727 -0.6692
  524TMC3     O 7784   3.316   3.727   9.809 -0.5112 -0.2012 -0.0690
  524TMC3     H 7785   3.166   3.817   9.641 -0.4878 -0.5986  0.1160
  524TMC3    H1 7786   3.123   3.944  10.032  1.0458  2.3714  0.0056
  524TMC3    H2 7787   2.795   3.992   9.757 -1.3095 -4.5072  0.1876
  524TMC3    C7 7788   2.868   4.032  10.006  0.4357  0.2504 -0.6163
  524TMC3    C8 7789   2.905   3.856   9.573  0.5897 -0.2843 -0.7458
  524TMC3    O1 7790   2.878   3.984  10.120 -0.0345  0.3444  0.0394
  524TMC3    O2 7791   2.815   3.930   9.533 -0.1988 -0.0803 -0.1925
  525MPD2     C 7792   1.789   1.332  14.304  0.6610  0.0738  0.6643
  525MPD2    C1 7793   1.834   1.361  14.432  0.7989 -0.1011 -0.0699
  525MPD2    C2 7794   1.882   1.492  14.465  0.1898  0.3829 -0.3351
  525MPD2    C3 7795   1.856   1.595  14.382  0.5782  0.9777 -0.2085
  525MPD2    C4 7796   1.816   1.562  14.256 -0.0549 -0.6104  0.1759
  525MPD2    C5 7797   1.786   1.433  14.217  0.1886 -0.3572 -0.2576
  525MPD2     H 7798   1.937   1.501  14.558  0.8942  0.4230 -0.7490
  525MPD2    H1 7799   1.798   1.648  14.191 -0.5199 -0.8714 -0.0411
  525MPD2    H2 7800   1.764   1.231  14.274  3.6268 -0.8213  1.1374
  525MPD2    H3 7801   1.736   1.415  14.123  0.5614 -1.4501 -0.2353
  525MPD2     N 7802   1.867   1.731  14.408 -0.5649 -0.2985  0.3378
  525MPD2    H5 7803   1.864   1.803  14.336 -2.3826 -2.5187 -1.8155
  525MPD2    N1 7804   1.872   1.252  14.519 -0.3887 -0.6127  0.1111
  525MPD2    H7 7805   1.933   1.273  14.597  0.6460 -1.6167 -0.4273
  526TMC3    C1 7806   1.928   1.024  14.548 -0.3080  0.2765 -0.3477
  526TMC3    C2 7807   1.896   0.899  14.607 -0.0551  0.3835 -0.3369
  526TMC3    C3 7808   2.002   0.821  14.648 -0.3465  0.3869  0.2842
  526TMC3    C4 7809   2.062   1.058  14.539  0.8862 -0.1920  0.1466
  526TMC3    C5 7810   2.162   0.979  14.592 -0.3879 -0.1076 -0.5300
  526TMC3    C6 7811   2.136   0.856  14.646 -0.5267 -1.0736  0.6335
  526TMC3     C 7812   1.828   1.123  14.501 -0.2465 -0.2880 -0.1142
  526TMC3     O 7813   1.717   1.084  14.474 -0.6399  0.1115  0.2442
  526TMC3     H 7814   1.791   0.873  14.599  0.0054  0.1430 -0.3429
  526TMC3    H1 7815   2.087   1.151  14.489 -0.0526  0.1196  0.2744
  526TMC3    H2 7816   2.215   0.790  14.681  0.2964 -1.3125 -1.6754
  526TMC3    C7 7817   2.297   1.030  14.572  0.0093 -0.0036  0.8052
  526TMC3    C8 7818   1.970   0.716  14.743  0.8458  0.8452 -0.2061
  526TMC3    O1 7819   2.306   1.152  14.584  0.1989 -0.1133 -0.0481
  526TMC3    O2 7820   2.051   0.625  14.746 -0.2342 -0.3226 -0.3733
  527MPD2     C 7821   4.491   3.345   0.723  0.0853  0.4128  0.3983
  527MPD2    C1 7822   4.544   3.380   0.854  0.5407  0.0004 -0.1773
  527MPD2    C2 7823   4.682   3.397   0.868 -0.3199  0.2175  0.2904
  527MPD2    C3 7824   0.041   3.399   0.757  0.1723 -0.2945 -0.2405
  527MPD2    C4 7825   4.710   3.383   0.627 -0.0825 -0.6294 -0.3611
  527MPD2    C5 7826   4.580   3.340   0.619  0.5550 -0.2759  0.5211
  527MPD2     H 7827   4.718   3.420   0.967  3.0142  0.1444 -0.9017
  527MPD2    H1 7828   0.041   3.386   0.532  0.2404 -0.5236 -0.1775
  527MPD2    H2 7829   4.388   3.314   0.711 -0.0153  0.9160 -0.0271
  527MPD2    H3 7830   4.541   3.317   0.521 -0.1121 -1.0961  0.9696
  527MPD2     N 7831   0.175   3.446   0.772  0.2292 -0.0765 -0.3044
  527MPD2    H5 7832   0.205   3.467   0.867  0.3426  0.1566 -0.3933
  527MPD2    N1 7833   4.463   3.376   0.969 -0.6388  0.8727  0.0118
  527MPD2    H7 7834   4.510   3.394   1.056 -2.2745 -2.7660  1.6521
  528TMC3    C1 7835   4.276   3.379   1.110 -0.4384 -0.1149  0.7370
  528TMC3    C2 7836   4.356   3.413   1.211 -0.0462 -0.0690 -0.0985
  528TMC3    C3 7837   4.302   3.441   1.332 -0.6732  0.3412 -0.3272
  528TMC3    C4 7838   4.134   3.376   1.128  0.0550 -0.5637 -0.0284
  528TMC3    C5 7839   4.085   3.399   1.254 -0.2948  0.1200  0.1716
  528TMC3    C6 7840   4.170   3.431   1.358 -0.8933  0.5464 -0.0400
  528TMC3     C 7841   4.332   3.344   0.982  0.3696 -0.3284  0.2543
  528TMC3     O 7842   4.253   3.314   0.895  0.0858  0.6122 -0.1332
  528TMC3     H 7843   4.461   3.383   1.207 -0.3950 -1.0378 -1.8649
  528TMC3    H1 7844   4.067   3.340   1.051  0.3558  2.1957 -1.6002
  528TMC3    H2 7845   4.130   3.468   1.452  1.0918  1.5061  0.4378
  528TMC3    C7 7846   3.943   3.408   1.287  0.3418 -0.5852  0.2026
  528TMC3    C8 7847   4.397   3.472   1.436 -0.0620  0.0542 -0.8475
  528TMC3    O1 7848   3.915   3.374   1.400 -0.3597 -0.0640 -0.1400
  528TMC3    O2 7849   4.504   3.517   1.387  0.4905  0.1036 -0.6107
  529MPD2     C 7850   2.118   2.364   0.310 -0.2128 -0.1312  0.4487
  529MPD2    C1 7851   2.187   2.246   0.290 -0.3551 -0.3744  0.0186
  529MPD2    C2 7852   2.277   2.238   0.190  0.0654 -0.6877  0.1857
  529MPD2    C3 7853   2.291   2.348   0.104  0.2644 -0.0438  0.2412
  529MPD2    C4 7854   2.223   2.465   0.132  0.6966 -0.2831 -0.2737
  529MPD2    C5 7855   2.138   2.476   0.236  0.5775 -0.1846 -0.1941
  529MPD2     H 7856   2.337   2.149   0.170  1.6200  0.3924  0.0433
  529MPD2    H1 7857   2.228   2.551   0.066  0.7734  0.1508  0.3014
  529MPD2    H2 7858   2.030   2.369   0.374 -1.4734  1.5447 -1.4055
  529MPD2    H3 7859   2.077   2.565   0.244 -1.7325 -1.5337 -2.5264
  529MPD2     N 7860   2.363   2.347  17.673  0.5799  0.6081 -0.7780
  529MPD2    H5 7861   2.386   2.434  17.626 -0.1736  0.5507 -1.2596
  529MPD2    N1 7862   2.165   2.131   0.364  1.0941  0.0460 -0.3572
  529MPD2    H7 7863   2.214   2.048   0.332 -0.7353 -1.0343 -0.3425
  530TMC3    C1 7864   2.091   1.990   0.549 -0.2166  0.8669  0.2922
  530TMC3    C2 7865   2.065   1.987   0.686 -0.2964 -0.0321 -0.9553
  530TMC3    C3 7866   2.055   1.869   0.749 -0.0373  0.8073  0.3598
  530TMC3    C4 7867   2.094   1.874   0.474  0.2681 -0.8793 -0.3229
  530TMC3    C5 7868   2.069   1.755   0.541 -0.5987  0.1717 -0.4213
  530TMC3    C6 7869   2.053   1.749   0.678  0.1391 -0.1053  0.3040
  530TMC3     C 7870   2.095   2.128   0.483 -0.5580 -0.1931  0.2059
  530TMC3     O 7871   2.051   2.223   0.546 -0.0722  0.2770 -0.3982
  530TMC3     H 7872   2.054   2.079   0.742  2.5515  0.7933 -1.7583
  530TMC3    H1 7873   2.118   1.890   0.369  1.2105 -0.4860 -0.0411
  530TMC3    H2 7874   2.034   1.662   0.740 -1.2761 -0.2202 -0.2931
  530TMC3    C7 7875   2.041   1.645   0.449 -0.0088  0.0889  0.6432
  530TMC3    C8 7876   2.052   1.876   0.897  0.0189 -0.0850  0.2611
  530TMC3    O1 7877   2.028   1.663   0.327 -0.0085 -0.4138  0.3952
  530TMC3    O2 7878   1.998   1.971   0.948  0.0778  0.4436 -0.5940
  531MPD2     C 7879   0.811   3.840  13.132 -0.2596 -0.1895  0.9536
  531MPD2    C1 7880   0.860   3.935  13.045  0.0027  0.3016  0.9940
  531MPD2    C2 7881   0.896   3.892  12.914  0.1173 -0.5403 -0.5282
  531MPD2    C3 7882   0.864   3.770  12.865  0.8354 -0.5453  0.3848
  531MPD2    C4 7883   0.791   3.686  12.946 -0.3791 -0.0734  0.1250
  531MPD2    C5 7884   0.786   3.714  13.085  0.0382  0.0388 -0.0015
  531MPD2     H 7885   0.972   3.948  12.861 -0.1375  1.8232  1.5556
  531MPD2    H1 7886   0.773   3.584  12.916 -1.5126 -0.0590  0.7615
  531MPD2    H2 7887   0.782   3.864  13.234 -1.7280 -1.2577  0.8009
  531MPD2    H3 7888   0.736   3.643  13.151  1.2510 -0.9094 -0.0989
  531MPD2     N 7889   0.878   3.732  12.733  0.6212 -0.3777  0.5709
  531MPD2    H5 7890   0.824   3.649  12.709 -0.7976  0.4300  0.9918
  531MPD2    N1 7891   0.887   4.063  13.097 -0.0550  0.4919  0.2135
  531MPD2    H7 7892   0.874   4.086  13.195  0.0632  1.2260  0.0591
  532TMC3    C1 7893   0.948   4.291  13.061 -0.1409 -0.5300  0.0005
  532TMC3    C2 7894   0.929   4.393  12.967 -0.1232 -0.2821 -0.3956
  532TMC3    C3 7895   1.041   4.472  12.951 -1.2413 -0.0809 -0.4191
  532TMC3    C4 7896   1.059   4.276  13.145 -0.3867 -0.2157  0.2126
  532TMC3    C5 7897   1.159   4.372  13.127 -0.3066 -0.1519 -0.9277
  532TMC3    C6 7898   1.159   4.458  13.025 -0.3185 -0.0701 -0.0543
  532TMC3     C 7899   0.884   4.169  13.015 -0.3250  1.3774 -0.6589
  532TMC3     O 7900   0.850   4.186  12.897  0.6112  0.9274  0.5573
  532TMC3     H 7901   0.846   4.402  12.898 -1.1505  3.3475  1.3672
  532TMC3    H1 7902   1.063   4.203  13.225  0.5024  0.6221  0.9238
  532TMC3    H2 7903   1.247   4.519  13.010 -0.4696  0.1900  0.1020
  532TMC3    C7 7904   1.275   4.369  13.202 -0.4554 -0.3163  0.4831
  532TMC3    C8 7905   1.074   4.484  12.811 -0.8807  0.4286  0.2610
  532TMC3    O1 7906   1.334   4.471  13.221 -0.3093  0.2936  0.3006
  532TMC3    O2 7907   1.178   4.548  12.781 -0.3185  0.1597 -0.5301
  533TMC3    C1 7908   1.848   1.919  14.549  0.1887  0.5266  0.6735
  533TMC3    C2 7909   1.933   2.013  14.492 -0.3404 -0.2651 -0.2406
  533TMC3    C3 7910   1.978   2.117  14.569  0.1558  0.1349 -0.1607
  533TMC3    C4 7911   1.803   1.939  14.678  0.4533 -0.1101 -0.1623
  533TMC3    C5 7912   1.850   2.042  14.749  0.0990  0.1255 -0.6558
  533TMC3    C6 7913   1.946   2.127  14.698  0.1777  0.3035  0.6862
  533TMC3     C 7914   1.879   1.779  14.532  0.4446  0.1188  0.4276
  533TMC3     O 7915   1.872   1.716  14.632  0.2426 -0.2595  0.2980
  533TMC3     H 7916   1.976   2.000  14.394 -1.6744  0.1681 -0.8865
  533TMC3    H1 7917   1.726   1.880  14.725  0.0590  0.5419  0.0185
  533TMC3    H2 7918   1.994   2.189  14.773  0.6376 -1.7360  2.0736
  533TMC3    C7 7919   1.851   2.012  14.896 -0.0212  0.5213 -0.0505
  533TMC3    C8 7920   2.100   2.193  14.532  0.3765  0.6930  0.5087
  533TMC3    O1 7921   1.857   2.103  14.977  0.4637  0.2339 -0.2032
  533TMC3    O2 7922   2.136   2.282  14.605 -0.1492 -0.5954  0.2848
  534MPD2     C 7923   4.390   2.041   1.575  0.6626 -0.3558  0.0938
  534MPD2    C1 7924   4.391   2.094   1.447  0.5904 -0.3069 -0.3014
  534MPD2    C2 7925   4.285   2.055   1.361  0.2156 -0.9141  0.0330
  534MPD2    C3 7926   4.172   1.991   1.410 -0.2339  0.1078  0.3592
  534MPD2    C4 7927   4.174   1.947   1.539  0.4315  0.0953  0.3781
  534MPD2    C5 7928   4.278   1.975   1.623 -0.2244 -0.0587 -0.1335
  534MPD2     H 7929   4.288   2.086   1.258  0.2888  1.6793  0.8193
  534MPD2    H1 7930   4.080   1.908   1.577 -0.6737  2.1386 -0.2295
  534MPD2    H2 7931   4.471   2.059   1.644  0.4096  0.4529  0.1796
  534MPD2    H3 7932   4.284   1.939   1.725  0.5234  2.4947  0.7358
  534MPD2     N 7933   4.058   1.963   1.335 -0.1454 -0.1739  0.1779
  534MPD2    H5 7934   3.979   1.916   1.378  0.2608 -2.3307 -1.4941
  534MPD2    N1 7935   4.493   2.168   1.394 -0.4756 -0.2597 -0.0596
  534MPD2    H7 7936   4.487   2.172   1.293 -0.2977  0.5783 -0.0354
  535TMC3    C1 7937   3.912   1.960   1.142  0.0898  0.6210  0.0820
  535TMC3    C2 7938   3.799   1.939   1.221  0.1733  0.3388 -0.1720
  535TMC3    C3 7939   3.679   1.931   1.160 -0.4165 -0.3982 -0.5290
  535TMC3    C4 7940   3.902   1.967   1.002  0.0430  0.2272 -0.0863
  535TMC3    C5 7941   3.776   1.954   0.950  0.4104 -0.0204  0.6801
  535TMC3    C6 7942   3.660   1.933   1.023  0.9741  0.1383 -0.5376
  535TMC3     C 7943   4.045   2.000   1.201  0.5016 -0.4061  0.1148
  535TMC3     O 7944   4.116   2.069   1.128 -0.4306 -0.0092  0.0102
  535TMC3     H 7945   3.815   1.944   1.329 -1.2705 -0.5059  0.0788
  535TMC3    H1 7946   3.980   1.974   0.928 -0.0200  0.2603 -0.1492
  535TMC3    H2 7947   3.563   1.924   0.976  0.4101 -2.7183  1.1392
  535TMC3    C7 7948   3.760   2.012   0.813  0.6566 -0.2785 -0.6863
  535TMC3    C8 7949   3.562   1.898   1.236 -0.2544 -0.0712  0.2562
  535TMC3    O1 7950   3.859   1.991   0.739 -0.1474  0.3668  0.6434
  535TMC3    O2 7951   3.472   1.839   1.185  0.3023  0.5459  0.2256
  536MPD2     C 7952   3.421   1.067  16.172  0.0534  0.2289  0.2619
  536MPD2    C1 7953   3.297   1.007  16.187 -0.2917 -0.0341  0.1004
  536MPD2    C2 7954   3.204   0.994  16.091 -0.5675  0.0296 -0.1873
  536MPD2    C3 7955   3.237   1.052  15.965  0.2062 -0.2305 -0.5472
  536MPD2    C4 7956   3.354   1.122  15.948  0.0671  0.1011 -0.8713
  536MPD2    C5 7957   3.445   1.123  16.051 -0.8945 -0.4151  0.1252
  536MPD2     H 7958   3.107   0.952  16.113  0.0351 -0.3495  1.7137
  536MPD2    H1 7959   3.376   1.166  15.851 -1.2408  0.0979 -1.1748
  536MPD2    H2 7960   3.497   1.076  16.248  0.5793 -2.1043  0.0315
  536MPD2    H3 7961   3.536   1.177  16.026 -4.2702  3.9004 -2.8332
  536MPD2     N 7962   3.143   1.044  15.857 -0.0392 -0.8913  0.2868
  536MPD2    H5 7963   3.159   1.108  15.780  2.6870 -2.1006 -0.1637
  536MPD2    N1 7964   3.279   0.949  16.314  0.4900  0.1008  0.7161
  536MPD2    H7 7965   3.353   0.969  16.381  1.5806 -2.6435  0.3470
  537TMC3    C1 7966   3.177   0.835  16.487 -0.1134 -0.3570  0.3930
  537TMC3    C2 7967   3.225   0.911  16.589 -0.4143  0.0158  0.5353
  537TMC3    C3 7968   3.225   0.857  16.711  1.2763  0.1624 -0.5332
  537TMC3    C4 7969   3.113   0.720  16.514  0.3760 -0.2977  0.2088
  537TMC3    C5 7970   3.108   0.670  16.637 -0.0926  0.7310 -0.7779
  537TMC3    C6 7971   3.159   0.739  16.744 -0.0550 -0.0209 -0.2873
  537TMC3     C 7972   3.174   0.875  16.350 -0.0778 -0.1237 -0.4246
  537TMC3     O 7973   3.081   0.826  16.286  0.6608 -0.6374  0.7755
  537TMC3     H 7974   3.274   1.007  16.574 -1.5875  0.1336 -2.6913
  537TMC3    H1 7975   3.074   0.665  16.430 -1.3310 -0.5551  1.1736
  537TMC3    H2 7976   3.150   0.698  16.844  2.8733 -0.9838 -0.4229
  537TMC3    C7 7977   2.985   0.590  16.651  0.8318 -0.4421 -0.1327
  537TMC3    C8 7978   3.303   0.919  16.814  0.8665 -0.3375  0.5917
  537TMC3    O1 7979   2.898   0.602  16.569 -0.6416  0.1009  0.1409
  537TMC3    O2 7980   3.305   1.042  16.820 -0.0618  0.9518 -0.1941
  538TMC3    C1 7981   4.257   3.652  10.794  0.2418 -0.1807  0.3404
  538TMC3    C2 7982   4.311   3.537  10.748  0.6907  0.6557 -0.4133
  538TMC3    C3 7983   4.239   3.463  10.658 -0.4053 -0.6679  0.1365
  538TMC3    C4 7984   4.133   3.703  10.753 -0.6589  0.5398 -0.1011
  538TMC3    C5 7985   4.066   3.626  10.670  0.6946 -0.1445 -0.6457
  538TMC3    C6 7986   4.119   3.508  10.615  1.0011  0.9753 -0.7114
  538TMC3     C 7987   4.285   3.687  10.929  0.7962  0.5107 -1.2955
  538TMC3     O 7988   4.194   3.729  10.993  1.0506 -0.1962  0.3398
  538TMC3     H 7989   4.377   3.484  10.815 -0.2720 -0.6301 -0.4700
  538TMC3    H1 7990   4.091   3.790  10.801  0.3553  0.4359  0.9838
  538TMC3    H2 7991   4.050   3.461  10.545  1.2400  1.4755 -1.2897
  538TMC3    C7 7992   3.939   3.675  10.631 -0.0302 -0.5102 -0.6254
  538TMC3    C8 7993   4.303   3.359  10.584 -0.1796 -0.0590  0.0436
  538TMC3    O1 7994   3.849   3.591  10.627  0.0919 -0.1994 -0.2463
  538TMC3    O2 7995   4.225   3.285  10.523 -0.3438  0.1034 -0.4057
  539MPD2     C 7996   3.937   3.131  11.911 -0.2095 -0.1837  0.8887
  539MPD2    C1 7997   3.914   3.159  11.777 -0.7324  1.5227 -0.0849
  539MPD2    C2 7998   3.857   3.279  11.735 -0.4632 -0.4360  0.3738
  539MPD2    C3 7999   3.816   3.370  11.830  0.3712 -0.4990 -0.1963
  539MPD2    C4 8000   3.838   3.343  11.961 -0.0321 -0.2181  0.2694
  539MPD2    C5 8001   3.898   3.223  12.001  0.4502 -0.4571  0.5587
  539MPD2     H 8002   3.848   3.290  11.628  0.4778  0.6557  0.4035
  539MPD2    H1 8003   3.824   3.412  12.043 -1.3301  0.3191 -0.4173
  539MPD2    H2 8004   3.975   3.037  11.948  0.5756  1.1522  3.5213
  539MPD2    H3 8005   3.917   3.205  12.106 -1.4502  0.7296  1.1095
  539MPD2     N 8006   3.765   3.498  11.782  0.5148 -0.1476 -0.0125
  539MPD2    H5 8007   3.722   3.563  11.847  0.4030 -1.5799  1.3415
  539MPD2    N1 8008   3.947   3.067  11.671 -0.0706 -0.1523 -0.0037
  539MPD2    H7 8009   3.938   3.096  11.574  1.5612 -0.6006 -0.2835
  540TMC3    C1 8010   3.707   3.672  11.628 -0.1492  0.0671 -0.1208
  540TMC3    C2 8011   3.722   3.714  11.496 -0.3378 -0.4735 -0.7845
  540TMC3    C3 8012   3.686   3.839  11.458  0.4293  0.1186 -0.4725
  540TMC3    C4 8013   3.651   3.758  11.723  0.3729  0.5310  0.9420
  540TMC3    C5 8014   3.626   3.882  11.677  1.2902 -0.2753 -0.2614
  540TMC3    C6 8015   3.643   3.930  11.549  0.2211  1.0105  0.1314
  540TMC3     C 8016   3.780   3.541  11.655  0.2623 -0.3806 -0.0147
  540TMC3     O 8017   3.853   3.504  11.566  0.0515 -0.3896 -0.2011
  540TMC3     H 8018   3.757   3.645  11.420 -1.8827 -1.0554 -0.9465
  540TMC3    H1 8019   3.634   3.719  11.823 -1.3828 -0.0579  0.4222
  540TMC3    H2 8020   3.619   4.026  11.503 -0.2952 -0.7366 -3.2707
  540TMC3    C7 8021   3.571   3.974  11.775  0.2796 -0.2946  0.6401
  540TMC3    C8 8022   3.682   3.867  11.316 -0.6889  0.6807  1.1650
  540TMC3    O1 8023   3.523   3.929  11.879  0.4177  0.2850  0.1641
  540TMC3    O2 8024   3.697   3.987  11.276 -0.3534  0.1418  0.1661
  541MPD2     C 8025   2.776   0.168  13.209  0.0348 -1.2128  1.1518
  541MPD2    C1 8026   2.648   0.115  13.198  0.1525  0.6538 -0.0763
  541MPD2    C2 8027   2.571   0.150  13.088 -0.4399  0.3150  0.6030
  541MPD2    C3 8028   2.621   0.236  12.988 -0.3945  0.3829  0.6729
  541MPD2    C4 8029   2.747   0.284  13.006  0.4926 -0.4703  0.4583
  541MPD2    C5 8030   2.823   0.257  13.112 -0.0827 -0.4324 -0.3672
  541MPD2     H 8031   2.472   0.107  13.078  0.1667 -1.3857  1.9262
  541MPD2    H1 8032   2.781   0.343  12.922 -0.8748 -0.2232  0.0642
  541MPD2    H2 8033   2.847   0.137  13.285 -0.6960 -2.2578  1.4018
  541MPD2    H3 8034   2.925   0.293  13.113  0.4285 -1.9504  2.4344
  541MPD2     N 8035   2.543   0.257  12.872  0.0718  0.1228 -0.1798
  541MPD2    H5 8036   2.463   0.195  12.870  0.0714  0.1227 -0.1668
  541MPD2    N1 8037   2.593   0.029  13.296  0.2805  0.6872 -0.0314
  541MPD2    H7 8038   2.517   4.698  13.255  1.5296 -0.6432 -0.6200
  542TMC3    C1 8039   2.503   0.320  12.652 -0.4031  0.3738 -0.3608
  542TMC3    C2 8040   2.577   0.334  12.541  0.3836 -0.0432 -0.4067
  542TMC3    C3 8041   2.514   0.318  12.418  0.5490 -0.0194 -0.5448
  542TMC3    C4 8042   2.366   0.296  12.653  0.0612  0.3704 -1.0051
  542TMC3    C5 8043   2.302   0.296  12.530 -0.3565  0.1554  0.9578
  542TMC3    C6 8044   2.377   0.298  12.413  0.2320  0.4634 -0.3722
  542TMC3     C 8045   2.572   0.351  12.775  0.0657 -0.0978  0.6004
  542TMC3     O 8046   2.653   0.443  12.766 -0.1879 -0.0849 -0.0150
  542TMC3     H 8047   2.682   0.362  12.535 -0.0743  1.2723 -2.5135
  542TMC3    H1 8048   2.309   0.277  12.743  0.2605 -0.4872 -1.0608
  542TMC3    H2 8049   2.327   0.294  12.317 -0.5119  1.0781 -0.0177
  542TMC3    C7 8050   2.158   0.303  12.526 -0.0077 -0.1440  0.0563
  542TMC3    C8 8051   2.583   0.269  12.303  0.5367 -0.0948 -0.1079
  542TMC3    O1 8052   2.113   0.262  12.420 -0.2148 -0.6878  0.7800
  542TMC3    O2 8053   2.529   0.291  12.201  0.1221  0.2818 -0.2617
  543TMC3    C1 8054   1.391   1.428  16.886 -0.5508  0.2624 -0.2854
  543TMC3    C2 8055   1.444   1.367  16.996 -0.6810 -0.9977  0.1987
  543TMC3    C3 8056   1.350   1.336  17.097  0.8581  0.2361  0.4530
  543TMC3    C4 8057   1.257   1.470  16.871  0.7374  0.2635  0.5251
  543TMC3    C5 8058   1.187   1.465  16.988  0.2393  0.0652  0.4895
  543TMC3    C6 8059   1.222   1.381  17.096  0.9158  0.1611  0.3260
  543TMC3     C 8060   1.490   1.451  16.778  1.0083  0.0560 -0.2840
  543TMC3     O 8061   1.592   1.389  16.794  0.1333 -0.1283  0.3096
  543TMC3     H 8062   1.548   1.342  17.016 -0.9496  0.4008  3.3399
  543TMC3    H1 8063   1.218   1.537  16.795  0.8477  0.0539  0.2816
  543TMC3    H2 8064   1.156   1.340  17.171 -2.1093 -0.1184 -2.4660
  543TMC3    C7 8065   1.046   1.502  16.979 -0.1290 -0.7281  0.2647
  543TMC3    C8 8066   1.393   1.220  17.169  0.4390  0.4611  0.7641
  543TMC3    O1 8067   1.006   1.532  16.867  0.2162 -0.1163 -0.0925
  543TMC3    O2 8068   1.453   1.133  17.105  0.3656  0.2984 -0.3435
  544MPD2     C 8069   1.468   0.925  17.583  0.0022 -0.1667 -0.4185
  544MPD2    C1 8070   1.535   0.932  17.464  0.5709 -0.3373 -0.0951
  544MPD2    C2 8071   1.496   1.026  17.368 -0.0231 -0.4477 -0.4613
  544MPD2    C3 8072   1.380   1.106  17.390 -0.1598  0.5532  0.0413
  544MPD2    C4 8073   1.315   1.100  17.509 -0.6379  0.5369 -0.4672
  544MPD2    C5 8074   1.362   1.009  17.599  0.4885 -0.4425 -0.2579
  544MPD2     H 8075   1.547   1.041  17.274  0.1604 -0.5107 -0.3705
  544MPD2    H1 8076   1.238   1.167  17.545 -0.4595  0.1195  0.6828
  544MPD2    H2 8077   1.488   0.858  17.665 -1.0469  0.9923  0.7897
  544MPD2    H3 8078   1.311   1.007   0.003 -0.4309 -0.2986 -0.7367
  544MPD2     N 8079   1.341   1.208  17.296  0.4098  0.3573 -0.0161
  544MPD2    H5 8080   1.266   1.269  17.327  0.7330  1.5153 -1.5227
  544MPD2    N1 8081   1.626   0.829  17.432  0.0669 -0.0165 -0.3531
  544MPD2    H7 8082   1.639   0.751  17.496 -0.8611  0.4681  0.4415
  545TMC3    C1 8083   1.788   0.707  17.304 -0.2189 -1.0604  0.1136
  545TMC3    C2 8084   1.874   0.701  17.204  0.6370  0.5336 -0.2316
  545TMC3    C3 8085   1.960   0.594  17.198  0.3663  0.3734 -0.5870
  545TMC3    C4 8086   1.773   0.609  17.404  0.5034  0.0508 -0.0897
  545TMC3    C5 8087   1.860   0.508  17.391  0.3263 -0.3721  0.7355
  545TMC3    C6 8088   1.957   0.491  17.291  0.5419 -0.0558 -0.2278
  545TMC3     C 8089   1.707   0.831  17.320 -0.8489  0.0704  0.0526
  545TMC3     O 8090   1.741   0.933  17.262  0.3911  0.0134 -0.1873
  545TMC3     H 8091   1.893   0.788  17.141  2.6557  0.7257  0.6446
  545TMC3    H1 8092   1.689   0.606  17.473 -0.8490  1.6173 -1.6900
  545TMC3    H2 8093   2.018   0.402  17.278 -0.2833 -0.5953 -0.4204
  545TMC3    C7 8094   1.850   0.408  17.488  0.1338 -0.3649 -0.2818
  545TMC3    C8 8095   2.037   0.588  17.076 -0.4292  0.1306  0.7199
  545TMC3    O1 8096   1.746   0.421  17.557 -0.0766 -0.2868  0.6705
  545TMC3    O2 8097   2.025   0.680  16.995  0.1965  0.4293 -0.1863
  546MPD2     C 8098   3.043   1.196  17.357  0.1817 -0.2035  0.3221
  546MPD2    C1 8099   3.068   1.230  17.220 -0.0926  0.2742  0.0355
  546MPD2    C2 8100   3.120   1.350  17.185 -0.3579 -0.2281  0.0034
  546MPD2    C3 8101   3.144   1.447  17.285 -0.7047  0.5599  0.2314
  546MPD2    C4 8102   3.120   1.413  17.415 -0.1998 -0.4018 -0.5143
  546MPD2    C5 8103   3.066   1.292  17.449  0.8382 -0.0245  0.7758
  546MPD2     H 8104   3.144   1.366  17.081  2.5552 -0.6564  0.6144
  546MPD2    H1 8105   3.159   1.470  17.498  0.8169 -0.8774 -0.6697
  546MPD2    H2 8106   2.990   1.104  17.380  1.2426 -1.1287 -0.8943
  546MPD2    H3 8107   3.071   1.267  17.555 -0.0428  1.6264  1.2131
  546MPD2     N 8108   3.201   1.580  17.259 -0.3283 -0.9147  0.2586
  546MPD2    H5 8109   3.206   1.642  17.339 -0.2781 -0.4335 -0.1145
  546MPD2    N1 8110   3.037   1.125  17.131 -0.0274  0.3272  0.6758
  546MPD2    H7 8111   2.999   1.037  17.164  3.1061 -0.3493  2.4624
  547TMC3    C1 8112   2.982   1.021  16.935  0.2742 -0.1553 -0.8769
  547TMC3    C2 8113   2.908   1.046  16.827  0.6950 -0.2111  0.0219
  547TMC3    C3 8114   2.822   0.951  16.783  0.0705  0.2985  1.0378
  547TMC3    C4 8115   2.975   0.901  17.011  0.1522 -0.2393  0.4357
  547TMC3    C5 8116   2.894   0.802  16.958 -0.6170  0.4931 -0.6557
  547TMC3    C6 8117   2.818   0.830  16.853  0.1513  0.6805  0.5754
  547TMC3     C 8118   3.051   1.134  16.994  0.8567 -0.2362  0.4820
  547TMC3     O 8119   3.078   1.230  16.922  0.3872 -0.4294 -0.6908
  547TMC3     H 8120   2.910   1.148  16.788  0.9167 -0.1117  0.2946
  547TMC3    H1 8121   3.048   0.886  17.090  2.0888 -0.4897 -1.4056
  547TMC3    H2 8122   2.744   0.758  16.821  0.2480  1.6910 -1.9233
  547TMC3    C7 8123   2.851   0.693  17.054 -0.3669 -0.1474  0.2465
  547TMC3    C8 8124   2.712   1.002  16.698 -0.4283  0.3727  0.3415
  547TMC3    O1 8125   2.934   0.695  17.148 -0.1031  0.2890 -0.2192
  547TMC3    O2 8126   2.721   1.113  16.652 -0.1397  0.4600 -0.3254
  548MPD2     C 8127   3.006   2.082  12.194 -0.3114  0.3642  0.1929
  548MPD2    C1 8128   2.951   1.963  12.244  0.0465 -0.4414  0.0898
  548MPD2    C2 8129   3.011   1.838  12.232 -0.6380 -0.2826  0.1161
  548MPD2    C3 8130   3.137   1.830  12.172  0.4591  0.0967  0.2802
  548MPD2    C4 8131   3.191   1.950  12.119 -0.5227 -0.7478  0.2187
  548MPD2    C5 8132   3.129   2.073  12.133  0.3538  0.0398  0.4160
  548MPD2     H 8133   2.966   1.742  12.258 -1.6837  0.7807  2.2145
  548MPD2    H1 8134   3.291   1.944  12.076 -0.1980  0.0897  0.8700
  548MPD2    H2 8135   2.951   2.173  12.216 -0.2263  0.5459 -0.3575
  548MPD2    H3 8136   3.186   2.154  12.089 -2.2109  0.1344 -2.6941
  548MPD2     N 8137   3.207   1.704  12.174 -0.2312  0.3066 -0.0119
  548MPD2    H5 8138   3.162   1.633  12.231  0.9657 -0.2200  0.2778
  548MPD2    N1 8139   2.829   1.988  12.317 -0.1462  0.1682 -0.1455
  548MPD2    H7 8140   2.800   2.081  12.346  0.6007  0.0793  0.8714
  549TMC3    C1 8141   2.631   1.943  12.428  0.2037 -0.0623 -0.1458
  549TMC3    C2 8142   2.590   2.077  12.427  0.3569 -0.2270 -0.3637
  549TMC3    C3 8143   2.471   2.099  12.491 -0.3592 -0.0032  0.3647
  549TMC3    C4 8144   2.553   1.847  12.490 -0.3607 -0.4013 -0.2787
  549TMC3    C5 8145   2.436   1.877  12.554 -0.3966  0.1471  0.1972
  549TMC3    C6 8146   2.396   2.008  12.556 -0.4678  0.2546  0.5339
  549TMC3     C 8147   2.744   1.895  12.357  0.4468  0.3029  0.3263
  549TMC3     O 8148   2.740   1.776  12.330  0.7150  0.8940 -0.2628
  549TMC3     H 8149   2.647   2.154  12.377 -0.3740  1.5440  1.5392
  549TMC3    H1 8150   2.585   1.744  12.504  1.3155  0.0667 -0.7528
  549TMC3    H2 8151   2.304   2.036  12.605 -1.5002  0.1786 -1.3607
  549TMC3    C7 8152   2.341   1.780  12.610  0.2731 -0.0839 -0.8434
  549TMC3    C8 8153   2.409   2.228  12.479  0.5467 -0.1123  0.0013
  549TMC3    O1 8154   2.237   1.823  12.655 -0.2306  0.4328  0.3432
  549TMC3    O2 8155   2.295   2.212  12.433  0.2811 -1.4175  0.8752
  550TMC3    C1 8156   1.790   4.704  12.372 -0.3158 -0.6451  0.0395
  550TMC3    C2 8157   1.734   0.047  12.481 -0.3129  0.0775 -0.4655
  550TMC3    C3 8158   1.618   0.124  12.455 -0.0772 -0.5050  0.0348
  550TMC3    C4 8159   1.733   4.709  12.246 -0.0723  0.1296 -0.1047
  550TMC3    C5 8160   1.618   0.051  12.234 -0.3829 -0.3005  0.1444
  550TMC3    C6 8161   1.554   0.123  12.332 -0.1046  0.1259 -0.3922
  550TMC3     C 8162   1.884   4.601  12.402  0.1381 -0.3492  0.4152
  550TMC3     O 8163   1.881   4.563  12.520 -0.4277 -0.1673 -0.1133
  550TMC3     H 8164   1.790   0.054  12.574 -2.7425 -1.6686  1.1186
  550TMC3    H1 8165   1.768   4.649  12.163 -0.6413 -0.1561 -0.1389
  550TMC3    H2 8166   1.460   0.175  12.319  0.2427  0.9180  0.2157
  550TMC3    C7 8167   1.556   0.038  12.102 -0.0043 -0.1542  0.3563
  550TMC3    C8 8168   1.542   0.176  12.565  0.3204  0.6416 -0.3677
  550TMC3    O1 8169   1.582   4.665  12.030  0.7132 -0.1320 -0.3464
  550TMC3    O2 8170   1.463   0.268  12.549 -0.4566  0.2203  0.2579
  551TMC3    C1 8171   3.864   2.342  13.229 -0.2249 -0.7082 -0.1167
  551TMC3    C2 8172   3.938   2.393  13.125 -0.3067  0.5174 -0.3428
  551TMC3    C3 8173   4.017   2.502  13.151  0.4792 -0.6554  0.5164
  551TMC3    C4 8174   3.869   2.397  13.357 -0.3664  0.1293  0.0269
  551TMC3    C5 8175   3.948   2.511  13.372  0.1796 -0.6590  0.0401
  551TMC3    C6 8176   4.013   2.572  13.268 -1.4129  0.6978 -1.0314
  551TMC3     C 8177   3.767   2.248  13.177 -0.4936  0.0938  0.6142
  551TMC3     O 8178   3.795   2.202  13.066 -0.0623  0.3085  0.2075
  551TMC3     H 8179   3.946   2.345  13.029 -3.0436 -4.5468  1.9300
  551TMC3    H1 8180   3.811   2.362  13.442 -0.1309 -0.0466  0.1139
  551TMC3    H2 8181   4.090   2.647  13.276  1.5016 -2.3838  0.0994
  551TMC3    C7 8182   3.949   2.572  13.499 -0.0955 -0.2234  0.5655
  551TMC3    C8 8183   4.082   2.557  13.029 -0.3355 -0.4443  0.1418
  551TMC3    O1 8184   3.939   2.502  13.597 -0.0021 -0.2758 -0.9986
  551TMC3    O2 8185   4.157   2.476  12.976  0.0549 -0.0162 -0.2018
  552MPD2     C 8186   1.593   4.579  13.823  0.0576 -0.4498  0.2067
  552MPD2    C1 8187   1.637   4.450  13.832 -0.1651 -0.1461 -0.4542
  552MPD2    C2 8188   1.743   4.424  13.914  0.3565  0.1203  0.2946
  552MPD2    C3 8189   1.811   4.527  13.984 -0.0133 -0.1007  0.6456
  552MPD2    C4 8190   1.758   4.659  13.971 -0.3476  0.3742 -0.3274
  552MPD2    C5 8191   1.646   4.681  13.893 -0.2702  0.5907 -0.2251
  552MPD2     H 8192   1.780   4.323  13.909 -0.5564 -0.0849 -2.0418
  552MPD2    H1 8193   1.803   0.017  14.026 -0.1521 -1.4180  2.1127
  552MPD2    H2 8194   1.511   4.608  13.758  0.6442  2.0705  0.6080
  552MPD2    H3 8195   1.603   0.057  13.883  0.0101  0.5411 -1.8485
  552MPD2     N 8196   1.914   4.509  14.080 -0.1746 -0.4130  0.0198
  552MPD2    H5 8197   1.959   4.591  14.118  1.6852 -2.3643  2.0311
  552MPD2    N1 8198   1.562   4.344  13.776  0.0126  0.0822  0.2383
  552MPD2    H7 8199   1.584   4.247  13.795 -0.7825 -0.4206 -1.3973
  553TMC3    C1 8200   1.351   4.238  13.724 -0.1821 -1.0851  0.1211
  553TMC3    C2 8201   1.249   4.230  13.633  0.1718 -0.2327 -0.6387
  553TMC3    C3 8202   1.163   4.127  13.651  0.4627 -0.1803  0.3811
  553TMC3    C4 8203   1.369   4.145  13.831 -0.7947  0.4843 -0.1330
  553TMC3    C5 8204   1.286   4.035  13.831 -0.4340 -0.2263  0.8602
  553TMC3    C6 8205   1.180   4.029  13.744  0.2222 -0.3813 -0.0205
  553TMC3     C 8206   1.438   4.356  13.716  0.3309  0.2350 -0.1561
  553TMC3     O 8207   1.398   4.449  13.648 -0.5716 -0.9032  0.1742
  553TMC3     H 8208   1.236   4.303  13.553  1.9915  0.7509 -0.0409
  553TMC3    H1 8209   1.446   4.157  13.906 -0.3587  0.3995 -0.5699
  553TMC3    H2 8210   1.118   3.941  13.749 -0.9835  0.4150 -0.8117
  553TMC3    C7 8211   1.361   3.906  13.839  0.3880 -0.4932  0.2878
  553TMC3    C8 8212   1.086   4.089  13.534  0.8691  0.3310  0.0236
  553TMC3    O1 8213   1.312   3.816  13.778  0.0876  0.8699 -0.1379
  553TMC3    O2 8214   1.130   4.100  13.420 -0.0376 -0.0105  0.0527
  554TMC3    C1 8215   2.670   3.396  11.799  0.0697  0.7044 -0.0484
  554TMC3    C2 8216   2.552   3.356  11.750  0.5621  0.1534 -0.0112
  554TMC3    C3 8217   2.527   3.358  11.616  0.4106 -0.4501  0.1934
  554TMC3    C4 8218   2.772   3.440  11.717 -0.0563  0.7876  0.1479
  554TMC3    C5 8219   2.742   3.459  11.583 -0.5320 -0.2561 -0.0175
  554TMC3    C6 8220   2.619   3.419  11.525  0.4091  0.6741 -0.2395
  554TMC3     C 8221   2.701   3.390  11.934 -0.5420 -0.1775  0.1452
  554TMC3     O 8222   2.605   3.386  12.009  0.1481  0.4048 -0.4353
  554TMC3     H 8223   2.483   3.306  11.817  0.9294 -0.7568 -0.3080
  554TMC3    H1 8224   2.865   3.477  11.759  0.9078 -2.4807  0.8973
  554TMC3    H2 8225   2.596   3.445  11.423  1.6112 -1.7953 -1.1406
  554TMC3    C7 8226   2.846   3.495  11.490 -0.6409 -0.4895 -0.4266
  554TMC3    C8 8227   2.424   3.261  11.564  0.1875 -0.0916  0.8960
  554TMC3    O1 8228   2.836   3.438  11.381  0.1026 -0.0992  0.0090
  554TMC3    O2 8229   2.351   3.208  11.650  0.2803 -0.1029 -0.1966
  555TMC3    C1 8230   1.881   3.210  15.188 -1.1833 -0.3785  0.1675
  555TMC3    C2 8231   1.986   3.296  15.211  0.1371 -0.6691  0.5903
  555TMC3    C3 8232   2.096   3.237  15.262 -0.6483 -0.1881 -0.5052
  555TMC3    C4 8233   1.879   3.075  15.227  0.3742 -0.6667  0.4908
  555TMC3    C5 8234   1.993   3.022  15.276  0.1703  0.0789  0.2537
  555TMC3    C6 8235   2.105   3.108  15.301  0.5203  1.2476  0.4166
  555TMC3     C 8236   1.784   3.238  15.086  0.1756 -0.6695  0.3448
  555TMC3     O 8237   1.677   3.190  15.091  0.1548 -0.0519  0.7585
  555TMC3     H 8238   1.978   3.400  15.183 -2.3739 -0.0045  3.7341
  555TMC3    H1 8239   1.795   3.015  15.193  0.0665 -0.4446  0.8697
  555TMC3    H2 8240   2.202   3.063  15.319  0.5258  1.1199  0.0623
  555TMC3    C7 8241   2.034   2.897  15.209 -0.4570  0.2288 -1.0561
  555TMC3    C8 8242   2.212   3.324  15.276  0.3425 -0.5012  0.5270
  555TMC3    O1 8243   2.126   2.908  15.133 -0.2620 -0.1723  0.2228
  555TMC3    O2 8244   2.212   3.438  15.237  0.2534  0.0129  0.5854
  556MPD2     C 8245   0.574   4.249  10.647  0.4061 -0.0494 -0.5443
  556MPD2    C1 8246   0.439   4.225  10.643 -0.2384 -0.2135 -0.7460
  556MPD2    C2 8247   0.391   4.112  10.566 -0.0731  0.6050 -0.5927
  556MPD2    C3 8248   0.484   4.029  10.506 -0.1906 -0.5633  0.1742
  556MPD2    C4 8249   0.617   4.055  10.516 -0.5107 -0.3319 -0.1667
  556MPD2    C5 8250   0.659   4.169  10.577 -0.5880  0.2759  0.6451
  556MPD2     H 8251   0.284   4.100  10.551 -0.4173  1.8183  0.8025
  556MPD2    H1 8252   0.702   3.998  10.479 -0.7943 -0.0531 -1.2469
  556MPD2    H2 8253   0.615   4.335  10.699  1.7571 -0.3317 -1.1441
  556MPD2    H3 8254   0.765   4.192  10.575 -0.1489 -1.8953 -1.2317
  556MPD2     N 8255   0.435   3.921  10.422 -0.6094 -0.6605  0.0621
  556MPD2    H5 8256   0.334   3.912  10.415 -0.5196 -1.9681  0.4826
  556MPD2    N1 8257   0.356   4.318  10.712  0.0854 -0.4154  0.4495
  556MPD2    H7 8258   0.403   4.393  10.761 -0.3175  0.3404 -0.3182
  557TMC3    C1 8259   0.441   3.751  10.265  0.0396 -0.4807  0.5223
  557TMC3    C2 8260   0.457   3.754  10.131 -0.2214  0.0699 -0.3026
  557TMC3    C3 8261   0.376   3.676  10.052 -0.1689 -0.3267 -0.1081
  557TMC3    C4 8262   0.336   3.694  10.324 -0.4294  0.1854  0.2286
  557TMC3    C5 8263   0.251   3.618  10.245 -0.5672  0.3425 -0.1947
  557TMC3    C6 8264   0.269   3.602  10.110  0.3261  0.1387  0.1651
  557TMC3     C 8265   0.515   3.842  10.341 -0.3548 -0.4098  0.6400
  557TMC3     O 8266   0.630   3.868  10.310 -0.0009 -0.2355 -0.5538
  557TMC3     H 8267   0.538   3.814  10.091 -0.7856  0.7087 -0.4951
  557TMC3    H1 8268   0.330   3.683  10.432  0.1027 -2.3556 -0.0047
  557TMC3    H2 8269   0.212   3.530  10.054  1.3920  0.4044 -1.2729
  557TMC3    C7 8270   0.144   3.549  10.327 -0.3328  0.4856 -0.0126
  557TMC3    C8 8271   0.425   3.642   9.918 -0.1710 -0.0713 -0.1212
  557TMC3    O1 8272   0.134   3.579  10.444  0.1235 -0.3261  0.4844
  557TMC3    O2 8273   0.541   3.671   9.896  0.1464  0.0255  0.4084
  558TMC3    C1 8274   2.784   2.119   9.947 -0.4049 -1.5056 -0.3672
  558TMC3    C2 8275   2.695   2.194  10.023 -0.4106  0.9830 -0.2251
  558TMC3    C3 8276   2.577   2.247   9.970  0.0630 -0.1358  0.1780
  558TMC3    C4 8277   2.757   2.106   9.813  0.1192  0.8982  0.3206
  558TMC3    C5 8278   2.644   2.169   9.764  0.2989 -0.0280  0.9555
  558TMC3    C6 8279   2.552   2.242   9.833  0.6289  0.1103 -0.3244
  558TMC3     C 8280   2.920   2.109   9.999 -0.3464  0.0305 -0.4032
  558TMC3     O 8281   2.948   2.168  10.106 -1.0144  0.0374 -0.2572
  558TMC3     H 8282   2.709   2.198  10.130 -0.0040  0.6079 -0.2608
  558TMC3    H1 8283   2.817   2.040   9.751 -2.3438  0.7500 -1.9441
  558TMC3    H2 8284   2.466   2.290   9.789 -1.2659 -1.5428  1.5709
  558TMC3    C7 8285   2.655   2.177   9.625 -0.0732 -0.0910  0.0437
  558TMC3    C8 8286   2.464   2.282  10.051 -0.0402  0.3305 -0.2126
  558TMC3    O1 8287   2.767   2.181   9.576  0.5532 -0.0738  0.0116
  558TMC3    O2 8288   2.367   2.331   9.999 -0.0734 -0.2305  0.1034
  559MPD2     C 8289   2.505   2.776  10.738 -0.5166 -0.0884 -0.2177
  559MPD2    C1 8290   2.443   2.738  10.850 -0.0319 -0.3023  0.6766
  559MPD2    C2 8291   2.506   2.758  10.974 -0.5764  0.1349  0.0976
  559MPD2    C3 8292   2.639   2.803  10.980 -0.3972 -0.4792  0.6300
  559MPD2    C4 8293   2.702   2.840  10.867 -0.2507 -0.7104 -0.2679
  559MPD2    C5 8294   2.633   2.827  10.744 -0.1395  0.3818 -0.7389
  559MPD2     H 8295   2.460   2.745  11.071 -3.3311  1.7223 -1.0225
  559MPD2    H1 8296   2.798   2.890  10.859  0.3806 -2.1269 -1.5465
  559MPD2    H2 8297   2.457   2.760  10.642 -1.8902 -0.5569  0.5367
  559MPD2    H3 8298   2.684   2.854  10.652 -1.3755  1.8995 -0.9918
  559MPD2     N 8299   2.687   2.811  11.114  0.1524  0.1265  0.0546
  559MPD2    H5 8300   2.620   2.790  11.188  0.8499  0.8053  0.8767
  559MPD2    N1 8301   2.309   2.694  10.851 -0.2698  0.8103  0.5188
  559MPD2    H7 8302   2.271   2.681  10.757  0.0732  2.6679  0.1166
  560TMC3    C1 8303   2.847   2.796  11.284 -0.9023  0.0735  0.8987
  560TMC3    C2 8304   2.777   2.703  11.346 -0.0003 -0.0472 -0.9879
  560TMC3    C3 8305   2.832   2.626  11.444  0.0678 -0.5540 -0.0715
  560TMC3    C4 8306   2.973   2.824  11.323  0.2968 -0.3621  0.0171
  560TMC3    C5 8307   3.026   2.754  11.428 -0.3178  0.8026  0.0824
  560TMC3    C6 8308   2.958   2.649  11.484 -0.1985  0.6969 -0.5338
  560TMC3     C 8309   2.822   2.817  11.140  0.7546 -0.1840  0.0951
  560TMC3     O 8310   2.921   2.836  11.070  0.5580  0.2506  0.0754
  560TMC3     H 8311   2.683   2.666  11.305 -0.8459  2.2094 -1.0725
  560TMC3    H1 8312   3.032   2.899  11.272  0.8441 -1.0739 -0.3886
  560TMC3    H2 8313   2.993   2.589  11.568  0.2487  0.7316 -0.6962
  560TMC3    C7 8314   3.154   2.784  11.504 -0.8372  0.5591 -0.0294
  560TMC3    C8 8315   2.796   2.485  11.440  0.0673  0.2937 -0.0608
  560TMC3    O1 8316   3.195   2.694  11.575 -0.0719  0.4771  0.7941
  560TMC3    O2 8317   2.677   2.468  11.424  0.0226 -0.4260  0.5149
  561TMC3    C1 8318   0.465   1.725  11.334  0.1275 -0.1043  0.5569
  561TMC3    C2 8319   0.412   1.743  11.460 -0.3860 -0.3355  0.2976
  561TMC3    C3 8320   0.330   1.854  11.470  0.3435 -0.2013  0.3407
  561TMC3    C4 8321   0.429   1.804  11.223  0.2364  0.0632  0.4085
  561TMC3    C5 8322   0.324   1.885  11.233 -0.2905 -0.4286 -0.4539
  561TMC3    C6 8323   0.272   1.915  11.357  0.1676 -0.5393  0.0989
  561TMC3     C 8324   0.558   1.613  11.306  0.5326 -0.6465 -0.1064
  561TMC3     O 8325   0.595   1.594  11.189 -0.0259 -0.2199  0.6104
  561TMC3     H 8326   0.418   1.669  11.539 -0.4093 -0.7771 -0.1169
  561TMC3    H1 8327   0.465   1.769  11.127 -1.9901  1.5359 -0.9355
  561TMC3    H2 8328   0.190   1.983  11.375  1.6167  0.7625  1.8035
  561TMC3    C7 8329   0.277   1.984  11.133 -0.3008  0.9182 -0.4044
  561TMC3    C8 8330   0.257   1.870  11.597 -0.0983 -0.5372  0.1625
  561TMC3    O1 8331   0.165   2.028  11.150  0.5903  0.0892 -0.3667
  561TMC3    O2 8332   0.150   1.929  11.591  0.1086  0.5454  0.1089
  562TMC3    C1 8333   2.246   3.353  15.980 -0.1166  1.2173  0.3065
  562TMC3    C2 8334   2.121   3.409  15.970  0.0741  0.6715  0.3306
  562TMC3    C3 8335   2.045   3.375  15.863 -0.0630  0.0432  0.5546
  562TMC3    C4 8336   2.291   3.260  15.895  0.2840 -0.2128  0.2221
  562TMC3    C5 8337   2.204   3.217  15.798  0.2784  0.8667 -0.0835
  562TMC3    C6 8338   2.083   3.273  15.775 -0.2586 -0.5252 -0.0321
  562TMC3     C 8339   2.322   3.374  16.110 -0.2079 -0.6332  0.3223
  562TMC3     O 8340   2.405   3.294  16.144 -0.4170  0.2312  0.2497
  562TMC3     H 8341   2.079   3.484  16.036  0.3887  1.1509 -0.0135
  562TMC3    H1 8342   2.389   3.215  15.902  0.1408 -0.7992 -1.4752
  562TMC3    H2 8343   2.009   3.230  15.708 -1.1565  1.1554 -0.1084
  562TMC3    C7 8344   2.243   3.103  15.713  0.0098 -0.3254 -1.0626
  562TMC3    C8 8345   1.913   3.422  15.845  0.0242  0.6002 -0.5273
  562TMC3    O1 8346   2.216   3.119  15.594 -0.2536  1.0393  0.2894
  562TMC3    O2 8347   1.840   3.456  15.936 -0.4618  0.5011 -0.3510
  563MPD2     C 8348   4.099   0.056  15.757 -0.1811  0.2138 -0.0838
  563MPD2    C1 8349   4.151   0.109  15.873 -0.1683 -0.2159 -0.2343
  563MPD2    C2 8350   4.267   0.059  15.913 -1.3409 -0.3042 -0.0822
  563MPD2    C3 8351   4.337   4.678  15.849 -0.3832 -0.2147 -0.0564
  563MPD2    C4 8352   4.281   4.621  15.735 -0.6491 -0.0219  0.0651
  563MPD2    C5 8353   4.166   4.674  15.689 -0.5871  0.0433 -0.2490
  563MPD2     H 8354   4.310   0.098  16.005  1.4975 -0.2334 -1.4381
  563MPD2    H1 8355   4.332   4.550  15.671  1.3767  0.4043  1.1933
  563MPD2    H2 8356   4.002   0.090  15.723  0.7542  3.5629  0.5121
  563MPD2    H3 8357   4.125   4.627  15.601  1.8407 -0.2577 -1.2237
  563MPD2     N 8358   4.444   4.630  15.929  0.1188 -0.2382  0.5625
  563MPD2    H5 8359   4.471   4.693  16.003 -0.1547 -0.3792  0.7817
  563MPD2    N1 8360   4.094   0.205  15.950 -0.0457 -0.0570 -0.2066
  563MPD2    H7 8361   4.145   0.248  16.026 -0.8217  2.1641 -0.9220
  564TMC3    C1 8362   3.906   0.250  16.079  0.4210 -0.0158  0.3201
  564TMC3    C2 8363   3.784   0.201  16.091  0.1756 -0.2545  0.0126
  564TMC3    C3 8364   3.760   0.109  16.188 -0.3752  0.5141  0.3440
  564TMC3    C4 8365   4.007   0.218  16.171  0.3741  0.2819  0.0740
  564TMC3    C5 8366   3.983   0.139  16.281 -0.8489 -0.3281  0.4746
  564TMC3    C6 8367   3.860   0.085  16.287 -0.5877 -0.4135  0.4208
  564TMC3     C 8368   3.955   0.244  15.939 -0.0856  0.2841  0.7799
  564TMC3     O 8369   3.867   0.231  15.853  0.4815 -0.6085 -0.4083
  564TMC3     H 8370   3.704   0.232  16.025  0.9506  1.6132 -0.0622
  564TMC3    H1 8371   4.100   0.273  16.174  0.3176  0.3013  1.7038
  564TMC3    H2 8372   3.860   0.006  16.362 -2.2748 -0.0464  0.7856
  564TMC3    C7 8373   4.076   0.031  16.289  0.0831 -0.1514  0.8256
  564TMC3    C8 8374   3.729   4.700  16.135  0.3736 -0.4150  0.1753
  564TMC3    O1 8375   4.135   0.006  16.392 -0.5095  0.3680 -0.1869
  564TMC3    O2 8376   3.708   4.616  16.218 -0.2701 -0.2903 -0.6498
  565TMC3    C1 8377   4.372   0.627  10.132  0.1021 -0.1329  0.6055
  565TMC3    C2 8378   4.456   0.603  10.240 -0.2117 -0.0327  0.7922
  565TMC3    C3 8379   4.420   0.502  10.328 -0.2665 -0.1017 -0.0329
  565TMC3    C4 8380   4.255   0.560  10.121  0.7074  0.1932  0.1953
  565TMC3    C5 8381   4.223   0.476  10.222 -0.7616 -0.0331  0.0089
  565TMC3    C6 8382   4.309   0.426  10.321 -0.3010 -0.0365 -1.4145
  565TMC3     C 8383   4.392   0.729  10.030  0.3775  0.0313 -0.0805
  565TMC3     O 8384   4.326   0.711   9.933 -0.1540 -0.4319 -0.0472
  565TMC3     H 8385   4.547   0.661  10.233 -1.3145  1.7112  0.8515
  565TMC3    H1 8386   4.189   0.568  10.036  0.8026 -1.4687 -0.0349
  565TMC3    H2 8387   4.272   0.357  10.396  3.4292 -1.2339 -0.7017
  565TMC3    C7 8388   4.082   0.454  10.249 -0.0328  0.2097  0.3868
  565TMC3    C8 8389   4.523   0.465  10.424  0.0366 -0.6039  0.6406
  565TMC3    O1 8390   4.049   0.383  10.343  0.1110  0.0005 -0.5497
  565TMC3    O2 8391   4.623   0.539  10.424 -0.9249  0.0015  0.5308
  566MPD2     C 8392   1.735   3.156  14.575 -0.3639 -0.2467  0.4880
  566MPD2    C1 8393   1.807   3.230  14.483  0.2614  0.3030  0.5650
  566MPD2    C2 8394   1.780   3.220  14.348  0.3961  0.6555  0.0826
  566MPD2    C3 8395   1.678   3.144  14.301  0.4924  0.1810 -0.4769
  566MPD2    C4 8396   1.606   3.072  14.390  0.2650  0.4697  0.4321
  566MPD2    C5 8397   1.634   3.075  14.523 -0.6510 -0.2589  0.0150
  566MPD2     H 8398   1.841   3.268  14.272  1.1324  0.5929  0.6321
  566MPD2    H1 8399   1.539   2.993  14.361  1.1754  0.2443 -1.0590
  566MPD2    H2 8400   1.758   3.149  14.681 -0.2101 -1.2634  0.3854
  566MPD2    H3 8401   1.579   3.010  14.591 -2.7062  0.9043 -0.5406
  566MPD2     N 8402   1.649   3.134  14.169  0.0153  0.0502 -0.2045
  566MPD2    H5 8403   1.572   3.070  14.154 -0.9506  0.9570  0.8369
  566MPD2    N1 8404   1.936   3.272  14.531  0.7864  0.0346 -0.4083
  566MPD2    H7 8405   1.969   3.230  14.618  1.1235  0.9073 -0.1217
  567TMC3    C1 8406   2.163   3.309  14.478 -0.8282 -0.7037 -0.7438
  567TMC3    C2 8407   2.249   3.388  14.400 -0.4862  0.4940 -0.1328
  567TMC3    C3 8408   2.303   3.325  14.284  0.2583  0.5309 -0.1545
  567TMC3    C4 8409   2.172   3.174  14.460 -0.4420 -0.3112 -0.7726
  567TMC3    C5 8410   2.232   3.119  14.347 -0.4434 -0.3749 -0.1528
  567TMC3    C6 8411   2.298   3.191  14.252 -0.8083 -0.9190 -0.6802
  567TMC3     C 8412   2.024   3.356  14.465 -0.3497  0.3078 -0.4762
  567TMC3     O 8413   2.002   3.430  14.371 -0.1212 -0.3081 -0.2065
  567TMC3     H 8414   2.227   3.494  14.404  0.5634  0.7113 -0.2392
  567TMC3    H1 8415   2.112   3.116  14.529  0.3528  0.3275  0.4587
  567TMC3    H2 8416   2.327   3.159  14.153 -0.3623 -0.2090 -0.7832
  567TMC3    C7 8417   2.151   3.017  14.279 -0.1330 -0.3590 -0.1118
  567TMC3    C8 8418   2.331   3.414  14.174  0.1798  0.5717 -1.1329
  567TMC3    O1 8419   2.168   3.014  14.156 -0.5356  0.0360  0.0940
  567TMC3    O2 8420   2.309   3.376  14.063  0.6947  0.2381 -0.5797
  568MPD2     C 8421   3.635   3.248  16.343 -0.3208 -0.4259 -0.4708
  568MPD2    C1 8422   3.685   3.333  16.437  0.1629 -0.5826  0.0660
  568MPD2    C2 8423   3.712   3.467  16.406 -0.0273 -0.3299  0.8275
  568MPD2    C3 8424   3.700   3.514  16.278 -0.2224 -0.0310 -0.6594
  568MPD2    C4 8425   3.656   3.423  16.181  0.4487  0.4296  0.4008
  568MPD2    C5 8426   3.626   3.290  16.218 -0.4258 -0.1448  0.3326
  568MPD2     H 8427   3.759   3.528  16.482 -0.0578  0.6761  0.0274
  568MPD2    H1 8428   3.663   3.440  16.074  1.5073  0.9307  0.5560
  568MPD2    H2 8429   3.616   3.144  16.367  0.5360  0.2449  3.0673
  568MPD2    H3 8430   3.609   3.221  16.136  0.4733 -0.7365  0.6447
  568MPD2     N 8431   3.745   3.650  16.252  0.1585  0.1385  0.2900
  568MPD2    H5 8432   3.786   3.702  16.329  0.7394  1.1653 -0.7042
  568MPD2    N1 8433   3.693   3.280  16.563 -0.2694  0.2747  0.3501
  568MPD2    H7 8434   3.662   3.183  16.560  0.5440  0.0536 -0.9288
  569TMC3    C1 8435   3.785   3.839  16.125  0.3010 -0.7646  0.0505
  569TMC3    C2 8436   3.802   3.902  16.245 -0.3250 -0.5871  0.4435
  569TMC3    C3 8437   3.872   4.021  16.245  0.0690  0.5205 -0.4491
  569TMC3    C4 8438   3.826   3.888  16.002 -0.1818  0.3563  1.1706
  569TMC3    C5 8439   3.889   4.005  16.010  0.4850  0.4178 -0.2347
  569TMC3    C6 8440   3.921   4.069  16.130 -0.0681 -0.8556  0.4260
  569TMC3     C 8441   3.724   3.714  16.128  0.6325 -0.3146 -0.5490
  569TMC3     O 8442   3.678   3.672  16.024 -0.0516 -0.2656 -0.2034
  569TMC3     H 8443   3.749   3.874  16.334  0.1681  0.3306  1.0343
  569TMC3    H1 8444   3.801   3.834  15.911  3.4742  1.0338 -0.2214
  569TMC3    H2 8445   3.991   4.151  16.143 -0.9690 -0.1814  1.0313
  569TMC3    C7 8446   3.843   4.095  15.900  0.5416  0.2104  0.0400
  569TMC3    C8 8447   3.843   4.123  16.349 -0.0204  0.1165 -0.0571
  569TMC3    O1 8448   3.786   4.044  15.807 -0.6288 -0.0266  0.1088
  569TMC3    O2 8449   3.725   4.124  16.379 -0.1747 -0.2202  0.6123
  570TMC3    C1 8450   3.182   2.193  16.331 -0.1475 -0.3765 -0.9592
  570TMC3    C2 8451   3.244   2.256  16.230 -0.4235 -0.3624  0.3323
  570TMC3    C3 8452   3.299   2.382  16.249 -0.1365  0.4227 -0.4029
  570TMC3    C4 8453   3.153   2.262  16.451  0.8123  0.6414  0.3039
  570TMC3    C5 8454   3.191   2.391  16.451  0.5151  0.4329  0.8342
  570TMC3    C6 8455   3.263   2.458  16.356  0.4728  0.5794 -0.0219
  570TMC3     C 8456   3.151   2.046  16.310 -0.6319  0.0330  0.1962
  570TMC3     O 8457   3.178   1.992  16.205  0.2452  0.2539 -0.4819
  570TMC3     H 8458   3.254   2.206  16.135  0.4319  1.3264 -0.4567
  570TMC3    H1 8459   3.078   2.235  16.525 -0.2313 -0.2572 -1.0766
  570TMC3    H2 8460   3.296   2.561  16.363  0.4247  0.8059 -3.2437
  570TMC3    C7 8461   3.116   2.473  16.553  0.3967 -0.2273  0.1237
  570TMC3    C8 8462   3.403   2.433  16.165  0.9445 -0.2168 -0.1531
  570TMC3    O1 8463   3.096   2.422  16.658  0.0350  0.4237  0.2870
  570TMC3    O2 8464   3.418   2.552  16.151  0.2052 -0.0970  0.0986
  571MPD2     C 8465   2.107   3.781  17.081  0.2863  0.3147  0.4175
  571MPD2    C1 8466   1.972   3.769  17.066  0.4442 -0.4363  0.1869
  571MPD2    C2 8467   1.884   3.824  17.150  0.1257 -0.0870 -0.1031
  571MPD2    C3 8468   1.932   3.885  17.266 -0.2557  0.4311 -0.2058
  571MPD2    C4 8469   2.068   3.888  17.282  1.0233  0.1697  0.2022
  571MPD2    C5 8470   2.156   3.839  17.194 -0.6876  0.0348 -0.3840
  571MPD2     H 8471   1.777   3.826  17.134  0.1519 -0.8044 -0.3945
  571MPD2    H1 8472   2.115   3.934  17.369  0.4938 -0.2910  0.7375
  571MPD2    H2 8473   2.177   3.750  17.004 -0.1539  0.1750  0.0761
  571MPD2    H3 8474   2.263   3.851  17.203 -0.8345 -0.3841  2.0532
  571MPD2     N 8475   1.851   3.951  17.363  0.0032  0.1292 -0.0692
  571MPD2    H5 8476   1.897   3.993  17.443  1.2330 -0.0944 -0.6593
  571MPD2    N1 8477   1.932   3.701  16.950  0.3527  0.1986 -0.2134
  571MPD2    H7 8478   2.003   3.660  16.891 -0.0276  0.8968 -1.1507
  572TMC3    C1 8479   1.648   3.991  17.484 -0.6260 -0.0837  0.1268
  572TMC3    C2 8480   1.521   3.944  17.507 -0.6877  0.2157  0.3823
  572TMC3    C3 8481   1.428   4.017  17.577 -0.0906 -1.0247 -0.1143
  572TMC3    C4 8482   1.690   4.115  17.536 -0.0023 -0.3985  0.2451
  572TMC3    C5 8483   1.595   4.172  17.627 -0.3126  1.0201 -0.9452
  572TMC3    C6 8484   1.467   4.126  17.650  0.2463 -0.3646  0.0837
  572TMC3     C 8485   1.711   3.954  17.358  0.6878 -0.1783  0.5251
  572TMC3     O 8486   1.634   3.918  17.267  0.1512 -0.3400  0.7680
  572TMC3     H 8487   1.483   3.874  17.433 -0.0821  0.4530 -0.1516
  572TMC3    H1 8488   1.784   4.163  17.510 -0.5801  0.3322 -0.5194
  572TMC3    H2 8489   1.394   4.191   0.002  0.3535 -0.6499  0.6810
  572TMC3    C7 8490   1.626   4.303  17.674  0.5746  0.2395 -0.5474
  572TMC3    C8 8491   1.287   3.995  17.556  0.9509  0.4506  0.5317
  572TMC3    O1 8492   1.698   4.375  17.609 -0.0082  0.3692  0.1946
  572TMC3    O2 8493   1.252   3.900  17.488  0.0685  0.5862  0.1192
  573MPD2     C 8494   2.434   3.872   0.448 -0.1781  0.3567 -0.5380
  573MPD2    C1 8495   2.497   3.991   0.481 -0.1135  0.2286  0.0655
  573MPD2    C2 8496   2.519   4.083   0.384 -0.3101  0.2196  0.1332
  573MPD2    C3 8497   2.460   4.064   0.260 -0.5830 -0.9342 -0.1517
  573MPD2    C4 8498   2.388   3.953   0.238 -0.1330 -0.1563 -0.1219
  573MPD2    C5 8499   2.362   3.859   0.333 -0.4773 -0.2928 -0.0815
  573MPD2     H 8500   2.565   4.179   0.403 -1.3224  0.8050 -0.3482
  573MPD2    H1 8501   2.332   3.938   0.147  0.7440  3.1432 -1.2181
  573MPD2    H2 8502   2.429   3.790   0.519  0.5667 -0.7602 -1.7579
  573MPD2    H3 8503   2.308   3.766   0.320 -0.5831 -0.0116 -1.6387
  573MPD2     N 8504   2.472   4.157   0.158  0.2621 -0.3388 -0.5433
  573MPD2    H5 8505   2.429   4.143   0.068  0.6512 -1.4122 -0.5581
  573MPD2    N1 8506   2.539   4.007   0.614  0.1131  0.5947 -0.0848
  573MPD2    H7 8507   2.495   3.948   0.683  1.5878 -0.8072 -0.3459
  574TMC3    C1 8508   2.519   4.358   0.043 -0.4474  0.5555 -0.3421
  574TMC3    C2 8509   2.388   4.375   0.005  0.4096 -0.3832 -0.0245
  574TMC3    C3 8510   2.352   4.473  17.610  0.0854 -0.1136 -0.2374
  574TMC3    C4 8511   2.612   4.451  17.691 -0.2253 -0.3674 -0.8106
  574TMC3    C5 8512   2.576   4.557  17.614  0.4043 -0.7179  0.1298
  574TMC3    C6 8513   2.442   4.574  17.572 -0.4488  0.0409 -0.1544
  574TMC3     C 8514   2.556   4.265   0.154 -0.8030 -0.5898 -0.5727
  574TMC3     O 8515   2.660   4.288   0.216 -0.4084 -0.6809  0.1581
  574TMC3     H 8516   2.313   4.306   0.040 -0.4302 -0.4992 -2.0668
  574TMC3    H1 8517   2.711   4.428   0.036 -0.3396  0.6394  0.1482
  574TMC3    H2 8518   2.416   4.652  17.501  0.2650 -0.5034 -1.0178
  574TMC3    C7 8519   2.655   4.677  17.598  0.3867  0.1153  0.1966
  574TMC3    C8 8520   2.209   4.507  17.608 -0.1758 -0.6308 -0.1706
  574TMC3    O1 8521   2.592   0.055  17.576  0.0878  0.8426  0.0092
  574TMC3    O2 8522   2.129   4.430  17.657 -0.3431 -0.1552 -0.2511
  575TMC3    C1 8523   0.550   0.605  10.849 -0.1801  0.2428 -0.5935
  575TMC3    C2 8524   0.547   0.596  10.984  0.2617 -0.0602 -0.1584
  575TMC3    C3 8525   0.452   0.521  11.042 -0.4742  0.0408  0.1647
  575TMC3    C4 8526   0.456   0.551  10.767 -0.1821 -1.2374 -0.5685
  575TMC3    C5 8527   0.357   0.478  10.828  0.4977 -0.5801 -0.7853
  575TMC3    C6 8528   0.353   0.465  10.965 -0.7729 -0.7111 -1.0744
  575TMC3     C 8529   0.637   0.712  10.794 -0.0712 -1.0332 -0.1805
  575TMC3     O 8530   0.691   0.774  10.886  0.3203  0.6865  0.5053
  575TMC3     H 8531   0.625   0.630  11.052 -0.6338  1.2491  0.2289
  575TMC3    H1 8532   0.458   0.571  10.660  0.5724  1.6901 -0.0186
  575TMC3    H2 8533   0.276   0.401  11.008 -0.6624 -0.3570 -0.3683
  575TMC3    C7 8534   0.244   0.433  10.745 -0.3879  0.2848 -0.5028
  575TMC3    C8 8535   0.452   0.482  11.181 -0.2263  0.2306 -0.1687
  575TMC3    O1 8536   0.240   0.486  10.634 -0.3860 -0.0731  0.5454
  575TMC3    O2 8537   0.399   0.373  11.210  0.5250  0.5404  0.8220
  576MPD2     C 8538   4.078   2.073  12.662 -0.0541  0.1176 -0.1249
  576MPD2    C1 8539   4.111   2.164  12.556 -0.8305  0.2058 -0.5194
  576MPD2    C2 8540   4.065   2.293  12.569 -0.1934  0.1188  0.4426
  576MPD2    C3 8541   3.979   2.332  12.668 -0.1098  0.5531 -0.2248
  576MPD2    C4 8542   3.952   2.240  12.766 -0.2029  0.6495 -0.1003
  576MPD2    C5 8543   4.005   2.114  12.769  0.0184 -0.3157 -0.0161
  576MPD2     H 8544   4.082   2.360  12.485  0.7830  0.1033  0.6284
  576MPD2    H1 8545   3.882   2.251  12.849  0.7213  0.5597  0.6914
  576MPD2    H2 8546   4.115   1.971  12.656 -2.1015 -0.5322 -1.5170
  576MPD2    H3 8547   3.981   2.045  12.849  0.2887 -0.7330 -0.2974
  576MPD2     N 8548   3.934   2.464  12.675 -0.1995  0.2274 -0.2201
  576MPD2    H5 8549   3.981   2.528  12.610  1.2457 -0.3128  0.2954
  576MPD2    N1 8550   4.184   2.127  12.443 -0.1610 -0.1744 -0.6638
  576MPD2    H7 8551   4.186   2.200  12.373 -0.4374 -0.3900 -0.8966
  577TMC3    C1 8552   4.337   2.002  12.302  0.6130  0.7153 -0.7404
  577TMC3    C2 8553   4.446   1.916  12.294 -0.1820 -0.5047 -0.0349
  577TMC3    C3 8554   4.499   1.905  12.171 -0.2031  0.0981 -0.2052
  577TMC3    C4 8555   4.293   2.081  12.198 -0.0882 -0.1663 -0.2198
  577TMC3    C5 8556   4.355   2.061  12.077 -0.2878 -0.0318 -0.3212
  577TMC3    C6 8557   4.456   1.968  12.061  0.3624 -0.1700  0.4629
  577TMC3     C 8558   4.268   2.016  12.431  0.2030  0.5291  0.3174
  577TMC3     O 8559   4.300   1.934  12.517  0.4150 -0.4314 -0.0969
  577TMC3     H 8560   4.489   1.864  12.380  0.0222 -0.5290 -0.1513
  577TMC3    H1 8561   4.209   2.149  12.206 -0.8062 -0.9865 -0.7456
  577TMC3    H2 8562   4.496   1.953  11.961  0.1134 -1.0350  0.4927
  577TMC3    C7 8563   4.318   2.144  11.967  0.5019 -0.2119  0.5007
  577TMC3    C8 8564   4.629   1.840  12.166 -0.1314  0.4267  0.3524
  577TMC3    O1 8565   4.309   2.265  11.987  0.5104 -0.4217 -0.3516
  577TMC3    O2 8566   4.669   1.769  12.260  0.2014 -0.3915  0.0334
  578MPD2     C 8567   2.198   2.159   1.087  0.3443 -0.9301 -0.1288
  578MPD2    C1 8568   2.315   2.133   1.013 -0.7114  0.1630  0.3678
  578MPD2    C2 8569   2.422   2.074   1.079  0.0339 -0.1675 -0.7367
  578MPD2    C3 8570   2.419   2.039   1.218 -0.1437  1.1416 -0.2314
  578MPD2    C4 8571   2.307   2.077   1.287  0.1651 -0.2859 -1.0243
  578MPD2    C5 8572   2.199   2.142   1.225  0.6105  0.4104  0.2074
  578MPD2     H 8573   2.514   2.057   1.025 -0.6233 -1.4729 -1.4233
  578MPD2    H1 8574   2.303   2.062   1.394  0.1260 -1.1289 -1.1420
  578MPD2    H2 8575   2.109   2.206   1.046  0.8363 -0.7828 -1.0274
  578MPD2    H3 8576   2.123   2.190   1.284  0.0291 -1.7026  1.1916
  578MPD2     N 8577   2.531   1.973   1.256 -0.1267 -0.3539  0.9189
  578MPD2    H5 8578   2.606   1.949   1.192  0.0543 -1.0419  1.3866
  578MPD2    N1 8579   2.312   2.163   0.872 -0.6433 -0.2977  0.8754
  578MPD2    H7 8580   2.242   2.234   0.851 -0.8916 -1.3770 -2.0153
  579TMC3    C1 8581   2.653   1.837   1.387 -0.2141  0.0177 -0.3516
  579TMC3    C2 8582   2.747   1.852   1.482  0.3014 -0.2515 -0.4474
  579TMC3    C3 8583   2.865   1.788   1.468  0.2524 -0.3541 -0.0361
  579TMC3    C4 8584   2.672   1.769   1.271 -0.3376  0.2202  0.1399
  579TMC3    C5 8585   2.791   1.695   1.264  0.4213 -0.1634  0.2377
  579TMC3    C6 8586   2.882   1.697   1.366  0.0653 -0.0793 -0.1598
  579TMC3     C 8587   2.559   1.944   1.383 -0.2959  0.1005 -0.7301
  579TMC3     O 8588   2.500   1.969   1.488  0.0140 -0.2920 -0.1509
  579TMC3     H 8589   2.739   1.926   1.561 -0.5618 -1.3876  0.5431
  579TMC3    H1 8590   2.591   1.754   1.201  0.7033 -1.4394 -0.7183
  579TMC3    H2 8591   2.977   1.648   1.348  0.9287  1.5077  0.0778
  579TMC3    C7 8592   2.831   1.625   1.144 -0.5155  0.2569 -0.2774
  579TMC3    C8 8593   2.978   1.838   1.544  0.2336 -0.7296 -1.1370
  579TMC3    O1 8594   2.931   1.558   1.148  0.3209  0.3073  0.4009
  579TMC3    O2 8595   2.947   1.896   1.646  0.0819 -0.3680 -0.8506
  580TMC3    C1 8596   2.023   1.256  11.745  0.2976  0.4928 -0.3533
  580TMC3    C2 8597   2.024   1.180  11.630  0.5922 -0.2056  0.1779
  580TMC3    C3 8598   2.022   1.042  11.639  0.5988 -1.1895  0.0814
  580TMC3    C4 8599   2.037   1.191  11.868 -0.0203  0.0531  0.2633
  580TMC3    C5 8600   2.046   1.052  11.876 -0.3224 -0.2659 -0.4056
  580TMC3    C6 8601   2.034   0.972  11.761  0.5522  0.1387 -1.0333
  580TMC3     C 8602   2.075   1.387  11.735 -0.3194  1.2053  0.2561
  580TMC3     O 8603   2.134   1.418  11.634  0.1556 -0.6696  0.1203
  580TMC3     H 8604   2.011   1.225  11.532  0.4696 -0.6625 -0.0202
  580TMC3    H1 8605   2.024   1.249  11.958 -1.4984  2.4259 -1.4555
  580TMC3    H2 8606   2.020   0.865  11.765  1.0596  0.1050 -0.2744
  580TMC3    C7 8607   2.063   0.998  12.008 -0.3105 -0.1128 -0.2471
  580TMC3    C8 8608   2.098   0.975  11.530  0.2823 -1.1098  0.0989
  580TMC3    O1 8609   2.104   1.080  12.084  0.4260 -0.0324  0.2018
  580TMC3    O2 8610   2.071   0.857  11.502 -0.3625  0.1600 -0.4119
  581MPD2     C 8611   0.036   0.706  15.126 -0.1501  0.1038 -0.0881
  581MPD2    C1 8612   0.152   0.765  15.084 -0.2771  0.1562  0.1598
  581MPD2    C2 8613   0.151   0.875  14.997 -0.6399  0.3683 -0.0011
  581MPD2    C3 8614   0.032   0.928  14.953 -0.5352 -0.3537  0.2250
  581MPD2    C4 8615   4.641   0.863  14.988 -0.8269  0.3299 -0.0051
  581MPD2    C5 8616   4.644   0.758  15.079 -0.5387 -0.1892  0.9157
  581MPD2     H 8617   0.245   0.918  14.963 -1.3243  1.1072 -0.9496
  581MPD2    H1 8618   4.554   0.893  14.930 -0.7646  1.6663  0.5990
  581MPD2    H2 8619   0.029   0.626  15.199 -1.2688  2.7133  2.6648
  581MPD2    H3 8620   4.546   0.714  15.097 -0.4196 -0.3357  1.2076
  581MPD2     N 8621   0.033   1.041  14.868 -0.2877  0.9998 -0.2528
  581MPD2    H5 8622   0.120   1.088  14.844  0.3019 -0.7958 -1.6339
  581MPD2    N1 8623   0.261   0.713  15.153  0.3010 -0.4109 -0.2881
  581MPD2    H7 8624   0.239   0.630  15.207 -1.6627  0.1744 -0.1862
  582TMC3    C1 8625   0.478   0.691  15.241 -0.0264  0.5092 -0.2452
  582TMC3    C2 8626   0.570   0.769  15.310 -0.7013  0.2119 -0.2447
  582TMC3    C3 8627   0.596   0.726  15.440  0.2902 -1.2506 -0.6516
  582TMC3    C4 8628   0.434   0.571  15.301  0.3858 -0.0667  0.5842
  582TMC3    C5 8629   0.479   0.528  15.422 -0.2555  0.4998 -0.0642
  582TMC3    C6 8630   0.552   0.612  15.504  0.2615  0.3830 -0.1027
  582TMC3     C 8631   0.389   0.766  15.152 -0.4369  0.3798 -0.4386
  582TMC3     O 8632   0.441   0.855  15.092 -0.4379  0.8830 -0.2335
  582TMC3     H 8633   0.596   0.870  15.282  2.9243 -0.6997 -0.2153
  582TMC3    H1 8634   0.367   0.505  15.247  0.4624 -0.8712  1.4869
  582TMC3    H2 8635   0.571   0.593  15.609 -0.2364  2.3220  0.3447
  582TMC3    C7 8636   0.363   0.470  15.483  0.2174 -0.5348  0.0469
  582TMC3    C8 8637   0.610   0.832  15.535  0.1590  0.2830 -0.0573
  582TMC3    O1 8638   0.327   0.367  15.428 -0.0880  0.0170  0.0858
  582TMC3    O2 8639   0.549   0.814  15.641 -0.3308  0.3137 -0.3040
  583MPD2     C 8640   0.562   2.602  16.618 -0.3749  0.2476  0.0827
  583MPD2    C1 8641   0.547   2.725  16.561  0.1352 -0.1901 -0.1792
  583MPD2    C2 8642   0.499   2.834  16.642  0.5179  0.0994  0.1543
  583MPD2    C3 8643   0.485   2.816  16.775 -0.1952 -0.3586 -0.1972
  583MPD2    C4 8644   0.503   2.689  16.833  0.4262  0.4760  0.1727
  583MPD2    C5 8645   0.542   2.584  16.756  0.4737  0.1778 -0.2264
  583MPD2     H 8646   0.484   2.930  16.593  1.4046 -0.9791 -2.2461
  583MPD2    H1 8647   0.482   2.668  16.937  0.2005 -1.0051 -0.1819
  583MPD2    H2 8648   0.599   2.517  16.561 -0.9016  0.1475 -0.1196
  583MPD2    H3 8649   0.560   2.486  16.798  0.6839 -0.0437 -0.8261
  583MPD2     N 8650   0.431   2.922  16.844  0.1253 -0.1181  0.2178
  583MPD2    H5 8651   0.397   3.000  16.789  2.4758  0.9787  0.3250
  583MPD2    N1 8652   0.558   2.747  16.422  0.2204 -0.2646 -0.0905
  583MPD2    H7 8653   0.547   2.842  16.389 -0.1428 -1.0140 -2.1268
  584TMC3    C1 8654   0.416   3.065  17.015  1.0126  0.1534 -0.6323
  584TMC3    C2 8655   0.368   3.165  16.938 -0.4584 -0.3812 -0.0220
  584TMC3    C3 8656   0.405   3.298  16.966 -0.0938 -0.0008 -0.6169
  584TMC3    C4 8657   0.497   3.084  17.117 -0.1141  0.2182  0.9773
  584TMC3    C5 8658   0.533   3.219  17.143 -0.3141  0.2077 -0.4042
  584TMC3    C6 8659   0.490   3.330  17.070  0.0816  0.2171 -0.9940
  584TMC3     C 8660   0.409   2.929  16.974 -0.0956  0.0712  0.0732
  584TMC3     O 8661   0.424   2.844  17.066  0.4249  0.4876 -0.3011
  584TMC3     H 8662   0.294   3.140  16.863 -1.2672 -2.6608  1.5354
  584TMC3    H1 8663   0.552   2.996  17.150  0.4466  1.1054  2.3893
  584TMC3    H2 8664   0.507   3.434  17.099  0.5700 -0.2161  0.2601
  584TMC3    C7 8665   0.588   3.237  17.274 -0.3863  0.2684  0.3741
  584TMC3    C8 8666   0.352   3.408  16.887  0.8160 -0.7063 -0.2396
  584TMC3    O1 8667   0.609   3.139  17.348 -0.2079  0.1336 -0.0715
  584TMC3    O2 8668   0.250   3.389  16.821 -0.1764 -0.1580  0.0968
  585MPD2     C 8669   4.333   2.124   0.402 -0.5364 -0.3577 -0.1966
  585MPD2    C1 8670   4.301   2.209   0.296 -0.5345 -0.2742  0.1001
  585MPD2    C2 8671   4.298   2.160   0.164 -1.1156 -0.1325  0.7190
  585MPD2    C3 8672   4.342   2.032   0.143  0.7119  0.6173  0.7997
  585MPD2    C4 8673   4.384   1.953   0.251 -0.4477 -0.5274 -0.6818
  585MPD2    C5 8674   4.374   1.997   0.373 -0.3785 -0.1517 -0.6159
  585MPD2     H 8675   4.259   2.223   0.085  1.1614  1.7178  1.0726
  585MPD2    H1 8676   4.398   1.847   0.230 -2.0361 -1.1904  1.5991
  585MPD2    H2 8677   4.308   2.160   0.501 -2.4785 -2.1624 -0.0216
  585MPD2    H3 8678   4.402   1.932   0.454  2.0410  0.6204 -0.8295
  585MPD2     N 8679   4.333   1.958   0.023 -0.6815 -0.0074 -0.2413
  585MPD2    H5 8680   4.361   1.861   0.034 -2.3283 -0.2361  1.9740
  585MPD2    N1 8681   4.250   2.338   0.332 -0.3565 -0.1144  0.2102
  585MPD2    H7 8682   4.227   2.338   0.431 -0.2494  0.2739  0.2374
  586TMC3    C1 8683   4.296   1.920  17.486  0.4207 -0.5030  0.8967
  586TMC3    C2 8684   4.372   1.803  17.492 -0.6521  0.3209 -0.0092
  586TMC3    C3 8685   4.354   1.721  17.390 -0.5052 -0.1512  0.0803
  586TMC3    C4 8686   4.207   1.951  17.383  0.3075  0.4822 -0.6209
  586TMC3    C5 8687   4.186   1.848  17.287 -0.9363  0.3698  0.0234
  586TMC3    C6 8688   4.269   1.738  17.285 -0.3542  0.0971 -0.2016
  586TMC3     C 8689   4.309   2.017  17.587  0.1207  0.0624 -0.0268
  586TMC3     O 8690   4.296   2.132  17.557 -0.1784  0.8081  0.2947
  586TMC3     H 8691   4.438   1.768  17.571 -0.4240  0.8309  0.0231
  586TMC3    H1 8692   4.174   2.053  17.368 -0.5417  0.2199 -0.5033
  586TMC3    H2 8693   4.246   1.658  17.215 -0.1019  0.8578 -1.1629
  586TMC3    C7 8694   4.050   1.794  17.282 -0.6957  0.0285 -0.8283
  586TMC3    C8 8695   4.428   1.597  17.397  0.4203  0.0492 -0.1044
  586TMC3    O1 8696   4.034   1.671  17.271  0.0897  0.4203 -0.1421
  586TMC3    O2 8697   4.432   1.529  17.502  0.0213 -0.4393  0.4421
  587TMC3    C1 8698   1.882   0.500  16.236 -0.1122  0.2200  0.7507
  587TMC3    C2 8699   1.808   0.596  16.180 -0.0299 -0.4482 -0.0773
  587TMC3    C3 8700   1.866   0.709  16.133 -0.2788  0.3363  0.5329
  587TMC3    C4 8701   2.020   0.514  16.237  0.2981 -0.4465 -0.1642
  587TMC3    C5 8702   2.075   0.626  16.186  0.2308  0.5613 -0.5528
  587TMC3    C6 8703   1.997   0.730  16.138  0.0545 -0.2891  0.0363
  587TMC3     C 8704   1.835   0.367  16.260 -0.1174 -0.2066  0.5263
  587TMC3     O 8705   1.899   0.273  16.219 -0.0727 -0.2484  0.4963
  587TMC3     H 8706   1.707   0.570  16.153 -0.2897 -1.0383  1.4457
  587TMC3    H1 8707   2.082   0.427  16.253 -0.8600 -1.0673  0.9026
  587TMC3    H2 8708   2.033   0.828  16.109  1.2746 -0.7440  0.0174
  587TMC3    C7 8709   2.219   0.641  16.185 -0.1011 -0.9202  0.1142
  587TMC3    C8 8710   1.782   0.814  16.075  0.7057  0.3490  0.3404
  587TMC3    O1 8711   2.277   0.542  16.234 -0.4809  0.7256 -0.4503
  587TMC3    O2 8712   1.849   0.898  16.017 -0.8515 -0.3301  0.1380
  588TMC3    C1 8713   4.006   2.884   9.577  0.0604 -0.0335  0.2634
  588TMC3    C2 8714   3.945   2.759   9.572 -0.3123  0.7874  0.5478
  588TMC3    C3 8715   3.969   2.672   9.679  0.0594 -0.0202 -0.6443
  588TMC3    C4 8716   4.072   2.930   9.688  0.2724  0.8360 -0.0377
  588TMC3    C5 8717   4.093   2.847   9.793  0.1475 -0.0994 -1.0616
  588TMC3    C6 8718   4.039   2.716   9.787 -0.2956  0.0591 -0.0509
  588TMC3     C 8719   3.956   2.975   9.480  0.0345 -0.0718 -0.5930
  588TMC3     O 8720   3.870   2.929   9.407  0.4463  0.6677 -0.2969
  588TMC3     H 8721   3.897   2.722   9.482 -1.7270  1.5680  0.9858
  588TMC3    H1 8722   4.130   3.022   9.681  1.6523  0.2691  4.0729
  588TMC3    H2 8723   4.037   2.664   9.881  0.3627  2.0336  1.0588
  588TMC3    C7 8724   4.110   2.911   9.923  0.3451 -0.9439  0.0665
  588TMC3    C8 8725   3.945   2.530   9.671  0.0278  0.0777 -0.0342
  588TMC3    O1 8726   4.107   2.838  10.021 -0.4727 -0.3278  0.1512
  588TMC3    O2 8727   3.864   2.503   9.584  0.1672  0.6903 -0.1770
  589TMC3    C1 8728   3.029   0.291   0.904  0.6566  0.0383  0.9530
  589TMC3    C2 8729   3.063   0.347   1.025 -0.3542  0.1102  0.5185
  589TMC3    C3 8730   3.197   0.347   1.057 -0.3433  0.2976 -0.3650
  589TMC3    C4 8731   3.116   0.215   0.833 -0.3057 -0.3889 -1.1247
  589TMC3    C5 8732   3.242   0.202   0.877  1.0725 -0.5007  0.1454
  589TMC3    C6 8733   3.283   0.274   0.987  0.4057 -0.6049  0.6678
  589TMC3     C 8734   2.907   0.334   0.839  0.2258  0.2051  0.3427
  589TMC3     O 8735   2.868   0.265   0.746 -0.3791  0.0009 -0.2165
  589TMC3     H 8736   2.988   0.401   1.082 -0.0556 -1.3402  2.2936
  589TMC3    H1 8737   3.078   0.162   0.747 -0.9304  0.2286 -1.2253
  589TMC3    H2 8738   3.384   0.253   1.019  1.4006  1.3144 -1.1730
  589TMC3    C7 8739   3.322   0.085   0.837  0.2803  0.3740  0.7778
  589TMC3    C8 8740   3.245   0.409   1.185  0.6962 -0.2399  0.2304
  589TMC3    O1 8741   3.268   4.707   0.797  0.3584 -0.1493 -0.5278
  589TMC3    O2 8742   3.156   0.450   1.260 -0.4540  0.0736 -0.0283
  590MPD2     C 8743   2.989   4.021  16.505 -0.3358 -0.1546 -0.3726
  590MPD2    C1 8744   2.986   4.095  16.394 -0.8604 -0.6548 -0.3532
  590MPD2    C2 8745   3.096   4.105  16.311 -0.5316  0.2165  0.1964
  590MPD2    C3 8746   3.207   4.031  16.334  0.3457 -0.1624  0.9598
  590MPD2    C4 8747   3.208   3.945  16.445  0.0331  0.9289 -0.8440
  590MPD2    C5 8748   3.092   3.937  16.527  0.4804 -0.5748  0.0884
  590MPD2     H 8749   3.098   4.172  16.225  0.6472  1.7744  1.4355
  590MPD2    H1 8750   3.301   3.896  16.472 -0.7888  1.0860  2.2200
  590MPD2    H2 8751   2.909   4.019  16.578  0.4313  0.3191  0.4802
  590MPD2    H3 8752   3.102   3.888  16.623  0.7169 -0.1807  0.2644
  590MPD2     N 8753   3.315   4.057  16.255  0.1498  0.1368  0.5648
  590MPD2    H5 8754   3.306   4.133  16.187  1.2551 -1.1055 -0.9818
  590MPD2    N1 8755   2.868   4.170  16.371 -0.0440 -0.5936  0.0676
  590MPD2    H7 8756   2.790   4.150  16.434 -0.5833 -0.1936 -0.4754
  591TMC3    C1 8757   3.509   4.049  16.138 -0.6055 -0.6074  0.0068
  591TMC3    C2 8758   3.501   3.977  16.024 -0.0188  0.1998  0.4887
  591TMC3    C3 8759   3.474   4.049  15.908 -0.5953  0.4647  0.1995
  591TMC3    C4 8760   3.508   4.182  16.144  0.3713 -0.5105  0.1206
  591TMC3    C5 8761   3.477   4.249  16.020  0.3277  0.2200 -0.6735
  591TMC3    C6 8762   3.462   4.186  15.903  0.1461  0.3816 -0.6822
  591TMC3     C 8763   3.431   3.994  16.254 -0.3714 -0.3942  0.7195
  591TMC3     O 8764   3.468   3.894  16.310  0.4715  0.5866 -0.1151
  591TMC3     H 8765   3.488   3.869  16.025 -0.1674  0.1976 -2.7864
  591TMC3    H1 8766   3.520   4.238  16.236 -2.4712  1.4969 -0.7640
  591TMC3    H2 8767   3.416   4.240  15.821 -0.8588  0.5758  0.0133
  591TMC3    C7 8768   3.366   4.341  16.040 -0.1502  0.1511 -0.1456
  591TMC3    C8 8769   3.439   3.965  15.788 -0.3265  0.6382 -0.0443
  591TMC3    O1 8770   3.280   4.299  16.115 -0.2956  0.3681 -0.5075
  591TMC3    O2 8771   3.448   3.845  15.801 -0.0016 -0.4717  0.3371
  592MPD2     C 8772   3.296   0.705  11.436  0.1995  0.2513  0.0295
  592MPD2    C1 8773   3.299   0.787  11.544  0.6925  0.3228 -0.4876
  592MPD2    C2 8774   3.240   0.745  11.657  0.0479 -1.0494  0.3911
  592MPD2    C3 8775   3.180   0.623  11.679 -0.3751  0.2049  0.0214
  592MPD2    C4 8776   3.181   0.542  11.565 -0.4959 -0.2874  0.1250
  592MPD2    C5 8777   3.244   0.584  11.448  0.1197  0.3153 -0.4121
  592MPD2     H 8778   3.235   0.812  11.743  1.2396  0.9563 -1.0855
  592MPD2    H1 8779   3.131   0.446  11.557 -1.8332  0.3267  1.0352
  592MPD2    H2 8780   3.336   0.721  11.336 -0.3961  1.2696 -0.0438
  592MPD2    H3 8781   3.236   0.520  11.360 -0.6346  2.5107 -1.9454
  592MPD2     N 8782   3.109   0.587  11.800 -0.3807 -0.7822  0.4203
  592MPD2    H5 8783   3.105   0.658  11.873 -0.5915 -1.3119  0.9245
  592MPD2    N1 8784   3.369   0.910  11.534  1.2525  0.2514 -0.0716
  592MPD2    H7 8785   3.401   0.923  11.439  1.3168 -1.0590 -0.2316
  593TMC3    C1 8786   3.515   1.073  11.615  0.4818  0.6722 -0.2072
  593TMC3    C2 8787   3.528   1.178  11.704  0.1116 -0.2476 -0.7748
  593TMC3    C3 8788   3.647   1.248  11.682 -0.1926  0.2658  0.0886
  593TMC3    C4 8789   3.590   1.043  11.512 -0.4179  0.4363 -0.1054
  593TMC3    C5 8790   3.693   1.134  11.488  0.5256  0.2627 -0.7487
  593TMC3    C6 8791   3.733   1.224  11.580  0.6141  0.2252 -0.3396
  593TMC3     C 8792   3.393   0.998  11.635 -0.0938  0.3234  0.0038
  593TMC3     O 8793   3.334   1.016  11.740 -0.7639  0.2072 -0.6973
  593TMC3     H 8794   3.460   1.211  11.781  0.6369 -1.6356  0.2658
  593TMC3    H1 8795   3.589   0.944  11.468  0.4654  1.1582 -1.7480
  593TMC3    H2 8796   3.816   1.290  11.557 -0.0788  0.7045 -1.5038
  593TMC3    C7 8797   3.771   1.124  11.364  0.4314 -0.2368 -0.3091
  593TMC3    C8 8798   3.664   1.378  11.741  0.4327  0.8705  0.1952
  593TMC3    O1 8799   3.888   1.160  11.373 -0.2495  0.0862 -0.4560
  593TMC3    O2 8800   3.581   1.462  11.727 -0.2627  0.8545 -0.6801
  594MPD2     C 8801   2.688   4.522  14.497  1.1516  0.1127 -0.8508
  594MPD2    C1 8802   2.593   4.583  14.412  0.1769 -0.3874 -0.4008
  594MPD2    C2 8803   2.621   4.703  14.362 -0.4229  0.5706  0.9194
  594MPD2    C3 8804   2.752   0.027  14.362  0.4686 -0.2446  0.7176
  594MPD2    C4 8805   2.846   4.677  14.434 -0.2922  0.4727  0.2196
  594MPD2    C5 8806   2.823   4.562  14.489  0.3072  0.1928  0.3191
  594MPD2     H 8807   2.553   0.022  14.289  1.3307  0.4923 -0.7491
  594MPD2    H1 8808   2.949   4.712  14.437 -0.5367  1.2179 -0.0429
  594MPD2    H2 8809   2.679   4.418  14.526  2.4381 -0.3368 -2.0287
  594MPD2    H3 8810   2.901   4.503  14.537 -0.3362 -0.1755  0.9229
  594MPD2     N 8811   2.782   0.142  14.281  0.3676  0.0939  0.1184
  594MPD2    H5 8812   2.700   0.190  14.244  0.4546  0.5325  0.4927
  594MPD2    N1 8813   2.464   4.531  14.405 -0.0845 -0.3833  0.1110
  594MPD2    H7 8814   2.456   4.440  14.450 -2.0832 -0.0559  0.4316
  595TMC3    C1 8815   3.042   0.502  14.117 -0.6324  0.9433  0.3530
  595TMC3    C2 8816   3.019   0.373  14.146  0.6267 -0.2723  0.3808
  595TMC3    C3 8817   2.898   0.333  14.190 -0.0471 -1.1010  0.3004
  595TMC3    C4 8818   2.948   0.593  14.148  0.2782 -0.2290 -0.5776
  595TMC3    C5 8819   2.829   0.550  14.203 -0.3792 -0.2820 -0.0429
  595TMC3    C6 8820   2.798   0.419  14.219  0.4030 -0.0968 -0.0506
  595TMC3     C 8821   3.177   0.552  14.105 -0.1930 -0.1672 -0.1372
  595TMC3     O 8822   3.266   0.474  14.136  0.8408 -0.3252  0.0880
  595TMC3     H 8823   3.075   0.293  14.101  0.9645  1.0047 -1.4857
  595TMC3    H1 8824   2.956   0.697  14.117 -2.5620 -0.1226 -1.0074
  595TMC3    H2 8825   2.711   0.385  14.273  0.4040  0.8926  0.5751
  595TMC3    C7 8826   2.741   0.642  14.277  0.5489  0.3539 -0.0582
  595TMC3    C8 8827   2.902   0.210  14.267  0.1863  0.5999  0.0765
  595TMC3    O1 8828   2.644   0.589  14.331  0.3528  0.0541  0.2072
  595TMC3    O2 8829   3.011   0.182  14.310  0.3741  0.0319  0.0900
  596MPD2     C 8830   1.295   2.348  16.367  0.2113  0.4267 -0.5939
  596MPD2    C1 8831   1.312   2.476  16.318 -0.3904 -0.6002  0.1567
  596MPD2    C2 8832   1.308   2.490  16.178 -0.1419 -0.0271 -0.3435
  596MPD2    C3 8833   1.292   2.387  16.088  0.9547 -0.0238 -0.4173
  596MPD2    C4 8834   1.274   2.260  16.142  0.3001 -0.0975 -0.8533
  596MPD2    C5 8835   1.277   2.250  16.281 -0.3298  0.5518 -0.3376
  596MPD2     H 8836   1.333   2.588  16.139  1.5605 -0.5475 -0.5486
  596MPD2    H1 8837   1.259   2.170  16.084  0.6208 -0.9704  0.4151
  596MPD2    H2 8838   1.301   2.331  16.474  3.4664 -0.1826 -0.8790
  596MPD2    H3 8839   1.267   2.152  16.326 -1.8848  1.0845  0.4626
  596MPD2     N 8840   1.290   2.400  15.952 -0.0021 -0.2013  0.0793
  596MPD2    H5 8841   1.252   2.316  15.911  0.5097  0.2213 -1.2432
  596MPD2    N1 8842   1.321   2.596  16.390 -0.8588  0.4070 -0.1092
  596MPD2    H7 8843   1.360   2.675  16.339  1.0199  0.4254  1.3389
  597TMC3    C1 8844   1.320   2.738  16.578 -0.0250  0.3630  0.7135
  597TMC3    C2 8845   1.407   2.813  16.505  0.0675  0.2671  0.2082
  597TMC3    C3 8846   1.428   2.944  16.548  0.3432 -0.5994 -0.5445
  597TMC3    C4 8847   1.253   2.791  16.684  0.6294 -0.1174 -0.4250
  597TMC3    C5 8848   1.291   2.910  16.740  0.5317 -0.7729  0.1408
  597TMC3    C6 8849   1.387   2.990  16.672  0.7309 -0.2804  0.2739
  597TMC3     C 8850   1.284   2.607  16.523 -0.2329 -0.5292 -0.2887
  597TMC3     O 8851   1.219   2.535  16.598 -0.3825 -0.2004 -0.1141
  597TMC3     H 8852   1.486   2.773  16.442  0.4140 -0.0864  0.8681
  597TMC3    H1 8853   1.180   2.727  16.732  0.0486 -0.2196 -1.4490
  597TMC3    H2 8854   1.404   3.087  16.717 -0.2808 -0.0968  0.2546
  597TMC3    C7 8855   1.206   2.966  16.844 -0.1204 -0.6058 -0.1406
  597TMC3    C8 8856   1.497   3.038  16.465 -0.8878 -0.0116  0.6770
  597TMC3    O1 8857   1.155   2.882  16.919  0.7109 -0.2046  0.2256
  597TMC3    O2 8858   1.533   3.147  16.514  0.6956  0.1227  0.6143
  598TMC3    C1 8859   3.960   4.159  15.491 -0.3150 -0.3709 -0.0074
  598TMC3    C2 8860   3.891   4.040  15.512  0.1805 -0.0570 -0.3153
  598TMC3    C3 8861   3.817   4.001  15.405  0.3616  0.0883 -0.5442
  598TMC3    C4 8862   3.947   4.231  15.370  0.0241  0.2244  0.0256
  598TMC3    C5 8863   3.876   4.177  15.271  0.2858  0.1404 -0.0938
  598TMC3    C6 8864   3.802   4.067  15.288  0.3772  0.2489  0.2029
  598TMC3     C 8865   4.061   4.210  15.584 -0.5893 -0.1888 -0.2333
  598TMC3     O 8866   4.106   4.325  15.578  0.1053 -0.9036  0.1622
  598TMC3     H 8867   3.889   3.996  15.611 -0.4787  1.0069  0.1457
  598TMC3    H1 8868   4.012   4.317  15.366 -0.2668  0.5415  1.7907
  598TMC3    H2 8869   3.748   4.026  15.204  1.6998  0.6620 -0.8436
  598TMC3    C7 8870   3.927   4.195  15.136  0.0690 -0.1035  0.9766
  598TMC3    C8 8871   3.787   3.855  15.396  0.6154 -0.6997  0.2481
  598TMC3    O1 8872   3.902   4.108  15.056 -0.0446 -0.1679  0.6776
  598TMC3    O2 8873   3.812   3.793  15.292  0.2131  0.8235  0.4390
  599MPD2     C 8874   4.309   2.062  16.135 -0.4895 -0.2512  0.2835
  599MPD2    C1 8875   4.253   1.941  16.113 -0.5294  0.3246  0.2653
  599MPD2    C2 8876   4.122   1.924  16.133 -0.1086 -0.1039 -0.6212
  599MPD2    C3 8877   4.034   2.024  16.172  0.5004  0.2039 -0.9632
  599MPD2    C4 8878   4.090   2.148  16.200 -0.1958 -0.2943 -0.4417
  599MPD2    C5 8879   4.223   2.162  16.179 -0.4879 -0.2891  0.0048
  599MPD2     H 8880   4.092   1.820  16.135 -1.0090  0.1859  0.7739
  599MPD2    H1 8881   4.042   2.238  16.235  0.2644 -0.3071  0.2156
  599MPD2    H2 8882   4.413   2.084  16.117 -0.7498 -0.6817 -1.7040
  599MPD2    H3 8883   4.263   2.260  16.204 -0.1914 -0.9649  2.2259
  599MPD2     N 8884   3.897   2.011  16.209  0.2535 -0.5159  0.7254
  599MPD2    H5 8885   3.855   2.099  16.237  1.2104 -0.0774  0.8062
  599MPD2    N1 8886   4.337   1.831  16.068  0.0993 -0.4541  0.4618
  599MPD2    H7 8887   4.436   1.840  16.086  0.6567 -2.6033 -1.5623
  600TMC3    C1 8888   3.695   1.902  16.260  0.0784 -1.1379 -0.4805
  600TMC3    C2 8889   3.623   1.788  16.263  0.0020 -0.5349 -0.0577
  600TMC3    C3 8890   3.504   1.795  16.337  0.1151 -0.2713  0.1571
  600TMC3    C4 8891   3.648   2.022  16.320 -0.2984 -0.5289  0.2818
  600TMC3    C5 8892   3.533   2.022  16.391 -0.9725 -0.4102 -0.0212
  600TMC3    C6 8893   3.454   1.909  16.401  0.3141 -0.3049 -0.1105
  600TMC3     C 8894   3.824   1.894  16.196  0.0434 -0.4537 -0.1985
  600TMC3     O 8895   3.861   1.782  16.167 -0.2265 -0.2548  0.1654
  600TMC3     H 8896   3.657   1.692  16.227  0.1277 -0.6557  0.3819
  600TMC3    H1 8897   3.711   2.109  16.330  0.8198 -1.1343 -1.4156
  600TMC3    H2 8898   3.350   1.916  16.432 -0.0702 -0.1207 -1.4697
  600TMC3    C7 8899   3.496   2.128  16.482  0.1833 -0.5044  0.6329
  600TMC3    C8 8900   3.405   1.685  16.329 -0.1722 -1.2966  0.9584
  600TMC3    O1 8901   3.403   2.106  16.558  0.8028  0.1969  0.1962
  600TMC3    O2 8902   3.351   1.664  16.440  0.2311 -0.3032 -0.2105
  601MPD2     C 8903   1.481   4.697   0.243  0.3680  0.0285  0.1980
  601MPD2    C1 8904   1.506   4.685   0.108  0.2785 -0.5795 -0.0064
  601MPD2    C2 8905   1.544   4.564   0.060 -0.1671 -0.2696  0.0649
  601MPD2    C3 8906   1.550   4.454   0.147 -0.2119 -0.2101  0.1243
  601MPD2    C4 8907   1.510   4.466   0.275  0.1605 -0.5606  0.5929
  601MPD2    C5 8908   1.491   4.588   0.324  0.5631  0.7927  0.3742
  601MPD2     H 8909   1.563   4.548  17.647  0.5747  0.8298  0.0312
  601MPD2    H1 8910   1.523   4.381   0.341  1.6159  0.4981  1.6794
  601MPD2    H2 8911   1.447   0.068   0.286 -0.0916  0.4124 -1.0184
  601MPD2    H3 8912   1.476   4.595   0.431 -3.5444  2.4530 -0.3422
  601MPD2     N 8913   1.579   4.323   0.107  0.0926  0.3267 -0.1781
  601MPD2    H5 8914   1.569   4.236   0.158  0.2242 -2.1809 -4.4525
  601MPD2    N1 8915   1.477   0.068   0.014 -0.4376 -0.4025  0.1192
  601MPD2    H7 8916   1.496   0.029  17.614  0.1799 -2.5595  1.1548
  602TMC3    C1 8917   1.363   0.235  17.585 -0.4852  0.6692 -0.6017
  602TMC3    C2 8918   1.477   0.243  17.506  0.6895  0.0151  0.0461
  602TMC3    C3 8919   1.458   0.293  17.381  0.9968 -0.3664  0.4737
  602TMC3    C4 8920   1.235   0.277  17.546 -0.6323 -0.0059 -0.5855
  602TMC3    C5 8921   1.222   0.334  17.421  0.1624  0.6237 -0.0184
  602TMC3    C6 8922   1.334   0.340  17.340 -0.3100  0.2987  0.2813
  602TMC3     C 8923   1.388   0.173   0.025 -0.1685  0.4797  0.0562
  602TMC3     O 8924   1.318   0.198   0.124  0.2871 -0.0715  0.2291
  602TMC3     H 8925   1.575   0.208  17.536 -0.7182 -3.7005  0.3095
  602TMC3    H1 8926   1.151   0.280  17.614  1.1962  0.3008  1.6559
  602TMC3    H2 8927   1.328   0.381  17.239  1.2997  0.3542  0.2020
  602TMC3    C7 8928   1.096   0.393  17.366 -0.9023  0.6062  0.1553
  602TMC3    C8 8929   1.582   0.315  17.302  0.5433 -0.6029 -0.6304
  602TMC3    O1 8930   0.988   0.361  17.418  0.0838 -0.1664  0.0381
  602TMC3    O2 8931   1.665   0.224  17.317  0.5857 -0.4209 -0.0742
  603TMC3    C1 8932   3.900   0.339  10.750  0.7242 -0.6166 -0.6710
  603TMC3    C2 8933   3.945   0.319  10.876  0.8626  0.0268 -0.1227
  603TMC3    C3 8934   4.052   0.393  10.913 -1.5464 -0.2699  0.4386
  603TMC3    C4 8935   3.957   0.433  10.663 -0.4792 -0.7126 -0.3723
  603TMC3    C5 8936   4.065   0.504  10.713  0.4606 -0.4157  0.4412
  603TMC3    C6 8937   4.109   0.497  10.842  0.9282  0.3678 -0.4153
  603TMC3     C 8938   3.799   0.245  10.694 -0.9685 -0.1354 -0.5336
  603TMC3     O 8939   3.732   0.286  10.598  0.3904 -0.0568 -0.4059
  603TMC3     H 8940   3.902   0.243  10.941 -0.7114 -0.4104 -1.6845
  603TMC3    H1 8941   3.926   0.421  10.560  0.2148  1.4006 -0.8247
  603TMC3    H2 8942   4.208   0.537  10.861  0.1222  1.3966  1.5338
  603TMC3    C7 8943   4.136   0.597  10.634  0.3295  0.7317 -0.2704
  603TMC3    C8 8944   4.102   0.366  11.052  0.0732  0.5770 -0.1309
  603TMC3    O1 8945   4.256   0.605  10.653  0.2350  0.0282 -0.0310
  603TMC3    O2 8946   4.084   0.254  11.095 -0.0638  0.4794 -0.4599
  604MPD2     C 8947   0.219   3.709  16.247  0.1711  0.3785  0.3338
  604MPD2    C1 8948   0.118   3.775  16.188  0.2306 -0.1405 -0.1876
  604MPD2    C2 8949   0.111   3.775  16.046  0.0648 -0.5818  0.2180
  604MPD2    C3 8950   0.192   3.693  15.968  0.1046  0.1575 -0.2787
  604MPD2    C4 8951   0.280   3.609  16.033  0.1049  0.5897 -0.0545
  604MPD2    C5 8952   0.295   3.618  16.172  0.2654  0.2016  0.1916
  604MPD2     H 8953   0.038   3.837  15.997  0.3183  1.0344  1.8789
  604MPD2    H1 8954   0.339   3.537  15.976 -0.7485  1.0196 -1.4559
  604MPD2    H2 8955   0.248   3.717  16.351 -2.5377  1.8260  0.9722
  604MPD2    H3 8956   0.360   3.543  16.216 -2.8964 -0.3652  3.8626
  604MPD2     N 8957   0.176   3.694  15.831 -0.6179 -0.1269  0.2406
  604MPD2    H5 8958   0.126   3.773  15.791  1.8069  0.5916 -1.3298
  604MPD2    N1 8959   0.041   3.857  16.274 -0.0599 -0.3145  0.2338
  604MPD2    H7 8960   0.066   3.859  16.372  2.4886  0.2463 -0.4317
  605TMC3    C1 8961   4.607   4.015  16.346 -0.1724 -0.6357  0.4061
  605TMC3    C2 8962   4.695   4.036  16.451 -0.3765 -0.0784 -0.3023
  605TMC3    C3 8963   4.672   4.137  16.536 -0.0747  0.3895 -0.1753
  605TMC3    C4 8964   4.498   4.097  16.329  0.4261  0.5604  0.0976
  605TMC3    C5 8965   4.475   4.192  16.427 -0.1763  0.2547  0.3325
  605TMC3    C6 8966   4.551   4.212  16.534 -0.3713 -0.3899  0.1107
  605TMC3     C 8967   4.651   3.931  16.235  0.8568 -0.1099  0.0507
  605TMC3     O 8968   4.606   3.952  16.123  0.2057  0.2058 -0.1703
  605TMC3     H 8969   0.055   3.972  16.476 -0.8176 -0.3010  0.5880
  605TMC3    H1 8970   4.422   4.084  16.253  0.9590  0.1901 -0.3681
  605TMC3    H2 8971   4.532   4.301  16.593 -1.1320 -1.3115  1.2623
  605TMC3    C7 8972   4.395   4.306  16.386 -0.4540 -0.8622 -0.0577
  605TMC3    C8 8973   0.077   4.198  16.561  0.0858 -0.3069 -0.4281
  605TMC3    O1 8974   4.367   4.396  16.464  0.0878 -0.6078  0.6317
  605TMC3    O2 8975   0.161   4.176  16.473 -0.5584 -0.2391  0.0418
  606TMC3    C1 8976   1.768   1.920  16.637  1.0971 -0.6303  0.3295
  606TMC3    C2 8977   1.899   1.932  16.670  0.4177 -0.0849  0.8656
  606TMC3    C3 8978   1.950   1.848  16.769  0.9290 -0.0339 -0.3670
  606TMC3    C4 8979   1.675   1.843  16.696 -0.2693  0.2109  0.2082
  606TMC3    C5 8980   1.727   1.784  16.805 -0.0006  0.5014 -0.2059
  606TMC3    C6 8981   1.860   1.783  16.841 -0.1970 -0.5513  0.2327
  606TMC3     C 8982   1.729   1.984  16.516  0.6862 -0.6023 -0.1426
  606TMC3     O 8983   1.634   1.932  16.463 -0.0124 -0.1396 -0.1714
  606TMC3     H 8984   1.966   1.993  16.610 -1.9290  2.1517  0.4968
  606TMC3    H1 8985   1.571   1.835  16.667 -0.1763 -0.4239  0.0640
  606TMC3    H2 8986   1.879   1.747  16.942  0.8736 -0.4475  0.0653
  606TMC3    C7 8987   1.640   1.719  16.897 -0.4309  1.7349  0.3314
  606TMC3    C8 8988   2.079   1.878  16.829  0.1997  0.3946 -0.5894
  606TMC3    O1 8989   1.687   1.629  16.966 -0.6303  0.2259  0.0811
  606TMC3    O2 8990   2.102   1.835  16.940  0.3086  0.9501  0.0835
  607MPD2     C 8991   3.547   0.296  11.504  0.2940 -1.0059  0.0141
  607MPD2    C1 8992   3.610   0.378  11.601  0.7732 -0.1530  0.1112
  607MPD2    C2 8993   3.572   0.374  11.731  0.8056 -0.3016 -0.0101
  607MPD2    C3 8994   3.467   0.289  11.771 -0.1595  0.0849 -0.4687
  607MPD2    C4 8995   3.410   0.205  11.675  0.5858 -0.4368  0.5789
  607MPD2    C5 8996   3.450   0.211  11.547 -0.1252  0.2996 -0.1738
  607MPD2     H 8997   3.622   0.424  11.813 -0.2325  0.7525 -0.0268
  607MPD2    H1 8998   3.326   0.142  11.705 -0.6866  1.0971  0.2400
  607MPD2    H2 8999   3.593   0.281  11.407 -1.0257  1.4604 -0.9995
  607MPD2    H3 9000   3.410   0.143  11.473  1.1337 -0.3183 -0.2814
  607MPD2     N 9001   3.433   0.283  11.900 -0.3514  0.0012  0.2273
  607MPD2    H5 9002   3.487   0.341  11.963 -0.0105  2.2399 -2.1124
  607MPD2    N1 9003   3.713   0.475  11.570 -0.3175 -0.7754 -0.2485
  607MPD2    H7 9004   3.744   0.532  11.648  0.8869  0.7558 -1.8554
  608TMC3    C1 9005   3.879   0.598  11.455 -0.3302 -0.5277 -0.8017
  608TMC3    C2 9006   3.923   0.633  11.579  0.5262 -0.2264  0.6612
  608TMC3    C3 9007   3.969   0.766  11.600 -0.4868  0.4849  0.2603
  608TMC3    C4 9008   3.897   0.677  11.345  0.7124  0.1300  0.5504
  608TMC3    C5 9009   3.963   0.798  11.368 -0.1470 -0.3661 -0.0480
  608TMC3    C6 9010   3.991   0.851  11.494  0.6599 -0.3351  0.1692
  608TMC3     C 9011   3.771   0.501  11.450 -0.2622 -0.9966 -0.7139
  608TMC3     O 9012   3.746   0.446  11.344  0.4564  0.2743 -0.1785
  608TMC3     H 9013   3.907   0.562  11.659 -0.4776 -0.7563 -0.0125
  608TMC3    H1 9014   3.876   0.635  11.247  1.5103 -1.1324  0.9205
  608TMC3    H2 9015   4.034   0.949  11.511 -1.6700  1.0284 -1.8838
  608TMC3    C7 9016   4.016   0.873  11.249  0.1361 -0.2352 -0.7632
  608TMC3    C8 9017   3.905   0.834  11.712 -0.8960 -0.4972  0.0225
  608TMC3    O1 9018   3.975   0.839  11.137 -0.8261 -0.2051  0.0786
  608TMC3    O2 9019   3.883   0.954  11.687 -0.1508 -0.0956  0.3603
  609TMC3    C1 9020   1.822   3.735   9.052  0.3623  0.2229  0.6469
  609TMC3    C2 9021   1.771   3.633   8.976  0.1692  0.4691  0.1035
  609TMC3    C3 9022   1.864   3.524   8.973 -0.4171  0.3006  0.2338
  609TMC3    C4 9023   1.947   3.756   9.098  0.6338 -0.0391 -0.7259
  609TMC3    C5 9024   2.036   3.650   9.076 -0.4550 -0.3021 -0.4313
  609TMC3    C6 9025   1.992   3.539   9.018 -0.0295  0.1725 -0.1431
  609TMC3     C 9026   1.737   3.843   9.086  0.2134  0.2876 -0.6488
  609TMC3     O 9027   1.744   3.890   9.199  0.7039  0.4888  0.3366
  609TMC3     H 9028   1.669   3.634   8.938  0.7286  0.2161 -1.4140
  609TMC3    H1 9029   1.976   3.842   9.156 -0.7877  1.5031 -2.3035
  609TMC3    H2 9030   2.055   3.452   9.026  0.1641  0.2860 -0.4473
  609TMC3    C7 9031   2.150   3.656   9.157 -0.0818  0.1897 -0.3234
  609TMC3    C8 9032   1.828   3.403   8.904 -0.9109 -0.1640  0.1002
  609TMC3    O1 9033   2.167   3.757   9.224  0.1206  0.2416  0.0111
  609TMC3    O2 9034   1.741   3.410   8.819  0.6339  0.4956  0.7720
  610TMC3    C1 9035   3.807   0.723  12.303 -0.0030 -0.5310  0.4852
  610TMC3    C2 9036   3.884   0.803  12.221  0.3575  1.2563 -0.2309
  610TMC3    C3 9037   4.009   0.757  12.192 -0.3177  0.0907  0.0852
  610TMC3    C4 9038   3.856   0.606  12.357 -0.2148  0.2939  0.6143
  610TMC3    C5 9039   3.976   0.561  12.310  0.1359 -0.4145 -0.6684
  610TMC3    C6 9040   4.061   0.635  12.232 -0.4451  0.2074 -0.4950
  610TMC3     C 9041   3.673   0.768  12.353 -0.1457 -0.0917 -0.4351
  610TMC3     O 9042   3.610   0.683  12.414  0.2100  0.5338  0.0850
  610TMC3     H 9043   3.842   0.883  12.162 -0.4184  1.4235  0.5518
  610TMC3    H1 9044   3.793   0.558  12.431  1.9367 -1.8675  1.0238
  610TMC3    H2 9045   4.158   0.602  12.197 -0.0530 -0.2874  1.0773
  610TMC3    C7 9046   4.044   0.468  12.394 -0.7816  0.2219  0.3007
  610TMC3    C8 9047   4.083   0.835  12.093  0.1328  0.4557 -0.7407
  610TMC3    O1 9048   4.161   0.487  12.401 -0.0280  0.6645 -0.2809
  610TMC3    O2 9049   4.032   0.936  12.046 -0.0789 -0.1259  0.3959
  611MPD2     C 9050   3.016   0.760   9.778  0.8970  0.4440 -0.4845
  611MPD2    C1 9051   3.065   0.798   9.905 -0.4083  0.7934 -0.0380
  611MPD2    C2 9052   3.197   0.848   9.923  0.3881  0.2223 -0.2383
  611MPD2    C3 9053   3.275   0.858   9.808  0.1649 -0.4434  0.1226
  611MPD2    C4 9054   3.217   0.826   9.686 -0.0724 -0.4779  0.2104
  611MPD2    C5 9055   3.089   0.783   9.665  0.2092 -0.3770  0.0475
  611MPD2     H 9056   3.241   0.874  10.018 -2.7152 -1.0958  1.5859
  611MPD2    H1 9057   3.267   0.848   9.592 -1.6583  3.1631  0.2124
  611MPD2    H2 9058   2.919   0.713   9.770  1.0211 -0.0554  0.8422
  611MPD2    H3 9059   3.050   0.744   9.572  1.9014  0.5039 -1.0481
  611MPD2     N 9060   3.409   0.894   9.804 -0.2894  0.0676 -0.1227
  611MPD2    H5 9061   3.452   0.911   9.714  2.2425  1.9110  1.4135
  611MPD2    N1 9062   2.972   0.780  10.011  0.0931 -0.7821 -0.3504
  611MPD2    H7 9063   2.882   0.743   9.982 -0.6818  0.7733  0.0630
  612TMC3    C1 9064   3.619   0.959   9.879 -0.1510  0.9073 -0.4697
  612TMC3    C2 9065   3.729   0.924   9.953  0.1358  0.0763  0.7463
  612TMC3    C3 9066   3.824   1.021   9.972  0.3105  0.0057 -0.0824
  612TMC3    C4 9067   3.619   1.069   9.807 -0.0493 -0.4516 -0.2038
  612TMC3    C5 9068   3.716   1.165   9.834 -0.0083 -0.0131  0.2841
  612TMC3    C6 9069   3.818   1.147   9.922 -0.3007  0.3125 -0.3158
  612TMC3     C 9070   3.497   0.889   9.912 -0.2549 -0.1003 -0.1489
  612TMC3     O 9071   3.486   0.826  10.019 -0.1611 -0.6946 -0.4688
  612TMC3     H 9072   3.729   0.827  10.000 -1.4697 -0.0906  0.4024
  612TMC3    H1 9073   3.534   1.092   9.744  0.9672  1.0144 -1.0227
  612TMC3    H2 9074   3.899   1.218   9.936 -0.6828  0.7982 -0.5781
  612TMC3    C7 9075   3.690   1.290   9.776  0.0307 -0.1089 -0.1102
  612TMC3    C8 9076   3.930   1.006  10.069 -0.0664  0.6534  0.9109
  612TMC3    O1 9077   3.631   1.295   9.672  0.2444 -0.4443  0.3295
  612TMC3    O2 9078   4.013   1.098  10.069 -0.2095 -0.5846  0.2464
  613MPD2     C 9079   2.619   3.125  16.491 -0.1260 -0.1267  0.7581
  613MPD2    C1 9080   2.632   3.080  16.363 -0.2600  0.3735  0.3213
  613MPD2    C2 9081   2.616   2.947  16.330  0.7540 -0.3067 -0.2186
  613MPD2    C3 9082   2.571   2.854  16.425 -0.0322 -0.4303  0.1256
  613MPD2    C4 9083   2.566   2.897  16.561  0.2833  0.1560  1.1322
  613MPD2    C5 9084   2.588   3.033  16.588  0.0382  0.9063  0.1684
  613MPD2     H 9085   2.637   2.906  16.232  0.4435 -1.5118  0.2085
  613MPD2    H1 9086   2.537   2.837  16.646  2.0264  0.0678  1.6796
  613MPD2    H2 9087   2.635   3.226  16.525  1.1437 -0.2873  0.6424
  613MPD2    H3 9088   2.575   3.074  16.688  1.2443 -2.3411  1.6511
  613MPD2     N 9089   2.561   2.715  16.390 -0.3662  0.7238  0.7951
  613MPD2    H5 9090   2.567   2.642  16.460 -3.9865  0.9091  1.2924
  613MPD2    N1 9091   2.690   3.165  16.264 -0.0177 -0.1909  0.4976
  613MPD2    H7 9092   2.710   3.121  16.175 -1.1822 -0.8645  0.5683
  614TMC3    C1 9093   2.787   3.322  16.148 -0.7109  0.2233 -0.0605
  614TMC3    C2 9094   2.891   3.237  16.125 -0.6152 -0.0372  0.9227
  614TMC3    C3 9095   2.917   3.197  16.004  0.1784 -0.0673  0.2480
  614TMC3    C4 9096   2.709   3.378  16.045 -0.0272  0.4734  0.1142
  614TMC3    C5 9097   2.739   3.322  15.923 -0.0403 -0.2258  0.6108
  614TMC3    C6 9098   2.846   3.243  15.895 -0.8586 -0.0903 -0.6660
  614TMC3     C 9099   2.730   3.297  16.278 -0.9593  1.1212  0.9320
  614TMC3     O 9100   2.736   3.368  16.377 -0.4274  0.4171  0.5683
  614TMC3     H 9101   2.943   3.205  16.215 -0.9039 -1.4480  0.5856
  614TMC3    H1 9102   2.637   3.455  16.070 -0.6418  0.7024 -2.3888
  614TMC3    H2 9103   2.866   3.207  15.795  0.0367  0.1792 -0.5854
  614TMC3    C7 9104   2.699   3.402  15.802 -0.0096  0.4489 -0.0937
  614TMC3    C8 9105   2.994   3.065  15.997  0.4052 -0.0755  0.0364
  614TMC3    O1 9106   2.673   3.522  15.815 -0.4664 -0.5174  0.4460
  614TMC3    O2 9107   3.035   3.029  16.105  0.3776  0.1463  0.1223
  615MPD2     C 9108   2.015   4.004  16.172 -0.1074  0.4789 -0.0012
  615MPD2    C1 9109   1.885   4.055  16.166 -0.4425  0.3088 -0.4311
  615MPD2    C2 9110   1.818   4.035  16.049 -0.6248 -0.5279  1.1878
  615MPD2    C3 9111   1.870   3.958  15.948  0.0663 -0.2287  0.0532
  615MPD2    C4 9112   1.993   3.901  15.958 -0.4894 -0.9369  0.7750
  615MPD2    C5 9113   2.059   3.925  16.075 -0.6164 -0.3335 -0.2622
  615MPD2     H 9114   1.716   4.070  16.035 -0.0285  2.0553  3.3139
  615MPD2    H1 9115   2.016   3.829  15.880  2.6180  1.8901 -0.9056
  615MPD2    H2 9116   2.076   4.016  16.261 -0.6612 -0.9388  0.5736
  615MPD2    H3 9117   2.159   3.885  16.079 -0.2179  0.6475 -0.5037
  615MPD2     N 9118   1.793   3.917  15.833 -0.0319  0.2976  0.4130
  615MPD2    H5 9119   1.846   3.868  15.763 -1.3199  1.7442 -1.5808
  615MPD2    N1 9120   1.834   4.149  16.260  0.1244 -0.3356 -0.1931
  615MPD2    H7 9121   1.750   4.203  16.238  0.7710  1.1555  0.9696
  616TMC3    C1 9122   1.875   4.318  16.428  0.4627  0.1625 -0.3100
  616TMC3    C2 9123   1.876   4.422  16.335 -0.3623  0.4481 -0.1541
  616TMC3    C3 9124   1.910   4.548  16.375  0.0339 -0.5525  0.3594
  616TMC3    C4 9125   1.908   4.337  16.555 -0.1401 -0.5179  0.0480
  616TMC3    C5 9126   1.942   4.466  16.597  0.3722 -0.4821 -0.0205
  616TMC3    C6 9127   1.942   4.573  16.507 -0.6649 -0.2062  0.0308
  616TMC3     C 9128   1.901   4.180  16.377  0.1770 -0.0634 -0.5338
  616TMC3     O 9129   1.982   4.110  16.438 -0.7880 -0.0440 -0.2966
  616TMC3     H 9130   1.851   4.405  16.231 -1.4345  1.4855 -0.0626
  616TMC3    H1 9131   1.908   4.253  16.624  3.3047 -0.6318 -0.1114
  616TMC3    H2 9132   1.991   4.666  16.536 -1.8895  0.6101 -0.5252
  616TMC3    C7 9133   2.003   4.486  16.730 -0.6967  0.0351 -0.3530
  616TMC3    C8 9134   1.981   4.630  16.277  0.2569  0.4089  0.0079
  616TMC3    O1 9135   2.050   4.381  16.777 -0.3558 -0.7360 -0.0646
  616TMC3    O2 9136   1.937   4.638  16.164 -0.0581  0.6992  0.0480
  617MPD2     C 9137   4.535   2.534  14.132 -0.5825  0.5355  0.9538
  617MPD2    C1 9138   4.505   2.488  14.009  0.2019  0.4340 -0.7936
  617MPD2    C2 9139   4.379   2.420  13.985 -0.1352 -0.1097  0.6338
  617MPD2    C3 9140   4.292   2.396  14.088 -0.0235  0.4376 -0.7283
  617MPD2    C4 9141   4.331   2.429  14.214  0.2753 -0.4858  0.8058
  617MPD2    C5 9142   4.448   2.502  14.235  0.3465  0.3745 -0.4184
  617MPD2     H 9143   4.353   2.373  13.891 -0.2348 -0.5680  0.8882
  617MPD2    H1 9144   4.265   2.403  14.296 -1.2071 -0.6377 -0.4212
  617MPD2    H2 9145   4.625   2.591  14.152 -0.6839  0.8160  0.6077
  617MPD2    H3 9146   4.474   2.531  14.336 -2.4765  1.1588  0.0645
  617MPD2     N 9147   4.178   2.319  14.079  0.4830 -0.3174  0.2283
  617MPD2    H5 9148   4.139   2.295  14.170  0.1020  0.3682  0.2484
  617MPD2    N1 9149   4.604   2.500  13.910 -0.3644 -0.5147  0.7345
  617MPD2    H7 9150   4.702   2.509  13.932 -0.2698 -0.7375  0.4045
  618TMC3    C1 9151   4.706   2.448  13.699  0.1896 -0.3510  0.4038
  618TMC3    C2 9152   0.095   2.383  13.751 -0.7960  0.2378  0.1894
  618TMC3    C3 9153   0.180   2.309  13.668 -0.3210 -0.5049 -0.3596
  618TMC3    C4 9154   4.690   2.457  13.565 -0.4298 -0.1369  0.3444
  618TMC3    C5 9155   0.066   2.406  13.481 -0.1684 -0.0580  0.4102
  618TMC3    C6 9156   0.164   2.317  13.532 -0.3908 -0.7025 -0.9734
  618TMC3     C 9157   4.586   2.466  13.776 -0.2777  0.4653 -1.0467
  618TMC3     O 9158   4.478   2.470  13.714 -0.1849  0.0843 -0.4059
  618TMC3     H 9159   0.122   2.375  13.856 -2.7265 -0.6722  0.6145
  618TMC3    H1 9160   4.606   2.512  13.524  0.9309  0.4415 -1.7088
  618TMC3    H2 9161   0.230   2.265  13.463  1.4272 -2.8353  2.3998
  618TMC3    C7 9162   0.042   2.410  13.334  0.3065  0.3722 -0.0179
  618TMC3    C8 9163   0.285   2.232  13.718  1.0314  0.7579 -0.5924
  618TMC3    O1 9164   0.070   2.310  13.265  0.0605 -0.3992 -0.0702
  618TMC3    O2 9165   0.361   2.280  13.797 -0.2429  0.1326 -0.2997
  619MPD2     C 9166   1.248   3.203  13.848 -0.1499  0.1156  0.5794
  619MPD2    C1 9167   1.186   3.296  13.769  0.7446 -0.4521 -0.5109
  619MPD2    C2 9168   1.051   3.317  13.792  0.0682  0.1719  0.1961
  619MPD2    C3 9169   0.989   3.246  13.901  0.4489 -0.3771 -0.7906
  619MPD2    C4 9170   1.059   3.161  13.982  0.3170  0.4209  0.2732
  619MPD2    C5 9171   1.193   3.136  13.953  0.1409  0.3289 -0.2168
  619MPD2     H 9172   0.993   3.379  13.725  0.9479 -0.0082 -0.7324
  619MPD2    H1 9173   1.022   3.106  14.067 -0.9200 -0.2368 -0.6900
  619MPD2    H2 9174   1.352   3.176  13.832 -0.7582 -1.4329 -0.6963
  619MPD2    H3 9175   1.244   3.069  14.021  0.0385  0.6051  0.1301
  619MPD2     N 9176   0.854   3.274  13.933  1.0899 -1.5010 -0.1459
  619MPD2    H5 9177   0.815   3.221  14.011 -0.1270  0.3877  0.5286
  619MPD2    N1 9178   1.247   3.360  13.658 -0.1323 -0.5100 -0.3374
  619MPD2    H7 9179   1.181   3.416  13.606  0.7747  0.0836 -0.8474
  620TMC3    C1 9180   1.393   3.457  13.516 -0.2853 -0.3053 -0.0221
  620TMC3    C2 9181   1.307   3.458  13.419 -0.3530 -0.1101  0.0660
  620TMC3    C3 9182   1.324   3.542  13.312 -0.2085 -0.1565 -0.4305
  620TMC3    C4 9183   1.508   3.532  13.508 -0.2054 -0.3628  0.4646
  620TMC3    C5 9184   1.530   3.616  13.402  0.2330  0.4536  0.6386
  620TMC3    C6 9185   1.444   3.607  13.292  0.3452 -0.1811 -0.3683
  620TMC3     C 9186   1.381   3.378  13.633  0.5184 -0.4542  0.2627
  620TMC3     O 9187   1.467   3.363  13.719 -0.2265  0.3806  0.0972
  620TMC3     H 9188   1.233   3.379  13.418 -0.0716 -0.3891  1.8760
  620TMC3    H1 9189   1.580   3.537  13.589  0.4759  2.8949 -0.3714
  620TMC3    H2 9190   1.462   3.655  13.196  0.6041  1.1518  0.3529
  620TMC3    C7 9191   1.586   3.750  13.426  0.2683 -1.0171 -0.2623
  620TMC3    C8 9192   1.220   3.644  13.298  0.4195 -0.4399  0.0512
  620TMC3    O1 9193   1.673   3.761  13.510  0.8751  0.4325 -0.2876
  620TMC3    O2 9194   1.252   3.751  13.253 -0.4158  0.0093  0.4644
  621MPD2     C 9195   1.574   3.259   9.831 -0.6188  0.4297  0.0098
  621MPD2    C1 9196   1.641   3.257   9.952 -0.4502 -0.5587  0.0433
  621MPD2    C2 9197   1.723   3.357   9.980  0.8783 -0.4715 -0.0645
  621MPD2    C3 9198   1.745   3.459   9.889  0.0427 -0.2634 -0.0305
  621MPD2    C4 9199   1.685   3.456   9.762  0.9032  0.0834 -0.2116
  621MPD2    C5 9200   1.595   3.358   9.735 -0.1977 -0.4955 -0.1359
  621MPD2     H 9201   1.783   3.359  10.070  2.2082  0.6782 -0.9585
  621MPD2    H1 9202   1.696   3.534   9.687 -1.6098 -0.1892 -0.8670
  621MPD2    H2 9203   1.498   3.185   9.809 -0.9855  1.3198 -1.6634
  621MPD2    H3 9204   1.538   3.362   9.643 -0.6981  0.2048  0.2001
  621MPD2     N 9205   1.842   3.557   9.930 -0.4915  0.4788  0.3562
  621MPD2    H5 9206   1.879   3.549  10.024  0.9727 -0.6844 -0.3194
  621MPD2    N1 9207   1.620   3.156  10.048 -0.0379 -0.4690  0.0043
  621MPD2    H7 9208   1.670   3.171  10.135  0.3053  0.2868 -0.3219
  622TMC3    C1 9209   1.593   2.940  10.135 -0.2673  0.5467  0.7730
  622TMC3    C2 9210   1.591   2.987  10.262  0.1537  0.0325 -0.4617
  622TMC3    C3 9211   1.606   2.897  10.361  0.3154  0.4760 -0.4244
  622TMC3    C4 9212   1.595   2.803  10.110  0.1065  0.6799  0.1767
  622TMC3    C5 9213   1.623   2.717  10.212  0.7627 -0.6099  0.3495
  622TMC3    C6 9214   1.633   2.767  10.339  0.3662 -0.3198  0.1334
  622TMC3     C 9215   1.569   3.032  10.023 -0.0917 -0.0557  0.7101
  622TMC3     O 9216   1.485   3.005   9.934 -0.3640 -0.4079 -0.2363
  622TMC3     H 9217   1.558   3.088  10.285  2.2172  0.9921 -1.7069
  622TMC3    H1 9218   1.606   2.765  10.009 -1.6042  1.5215 -0.3382
  622TMC3    H2 9219   1.665   2.700  10.418 -0.5831 -1.1618 -0.1960
  622TMC3    C7 9220   1.618   2.574  10.191 -0.4037 -0.2238 -0.6366
  622TMC3    C8 9221   1.545   2.931  10.489  0.1307  0.9058 -0.0030
  622TMC3    O1 9222   1.691   2.506  10.258  0.6232 -0.3230 -0.0775
  622TMC3    O2 9223   1.602   2.893  10.589  0.3783 -0.2246  0.3511
  623MPD2     C 9224   0.345   4.002  16.034 -0.0441  0.3570 -0.2153
  623MPD2    C1 9225   0.352   4.121  16.109  0.1528 -0.6330 -0.3779
  623MPD2    C2 9226   0.474   4.155  16.174  0.2409  0.6213 -0.1810
  623MPD2    C3 9227   0.584   4.069  16.165  0.2369  0.4513  0.8292
  623MPD2    C4 9228   0.572   3.953  16.091 -0.4230  0.6759 -0.0940
  623MPD2    C5 9229   0.454   3.919  16.025 -0.3507  0.1630  0.1038
  623MPD2     H 9230   0.480   4.253  16.221  0.1294  1.3508 -1.6914
  623MPD2    H1 9231   0.657   3.887  16.078  0.0950  0.9542  1.9893
  623MPD2    H2 9232   0.260   3.976  15.972 -3.0592  3.8574  2.3821
  623MPD2    H3 9233   0.447   3.844  15.947 -1.5279  0.8345 -0.4586
  623MPD2     N 9234   0.689   4.092  16.252 -0.0720  0.8053 -0.6547
  623MPD2    H5 9235   0.677   4.172  16.313  0.0739  0.9451 -0.8091
  623MPD2    N1 9236   0.253   4.222  16.106 -0.3712  0.5121  0.1032
  623MPD2    H7 9237   0.252   4.292  16.181 -0.5552 -0.0047  0.5818
  624TMC3    C1 9238   1.005   4.047  16.573 -0.0489  0.5682  0.1624
  624TMC3    C2 9239   0.920   4.102  16.661 -0.6117  0.8364  0.4420
  624TMC3    C3 9240   0.792   4.125  16.621 -0.1272 -0.2982  0.1329
  624TMC3    C4 9241   0.966   4.007  16.447 -0.5166  0.0362 -0.1795
  624TMC3    C5 9242   0.838   4.025  16.411 -0.4170  0.0411 -0.0617
  624TMC3    C6 9243   0.747   4.082  16.497 -0.5735 -0.2452 -0.8258
  624TMC3     C 9244   1.146   4.016  16.612  0.3393  0.4419 -0.2425
  624TMC3     O 9245   1.168   4.057  16.723 -0.0325 -0.1813 -0.0962
  624TMC3     H 9246   0.961   4.125  16.759  1.1565 -0.0360 -0.0828
  624TMC3    H1 9247   1.035   3.970  16.372 -1.6052 -0.3291 -1.0017
  624TMC3    H2 9248   0.641   4.081  16.472 -0.4248 -1.8581 -1.3993
  624TMC3    C7 9249   0.798   4.014  16.280  0.0622  0.2616 -0.0176
  624TMC3    C8 9250   0.706   4.198  16.715  0.3695 -0.2029  0.1380
  624TMC3    O1 9251   0.847   3.925  16.212 -0.1488  0.4697 -0.7467
  624TMC3    O2 9252   0.760   4.263  16.803 -0.4817  0.3184 -0.1844
  625MPD2     C 9253   0.649   0.499   0.322 -0.0603 -0.2080  0.0041
  625MPD2    C1 9254   0.742   0.593   0.362  0.0477  1.1727 -0.0889
  625MPD2    C2 9255   0.826   0.557   0.465 -0.2315 -0.4451 -0.3005
  625MPD2    C3 9256   0.817   0.434   0.525  0.4749 -0.3249 -0.0652
  625MPD2    C4 9257   0.721   0.343   0.492  0.6078  0.9344  0.2353
  625MPD2    C5 9258   0.641   0.376   0.388 -0.1702 -0.3225  0.2888
  625MPD2     H 9259   0.911   0.623   0.479  0.2678 -0.8172 -1.5148
  625MPD2    H1 9260   0.718   0.242   0.531  0.0950  0.3191 -1.3781
  625MPD2    H2 9261   0.559   0.522   0.264 -0.0523 -0.7574 -0.2264
  625MPD2    H3 9262   0.565   0.304   0.362 -0.0935 -1.3221  2.8651
  625MPD2     N 9263   0.926   0.408   0.615  0.3731 -0.8365 -0.1993
  625MPD2    H5 9264   1.000   0.477   0.625 -2.6283  2.3595 -0.0706
  625MPD2    N1 9265   0.754   0.723   0.307  1.1572 -0.4997 -0.2109
  625MPD2    H7 9266   0.821   0.780   0.358  0.4285 -1.5117  1.8484
  626TMC3    C1 9267   0.703   0.913   0.189 -0.2365  0.1969 -0.0077
  626TMC3    C2 9268   0.673   0.964   0.066  0.1226  0.2200  0.1473
  626TMC3    C3 9269   0.679   1.094   0.053  0.6161 -0.0108  0.5612
  626TMC3    C4 9270   0.737   0.994   0.293  0.3365 -0.4715  0.3383
  626TMC3    C5 9271   0.745   1.133   0.271  0.1204 -0.3275 -0.1827
  626TMC3    C6 9272   0.726   1.183   0.144 -0.6514  0.6363 -0.1742
  626TMC3     C 9273   0.668   0.774   0.220  0.4858 -0.1010  0.2169
  626TMC3     O 9274   0.589   0.715   0.146 -0.0544 -0.2641  0.3258
  626TMC3     H 9275   0.624   0.907  17.680 -0.8348  0.7131  0.3869
  626TMC3    H1 9276   0.746   0.953   0.393 -0.3322 -1.4984 -0.0186
  626TMC3    H2 9277   0.744   1.289   0.130 -0.2418  0.4410 -1.0857
  626TMC3    C7 9278   0.690   1.228   0.372  0.3074  0.7534  0.1257
  626TMC3    C8 9279   0.582   1.158  17.656  0.5314 -0.3640  0.1381
  626TMC3    O1 9280   0.620   1.309   0.319  0.0470  0.3571 -0.8240
  626TMC3    O2 9281   0.567   1.119  17.544  0.1429 -0.5750  0.0999
  627MPD2     C 9282   4.715   1.061  14.067 -0.3762 -0.6021  0.8702
  627MPD2    C1 9283   4.635   1.053  14.186 -0.4787  0.3432  0.5289
  627MPD2    C2 9284   4.540   0.954  14.196 -0.6696  0.2143 -0.4958
  627MPD2    C3 9285   4.524   0.858  14.101  0.5293  0.4462 -0.3625
  627MPD2    C4 9286   4.600   0.864  13.983 -0.4065  0.1957 -0.0640
  627MPD2    C5 9287   4.686   0.969  13.969 -0.3814 -0.1454  0.3252
  627MPD2     H 9288   4.471   0.949  14.279 -2.4122  0.3382 -1.9507
  627MPD2    H1 9289   4.592   0.788  13.907  1.1819 -0.7844  0.7600
  627MPD2    H2 9290   0.057   1.147  14.063 -2.2084  0.8451  2.2230
  627MPD2    H3 9291   0.018   0.980  13.876  0.8790 -0.0711  1.0712
  627MPD2     N 9292   4.427   0.752  14.126 -0.1586 -0.1562 -0.1237
  627MPD2    H5 9293   4.377   0.767  14.213 -1.2302  0.5771 -0.8835
  627MPD2    N1 9294   4.662   1.145  14.294  0.2816  0.5355  0.2019
  627MPD2    H7 9295   0.018   1.208  14.279  0.7086  0.1649  0.8732
  628TMC3    C1 9296   4.640   1.237  14.501 -0.0354 -0.7902  0.6173
  628TMC3    C2 9297   4.680   1.166  14.612  0.1069 -0.6577 -0.2063
  628TMC3    C3 9298   4.651   1.212  14.739  0.9639 -0.3902 -0.8498
  628TMC3    C4 9299   4.568   1.349  14.520  0.1993 -0.3728 -0.5119
  628TMC3    C5 9300   4.536   1.398  14.643 -0.1909 -0.5553  1.3444
  628TMC3    C6 9301   4.584   1.329  14.754  0.3164  0.1313 -0.1641
  628TMC3     C 9302   4.592   1.140  14.413 -0.1475 -0.0215  0.3959
  628TMC3     O 9303   4.516   1.055  14.463  0.3682  0.0898  0.2176
  628TMC3     H 9304   4.715   1.065  14.594  1.6572 -0.1456 -0.0871
  628TMC3    H1 9305   4.517   1.388  14.433  1.8987 -0.6188 -1.6095
  628TMC3    H2 9306   4.536   1.332  14.852 -0.1039  0.7462 -0.3910
  628TMC3    C7 9307   4.411   1.481  14.660 -0.2034 -0.1272 -0.1366
  628TMC3    C8 9308   4.641   1.122  14.848  0.1588 -0.5072 -0.5749
  628TMC3    O1 9309   4.358   1.468  14.770 -0.1032  0.6708  0.3095
  628TMC3    O2 9310   4.535   1.122  14.911 -0.3822  0.4393  0.1029
  629MPD2     C 9311   2.435   0.073  16.097  0.0941  0.0151 -0.2536
  629MPD2    C1 9312   2.460   0.038  16.226 -0.2378 -0.9411  0.5760
  629MPD2    C2 9313   2.352   4.712  16.298  1.0406 -0.6540 -1.0679
  629MPD2    C3 9314   2.227   4.680  16.240  0.2736 -0.4588 -0.0122
  629MPD2    C4 9315   2.209   4.701  16.105 -0.3120  0.2875 -0.2484
  629MPD2    C5 9316   2.316   0.036  16.035  0.2599 -0.1459  0.1135
  629MPD2     H 9317   2.361   4.691  16.404 -2.5116 -1.3738 -0.8975
  629MPD2    H1 9318   2.120   4.677  16.048 -0.0854  0.5346 -0.7133
  629MPD2    H2 9319   2.515   0.114  16.036 -0.0533  0.6920  0.0141
  629MPD2    H3 9320   2.310   0.055  15.928  0.5640  1.8568  0.4427
  629MPD2     N 9321   2.114   4.648  16.325  0.9234 -0.2301  0.4599
  629MPD2    H5 9322   2.128   4.622  16.422 -0.0126  0.1299  0.6982
  629MPD2    N1 9323   2.596   0.051  16.267  0.0695  0.0314 -0.0381
  629MPD2    H7 9324   2.664   0.074  16.195  1.2977 -0.4855  0.9431
  630TMC3    C1 9325   2.780   0.061  16.414 -0.4058 -0.5187 -0.2236
  630TMC3    C2 9326   2.842   0.161  16.342 -0.2071  0.6334  0.5618
  630TMC3    C3 9327   2.978   0.176  16.352 -0.2887  0.6722  0.1894
  630TMC3    C4 9328   2.847   0.000  16.519 -0.8478  0.4365  0.0351
  630TMC3    C5 9329   2.974   0.037  16.539 -0.3013 -0.1691 -0.1157
  630TMC3    C6 9330   3.046   0.106  16.449 -0.9393 -0.2117  0.3639
  630TMC3     C 9331   2.635   0.036  16.395  0.1255 -0.4799  0.0538
  630TMC3     O 9332   2.574   4.710  16.491 -0.5126 -0.5134 -0.2600
  630TMC3     H 9333   2.786   0.220  16.270 -0.6684 -2.2763 -1.4847
  630TMC3    H1 9334   2.793   4.664  16.592  0.3589 -0.4249  0.2348
  630TMC3    H2 9335   3.152   0.125  16.464 -0.6675  1.4264 -3.7902
  630TMC3    C7 9336   3.033   0.019  16.666 -0.5058  0.5833 -0.4703
  630TMC3    C8 9337   3.034   0.311  16.316 -0.3783  0.5724  1.3946
  630TMC3    O1 9338   2.988   4.644  16.723  0.6422  0.1323  0.3931
  630TMC3    O2 9339   3.140   0.329  16.371 -0.0040  0.2724 -0.2375
  631MPD2     C 9340   0.910   4.195  15.441  0.0138  0.3920  0.5639
  631MPD2    C1 9341   1.035   4.262  15.433 -0.4030  0.6861 -0.0982
  631MPD2    C2 9342   1.149   4.184  15.451  0.5889  0.1605  0.7837
  631MPD2    C3 9343   1.142   4.056  15.478  0.3633  0.1452  0.1853
  631MPD2    C4 9344   1.020   3.991  15.494  0.2538  0.2488  0.0407
  631MPD2    C5 9345   0.904   4.061  15.469 -0.5167 -0.4588 -0.2253
  631MPD2     H 9346   1.249   4.226  15.449  0.5080  0.3159  0.1891
  631MPD2    H1 9347   1.018   3.883  15.502 -2.2659  0.3515  0.6356
  631MPD2    H2 9348   0.819   4.253  15.433 -0.7738 -0.7054  1.5741
  631MPD2    H3 9349   0.811   4.006  15.476 -0.5057 -0.4734 -0.1933
  631MPD2     N 9350   1.269   3.990  15.497 -0.5692 -0.2939  0.4782
  631MPD2    H5 9351   1.348   4.043  15.460 -1.0168  0.0270 -0.0199
  631MPD2    N1 9352   1.032   4.395  15.399 -0.2886 -0.2002 -0.5741
  631MPD2    H7 9353   0.942   4.441  15.403 -0.6213 -1.1637  3.3891
  632TMC3    C1 9354   1.129   4.612  15.369  0.3748 -0.1080  0.5183
  632TMC3    C2 9355   1.038   4.668  15.449 -0.4980 -0.2051 -0.2197
  632TMC3    C3 9356   1.029   0.083  15.448 -0.3867 -0.0667 -0.0167
  632TMC3    C4 9357   1.219   4.687  15.291 -0.1190 -0.4148  0.3939
  632TMC3    C5 9358   1.208   0.105  15.298  0.5519 -0.3572 -0.7193
  632TMC3    C6 9359   1.116   0.162  15.381 -0.1497 -0.2379 -1.1215
  632TMC3     C 9360   1.149   4.469  15.371 -0.0316  0.6593  0.1099
  632TMC3     O 9361   1.258   4.418  15.343  0.3322  0.1706  0.2758
  632TMC3     H 9362   0.978   4.607  15.515  1.1243  0.7839  2.1698
  632TMC3    H1 9363   1.296   4.637  15.235 -0.1439  2.3356 -2.1068
  632TMC3    H2 9364   1.104   0.268  15.362 -0.5109 -0.2467 -0.9422
  632TMC3    C7 9365   1.229   0.164  15.169  0.7321 -0.3554 -0.8666
  632TMC3    C8 9366   0.928   0.137  15.535 -0.6329  0.1271 -0.0067
  632TMC3    O1 9367   1.205   0.091  15.074 -0.3480 -0.6374 -0.0375
  632TMC3    O2 9368   0.836   0.059  15.564  0.0736 -0.3611 -0.3046
  633MPD2     C 9369   0.774   2.734  17.284 -0.0784  1.0498  0.2828
  633MPD2    C1 9370   0.756   2.689  17.155  0.9617 -0.4557  0.5079
  633MPD2    C2 9371   0.741   2.557  17.144  0.0989 -0.0178  0.4208
  633MPD2    C3 9372   0.749   2.468  17.250 -0.5737 -0.5183  0.4810
  633MPD2    C4 9373   0.788   2.517  17.373 -0.0566  0.4014  0.0398
  633MPD2    C5 9374   0.795   2.649  17.388  0.2615 -0.5874 -0.3993
  633MPD2     H 9375   0.720   2.518  17.045  1.6588 -2.1377  0.9281
  633MPD2    H1 9376   0.797   2.453  17.460 -0.1062 -0.2329 -0.4238
  633MPD2    H2 9377   0.789   2.838  17.311 -1.2502  1.5315 -0.9079
  633MPD2    H3 9378   0.811   2.676  17.492  3.3338 -1.3623 -0.6821
  633MPD2     N 9379   0.753   2.325  17.228 -0.2195 -0.4305 -0.2216
  633MPD2    H5 9380   0.772   2.267  17.310 -0.8481  0.0905  0.2968
  633MPD2    N1 9381   0.762   2.769  17.035  0.4039  0.4055 -0.0845
  633MPD2    H7 9382   0.744   2.724  16.946  2.3695  0.0655 -0.3095
  634TMC3    C1 9383   0.792   2.945  16.897  0.1329 -0.5370  0.2449
  634TMC3    C2 9384   0.842   2.864  16.799  0.4263  0.6962 -0.0558
  634TMC3    C3 9385   0.849   2.917  16.674  0.3221 -0.4050  0.5966
  634TMC3    C4 9386   0.750   3.075  16.879  0.5919  0.1927 -0.5686
  634TMC3    C5 9387   0.748   3.114  16.750  0.2562 -0.0212 -0.6562
  634TMC3    C6 9388   0.798   3.044  16.643  0.2283  0.0439  0.0641
  634TMC3     C 9389   0.794   2.899  17.032  0.3371 -0.2954 -0.5802
  634TMC3     O 9390   0.826   2.975  17.124 -0.5316  0.1842  0.7033
  634TMC3     H 9391   0.877   2.764  16.820  0.8356  1.3851  2.4630
  634TMC3    H1 9392   0.718   3.139  16.961  2.7612 -0.5517  0.8532
  634TMC3    H2 9393   0.797   3.086  16.543  0.1282  2.7195  1.1963
  634TMC3    C7 9394   0.688   3.244  16.726 -0.3758 -0.0773  0.4099
  634TMC3    C8 9395   0.902   2.830  16.571 -0.0033  0.1569  0.0854
  634TMC3    O1 9396   0.723   3.330  16.810  0.0422  0.3529  0.6736
  634TMC3    O2 9397   0.878   2.711  16.591 -0.0001  0.8285 -0.0664
  635TMC3    C1 9398   1.810   3.592  16.781 -0.3295  0.7970  0.1532
  635TMC3    C2 9399   1.874   3.470  16.781  0.3054 -0.5870 -0.2953
  635TMC3    C3 9400   1.833   3.375  16.681 -0.7263  0.4315 -0.2559
  635TMC3    C4 9401   1.715   3.625  16.686  0.1094 -0.1112  0.3927
  635TMC3    C5 9402   1.686   3.530  16.588  0.1339 -0.4725 -0.2841
  635TMC3    C6 9403   1.739   3.402  16.582 -0.4583 -0.4163  0.5939
  635TMC3     C 9404   1.809   3.669  16.908 -0.3338  0.2137  0.1772
  635TMC3     O 9405   1.697   3.698  16.954  0.3970  0.2560  0.1690
  635TMC3     H 9406   1.949   3.443  16.855  0.0448 -1.0993 -0.2183
  635TMC3    H1 9407   1.679   3.727  16.693  0.9204  0.1251  0.9975
  635TMC3    H2 9408   1.695   3.322  16.524  0.6707 -0.1681 -0.5971
  635TMC3    C7 9409   1.571   3.537  16.511 -0.0876 -0.0976  0.5920
  635TMC3    C8 9410   1.880   3.241  16.695  0.3445  0.4511 -0.0207
  635TMC3    O1 9411   1.572   3.486  16.397  0.5528  0.2513 -0.4596
  635TMC3    O2 9412   1.946   3.202  16.792 -0.0463 -0.4035 -0.5352
  636MPD2     C 9413   2.347   2.841  15.590  0.3012 -0.3833  0.0839
  636MPD2    C1 9414   2.353   2.881  15.724  0.1255  0.8521  0.1971
  636MPD2    C2 9415   2.380   2.787  15.819  0.8832  0.2284 -0.1460
  636MPD2    C3 9416   2.424   2.664  15.787  0.5550  0.3990  0.0606
  636MPD2    C4 9417   2.434   2.627  15.657 -0.5830 -0.3448 -0.3243
  636MPD2    C5 9418   2.380   2.711  15.567  0.2059  0.5360 -0.4772
  636MPD2     H 9419   2.382   2.810  15.925  1.9425 -1.2250  0.1452
  636MPD2    H1 9420   2.454   2.526  15.623  1.1146  0.7092 -2.4258
  636MPD2    H2 9421   2.307   2.902  15.510 -0.0200 -0.4228  0.2156
  636MPD2    H3 9422   2.375   2.686  15.462  1.8294 -1.0081 -0.1929
  636MPD2     N 9423   2.471   2.585  15.892 -0.2393 -0.2509 -0.6218
  636MPD2    H5 9424   2.469   2.620  15.987 -0.6975 -2.3982  0.1569
  636MPD2    N1 9425   2.316   3.005  15.776  0.1402 -0.1150  0.8008
  636MPD2    H7 9426   2.326   3.019  15.876  0.2740 -0.9399  0.9023
  637TMC3    C1 9427   2.598   2.446  16.008 -0.2647 -0.1164  0.5787
  637TMC3    C2 9428   2.528   2.502  16.115  0.2737  1.1017  0.2004
  637TMC3    C3 9429   2.594   2.549  16.227  0.0021 -0.3867 -0.3183
  637TMC3    C4 9430   2.736   2.428  16.021 -0.5426  0.2972 -1.0997
  637TMC3    C5 9431   2.799   2.481  16.134  0.0527  0.2535  0.2640
  637TMC3    C6 9432   2.727   2.537  16.233  0.0273 -0.2655  0.4256
  637TMC3     C 9433   2.541   2.466  15.884 -0.8768 -0.8756  0.2972
  637TMC3     O 9434   2.581   2.411  15.786 -0.2196 -0.3280 -0.3466
  637TMC3     H 9435   2.420   2.493  16.121  0.2761  1.0527  0.1685
  637TMC3    H1 9436   2.786   2.402  15.928 -1.1121  1.9303 -1.8740
  637TMC3    H2 9437   2.775   2.586  16.317  3.0876 -2.5671  0.0342
  637TMC3    C7 9438   2.922   2.559  16.107 -0.1519  0.4018  0.4917
  637TMC3    C8 9439   2.539   2.680  16.256 -0.1850  0.2571  0.4655
  637TMC3    O1 9440   2.957   2.638  16.193 -0.4815  0.4531  0.3819
  637TMC3    O2 9441   2.490   2.738  16.160  0.2782  0.0409  0.3009
  638MPD2     C 9442   1.937   1.882  15.158  0.5179 -0.0482 -0.4134
  638MPD2    C1 9443   1.886   1.813  15.050  0.2287  0.2929 -0.4269
  638MPD2    C2 9444   1.875   1.679  15.051  0.6227 -0.2486  0.0527
  638MPD2    C3 9445   1.916   1.610  15.159  0.2781  0.3570  0.1400
  638MPD2    C4 9446   1.954   1.670  15.276 -0.2390 -0.6590 -0.3532
  638MPD2    C5 9447   1.972   1.810  15.270 -0.2845 -0.3893 -0.1455
  638MPD2     H 9448   1.823   1.632  14.969  2.6984 -1.3954 -0.6154
  638MPD2    H1 9449   1.983   1.617  15.366 -0.9416 -0.4732 -0.0164
  638MPD2    H2 9450   1.964   1.986  15.150  0.7616 -0.0124  1.0360
  638MPD2    H3 9451   2.008   1.864  15.356 -0.6925 -0.9406  0.3672
  638MPD2     N 9452   1.907   1.468  15.144  0.2470 -0.1526 -0.3286
  638MPD2    H5 9453   1.871   1.417  15.063  2.3896 -1.3996 -0.5226
  638MPD2    N1 9454   1.864   1.876  14.920 -1.0296 -0.4172  0.7628
  638MPD2    H7 9455   1.864   1.822  14.834 -1.2841 -0.5643  0.8549
  639TMC3    C1 9456   1.940   1.244  15.198  0.3434  0.3016  0.8535
  639TMC3    C2 9457   1.829   1.216  15.123  0.3736  0.5870 -0.2778
  639TMC3    C3 9458   1.853   1.121  15.034 -0.0692  0.0704 -0.2443
  639TMC3    C4 9459   2.048   1.171  15.206  0.5959 -0.0013 -0.4991
  639TMC3    C5 9460   2.059   1.061  15.128  0.3305  0.3596  0.1137
  639TMC3    C6 9461   1.959   1.038  15.032 -0.3789 -0.2328  1.0858
  639TMC3     C 9462   1.967   1.380  15.236 -0.5346  0.1260  0.3355
  639TMC3     O 9463   2.043   1.394  15.333 -0.6366 -0.0506  0.0214
  639TMC3     H 9464   1.736   1.271  15.122 -1.3028 -2.2123  3.2387
  639TMC3    H1 9465   2.129   1.195  15.274  2.3016 -2.0169 -1.8009
  639TMC3    H2 9466   1.969   0.965  14.952  0.5567  1.4869 -0.3664
  639TMC3    C7 9467   2.192   1.043  15.077 -0.0939 -0.0369 -0.1490
  639TMC3    C8 9468   1.761   1.086  14.922  0.0043 -0.3340 -0.1256
  639TMC3    O1 9469   2.258   1.142  15.060  0.3780  0.1455  0.7921
  639TMC3    O2 9470   1.810   1.073  14.816  0.4090 -0.2337 -0.7736
  640MPD2     C 9471   1.671   0.101  10.181  0.5398  0.4612 -0.7212
  640MPD2    C1 9472   1.624   0.097  10.050 -0.5923  0.0438  0.1167
  640MPD2    C2 9473   1.508   0.161  10.017 -0.3189  0.0080  0.1843
  640MPD2    C3 9474   1.452   0.249  10.109 -0.5999  0.6433  0.0067
  640MPD2    C4 9475   1.506   0.265  10.239  0.1993 -0.5923 -0.5885
  640MPD2    C5 9476   1.610   0.176  10.274 -0.3145 -0.1325  0.2884
  640MPD2     H 9477   1.474   0.171   9.915  1.1570  0.2204 -0.2912
  640MPD2    H1 9478   1.466   0.334  10.312  2.4553  0.6780 -0.5516
  640MPD2    H2 9479   1.762   0.054  10.214 -0.1291 -0.3694 -0.0582
  640MPD2    H3 9480   1.657   0.172  10.372  1.2992  0.3267 -0.4687
  640MPD2     N 9481   1.345   0.338  10.069  0.9412  0.2751  0.0622
  640MPD2    H5 9482   1.328   0.415  10.133  0.5906  1.4207 -1.4011
  640MPD2    N1 9483   1.706   0.025   9.957 -0.2643  0.3158  0.4291
  640MPD2    H7 9484   1.790   4.703   9.994 -0.9625 -0.4228  1.1493
  641TMC3    C1 9485   1.811   4.688   9.750  0.3952 -0.0929 -0.7448
  641TMC3    C2 9486   1.893   4.598   9.809  0.3174 -0.4379 -0.1070
  641TMC3    C3 9487   2.000   4.563   9.729 -0.4814 -0.4527 -0.3549
  641TMC3    C4 9488   1.828   0.020   9.623 -1.0193  0.1846  0.0839
  641TMC3    C5 9489   1.924   4.689   9.546 -0.4181  0.3216  0.6103
  641TMC3    C6 9490   2.015   4.611   9.603  0.7143 -0.2054  0.0330
  641TMC3     C 9491   1.694   0.008   9.821 -0.0104 -0.2008 -0.5947
  641TMC3     O 9492   1.597   0.035   9.750 -0.3218  0.6405 -0.0195
  641TMC3     H 9493   1.885   4.554   9.908 -0.3887 -0.7946 -0.3192
  641TMC3    H1 9494   1.753   0.083   9.578 -1.1286 -1.0565 -1.4442
  641TMC3    H2 9495   2.095   4.575   9.538  2.1611  0.3457  1.5143
  641TMC3    C7 9496   1.946   0.034   9.415  0.1151 -0.0597 -0.4279
  641TMC3    C8 9497   2.102   4.462   9.765  0.3085  0.5180 -0.1428
  641TMC3    O1 9498   1.869   0.117   9.383  0.3369 -0.1089  0.6671
  641TMC3    O2 9499   2.174   4.422   9.673 -0.4632  0.0579  0.3798
  642TMC3    C1 9500   3.375   1.548  12.128 -0.3965  0.6198 -0.4056
  642TMC3    C2 9501   3.509   1.543  12.113  0.2092  0.0527 -0.1986
  642TMC3    C3 9502   3.569   1.424  12.096 -0.2514  0.0326 -0.0915
  642TMC3    C4 9503   3.304   1.434  12.132 -0.1059  0.1607  0.3410
  642TMC3    C5 9504   3.363   1.316  12.116  0.2361 -0.4111 -0.4089
  642TMC3    C6 9505   3.496   1.311  12.087  0.4810 -0.4080  0.0095
  642TMC3     C 9506   3.326   1.680  12.117  0.5044  0.4760 -0.4779
  642TMC3     O 9507   3.391   1.760  12.045 -0.0673  0.8229  0.1878
  642TMC3     H 9508   3.556   1.641  12.114  0.2932  0.0346 -1.2996
  642TMC3    H1 9509   3.198   1.444  12.151 -0.3983 -1.4882 -0.3968
  642TMC3    H2 9510   3.544   1.215  12.074  1.2368 -0.1487  0.9631
  642TMC3    C7 9511   3.291   1.194  12.145 -0.0944 -0.1726 -0.1308
  642TMC3    C8 9512   3.712   1.412  12.119 -0.2176  0.1392 -0.0486
  642TMC3    O1 9513   3.326   1.092  12.088  0.1425  0.2870  0.2754
  642TMC3    O2 9514   3.763   1.299  12.125 -0.0091 -0.3069 -0.2515
  643TMC3    C1 9515   2.555   0.798   0.028  0.1765 -0.5937 -0.0007
  643TMC3    C2 9516   2.434   0.815  17.663 -0.4525 -0.4058  0.9805
  643TMC3    C3 9517   2.383   0.717  17.587  0.5002 -0.2867 -0.0423
  643TMC3    C4 9518   2.638   0.687   0.006  0.3679  0.2960  0.2207
  643TMC3    C5 9519   2.574   0.584  17.628 -0.7479 -0.3984  0.0947
  643TMC3    C6 9520   2.447   0.595  17.578 -0.1165  0.0669 -0.0912
  643TMC3     C 9521   2.585   0.896   0.129  0.1049  0.8261  0.1576
  643TMC3     O 9522   2.535   1.008   0.120 -0.4689 -0.1339  0.7056
  643TMC3     H 9523   2.369   0.896   0.005  1.9166  1.6887  0.4673
  643TMC3    H1 9524   2.728   0.683   0.067 -0.4719  2.1392  1.5998
  643TMC3    H2 9525   2.399   0.518  17.520 -1.2154  0.1333  0.7293
  643TMC3    C7 9526   2.664   0.548  17.523 -0.2511 -0.0614 -0.0979
  643TMC3    C8 9527   2.293   0.753  17.473  0.6741 -0.5016  0.4474
  643TMC3    O1 9528   2.765   0.618  17.516 -0.0728  0.0820  0.3160
  643TMC3    O2 9529   2.290   0.654  17.401  0.0374  0.0306 -0.0250
  644MPD2     C 9530   1.938   0.368  10.039 -0.7724 -0.6306  0.0357
  644MPD2    C1 9531   1.968   0.327   9.909 -0.3793  0.0486  0.5336
  644MPD2    C2 9532   1.869   0.338   9.812  0.6001 -0.0321  0.2796
  644MPD2    C3 9533   1.744   0.387   9.842 -0.6701 -0.4163  0.1882
  644MPD2    C4 9534   1.716   0.436   9.969 -0.9840  0.1333 -0.0147
  644MPD2    C5 9535   1.818   0.431  10.068 -0.0176 -0.1536  0.1771
  644MPD2     H 9536   1.896   0.305   9.713  2.9614  1.5681  0.3955
  644MPD2    H1 9537   1.625   0.476  10.012  0.0313  0.8517  1.4793
  644MPD2    H2 9538   2.012   0.362  10.117 -1.1027 -1.8248  0.2630
  644MPD2    H3 9539   1.801   0.464  10.170  1.1485  1.1025 -0.0438
  644MPD2     N 9540   1.649   0.384   9.744  0.2806  0.0400 -0.2624
  644MPD2    H5 9541   1.662   0.330   9.660  0.3509  0.0631 -0.2669
  644MPD2    N1 9542   2.091   0.260   9.888 -0.0080  0.1216 -0.6846
  644MPD2    H7 9543   2.153   0.260   9.968 -2.1962  1.4448  0.9847
  645TMC3    C1 9544   1.435   0.414   9.657 -0.0829  0.1071 -0.1100
  645TMC3    C2 9545   1.331   0.502   9.645  0.0915 -0.1852  0.4897
  645TMC3    C3 9546   1.228   0.459   9.574 -0.6100  0.1212  0.0012
  645TMC3    C4 9547   1.427   0.285   9.612  0.5738  0.1051  0.2631
  645TMC3    C5 9548   1.315   0.249   9.541 -0.6129  0.2134 -0.6430
  645TMC3    C6 9549   1.208   0.328   9.530 -0.4211 -0.0429  0.1939
  645TMC3     C 9550   1.536   0.456   9.745 -0.0731  0.5709 -0.2866
  645TMC3     O 9551   1.510   0.551   9.814  0.7264  0.0831 -0.5289
  645TMC3     H 9552   1.331   0.605   9.677  1.6649 -0.5843  1.8093
  645TMC3    H1 9553   1.515   0.222   9.601  1.3136  0.6795  2.8495
  645TMC3    H2 9554   1.117   0.284   9.491 -1.8274  0.7401  2.6104
  645TMC3    C7 9555   1.310   0.136   9.446 -0.1555  0.3303 -0.1084
  645TMC3    C8 9556   1.131   0.560   9.536  0.4134  0.0095 -0.6264
  645TMC3    O1 9557   1.217   0.129   9.362 -0.1588 -0.0047 -0.2036
  645TMC3    O2 9558   1.151   0.673   9.582  0.2218  0.0281  0.1219
  646MPD2     C 9559   2.204   0.805  14.275 -0.1868 -0.0896 -0.7439
  646MPD2    C1 9560   2.115   0.713  14.305 -0.2136  0.2834 -0.3248
  646MPD2    C2 9561   1.989   0.739  14.279 -0.2950 -0.0141  0.1632
  646MPD2    C3 9562   1.942   0.854  14.220  0.2324  0.4475 -0.6765
  646MPD2    C4 9563   2.033   0.958  14.202  0.8923  0.2551  0.6239
  646MPD2    C5 9564   2.166   0.933  14.235  0.2266 -0.6909 -0.1099
  646MPD2     H 9565   1.912   0.664  14.295  0.5471 -0.7940  0.5799
  646MPD2    H1 9566   1.992   1.053  14.170 -0.2257 -0.4503 -0.0339
  646MPD2    H2 9567   2.305   0.784  14.309  0.1323  0.6994 -1.1803
  646MPD2    H3 9568   2.230   1.020  14.232 -0.4065 -0.1572  1.8440
  646MPD2     N 9569   1.802   0.876  14.205  0.1001 -0.2511 -0.3164
  646MPD2    H5 9570   1.747   0.798  14.239 -2.7686  3.4363  3.5642
  646MPD2    N1 9571   2.141   0.594  14.372  0.0723 -0.1359 -0.6953
  646MPD2    H7 9572   2.073   0.520  14.360 -2.1719  1.8435 -0.0502
  647TMC3    C1 9573   2.298   0.439  14.468  0.4636 -0.1974 -0.2516
  647TMC3    C2 9574   2.223   0.325  14.444 -0.3165  0.3985 -0.9957
  647TMC3    C3 9575   2.265   0.198  14.480  0.5913  0.5523 -0.1093
  647TMC3    C4 9576   2.428   0.416  14.517  0.4919  0.9196  0.3007
  647TMC3    C5 9577   2.467   0.292  14.539 -0.0103 -0.7138  0.6399
  647TMC3    C6 9578   2.387   0.180  14.526 -0.4860  0.0733  0.3152
  647TMC3     C 9579   2.255   0.573  14.446 -0.0830  0.4775  0.3241
  647TMC3     O 9580   2.333   0.654  14.497  0.0391  0.3956  0.7008
  647TMC3     H 9581   2.119   0.339  14.418 -0.2933  0.0159 -1.2981
  647TMC3    H1 9582   2.481   0.501  14.559  0.8251  1.2451 -0.7702
  647TMC3    H2 9583   2.430   0.083  14.546 -0.2979 -0.1918 -1.4372
  647TMC3    C7 9584   2.605   0.276  14.587  0.2729 -0.0264  0.9244
  647TMC3    C8 9585   2.166   0.096  14.493 -0.0606  0.2018  0.2556
  647TMC3    O1 9586   2.635   0.174  14.642  0.5197  0.2533 -0.5394
  647TMC3    O2 9587   2.065   0.100  14.418 -0.2225  0.4350 -0.7940
  648TMC3    C1 9588   1.272   2.488  15.732 -0.0029  0.2776  0.3221
  648TMC3    C2 9589   1.287   2.369  15.664  0.0377 -0.4664  0.3030
  648TMC3    C3 9590   1.277   2.383  15.527  0.2267 -0.3681 -0.0414
  648TMC3    C4 9591   1.237   2.610  15.668  0.4713 -0.6453  0.2075
  648TMC3    C5 9592   1.228   2.612  15.531  0.1158 -0.1159 -0.2794
  648TMC3    C6 9593   1.255   2.499  15.459 -0.2268  0.8232 -0.4687
  648TMC3     C 9594   1.314   2.511  15.872  0.0292 -0.0332 -0.3960
  648TMC3     O 9595   1.338   2.625  15.901 -0.3326  0.1771  0.4412
  648TMC3     H 9596   1.336   2.279  15.699  0.2823 -0.6073 -0.3974
  648TMC3    H1 9597   1.208   2.698  15.724  0.8923  0.6216 -1.5486
  648TMC3    H2 9598   1.260   2.487  15.351  0.8770 -1.7588 -0.1298
  648TMC3    C7 9599   1.113   2.680  15.470  0.1626 -0.4148  0.4527
  648TMC3    C8 9600   1.301   2.270  15.446 -0.5472 -0.8609 -0.3686
  648TMC3    O1 9601   1.076   2.635  15.360 -0.0838  0.0617 -0.7934
  648TMC3    O2 9602   1.360   2.294  15.343  0.1458 -0.1045  0.4048
  649TMC3    C1 9603   0.202   3.862  13.029 -0.1855  0.0020 -0.4509
  649TMC3    C2 9604   0.318   3.922  13.076  0.4761 -0.4242  1.0327
  649TMC3    C3 9605   0.376   3.867  13.190 -0.2274 -0.1687 -0.4375
  649TMC3    C4 9606   0.132   3.760  13.094  0.0743  0.4735  0.4529
  649TMC3    C5 9607   0.201   3.703  13.198 -0.4109  0.3403 -0.1343
  649TMC3    C6 9608   0.320   3.756  13.251  0.8145 -0.2318  0.0563
  649TMC3     C 9609   0.138   3.919  12.914 -0.8224 -0.0491  0.1534
  649TMC3     O 9610   0.016   3.911  12.911 -0.1097 -0.6456 -0.3132
  649TMC3     H 9611   0.351   4.008  13.018 -2.0645 -0.9014 -1.1538
  649TMC3    H1 9612   0.050   3.709  13.045  0.3588 -0.7632  1.2820
  649TMC3    H2 9613   0.387   3.716  13.326  0.2573  0.5051  0.9503
  649TMC3    C7 9614   0.134   3.590  13.263  0.4702 -0.0365  0.1103
  649TMC3    C8 9615   0.480   3.941  13.250 -0.2610 -0.0451 -0.9163
  649TMC3    O1 9616   0.012   3.574  13.255 -0.0573  0.4636 -0.0672
  649TMC3    O2 9617   0.548   3.885  13.334 -0.1060 -0.6809 -0.1047
  650TMC3    C1 9618   2.682   0.829  12.635 -0.0518  0.1393  0.1062
  650TMC3    C2 9619   2.661   0.965  12.669 -0.2368 -0.3205  0.7156
  650TMC3    C3 9620   2.537   1.024  12.651  0.4656  0.4992 -0.2557
  650TMC3    C4 9621   2.575   0.753  12.597 -0.0728 -0.0381  0.1575
  650TMC3    C5 9622   2.458   0.814  12.586 -0.9729 -0.1452  0.5054
  650TMC3    C6 9623   2.429   0.949  12.609 -0.5671 -1.4733  0.8243
  650TMC3     C 9624   2.821   0.782  12.634 -0.4954  0.1056  0.6607
  650TMC3     O 9625   2.907   0.868  12.661  0.1614  0.4902 -0.1490
  650TMC3     H 9626   2.738   1.030  12.708  0.8398 -1.4048  0.3977
  650TMC3    H1 9627   2.589   0.653  12.557 -0.7533  0.8268 -2.2798
  650TMC3    H2 9628   2.327   0.983  12.595 -1.1473 -2.3788  2.8380
  650TMC3    C7 9629   2.357   0.735  12.522  0.6516  0.8223 -0.4352
  650TMC3    C8 9630   2.520   1.163  12.680  0.1203  0.2933 -0.4117
  650TMC3    O1 9631   2.365   0.615  12.530 -0.0584 -0.6472 -0.1828
  650TMC3    O2 9632   2.618   1.235  12.659 -0.0921  0.2557  0.1493
  651MPD2     C 9633   1.386   2.407  10.528  0.0245  0.1258  0.5289
  651MPD2    C1 9634   1.369   2.499  10.629  0.4647  0.5440  0.4803
  651MPD2    C2 9635   1.484   2.547  10.686  0.0089 -0.2184 -0.0278
  651MPD2    C3 9636   1.611   2.499  10.653  0.0659 -0.6412 -0.2496
  651MPD2    C4 9637   1.624   2.403  10.551  0.0484  0.9838 -0.1886
  651MPD2    C5 9638   1.512   2.361  10.490  0.1878 -0.2975  0.5001
  651MPD2     H 9639   1.470   2.616  10.768 -1.7445  0.1724 -0.6617
  651MPD2    H1 9640   1.722   2.361  10.530  0.0781  0.8684  0.1901
  651MPD2    H2 9641   1.306   2.360  10.472  0.7842 -3.3297  2.3031
  651MPD2    H3 9642   1.517   2.295  10.404  1.8734  1.7926 -1.0119
  651MPD2     N 9643   1.720   2.535  10.741 -0.0460 -0.3090  0.2265
  651MPD2    H5 9644   1.690   2.586  10.823  1.9746  0.6294  0.3738
  651MPD2    N1 9645   1.242   2.549  10.671  0.7135  0.0449 -0.4088
  651MPD2    H7 9646   1.238   2.645  10.705 -1.1028 -0.7056  1.4890
  652TMC3    C1 9647   2.089   2.655  10.933  0.3942 -0.2689 -0.2405
  652TMC3    C2 9648   2.035   2.567  10.840  0.2871  0.2445 -0.4707
  652TMC3    C3 9649   1.916   2.514  10.863 -0.6832 -0.0005  0.2946
  652TMC3    C4 9650   2.014   2.697  11.036  0.0975  0.3472 -0.3569
  652TMC3    C5 9651   1.891   2.649  11.050 -0.5379 -0.6958 -0.3596
  652TMC3    C6 9652   1.830   2.558  10.966  0.2035 -0.3066 -0.5914
  652TMC3     C 9653   2.232   2.659  10.960  0.5482 -0.2901  0.4197
  652TMC3     O 9654   2.258   2.655  11.078 -0.3271 -0.8216  0.1634
  652TMC3     H 9655   2.092   2.536  10.753 -0.2153  0.2650 -0.8077
  652TMC3    H1 9656   2.057   2.764  11.111 -0.8756 -0.6200  1.0719
  652TMC3    H2 9657   1.727   2.531  10.987  0.7134  0.3672  2.8729
  652TMC3    C7 9658   1.806   2.727  11.132 -0.9565  0.1934  0.3448
  652TMC3    C8 9659   1.842   2.471  10.748  0.2624 -0.2066 -0.1087
  652TMC3    O1 9660   1.699   2.686  11.178 -0.6048 -0.4481  0.5793
  652TMC3    O2 9661   1.890   2.398  10.665 -0.0550 -0.2339 -0.4048
  653MPD2     C 9662   0.521   2.796  17.657 -0.1553 -0.3881 -0.2695
  653MPD2    C1 9663   0.566   2.856  17.537 -0.2290  0.0096 -0.2904
  653MPD2    C2 9664   0.487   2.842  17.422  0.0846 -0.4070  0.3540
  653MPD2    C3 9665   0.369   2.774  17.423 -0.7768  0.3068  0.4293
  653MPD2    C4 9666   0.336   2.714  17.542 -0.5877  0.0995  0.1590
  653MPD2    C5 9667   0.410   2.719  17.659  0.4691 -1.0521  0.0668
  653MPD2     H 9668   0.518   2.886  17.328 -1.3482 -0.9648 -0.3818
  653MPD2    H1 9669   0.247   2.658  17.568  1.1880 -2.6179  0.3944
  653MPD2    H2 9670   0.589   2.814   0.048 -1.9244 -0.9951  1.3084
  653MPD2    H3 9671   0.387   2.648   0.046 -1.6182  0.9872  1.2836
  653MPD2     N 9672   0.288   2.754  17.311  0.3034  0.1150  0.0494
  653MPD2    H5 9673   0.328   2.781  17.222  1.2323 -1.9641 -0.1580
  653MPD2    N1 9674   0.679   2.938  17.531  0.2482  0.9166  0.6623
  653MPD2    H7 9675   0.675   2.999  17.451 -1.1930 -1.6288 -1.1909
  654TMC3    C1 9676   0.106   2.697  17.182  0.4477  0.1055  0.3649
  654TMC3    C2 9677   4.710   2.747  17.160  0.6343  1.0406  0.5195
  654TMC3    C3 9678   4.659   2.758  17.035  0.2359  0.0793  0.5637
  654TMC3    C4 9679   0.188   2.647  17.083  0.0917 -0.2413 -0.2979
  654TMC3    C5 9680   0.135   2.653  16.953 -0.2580  0.2912 -0.5524
  654TMC3    C6 9681   0.016   2.724  16.931  1.4559 -0.4002 -1.0892
  654TMC3     C 9682   0.157   2.712  17.316 -0.3757 -0.1565 -0.2764
  654TMC3     O 9683   0.079   2.687  17.409 -0.1389 -0.2951 -0.7169
  654TMC3     H 9684   4.659   2.771  17.252  0.1973  1.6686  0.1147
  654TMC3    H1 9685   0.270   2.579  17.106  2.1964  2.6401  0.6857
  654TMC3    H2 9686   4.710   2.747  16.829  0.6865 -3.2721 -1.5439
  654TMC3    C7 9687   0.165   2.551  16.856  0.4082 -0.1176 -0.4725
  654TMC3    C8 9688   4.521   2.788  17.009 -0.0813  0.1355 -0.6364
  654TMC3    O1 9689   0.137   2.578  16.740  0.2273 -0.4474 -0.0961
  654TMC3    O2 9690   4.467   2.883  17.070  0.0818  0.1082 -0.7622
  655MPD2     C 9691   1.513   2.816  15.508 -0.7496  0.3574  0.3928
  655MPD2    C1 9692   1.465   2.904  15.408 -0.2352  0.0100 -0.3881
  655MPD2    C2 9693   1.478   2.870  15.275  0.1933  0.0860 -0.1371
  655MPD2    C3 9694   1.513   2.740  15.247  0.0814  0.0669  0.3149
  655MPD2    C4 9695   1.535   2.644  15.343 -0.0787  0.0877  0.7018
  655MPD2    C5 9696   1.546   2.684  15.474  1.0328  0.2289 -0.2196
  655MPD2     H 9697   1.458   2.943  15.198  1.6075  0.5215 -0.1027
  655MPD2    H1 9698   1.570   2.546  15.315  0.7968  0.4499  0.5302
  655MPD2    H2 9699   1.515   2.838  15.614 -0.5938 -0.4701  0.5547
  655MPD2    H3 9700   1.586   2.619  15.551  0.6416  1.9735  1.4399
  655MPD2     N 9701   1.515   2.708  15.108 -0.3516  0.3819 -0.0687
  655MPD2    H5 9702   1.522   2.789  15.048 -2.1148  0.9762  0.5276
  655MPD2    N1 9703   1.407   3.027  15.438 -0.5203  0.3437 -0.6115
  655MPD2    H7 9704   1.388   3.091  15.361  0.5678 -0.2581 -1.3734
  656TMC3    C1 9705   1.292   3.189  15.548  0.9028  0.4684  0.6487
  656TMC3    C2 9706   1.260   3.264  15.657 -0.2777 -0.2863 -0.1732
  656TMC3    C3 9707   1.145   3.346  15.658  0.6692  1.1291 -0.0329
  656TMC3    C4 9708   1.209   3.183  15.436  0.4069  0.8784 -0.0535
  656TMC3    C5 9709   1.099   3.268  15.432 -0.3153  0.5138 -0.0124
  656TMC3    C6 9710   1.066   3.337  15.544 -0.0551 -0.3352 -0.8823
  656TMC3     C 9711   1.375   3.075  15.559  0.3884  0.1023  0.0704
  656TMC3     O 9712   1.397   3.032  15.672 -0.7418 -0.3446 -0.2163
  656TMC3     H 9713   1.321   3.266  15.747 -2.4835 -0.8272  1.3526
  656TMC3    H1 9714   1.241   3.143  15.341 -1.2462 -0.8120  0.1101
  656TMC3    H2 9715   0.979   3.402  15.539 -0.7610 -1.1166  1.4849
  656TMC3    C7 9716   1.008   3.258  15.315 -0.0033 -0.8328 -0.1316
  656TMC3    C8 9717   1.068   3.321  15.766 -0.0978 -0.8206  0.2202
  656TMC3    O1 9718   1.026   3.185  15.222  0.5463  0.3691  0.1060
  656TMC3    O2 9719   0.957   3.272  15.735 -0.2136 -0.4490 -0.4917
  657TMC3    C1 9720   0.370   2.082  14.735  0.3513  0.7316  0.1022
  657TMC3    C2 9721   0.399   2.055  14.866 -0.5112  0.5546 -0.3591
  657TMC3    C3 9722   0.344   2.133  14.958  0.1173 -0.5751  0.1297
  657TMC3    C4 9723   0.284   2.174  14.706 -0.4160 -0.9420 -0.2034
  657TMC3    C5 9724   0.229   2.250  14.809 -0.0007 -0.2226  0.1362
  657TMC3    C6 9725   0.259   2.242  14.938 -0.0006 -0.6001  0.0512
  657TMC3     C 9726   0.374   1.973  14.646  0.8577 -0.5996  0.5576
  657TMC3     O 9727   0.264   1.940  14.600 -0.1267 -0.0691  0.1927
  657TMC3     H 9728   0.434   1.956  14.894 -1.4271 -0.1528 -1.7288
  657TMC3    H1 9729   0.248   2.189  14.604  2.3636 -0.9000 -1.1898
  657TMC3    H2 9730   0.210   2.293  15.020 -0.8484  1.3752 -1.6862
  657TMC3    C7 9731   0.151   2.363  14.779  0.0969  0.2111 -0.1327
  657TMC3    C8 9732   0.399   2.127  15.092  0.0915  0.2836  0.0841
  657TMC3    O1 9733   0.084   2.413  14.868  0.4569  0.3190 -0.3581
  657TMC3    O2 9734   0.344   2.201  15.172  0.0710 -0.4128  0.1829
  658MPD2     C 9735   1.767   2.686  14.284  0.3599  0.4124 -0.3815
  658MPD2    C1 9736   1.786   2.725  14.417  0.1305  0.6420  0.7680
  658MPD2    C2 9737   1.891   2.812  14.441  0.0094  0.1464  0.4735
  658MPD2    C3 9738   1.972   2.854  14.334  0.5528  0.1994 -0.5366
  658MPD2    C4 9739   1.957   2.800  14.208 -0.5593 -0.1193 -0.3058
  658MPD2    C5 9740   1.852   2.718  14.183  0.2337  0.3099  0.6292
  658MPD2     H 9741   1.909   2.870  14.530 -0.3237 -0.0730  0.6888
  658MPD2    H1 9742   2.018   2.824  14.122 -0.2190  0.0338 -0.0211
  658MPD2    H2 9743   1.687   2.617  14.261 -0.2854  1.6171 -1.7380
  658MPD2    H3 9744   1.835   2.676  14.085  0.9837  1.2558  0.0999
  658MPD2     N 9745   2.067   2.956  14.363 -0.0905 -0.2675  0.5447
  658MPD2    H5 9746   2.074   2.981  14.461 -1.4239 -2.2910  1.1492
  658MPD2    N1 9747   1.697   2.674  14.514 -0.2592 -0.0322 -0.1011
  658MPD2    H7 9748   1.651   2.588  14.486 -3.4904  1.2257  1.3902
  659TMC3    C1 9749   1.574   2.681  14.710  0.6739 -0.3910  0.3143
  659TMC3    C2 9750   1.587   2.675  14.845  0.3611  0.5456  0.0942
  659TMC3    C3 9751   1.505   2.590  14.911  0.2062 -0.8986 -0.2195
  659TMC3    C4 9752   1.471   2.620  14.644 -0.0538 -0.2787  0.5960
  659TMC3    C5 9753   1.384   2.541  14.718 -0.4044 -0.2828 -0.8528
  659TMC3    C6 9754   1.408   2.515  14.848  0.3965  1.0583 -1.0276
  659TMC3     C 9755   1.687   2.726  14.640 -0.0887 -0.1601  0.4537
  659TMC3     O 9756   1.759   2.808  14.696 -0.4251 -0.3669  0.0696
  659TMC3     H 9757   1.671   2.717  14.899  1.3605 -2.9877  1.2955
  659TMC3    H1 9758   1.455   2.644  14.540  0.5165  0.7761  0.7551
  659TMC3    H2 9759   1.336   2.466  14.913  2.0779 -0.0614 -0.0076
  659TMC3    C7 9760   1.244   2.536  14.686 -0.3192  0.1889 -1.0046
  659TMC3    C8 9761   1.507   2.583  15.056  0.4229 -0.3669  0.2035
  659TMC3    O1 9762   1.172   2.471  14.756 -0.2346  0.5711 -0.3893
  659TMC3    O2 9763   1.483   2.476  15.111 -0.3263 -0.5974  0.3394
  660MPD2     C 9764   0.105   1.280  12.399  0.3317  0.5390  0.3192
  660MPD2    C1 9765   4.705   1.335  12.369  1.2279  0.0833  0.0673
  660MPD2    C2 9766   4.599   1.307  12.454  0.5607  0.1003  0.4022
  660MPD2    C3 9767   4.610   1.216  12.556  0.7135  0.0668  0.4323
  660MPD2    C4 9768   0.011   1.164  12.577  0.2423  0.4418 -0.1413
  660MPD2    C5 9769   0.119   1.193  12.503 -0.2362  0.2437 -0.6563
  660MPD2     H 9770   4.498   1.344  12.439  0.0274 -0.2047  3.3718
  660MPD2    H1 9771   0.028   1.098  12.662 -2.8453 -1.0512 -0.7126
  660MPD2    H2 9772   0.195   1.289  12.338 -0.0249  0.7606 -0.1696
  660MPD2    H3 9773   0.205   1.130  12.521 -1.0491 -0.7038 -0.1042
  660MPD2     N 9774   4.507   1.188  12.644  0.6313  0.3291 -0.0043
  660MPD2    H5 9775   4.516   1.100  12.694  1.1039  0.0588 -0.5637
  660MPD2    N1 9776   4.679   1.399  12.244 -0.1062  0.3093 -0.4652
  660MPD2    H7 9777   0.020   1.377  12.168  0.0984 -2.1031  0.3873
  661TMC3    C1 9778   4.561   1.524  12.085 -0.6737  0.0052  0.5704
  661TMC3    C2 9779   4.673   1.512  11.995  0.0477 -0.2091 -0.6260
  661TMC3    C3 9780   4.658   1.569  11.869 -0.3973 -1.1399 -0.8025
  661TMC3    C4 9781   4.446   1.584  12.047  0.0495  0.1828  0.3995
  661TMC3    C5 9782   4.435   1.637  11.919  0.2394  0.2913 -0.3185
  661TMC3    C6 9783   4.536   1.631  11.833 -0.3354 -0.2736  0.0220
  661TMC3     C 9784   4.572   1.482  12.221  0.4433  0.3272 -0.3736
  661TMC3     O 9785   4.484   1.513  12.302 -0.1547 -0.1085  0.9522
  661TMC3     H 9786   0.042   1.467  12.031 -0.6586 -0.3237  1.0661
  661TMC3    H1 9787   4.372   1.607  12.122 -0.2659  2.2586 -0.5278
  661TMC3    H2 9788   4.516   1.678  11.737  2.0806 -2.0310 -1.3442
  661TMC3    C7 9789   4.308   1.699  11.889  0.3478  0.1160 -0.1119
  661TMC3    C8 9790   0.041   1.539  11.784 -0.4957 -0.4128 -1.4893
  661TMC3    O1 9791   4.319   1.802  11.826 -0.4635 -0.2415  0.1006
  661TMC3    O2 9792   0.118   1.448  11.817  0.3348  0.1805  0.1080
  662MPD2     C 9793   0.040   1.295  17.138  0.2952 -0.3273  0.6092
  662MPD2    C1 9794   0.023   1.307  17.276 -0.3800  0.3894  0.1950
  662MPD2    C2 9795   4.640   1.385  17.328  0.2888 -0.2262  0.1699
  662MPD2    C3 9796   4.560   1.458  17.236  1.0439 -0.0312  0.4994
  662MPD2    C4 9797   4.572   1.436  17.102 -0.5738 -0.2626 -0.8052
  662MPD2    C5 9798   4.668   1.353  17.057  0.7031 -0.6012 -0.1503
  662MPD2     H 9799   4.644   1.411  17.433 -0.0750  1.0749 -0.1415
  662MPD2    H1 9800   4.503   1.476  17.029 -0.6187  0.6541 -0.2604
  662MPD2    H2 9801   0.107   1.224  17.091  0.6303 -1.6712  3.1593
  662MPD2    H3 9802   4.678   1.337  16.951  1.0223  0.1984 -0.2442
  662MPD2     N 9803   4.472   1.562  17.271 -1.0375  0.3591 -0.0975
  662MPD2    H5 9804   4.454   1.627  17.195 -1.3778  0.8866  0.4254
  662MPD2    N1 9805   0.112   1.240  17.368  0.1996  0.4839  1.0827
  662MPD2    H7 9806   0.085   1.236  17.466 -2.7271  1.3832  0.3216
  663TMC3    C1 9807   0.282   1.088  17.437  0.1473 -0.2620 -0.0460
  663TMC3    C2 9808   0.218   1.098  17.555  0.6102  0.2226 -0.8821
  663TMC3    C3 9809   0.183   0.989  17.635  1.0884  0.5765 -0.1687
  663TMC3    C4 9810   0.305   0.966  17.382 -0.1298  0.2670 -0.6059
  663TMC3    C5 9811   0.260   0.857  17.450 -0.1412 -0.3857 -0.5162
  663TMC3    C6 9812   0.204   0.864  17.572  0.0149  0.0533 -0.5336
  663TMC3     C 9813   0.229   1.177  17.335  0.3376 -0.3590  0.3689
  663TMC3     O 9814   0.287   1.181  17.226  0.4891  0.1869  0.0435
  663TMC3     H 9815   0.221   1.197  17.600 -0.7709  0.7106 -1.8617
  663TMC3    H1 9816   0.368   0.953  17.295 -0.9314  0.3060 -1.1856
  663TMC3    H2 9817   0.194   0.776  17.635 -1.6016  1.2690  0.9184
  663TMC3    C7 9818   0.270   0.732  17.376 -0.7610 -0.3384 -0.1586
  663TMC3    C8 9819   0.253   1.003   0.067  0.2293  0.2091 -0.5309
  663TMC3    O1 9820   0.341   0.738  17.277 -0.1445  0.2602  0.6532
  663TMC3    O2 9821   0.341   0.920   0.086  0.0464 -0.1521 -0.4212
  664MPD2     C 9822   2.536   4.248  17.357 -0.9435 -0.4864  0.3738
  664MPD2    C1 9823   2.667   4.273  17.397  0.2260 -0.1914  0.3024
  664MPD2    C2 9824   2.726   4.184  17.479  0.0135  0.0363 -0.2284
  664MPD2    C3 9825   2.659   4.072  17.529 -0.0463  0.0175  0.0335
  664MPD2    C4 9826   2.533   4.041  17.477  0.4055 -0.1998  0.0182
  664MPD2    C5 9827   2.478   4.129  17.388 -0.1021  0.1810 -0.2454
  664MPD2     H 9828   2.833   4.187  17.498 -0.0909  2.1429  0.1100
  664MPD2    H1 9829   2.463   3.963  17.506 -2.7524  2.1496 -1.2694
  664MPD2    H2 9830   2.475   4.313  17.296 -0.1305  0.1079  0.1875
  664MPD2    H3 9831   2.380   4.106  17.349 -0.1620 -1.2450  0.7666
  664MPD2     N 9832   2.718   3.992  17.629 -1.2665  0.2307 -0.0568
  664MPD2    H5 9833   2.816   4.015  17.644 -1.0251  0.4125 -1.8612
  664MPD2    N1 9834   2.741   4.389  17.367  0.2820  0.4413  0.5088
  664MPD2    H7 9835   2.834   4.394  17.408  0.2733  1.4708  0.4157
  665TMC3    C1 9836   2.753   3.883   0.130 -0.0326  0.4521  0.1510
  665TMC3    C2 9837   2.722   3.803   0.236 -0.3120 -0.3710  0.3590
  665TMC3    C3 9838   2.766   3.820   0.357  0.0287  0.2660 -0.2125
  665TMC3    C4 9839   2.848   3.984   0.156  0.1797 -0.0159 -0.1449
  665TMC3    C5 9840   2.887   4.006   0.281 -0.2586 -0.0966 -0.5641
  665TMC3    C6 9841   2.842   3.928   0.383  0.3229 -0.0488  0.1477
  665TMC3     C 9842   2.659   3.909   0.025  0.2238  0.0000  0.3968
  665TMC3     O 9843   2.548   3.861   0.035 -0.3547 -0.1235  0.1861
  665TMC3     H 9844   2.645   3.728   0.223 -0.4195 -0.1864 -0.0500
  665TMC3    H1 9845   2.899   4.033   0.073  0.9102 -3.0110 -1.4487
  665TMC3    H2 9846   2.872   3.945   0.486 -0.7753 -2.4279  0.8544
  665TMC3    C7 9847   2.990   4.102   0.312  0.2377 -0.6478  0.0059
  665TMC3    C8 9848   2.738   3.721   0.461  0.1230  0.1220  0.2085
  665TMC3    O1 9849   3.071   4.124   0.229 -0.3126 -0.0040 -0.4890
  665TMC3    O2 9850   2.782   3.750   0.570  0.6497  0.7457 -0.7617
  666TMC3    C1 9851   1.967   3.747   9.912 -0.1932 -0.0300  0.2467
  666TMC3    C2 9852   2.040   3.697  10.017  0.8852  0.2094 -0.1876
  666TMC3    C3 9853   2.114   3.786  10.096  0.0093  0.7973  0.0811
  666TMC3    C4 9854   1.953   3.880   9.887  0.3274  0.4465 -0.0797
  666TMC3    C5 9855   2.014   3.967   9.978 -0.4516 -0.3314 -0.3353
  666TMC3    C6 9856   2.100   3.918  10.079  0.9761 -0.3705  0.2882
  666TMC3     C 9857   1.873   3.665   9.855 -1.1487 -0.3851 -0.2529
  666TMC3     O 9858   1.831   3.703   9.747  0.3085 -0.7105  0.2778
  666TMC3     H 9859   2.036   3.597  10.060 -0.6234  0.9958  1.5234
  666TMC3    H1 9860   1.891   3.910   9.803  1.7551  2.4257 -0.4226
  666TMC3    H2 9861   2.157   3.983  10.145 -2.0561  1.1385  1.4044
  666TMC3    C7 9862   1.956   4.100  10.006 -0.6430 -0.1181 -0.3396
  666TMC3    C8 9863   2.158   3.738  10.229 -0.0726  0.4159  0.0871
  666TMC3    O1 9864   1.930   4.114  10.125  1.0424 -0.3104 -0.3434
  666TMC3    O2 9865   2.085   3.662  10.293  0.1885 -0.3096  0.1517
  667MPD2     C 9866   4.084   4.283  14.376  0.1617 -0.5126  0.5720
  667MPD2    C1 9867   3.997   4.262  14.484  0.3861  1.0458  0.6608
  667MPD2    C2 9868   3.912   4.151  14.488  0.4603  0.1880 -0.3387
  667MPD2    C3 9869   3.927   4.052  14.390 -0.6262 -0.3665  0.2915
  667MPD2    C4 9870   4.024   4.066  14.291 -0.1191 -0.2289 -0.4895
  667MPD2    C5 9871   4.106   4.177  14.294 -0.1815  0.6152  0.1098
  667MPD2     H 9872   3.824   4.152  14.550  1.9334 -1.4834  1.7744
  667MPD2    H1 9873   4.027   4.008  14.200 -0.6448 -0.3675 -0.4209
  667MPD2    H2 9874   4.144   4.371  14.353 -0.5943 -0.0614  0.3359
  667MPD2    H3 9875   4.175   4.195  14.213  1.0752 -1.2345  0.7750
  667MPD2     N 9876   3.828   3.950  14.376 -0.4919 -0.3903 -0.4841
  667MPD2    H5 9877   3.844   3.888  14.298 -1.9772 -0.0354 -1.0666
  667MPD2    N1 9878   3.980   4.368  14.577 -0.0155  0.2320  0.6560
  667MPD2    H7 9879   3.922   4.346  14.657  0.3211 -0.2541  0.7689
  668TMC3    C1 9880   3.996   4.583  14.674  0.0562 -0.2105  0.0773
  668TMC3    C2 9881   4.058   4.706  14.676  0.1307 -0.3892 -0.1938
  668TMC3    C3 9882   4.046   0.055  14.792 -0.5678 -0.1660 -0.1505
  668TMC3    C4 9883   3.914   4.539  14.774 -0.6951  0.1559 -0.5807
  668TMC3    C5 9884   3.903   4.616  14.889 -0.0069  0.3086 -0.3022
  668TMC3    C6 9885   3.970   0.011  14.902  0.4330  0.1645 -0.4496
  668TMC3     C 9886   4.056   4.484  14.582 -0.5032  0.4556  0.1467
  668TMC3     O 9887   4.151   4.523  14.512  0.2064 -0.2973  0.6490
  668TMC3     H 9888   4.101   0.018  14.583  2.5135 -1.3571  0.5588
  668TMC3    H1 9889   3.856   4.448  14.765 -0.9053  0.1044  1.2963
  668TMC3    H2 9890   3.971   0.068  14.994 -2.7120  0.3901 -0.5627
  668TMC3    C7 9891   3.815   4.580  14.996  0.0715 -0.1501 -0.1981
  668TMC3    C8 9892   4.112   0.179  14.814  0.4579  0.0977  0.2962
  668TMC3    O1 9893   3.832   4.644  15.099  0.4425 -0.2308  0.4586
  668TMC3    O2 9894   4.090   0.237  14.915  1.0653  0.5471  0.1481
  669TMC3    C1 9895   2.140   4.297  14.421 -0.6724  0.3551 -0.0756
  669TMC3    C2 9896   2.051   4.296  14.318  0.1974  0.1052 -0.0635
  669TMC3    C3 9897   2.057   4.397  14.228 -0.4337  0.7270  0.0654
  669TMC3    C4 9898   2.233   4.393  14.433  0.3951  0.4350  0.5459
  669TMC3    C5 9899   2.240   4.485  14.334 -0.1739 -0.0981  0.3351
  669TMC3    C6 9900   2.155   4.493  14.225  0.0113  0.4225 -0.0173
  669TMC3     C 9901   2.115   4.203  14.525 -0.4450  1.1254 -0.2190
  669TMC3     O 9902   2.019   4.131  14.506 -0.2865 -0.5593  0.1432
  669TMC3     H 9903   1.961   4.236  14.325  0.2745  0.1736  1.5854
  669TMC3    H1 9904   2.294   4.394  14.522  0.3519 -1.0557  0.6037
  669TMC3    H2 9905   2.165   4.558  14.140 -1.9771  0.8030  0.0429
  669TMC3    C7 9906   2.348   4.575  14.337  1.1627 -0.2352 -0.6874
  669TMC3    C8 9907   1.954   4.387  14.132  0.5821 -0.5099  0.1054
  669TMC3    O1 9908   2.330   4.680  14.270 -0.3178  0.5109  0.5512
  669TMC3    O2 9909   1.907   4.277  14.110 -0.1103  0.4147  0.4310
  670MPD2     C 9910   4.299   2.173  13.537  0.3331 -0.0798 -0.7697
  670MPD2    C1 9911   4.296   2.060  13.461 -0.3177 -0.5421 -0.2472
  670MPD2    C2 9912   4.321   1.942  13.535 -0.3826  1.1589  0.1332
  670MPD2    C3 9913   4.345   1.937  13.668  0.3377  0.1486 -0.2666
  670MPD2    C4 9914   4.355   2.058  13.735 -0.2735  0.0191  0.7828
  670MPD2    C5 9915   4.332   2.172  13.668 -0.4059  0.0174 -0.2357
  670MPD2     H 9916   4.306   1.849  13.483  1.7475  1.3591 -0.8510
  670MPD2    H1 9917   4.378   2.057  13.841 -0.0775 -1.8320  0.7275
  670MPD2    H2 9918   4.268   2.269  13.498  3.7841  1.2424 -0.3099
  670MPD2    H3 9919   4.341   2.270  13.714 -0.1638  0.3832 -1.0396
  670MPD2     N 9920   4.359   1.810  13.733 -0.3004 -0.0657 -0.0756
  670MPD2    H5 9921   4.340   1.726  13.679 -0.0318 -0.2093  0.0571
  670MPD2    N1 9922   4.294   2.046  13.323  0.3499 -0.0330  0.4185
  670MPD2    H7 9923   4.281   1.952  13.288 -0.9745 -0.0132  0.8474
  671TMC3    C1 9924   4.407   1.649  13.901 -0.2716 -0.3372  0.5941
  671TMC3    C2 9925   4.496   1.612  14.003 -0.4387  0.3764 -0.9309
  671TMC3    C3 9926   4.516   1.475  14.026  0.1740 -0.9074  0.1494
  671TMC3    C4 9927   4.320   1.562  13.853 -0.1260  0.0761 -0.2637
  671TMC3    C5 9928   4.331   1.425  13.892 -0.3834 -0.4877  0.4594
  671TMC3    C6 9929   4.437   1.381  13.970 -0.1006 -0.1405  0.1575
  671TMC3     C 9930   4.399   1.790  13.864 -0.2976  0.7070 -0.3873
  671TMC3     O 9931   4.448   1.870  13.946 -0.4542  0.3447  0.1414
  671TMC3     H 9932   4.571   1.689  14.018  0.1776 -0.3057 -0.5468
  671TMC3    H1 9933   4.236   1.602  13.799 -1.1664 -1.6013  0.1051
  671TMC3    H2 9934   4.454   1.275  13.985 -0.1286 -0.2551 -0.5877
  671TMC3    C7 9935   4.282   1.341  13.792 -0.1088  1.0238  0.8055
  671TMC3    C8 9936   4.660   1.437  14.027  0.4158 -0.9271 -0.2525
  671TMC3    O1 9937   4.205   1.397  13.716  0.0520 -0.1987 -0.3609
  671TMC3    O2 9938   4.694   1.342  13.957 -0.2461  0.2311 -0.0365
  672MPD2     C 9939   0.193   2.128   1.082  0.8945  0.7041  0.0479
  672MPD2    C1 9940   0.259   2.193   0.979  0.0154 -0.1530  0.0100
  672MPD2    C2 9941   0.350   2.290   1.011 -0.5014  0.4740  0.4118
  672MPD2    C3 9942   0.393   2.308   1.144  0.4041  0.0362 -0.2724
  672MPD2    C4 9943   0.340   2.231   1.244  0.1817  0.2018 -0.3340
  672MPD2    C5 9944   0.240   2.147   1.214  0.1889 -0.0276 -0.1666
  672MPD2     H 9945   0.395   2.354   0.937 -3.1091  0.3336 -1.2835
  672MPD2    H1 9946   0.369   2.231   1.348 -0.3714  0.1563 -0.1805
  672MPD2    H2 9947   0.116   2.052   1.070 -1.5415  3.2593 -0.6078
  672MPD2    H3 9948   0.197   2.098   1.300  1.7084 -0.8319  0.1341
  672MPD2     N 9949   0.490   2.399   1.191 -0.0690  0.0171 -0.3258
  672MPD2    H5 9950   0.529   2.394   1.285  0.5416  1.1653 -0.5267
  672MPD2    N1 9951   0.249   2.163   0.846  0.7079 -0.5590 -0.1964
  672MPD2    H7 9952   0.293   2.226   0.780 -1.1296  0.2167 -0.7001
  673TMC3    C1 9953   0.238   2.024   0.657 -0.5157 -0.0643 -0.1521
  673TMC3    C2 9954   0.288   1.901   0.615  0.3294 -0.6411  0.6688
  673TMC3    C3 9955   0.308   1.885   0.484 -0.2175 -0.1809  0.3329
  673TMC3    C4 9956   0.191   2.116   0.574 -0.5730 -0.0535 -0.0193
  673TMC3    C5 9957   0.215   2.100   0.440  0.1607 -0.3863  0.1523
  673TMC3    C6 9958   0.292   1.994   0.401 -0.1206 -0.8786  0.1637
  673TMC3     C 9959   0.229   2.035   0.802 -1.2620 -0.1508  0.7628
  673TMC3     O 9960   0.207   1.932   0.863 -0.7251 -0.4574  0.2094
  673TMC3     H 9961   0.304   1.822   0.688 -1.0124  0.1849  1.8418
  673TMC3    H1 9962   0.131   2.199   0.611  1.4251  1.6560 -0.5775
  673TMC3    H2 9963   0.296   1.988   0.292 -1.4192  0.7916  0.0143
  673TMC3    C7 9964   0.156   2.192   0.343 -0.2147 -0.2254  0.2040
  673TMC3    C8 9965   0.419   1.801   0.435 -0.8648 -0.2173 -0.1109
  673TMC3    O1 9966   0.138   2.143   0.233 -0.2348 -0.0881 -0.1603
  673TMC3    O2 9967   0.428   1.780   0.317  0.4115  0.4368  0.4857
  674MPD2     C 9968   4.372   2.529  17.271  0.4248  0.2349 -0.3634
  674MPD2    C1 9969   4.392   2.449  17.383 -0.2776  0.7650 -0.3370
  674MPD2    C2 9970   4.298   2.455  17.483 -0.1510 -0.2918 -0.4909
  674MPD2    C3 9971   4.196   2.551  17.478 -0.2179  0.3598 -0.5498
  674MPD2    C4 9972   4.170   2.625  17.370 -0.2264 -1.1082  0.2674
  674MPD2    C5 9973   4.268   2.613  17.265 -0.3334  0.3953  0.1163
  674MPD2     H 9974   4.311   2.382  17.561  0.1949 -0.5822 -0.8188
  674MPD2    H1 9975   4.088   2.695  17.364  0.1351 -0.6558  0.6679
  674MPD2    H2 9976   4.434   2.524  17.183 -0.1088  1.5883 -0.8222
  674MPD2    H3 9977   4.260   2.676  17.177 -3.2965  0.6524  0.5397
  674MPD2     N 9978   4.138   2.577  17.599 -0.0245  0.0204  0.7889
  674MPD2    H5 9979   4.163   2.507  17.667  1.0627 -1.6468 -1.3098
  674MPD2    N1 9980   4.502   2.368  17.402 -0.2413  0.3346 -0.0851
  674MPD2    H7 9981   4.499   2.310  17.485  0.3222  0.1501 -0.1952
  675TMC3    C1 9982   4.712   2.288  17.395  0.9172 -0.0396 -0.1703
  675TMC3    C2 9983   4.652   2.190  17.463 -0.0477 -1.1650  0.3090
  675TMC3    C3 9984   4.708   2.136  17.575 -0.4624  0.2399  0.2861
  675TMC3    C4 9985   0.102   2.354  17.445  0.0906 -0.1846  0.0760
  675TMC3    C5 9986   0.155   2.302  17.556 -0.4925  0.6699 -1.1237
  675TMC3    C6 9987   0.099   2.194  17.625  0.0061  0.4956  0.2791
  675TMC3     C 9988   4.616   2.363  17.324  0.5091  0.2348  1.2187
  675TMC3     O 9989   4.652   2.439  17.233  0.7658  0.0453  0.4730
  675TMC3     H 9990   4.574   2.140  17.407  0.1324 -1.1325  0.0307
  675TMC3    H1 9991   0.141   2.445  17.400 -2.9134  1.4493  0.7356
  675TMC3    H2 9992   0.160   2.140   0.005  1.6029  0.3174 -1.2008
  675TMC3    C7 9993   0.294   2.332  17.568  0.5763  0.4751 -0.5369
  675TMC3    C8 9994   4.696   1.994  17.597 -0.1751 -0.0128 -0.2541
  675TMC3    O1 9995   0.352   2.360  17.467 -0.1473  0.0703  0.0275
  675TMC3    O2 9996   4.661   1.929  17.500 -0.2803 -0.3769 -0.2081
  676MPD2     C 9997   2.927   0.449  11.262 -0.5027 -0.6008 -0.2191
  676MPD2    C1 9998   2.792   0.418  11.256 -0.7240  0.3139 -0.0891
  676MPD2    C2 9999   2.767   0.305  11.169  0.3457 -0.6597  0.1938
  676MPD2    C310000   2.869   0.226  11.121 -0.7680 -0.0020  0.5325
  676MPD2    C410001   2.997   0.270  11.131  0.1220  0.2716  0.3386
  676MPD2    C510002   3.028   0.383  11.196 -0.5840 -0.7068 -0.0672
  676MPD2     H10003   2.662   0.279  11.163  0.6108 -1.7634  0.3769
  676MPD2    H110004   3.093   0.232  11.097 -1.2072 -2.0272 -0.8330
  676MPD2    H210005   2.960   0.533  11.323 -0.7402 -0.3166 -0.4773
  676MPD2    H310006   3.130   0.418  11.205 -1.5778  2.1319  0.4278
  676MPD2     N10007   2.842   0.103  11.061 -0.2409 -0.0648  0.1739
  676MPD2    H510008   2.923   0.045  11.042  1.6736  2.6952 -0.0612
  676MPD2    N110009   2.682   0.479  11.319  0.6127  0.3356 -0.0173
  676MPD2    H710010   2.593   0.434  11.304 -1.7384  4.1744  2.1818
  677TMC3    C110011   2.574   0.642  11.461  0.4760 -0.0821  0.3220
  677TMC3    C210012   2.452   0.581  11.434 -0.5140 -0.2793 -0.6055
  677TMC3    C310013   2.357   0.620  11.519  0.2884  0.4984  0.6119
  677TMC3    C410014   2.591   0.747  11.546  0.0639 -0.1343  0.5955
  677TMC3    C510015   2.474   0.787  11.617  0.1012 -0.4763  0.3070
  677TMC3    C610016   2.352   0.721  11.607  0.3992 -0.1841  0.2468
  677TMC3     C10017   2.698   0.585  11.411 -0.2183  0.1020  0.4191
  677TMC3     O10018   2.801   0.637  11.456 -0.1489 -0.2316 -0.6045
  677TMC3     H10019   2.443   0.483  11.387  2.9354  0.0766 -1.9699
  677TMC3    H110020   2.690   0.781  11.571 -0.2714  1.4238 -0.2625
  677TMC3    H210021   2.267   0.749  11.669 -0.0406 -2.2370  0.5598
  677TMC3    C710022   2.471   0.905  11.693  1.0690 -0.2755 -0.4487
  677TMC3    C810023   2.231   0.555  11.495  0.0450 -0.7087  0.8642
  677TMC3    O110024   2.370   0.927  11.760  0.3989  0.4983  0.2183
  677TMC3    O210025   2.205   0.552  11.379 -0.0570 -0.1273 -0.3990
  678MPD2     C10026   3.644   0.567   1.473  0.1795 -0.2112  0.1386
  678MPD2    C110027   3.688   0.522   1.350 -0.4844  0.7506 -0.2585
  678MPD2    C210028   3.601   0.477   1.259  0.2753  0.4571  0.5501
  678MPD2    C310029   3.465   0.477   1.286 -0.1868  0.3247  0.0142
  678MPD2    C410030   3.423   0.517   1.410  0.2104  0.2222 -0.8389
  678MPD2    C510031   3.512   0.561   1.504  0.1534  0.4623  0.2254
  678MPD2     H10032   3.648   0.444   1.168  0.2959  0.5021  0.5442
  678MPD2    H110033   3.317   0.512   1.435  0.2654  1.5635 -0.3424
  678MPD2    H210034   3.707   0.583   1.560 -0.7151 -0.5088  0.8389
  678MPD2    H310035   3.480   0.586   1.604 -0.1028 -0.8352  0.4648
  678MPD2     N10036   3.385   0.417   1.185 -0.0973 -0.4094  0.0798
  678MPD2    H510037   3.431   0.385   1.100  1.2181 -0.9580  1.0003
  678MPD2    N110038   3.825   0.509   1.323  0.0101 -0.5369  0.1792
  678MPD2    H710039   3.847   0.460   1.236  0.2700  1.6545 -0.9813
  679TMC3    C110040   4.217   0.413   1.237  0.7205 -0.0683 -0.0267
  679TMC3    C210041   4.091   0.419   1.279 -0.1471  0.4688  0.2344
  679TMC3    C310042   4.051   0.528   1.348 -0.2011 -0.3777 -0.1070
  679TMC3    C410043   4.308   0.519   1.244 -0.2021 -0.0620 -0.3781
  679TMC3    C510044   4.256   0.629   1.308  1.0839 -0.2356  0.4716
  679TMC3    C610045   4.137   0.637   1.370 -0.1641 -0.1577 -0.8211
  679TMC3     C10046   4.276   0.282   1.203  0.0262  0.1093 -0.4178
  679TMC3     O10047   4.382   0.278   1.144  0.2548  0.0543 -0.0646
  679TMC3     H10048   4.033   0.328   1.269  0.9994 -0.2775  0.4001
  679TMC3    H110049   4.412   0.514   1.213 -0.1344  1.3032 -0.3558
  679TMC3    H210050   4.102   0.715   1.438  0.3581  0.1973 -0.9587
  679TMC3    C710051   4.323   0.754   1.276  0.3105  0.0633 -0.3601
  679TMC3    C810052   3.923   0.537   1.409 -0.5024 -1.3567  0.1198
  679TMC3    O110053   4.411   0.754   1.189  0.1663  0.2362 -0.1268
  679TMC3    O210054   3.917   0.588   1.519  0.6720 -0.4194  0.1037
  680MPD2     C10055   4.019   3.724  13.583  0.0038  0.5997 -0.4199
  680MPD2    C110056   4.149   3.689  13.621 -0.6548  0.3617  0.4886
  680MPD2    C210057   4.243   3.790  13.613 -0.0517 -0.4935 -0.2487
  680MPD2    C310058   4.222   3.920  13.572 -0.5448 -0.4131 -0.1702
  680MPD2    C410059   4.095   3.950  13.528  0.8476  0.0314  0.4471
  680MPD2    C510060   3.999   3.849  13.535 -0.0397  0.1129 -0.0192
  680MPD2     H10061   4.343   3.755  13.638  0.2850  0.7618  0.1401
  680MPD2    H110062   4.070   4.049  13.491  2.0106 -0.7660 -2.4931
  680MPD2    H210063   3.941   3.648  13.581  1.1739 -0.5664 -1.5153
  680MPD2    H310064   3.898   3.883  13.512  1.1205  2.7171 -1.2596
  680MPD2     N10065   4.321   4.021  13.566  0.4559 -0.3786  0.1152
  680MPD2    H510066   4.305   4.109  13.520 -1.1331 -0.6738  0.1009
  680MPD2    N110067   4.195   3.559  13.659  0.2716  0.4474 -0.4707
  680MPD2    H710068   4.293   3.551  13.682 -0.2320  2.9377  2.5315
  681TMC3    C110069   4.203   3.333  13.734 -0.1123 -0.0788 -0.5562
  681TMC3    C210070   4.147   3.300  13.853 -0.2113  1.0935 -0.5323
  681TMC3    C310071   4.233   3.250  13.947 -0.3414 -0.6753  0.1717
  681TMC3    C410072   4.337   3.325  13.711  0.3264  0.5739 -0.3105
  681TMC3    C510073   4.424   3.291  13.816  0.1393 -0.1913 -0.2298
  681TMC3    C610074   4.370   3.243  13.931  0.5059  0.2860  1.3917
  681TMC3     C10075   4.123   3.445  13.676  0.3431  0.1552  0.2591
  681TMC3     O10076   4.002   3.440  13.675  0.0088 -0.1126 -0.2843
  681TMC3     H10077   4.040   3.305  13.872 -0.7451 -0.1195 -3.2401
  681TMC3    H110078   4.374   3.369  13.620  2.3360  0.3061  0.3666
  681TMC3    H210079   4.433   3.200  14.008 -0.1576 -1.8778  0.7267
  681TMC3    C710080   4.565   3.319  13.815 -0.0485 -0.2227  0.3910
  681TMC3    C810081   4.183   3.222  14.082 -0.3914 -0.3804 -0.3106
  681TMC3    O110082   4.632   3.295  13.914 -0.2720  0.0298  0.0973
  681TMC3    O210083   4.082   3.150  14.082  0.0915 -0.2562 -0.3176
  682MPD2     C10084   1.231   0.343  10.613 -1.4357 -0.1906 -0.4788
  682MPD2    C110085   1.298   0.230  10.653 -0.1483 -0.3962  0.2777
  682MPD2    C210086   1.347   0.230  10.783  0.2148  0.6676  0.0918
  682MPD2    C310087   1.349   0.340  10.861  0.4647 -0.5572 -0.6615
  682MPD2    C410088   1.290   0.450  10.813 -0.3383  0.0328 -0.1206
  682MPD2    C510089   1.227   0.452  10.694  0.6210 -0.2735 -0.4208
  682MPD2     H10090   1.388   0.140  10.829 -2.0280 -0.0271  0.7188
  682MPD2    H110091   1.282   0.544  10.867  0.8126 -0.7282  1.3933
  682MPD2    H210092   1.171   0.337  10.523  0.7219 -1.0446 -1.8742
  682MPD2    H310093   1.157   0.529  10.664  1.0076 -0.9615 -3.0838
  682MPD2     N10094   1.403   0.323  10.994 -0.0416  0.1665  0.0511
  682MPD2    H510095   1.455   0.237  11.010 -0.8051 -0.6387 -1.7523
  682MPD2    N110096   1.302   0.110  10.583 -0.5343  0.0740 -0.5248
  682MPD2    H710097   1.347   0.031  10.628  0.4269  0.0736 -1.4752
  683TMC3    C110098   1.461   0.300  11.435 -0.4744 -0.4633  0.3397
  683TMC3    C210099   1.412   0.167  11.439 -0.0425 -0.2359  0.3892
  683TMC3    C310100   1.357   0.125  11.313  0.3506  0.6085 -0.1086
  683TMC3    C410101   1.432   0.388  11.332 -0.8267  0.3711 -0.5034
  683TMC3    C510102   1.373   0.342  11.219 -0.2582 -0.0349  1.1788
  683TMC3    C610103   1.333   0.207  11.207 -0.2729 -0.2020 -0.1223
  683TMC3     C10104   1.519   0.350  11.554 -0.7846  0.2988 -0.0614
  683TMC3     O10105   1.522   0.471  11.555 -0.5519 -0.6044  1.0004
  683TMC3     H10106   1.429   0.104  11.525  0.3193  0.4232  0.7915
  683TMC3    H110107   1.472   0.488  11.322 -0.6175  0.2230 -1.1765
  683TMC3    H210108   1.284   0.166  11.120  2.4366  0.3225 -1.8699
  683TMC3    C710109   1.385   0.413  11.097  0.3509 -0.9970 -0.1573
  683TMC3    C810110   1.304   4.711  11.298 -1.1003  0.3614 -0.4750
  683TMC3    O110111   1.342   0.526  11.089  0.5454 -0.4389 -0.5577
  683TMC3    O210112   1.206   4.698  11.226 -0.0168 -0.8241 -0.5315
  684MPD2     C10113   0.033   4.722  16.551  0.2507  0.4738  0.2295
  684MPD2    C110114   0.010   0.038  16.416  0.3812  0.4681 -0.1042
  684MPD2    C210115   0.046   0.169  16.374  0.1386  0.2236 -0.3096
  684MPD2    C310116   0.099   0.263  16.459 -0.2398  1.1619  0.0763
  684MPD2    C410117   0.111   0.225  16.588  0.1477  0.2892 -0.0036
  684MPD2    C510118   0.086   0.099  16.633  0.0061  0.4926  0.1769
  684MPD2     H10119   0.025   0.194  16.271 -1.9177  2.1072  0.5709
  684MPD2    H110120   0.144   0.309  16.649 -0.4635  0.4930  0.0434
  684MPD2    H210121   0.003   4.625  16.588  0.1854  0.3568 -0.1277
  684MPD2    H310122   0.099   0.076  16.738 -4.3219  0.3685  0.6877
  684MPD2     N10123   0.133   0.396  16.422 -0.3418  0.0830 -0.1937
  684MPD2    H510124   0.164   0.463  16.492  0.0554 -0.2026 -0.0989
  684MPD2    N110125   4.692   4.666  16.316  0.8471  0.0169  0.1718
  684MPD2    H710126   4.671   4.711  16.228  1.4662 -0.0711 -0.0226
  685TMC3    C110127   4.674   4.457  16.205 -0.0906  0.1688 -1.0402
  685TMC3    C210128   4.599   4.526  16.110 -0.6008  0.2436  0.6122
  685TMC3    C310129   4.638   4.498  15.985 -0.3225  0.2713  0.2447
  685TMC3    C410130   0.045   4.363  16.183  0.0709 -0.0175 -0.8548
  685TMC3    C510131   0.058   4.326  16.053 -0.6133  0.4394 -0.1213
  685TMC3    C610132   4.722   4.392  15.952  0.2426  0.4566 -0.0572
  685TMC3     C10133   4.702   4.529  16.325 -0.0229  0.3732 -0.1828
  685TMC3     O10134   0.012   4.458  16.420  0.2355 -0.2745 -0.2422
  685TMC3     H10135   4.518   4.591  16.141 -1.7543 -1.0742  0.3737
  685TMC3    H110136   0.078   4.295  16.261  0.2955  0.9085 -0.1486
  685TMC3    H210137   0.025   4.370  15.848  1.0764 -1.3917  0.5250
  685TMC3    C710138   0.145   4.219  16.022  0.4593 -0.9809  0.0095
  685TMC3    C810139   4.548   4.552  15.883  0.4771 -0.1471  0.2421
  685TMC3    O110140   0.134   4.172  15.910  0.1712  0.1339 -0.7816
  685TMC3    O210141   4.557   4.504  15.772  0.4523  0.4955  0.0375
  686MPD2     C10142   1.593   4.560  15.607  0.8330 -0.1992 -0.6049
  686MPD2    C110143   1.510   4.450  15.624  0.1557 -0.3337  0.1662
  686MPD2    C210144   1.532   4.328  15.570  0.4687  0.0444  0.0742
  686MPD2    C310145   1.651   4.303  15.509  0.9583 -0.8306 -0.0369
  686MPD2    C410146   1.740   4.407  15.510 -0.7765 -0.6054 -0.7375
  686MPD2    C510147   1.717   4.534  15.555  0.0604  0.0954 -0.4840
  686MPD2     H10148   1.456   4.253  15.587  1.7157 -1.8401 -2.6147
  686MPD2    H110149   1.833   4.375  15.465  0.5963 -0.1580  1.7313
  686MPD2    H210150   1.566   4.651  15.658 -3.2939  0.1667 -3.4500
  686MPD2    H310151   1.796   4.608  15.549  2.3409 -2.3063 -0.0163
  686MPD2     N10152   1.692   4.172  15.476  0.6612 -0.9181  0.5129
  686MPD2    H510153   1.791   4.147  15.480  0.7600 -0.6924 -0.4426
  686MPD2    N110154   1.389   4.478  15.695  0.0088  0.2377  0.5801
  686MPD2    H710155   1.374   4.577  15.714 -2.0241  0.4741 -2.2005
  687TMC3    C110156   1.619   3.939  15.455  0.5962 -0.3379  0.4834
  687TMC3    C210157   1.498   3.883  15.442  0.5880 -0.1311 -0.4422
  687TMC3    C310158   1.427   3.836  15.548 -0.1922 -0.0535 -0.3800
  687TMC3    C410159   1.684   3.931  15.576 -0.1468  0.0720  0.0134
  687TMC3    C510160   1.612   3.882  15.686  0.2054 -0.3112 -0.3353
  687TMC3    C610161   1.488   3.835  15.672  0.5178 -0.2937  0.5913
  687TMC3     C10162   1.600   4.082  15.427  0.3717  0.0283 -0.6424
  687TMC3     O10163   1.487   4.101  15.378 -0.0809 -0.1002  0.3622
  687TMC3     H10164   1.456   3.886  15.342  0.5092  0.6661 -0.3853
  687TMC3    H110165   1.774   3.988  15.596 -1.0147  0.0278  4.1013
  687TMC3    H210166   1.429   3.821  15.762  0.0924  0.1436  0.3807
  687TMC3    C710167   1.657   3.931  15.817 -0.4612 -0.4419 -0.4671
  687TMC3    C810168   1.287   3.874  15.559  1.4247 -0.2037 -1.0386
  687TMC3    O110169   1.575   3.953  15.906 -0.2025  0.9236 -0.0937
  687TMC3    O210170   1.214   3.815  15.640 -0.4779 -0.0113  0.4713
  688MPD2     C10171   0.982   3.388  17.028  0.0336 -0.0868 -0.5041
  688MPD2    C110172   1.010   3.261  17.091 -0.5021  0.5143  0.0841
  688MPD2    C210173   1.078   3.161  17.022 -0.0355  0.6111 -0.0046
  688MPD2    C310174   1.110   3.184  16.892  0.0501  0.3563  0.2562
  688MPD2    C410175   1.095   3.305  16.837 -0.0320  0.8662 -0.5246
  688MPD2    C510176   1.035   3.405  16.904  0.2048  0.0274  0.1386
  688MPD2     H10177   1.109   3.071  17.074 -1.9871 -0.3118 -0.4389
  688MPD2    H110178   1.137   3.330  16.740  3.4174  1.0997  1.0508
  688MPD2    H210179   0.931   3.465  17.084  0.4865 -0.3805  0.3233
  688MPD2    H310180   1.035   3.505  16.865  1.8508  0.1316  0.3816
  688MPD2     N10181   1.187   3.096  16.814  0.2704  0.3043  0.2158
  688MPD2    H510182   1.230   3.134  16.731 -1.6537 -3.2340 -2.3935
  688MPD2    N110183   0.978   3.234  17.227 -0.3641  0.2659  0.2068
  688MPD2    H710184   0.981   3.141  17.268  1.1098  0.2042 -0.0618
  689TMC3    C110185   0.910   3.253  17.454  0.4705  0.2690 -0.6240
  689TMC3    C210186   0.934   3.331  17.566  0.3092  0.2616  0.5887
  689TMC3    C310187   0.934   3.262  17.683 -0.1059 -0.5126 -0.3139
  689TMC3    C410188   0.890   3.120  17.462  0.6272 -0.3429  0.0613
  689TMC3    C510189   0.884   3.052  17.583  1.2794 -0.5616 -0.2171
  689TMC3    C610190   0.908   3.132  17.686  0.0859 -0.3601  0.1441
  689TMC3     C10191   0.927   3.316  17.324 -0.0345 -0.2650  0.0580
  689TMC3     O10192   0.909   3.433  17.324  0.4827 -0.0345  0.1007
  689TMC3     H10193   0.952   3.437  17.553 -2.6604  0.8609  1.5122
  689TMC3    H110194   0.851   3.058  17.382 -2.4688 -0.3605  1.5663
  689TMC3    H210195   0.879   3.096   0.091 -0.2830  0.0380  0.1834
  689TMC3    C710196   0.790   2.944  17.613  0.3647  0.3211  0.2307
  689TMC3    C810197   0.914   3.335   0.116 -0.1043 -0.4346 -0.1981
  689TMC3    O110198   0.817   2.872   0.020  0.4897  0.1881  0.1805
  689TMC3    O210199   0.897   3.277   0.221  0.0812 -0.1126  0.2858
  690MPD2     C10200   3.058   0.767  15.511  0.6467  0.8304  0.8700
  690MPD2    C110201   3.010   0.757  15.384  0.8649 -0.4967  0.2503
  690MPD2    C210202   3.095   0.783  15.278 -0.1472 -0.0740  0.5771
  690MPD2    C310203   3.225   0.820  15.298  0.0826  0.3008 -0.5624
  690MPD2    C410204   3.272   0.844  15.428  0.7923 -0.2975 -0.2262
  690MPD2    C510205   3.181   0.821  15.532  0.0497  0.0591 -0.0639
  690MPD2     H10206   3.065   0.777  15.174  1.1343  0.8135  0.1515
  690MPD2    H110207   3.370   0.879  15.458  1.2631  0.0198 -2.1760
  690MPD2    H210208   2.997   0.731  15.593 -0.9223 -1.4811 -1.3318
  690MPD2    H310209   3.200   0.855  15.634 -1.0958 -0.6420  0.3829
  690MPD2     N10210   3.304   0.842  15.184 -0.6573 -0.0921  0.1635
  690MPD2    H510211   3.256   0.826  15.096  0.5184  2.2386 -0.9256
  690MPD2    N110212   2.879   0.705  15.366  0.5599  0.1473 -0.9283
  690MPD2    H710213   2.853   0.687  15.270 -0.6500  0.0478 -0.5862
  691TMC3    C110214   2.682   0.608  15.409 -1.0456  0.3704 -0.9571
  691TMC3    C210215   2.574   0.589  15.494  0.2304 -0.2582  0.6005
  691TMC3    C310216   2.512   0.470  15.508 -0.3453  0.3543  0.2411
  691TMC3    C410217   2.730   0.496  15.338 -0.6193 -0.5872 -0.1010
  691TMC3    C510218   2.657   0.378  15.355 -0.2600  0.0191 -0.4055
  691TMC3    C610219   2.551   0.364  15.437  0.5898 -0.5400 -0.2289
  691TMC3     C10220   2.783   0.701  15.455 -0.5270 -0.0411 -0.8887
  691TMC3     O10221   2.770   0.735  15.573  0.1500  0.0093  0.7506
  691TMC3     H10222   2.566   0.668  15.568  0.9030 -1.3602  1.8490
  691TMC3    H110223   2.818   0.486  15.277 -2.3174 -3.7897 -2.0555
  691TMC3    H210224   2.508   0.265  15.450  2.0085 -0.8949  1.7264
  691TMC3    C710225   2.728   0.255  15.326  0.1196 -0.3938 -0.0296
  691TMC3    C810226   2.433   0.445  15.625  0.3865 -0.1200  0.0513
  691TMC3    O110227   2.849   0.266  15.316 -0.1714  0.1519 -0.1071
  691TMC3    O210228   2.428   0.326  15.652  0.4563 -0.4992 -0.2430
  692TMC3    C110229   4.405   1.621  16.005  0.4462 -0.4108 -0.0648
  692TMC3    C210230   4.539   1.659  16.025  0.3494  0.0692 -1.0229
  692TMC3    C310231   4.639   1.579  15.976  0.4301 -0.5154  0.2700
  692TMC3    C410232   4.372   1.500  15.949 -0.0643  0.3714  0.0581
  692TMC3    C510233   4.474   1.423  15.904 -0.1365 -0.8907 -0.5030
  692TMC3    C610234   4.604   1.462  15.920  0.9117  0.0514  0.2929
  692TMC3     C10235   4.295   1.713  16.017 -0.0260 -0.2959  0.4966
  692TMC3     O10236   4.189   1.673  15.975  0.5015  0.2385  0.2012
  692TMC3     H10237   4.562   1.765  16.023  0.9340 -0.0177  1.1498
  692TMC3    H110238   4.270   1.465  15.944  0.3789 -1.0511  0.8435
  692TMC3    H210239   4.676   1.417  15.852 -0.1762 -0.8623 -0.2441
  692TMC3    C710240   4.440   1.291  15.854  0.3054  0.4096  0.2642
  692TMC3    C810241   0.002   1.548  16.089  0.1722  0.0999  1.2006
  692TMC3    O110242   4.334   1.262  15.803 -0.4696  0.3605 -0.5384
  692TMC3    O210243   0.061   1.440  16.083 -0.5917 -0.2481 -0.0934
  693MPD2     C10244   3.602   4.052  10.537  0.3606 -0.1235  0.3229
  693MPD2    C110245   3.586   3.920  10.562  0.2582 -0.1246  0.0172
  693MPD2    C210246   3.693   3.835  10.569  0.0522  0.9967  1.1035
  693MPD2    C310247   3.821   3.881  10.558 -0.2752  0.4695  0.6671
  693MPD2    C410248   3.837   4.018  10.544  0.2019  0.1765  0.5365
  693MPD2    C510249   3.727   4.097  10.544 -0.2085  0.2373  0.6162
  693MPD2     H10250   3.682   3.728  10.584 -3.5778  1.2112  0.0125
  693MPD2    H110251   3.934   4.067  10.546  1.5692 -2.5422  0.2456
  693MPD2    H210252   3.514   4.115  10.544 -1.1451 -1.9457 -1.9371
  693MPD2    H310253   3.730   4.205  10.546  2.0298  0.1439  1.6648
  693MPD2     N10254   3.940   3.809  10.588 -0.5569  0.5166 -0.4142
  693MPD2    H510255   4.028   3.859  10.580 -0.7542  0.8657 -0.3843
  693MPD2    N110256   3.449   3.875  10.586  0.3177 -0.1302 -0.1288
  693MPD2    H710257   3.373   3.943  10.589  1.7695  1.5602 -1.6154
  694TMC3    C110258   3.285   3.726  10.664  0.4863  0.3547  0.0385
  694TMC3    C210259   3.228   3.608  10.638  0.6229 -0.2474  0.0416
  694TMC3    C310260   3.140   3.540  10.720  0.2589 -0.2466  0.6684
  694TMC3    C410261   3.255   3.785  10.781 -0.7025 -0.9493  0.1193
  694TMC3    C510262   3.183   3.713  10.872 -0.2716 -1.0387 -0.2941
  694TMC3    C610263   3.116   3.601  10.841 -0.6687  0.4750  0.4111
  694TMC3     C10264   3.416   3.748  10.613  0.0453 -0.1187 -0.0009
  694TMC3     O10265   3.468   3.640  10.589  0.0656 -0.2031  0.1942
  694TMC3     H10266   3.257   3.558  10.546 -0.5587 -1.0445  0.0926
  694TMC3    H110267   3.315   3.870  10.812 -1.3983 -0.7970  1.0562
  694TMC3    H210268   3.050   3.547  10.908  1.2556 -0.3247  1.6700
  694TMC3    C710269   3.204   3.752  11.005 -0.5290  0.2364  0.4787
  694TMC3    C810270   3.023   3.480  10.658 -0.7055  1.2870 -0.7690
  694TMC3    O110271   3.278   3.844  11.032 -0.2812  0.1580 -0.3041
  694TMC3    O210272   2.921   3.515  10.717  0.0164  0.0085  0.1535
  695MPD2     C10273   0.276   1.222  13.083  0.0119  0.7021 -0.7632
  695MPD2    C110274   0.218   1.240  13.205 -0.0029  0.8178  0.0254
  695MPD2    C210275   0.079   1.252  13.204  0.1212 -0.3693 -1.2133
  695MPD2    C310276   0.008   1.270  13.094  0.7708 -0.0714 -0.2456
  695MPD2    C410277   0.075   1.264  12.974  0.1402  0.3503  0.5457
  695MPD2    C510278   0.206   1.238  12.973 -1.0075 -0.0271 -0.7615
  695MPD2     H10279   0.038   1.254  13.304 -1.2138  0.0943 -1.7734
  695MPD2    H110280   0.025   1.284  12.880 -0.0849  1.0561  0.8114
  695MPD2    H210281   0.382   1.206  13.067  0.3110  1.7031  0.2235
  695MPD2    H310282   0.260   1.222  12.880 -0.2710  0.4807 -0.4187
  695MPD2     N10283   4.595   1.293  13.113  0.5831  0.3047 -0.3630
  695MPD2    H510284   4.562   1.273  13.207 -1.2134 -1.4994 -1.3571
  695MPD2    N110285   0.277   1.233  13.336  0.0789  0.0781 -0.3926
  695MPD2    H710286   0.220   1.261  13.414 -0.0578  1.3998 -0.9634
  696TMC3    C110287   4.369   1.342  13.065 -0.0084  0.6598 -0.3689
  696TMC3    C210288   4.319   1.242  13.150 -0.5199 -0.0567  0.2392
  696TMC3    C310289   4.188   1.260  13.199  0.3534 -0.3644  0.5486
  696TMC3    C410290   4.298   1.455  13.025 -0.4300  0.2908  0.2538
  696TMC3    C510291   4.179   1.472  13.091  0.3509 -0.4777  0.9243
  696TMC3    C610292   4.117   1.379  13.168  0.0818  0.2770  0.3694
  696TMC3     C10293   4.506   1.338  13.021 -0.4474  0.1065  0.5683
  696TMC3     O10294   4.533   1.407  12.925  0.1863  0.0422 -0.4704
  696TMC3     H10295   4.383   1.166  13.194 -0.3223 -1.1653 -1.9427
  696TMC3    H110296   4.333   1.538  12.965 -3.5238  1.9616  0.7436
  696TMC3    H210297   4.015   1.397  13.200 -0.0604 -1.6832  1.0020
  696TMC3    C710298   4.130   1.612  13.104  1.1812  0.4210  0.8580
  696TMC3    C810299   4.155   1.176  13.314  0.3143  0.2564 -0.3658
  696TMC3    O110300   4.131   1.685  13.003 -0.5017  0.7748  0.1523
  696TMC3    O210301   4.059   1.211  13.384 -0.5824  0.5960  0.1195
  697MPD2     C10302   3.902   3.447  15.853 -0.8206  1.3026 -0.0421
  697MPD2    C110303   3.927   3.377  15.736  0.0666  0.1135  0.4083
  697MPD2    C210304   3.979   3.440  15.628 -0.7316 -0.2598 -0.3662
  697MPD2    C310305   4.012   3.572  15.631 -0.5402 -0.0242 -0.4263
  697MPD2    C410306   4.001   3.634  15.760 -0.1765  0.3389 -0.1799
  697MPD2    C510307   3.941   3.578  15.865 -0.4278  0.4979  0.1523
  697MPD2     H10308   3.982   3.384  15.534  0.7392 -0.8297  0.0195
  697MPD2    H110309   4.027   3.740  15.762 -0.3412  0.3869 -0.6392
  697MPD2    H210310   3.858   3.406  15.944  0.0842  2.8040  1.0761
  697MPD2    H310311   3.937   3.624  15.963 -2.2245 -1.0212  0.7798
  697MPD2     N10312   4.064   3.637  15.518 -0.1467 -0.0103 -0.3277
  697MPD2    H510313   4.071   3.583  15.432  0.1919  3.6089 -2.5878
  697MPD2    N110314   3.890   3.236  15.729  0.3885  0.2985  0.1832
  697MPD2    H710315   3.932   3.188  15.650  2.1541  0.9272  0.7282
  698TMC3    C110316   4.163   3.805  15.382  0.2793  0.0161 -0.2637
  698TMC3    C210317   4.224   3.929  15.382 -0.9511  0.1354 -0.2390
  698TMC3    C310318   4.239   4.000  15.263  0.4433  0.1146  0.5079
  698TMC3    C410319   4.103   3.758  15.267  0.1310 -0.0041 -0.3055
  698TMC3    C510320   4.112   3.833  15.149  0.2045  0.0157  0.2518
  698TMC3    C610321   4.187   3.949  15.143 -0.0122 -0.3142 -0.6678
  698TMC3     C10322   4.108   3.765  15.512 -0.5029 -0.2849 -0.3118
  698TMC3     O10323   4.091   3.851  15.597 -0.4608  0.0285  0.2134
  698TMC3     H10324   4.259   3.964  15.479 -0.0400 -0.4036 -0.3742
  698TMC3    H110325   4.048   3.664  15.266  0.8676 -0.4250 -1.9350
  698TMC3    H210326   4.201   3.991  15.044  1.1132 -1.5719 -1.0447
  698TMC3    C710327   4.048   3.792  15.030  0.0834 -0.2341 -0.6482
  698TMC3    C810328   4.324   4.117  15.273  0.1082 -0.6254 -0.0617
  698TMC3    O110329   4.103   3.816  14.925  0.7631  0.3623 -0.8055
  698TMC3    O210330   4.312   4.183  15.376  0.0455 -0.3164 -0.7654
  699TMC3    C110331   4.297   1.183  12.736 -0.3493 -0.3107 -0.6407
  699TMC3    C210332   4.324   1.063  12.801 -1.1871 -0.3565 -0.3864
  699TMC3    C310333   4.220   1.015  12.871 -0.1473  0.3643  0.0126
  699TMC3    C410334   4.179   1.254  12.751  0.1072 -0.1760 -0.2290
  699TMC3    C510335   4.081   1.203  12.829 -0.2226 -0.1291  0.3501
  699TMC3    C610336   4.095   1.078  12.882  0.0781 -0.2338 -0.6768
  699TMC3     C10337   4.389   1.253  12.647 -0.7434 -0.4433  0.0248
  699TMC3     O10338   4.351   1.359  12.603 -0.5091 -0.2883  0.7086
  699TMC3     H10339   4.423   1.018  12.799 -0.9969  0.0375  0.0435
  699TMC3    H110340   4.159   1.348  12.701 -3.2567 -0.3545  0.7825
  699TMC3    H210341   4.027   1.024  12.946  0.0598 -0.0315 -0.5248
  699TMC3    C710342   3.965   1.277  12.866 -0.3300 -0.1239 -0.8984
  699TMC3    C810343   4.247   0.916  12.978 -0.4698 -0.0484 -0.5253
  699TMC3    O110344   3.902   1.235  12.959 -0.0825 -0.4157  0.3083
  699TMC3    O210345   4.185   0.929  13.080  0.1548 -0.3252  0.5953
  700TMC3    C110346   3.172   3.813  17.609  0.3283 -0.1489 -0.2042
  700TMC3    C210347   3.247   3.729  17.542 -0.1742  0.0386  0.5834
  700TMC3    C310348   3.368   3.703  17.599  0.4174  0.5123  0.2708
  700TMC3    C410349   3.210   3.878   0.031 -0.3947 -0.1572  0.4546
  700TMC3    C510350   3.331   3.856   0.079  0.1636  0.3830  0.2738
  700TMC3    C610351   3.411   3.763   0.021  0.3312  0.1300 -0.2773
  700TMC3     C10352   3.090   3.898  17.518 -0.2458 -0.1925  0.0894
  700TMC3     O10353   2.981   3.942  17.557  0.0312  0.0930  0.0890
  700TMC3     H10354   3.217   3.685  17.448  1.5502  0.8514 -0.3399
  700TMC3    H110355   3.161   3.971   0.056  2.3862  1.5689 -0.4297
  700TMC3    H210356   3.507   3.747   0.069 -0.7672  0.0520  1.8858
  700TMC3    C710357   3.385   3.990   0.082  0.4664  0.2350 -0.3149
  700TMC3    C810358   3.467   3.633  17.511  0.4039 -0.4690  0.4246
  700TMC3    O110359   3.394   4.051  17.668 -0.2740  0.1679  0.3493
  700TMC3    O210360   3.421   3.595  17.404 -0.2603 -0.4696  0.0567
  701TMC3    C110361   3.436   2.318  15.669  0.0417  0.2627  0.1467
  701TMC3    C210362   3.485   2.273  15.548  0.5351  0.6485 -0.1116
  701TMC3    C310363   3.585   2.348  15.496 -0.2235  0.0953 -0.4551
  701TMC3    C410364   3.469   2.435  15.726 -0.1545 -0.0299  0.5012
  701TMC3    C510365   3.565   2.512  15.670  0.4203  0.0770  0.4017
  701TMC3    C610366   3.632   2.462  15.560 -0.4839  0.2932 -1.2819
  701TMC3     C10367   3.322   2.239  15.722  0.4941  0.2959  0.4877
  701TMC3     O10368   3.241   2.290  15.792  0.2988  0.1506  0.4929
  701TMC3     H10369   3.450   2.183  15.499 -0.2250 -0.1305  1.8241
  701TMC3    H110370   3.401   2.482  15.796 -2.0351 -0.1216 -1.2694
  701TMC3    H210371   3.716   2.517  15.519 -0.0379  0.5385 -0.0278
  701TMC3    C710372   3.560   2.656  15.671 -0.2587 -0.2829  0.0838
  701TMC3    C810373   3.599   2.352  15.353  0.2922  0.3524 -0.4174
  701TMC3    O110374   3.599   2.707  15.566  0.3044  0.1652 -0.3771
  701TMC3    O210375   3.704   2.403  15.318 -0.2905 -0.0568 -0.3744
  702MPD2     C10376   2.787   4.634  10.354 -0.7504  0.3482 -0.5513
  702MPD2    C110377   2.778   4.714  10.462  0.6342 -0.5506 -0.7230
  702MPD2    C210378   2.770   0.126  10.440 -0.3509 -0.0466  0.0035
  702MPD2    C310379   2.767   0.181  10.320 -0.3040  0.0387  0.8929
  702MPD2    C410380   2.759   0.099  10.209  0.6431  0.2489  0.4657
  702MPD2    C510381   2.778   4.687  10.228 -0.3578  0.1489 -0.0125
  702MPD2     H10382   2.752   0.188  10.528  0.0740  0.5526 -0.3325
  702MPD2    H110383   2.743   0.136  10.108 -0.6058 -1.8682 -0.0984
  702MPD2    H210384   2.796   4.527  10.370  0.1959  0.5107 -0.0168
  702MPD2    H310385   2.791   4.611  10.151 -2.6329 -0.0936 -0.1656
  702MPD2     N10386   2.768   0.325  10.310 -0.2728  0.1522 -0.1088
  702MPD2    H510387   2.769   0.375  10.398 -2.1095  2.0266 -1.1788
  702MPD2    N110388   2.762   4.669  10.594  0.0336  0.0094 -0.0573
  702MPD2    H710389   2.731   0.020  10.657 -1.5714 -0.3334 -0.4628
  703TMC3    C110390   2.755   0.542  10.231 -0.1431  0.1453  0.6428
  703TMC3    C210391   2.718   0.579  10.358 -0.3393 -0.0032  0.2086
  703TMC3    C310392   2.752   0.703  10.407  0.2230  0.2281  0.1643
  703TMC3    C410393   2.838   0.614  10.156  0.3474  0.1383  0.2567
  703TMC3    C510394   2.882   0.732  10.210  0.3139  0.1766  0.8433
  703TMC3    C610395   2.840   0.777  10.335 -0.4088  0.5491  0.6706
  703TMC3     C10396   2.757   0.399  10.197  0.4547  0.3361  0.3970
  703TMC3     O10397   2.764   0.365  10.081  0.3837 -0.2859  0.3418
  703TMC3     H10398   2.657   0.513  10.418  0.0086 -0.6083 -0.1034
  703TMC3    H110399   2.883   0.570  10.068  1.8372  1.6263  0.2664
  703TMC3    H210400   2.883   0.869  10.374 -0.8295  2.3646 -3.1167
  703TMC3    C710401   2.991   0.799  10.143 -0.1848  0.4106 -0.1755
  703TMC3    C810402   2.732   0.733  10.542 -0.2642 -0.0735  0.0452
  703TMC3    O110403   3.076   0.857  10.206  0.3837 -0.1949  0.1713
  703TMC3    O210404   2.822   0.787  10.609  0.1467 -0.3207  0.0942
  704TMC3    C110405   0.145   2.977  12.567 -0.6492 -0.0229  0.8617
  704TMC3    C210406   0.279   2.988  12.541  0.5834  0.5057 -0.2548
  704TMC3    C310407   0.368   2.904  12.591 -0.7648 -0.5725  0.1566
  704TMC3    C410408   0.097   2.876  12.645  0.1551 -0.0940  0.1778
  704TMC3    C510409   0.193   2.785  12.685  0.2335  0.0860 -0.7584
  704TMC3    C610410   0.328   2.804  12.671 -0.3501  0.2192 -0.1839
  704TMC3     C10411   0.048   3.026  12.471 -0.3148  0.4803 -0.3909
  704TMC3     O10412   4.654   3.049  12.497 -0.1567 -0.3093 -0.3853
  704TMC3     H10413   0.319   3.077  12.494 -0.1547 -1.2084 -4.0844
  704TMC3    H110414   4.712   2.865  12.652  0.0673 -0.3771 -1.8396
  704TMC3    H210415   0.394   2.733  12.719 -0.2124  0.8569  0.5687
  704TMC3    C710416   0.152   2.650  12.696 -0.0380 -0.2956 -0.0217
  704TMC3    C810417   0.468   2.878  12.499  0.2936  0.6456 -0.4875
  704TMC3    O110418   0.234   2.562  12.705 -0.2312  0.1894 -0.4564
  704TMC3    O210419   0.456   2.914  12.384 -0.1951  0.0250 -0.2413
  705MPD2     C10420   0.133   0.969  16.445  0.2882 -1.0218  0.8136
  705MPD2    C110421   0.141   1.110  16.457 -0.6349  0.2560 -0.5195
  705MPD2    C210422   0.025   1.180  16.494  0.0022  0.1367  0.2237
  705MPD2    C310423   4.638   1.101  16.528 -0.9370 -0.8312  0.2832
  705MPD2    C410424   4.631   0.963  16.514 -0.0448 -0.3998 -1.5802
  705MPD2    C510425   0.020   0.903  16.470 -0.0702 -0.6248 -0.1860
  705MPD2     H10426   0.022   1.286  16.513 -1.9463  0.2193 -0.5119
  705MPD2    H110427   4.545   0.901  16.536  0.8322 -1.2545 -0.5691
  705MPD2    H210428   0.218   0.917  16.402  0.9119  1.7578 -1.3276
  705MPD2    H310429   0.013   0.797  16.448 -0.2372 -0.7998  0.7308
  705MPD2     N10430   4.517   1.157  16.587  0.0677 -0.1402  0.0774
  705MPD2    H510431   4.442   1.092  16.607  1.4484 -1.2874  1.5290
  705MPD2    N110432   0.251   1.190  16.412 -0.3540 -0.0666  0.1312
  705MPD2    H710433   0.245   1.290  16.393  0.7776  0.2100  1.2347
  706TMC3    C110434   0.512   1.223  16.052 -0.2344 -0.6963  0.0820
  706TMC3    C210435   0.487   1.362  16.036  0.0470 -0.8129  0.5501
  706TMC3    C310436   0.423   1.422  16.139  0.5163 -0.4710  0.2217
  706TMC3    C410437   0.493   1.159  16.167 -0.0161 -0.3177 -0.0768
  706TMC3    C510438   0.439   1.231  16.277 -0.3717 -0.6374 -0.3159
  706TMC3    C610439   0.402   1.364  16.261 -0.2562  0.0087 -0.2951
  706TMC3     C10440   0.583   1.148  15.947 -0.2809  0.2057 -0.0617
  706TMC3     O10441   0.589   1.026  15.952  0.4183  0.7044 -0.1346
  706TMC3     H10442   0.505   1.415  15.943 -1.0467  0.7334  1.2235
  706TMC3    H110443   0.498   1.051  16.160  1.3894 -0.4217  2.5855
  706TMC3    H210444   0.356   1.423  16.340 -1.2675  0.8687 -1.5252
  706TMC3    C710445   0.368   1.137  16.365 -0.6027 -0.3318  0.8571
  706TMC3    C810446   0.364   1.551  16.111  0.5129  0.0682  0.4825
  706TMC3    O110447   0.410   1.023  16.370  0.0315 -0.0837 -0.2074
  706TMC3    O210448   0.345   1.568  15.992 -0.7882  0.3837 -0.9387
  707TMC3    C110449   1.688   3.978   1.116 -0.2686 -0.3643  0.3550
  707TMC3    C210450   1.706   3.852   1.172 -0.2837  0.3100  0.0049
  707TMC3    C310451   1.600   3.772   1.161  0.1654 -0.1485  0.1227
  707TMC3    C410452   1.567   4.033   1.091 -0.7712  0.0419  0.7033
  707TMC3    C510453   1.470   3.946   1.081  0.0814 -0.3887 -0.3856
  707TMC3    C610454   1.481   3.811   1.117 -0.1790  0.7039  0.1512
  707TMC3     C10455   1.808   4.044   1.082  0.9585  0.1489 -0.3797
  707TMC3     O10456   1.912   3.980   1.073  0.0586 -0.3324 -0.0832
  707TMC3     H10457   1.799   3.838   1.226 -1.1971 -3.4065  0.5879
  707TMC3    H110458   1.558   4.132   1.047  0.0329 -1.5763 -3.0631
  707TMC3    H210459   1.406   3.732   1.114  1.1074 -0.5248  0.1275
  707TMC3    C710460   1.341   3.998   1.020 -0.3914 -0.5568 -0.3997
  707TMC3    C810461   1.622   3.634   1.202  0.6424 -0.3622 -0.7349
  707TMC3    O110462   1.345   4.119   1.011 -0.0778 -0.4134 -0.4106
  707TMC3    O210463   1.530   3.571   1.257  0.8365  0.2752  0.2079
  708MPD2     C10464   3.455   4.282  13.645  0.1251 -0.9451  0.9312
  708MPD2    C110465   3.507   4.389  13.716 -0.9381  0.5980 -1.3079
  708MPD2    C210466   3.572   4.359  13.840 -0.6143 -0.3110 -0.1843
  708MPD2    C310467   3.569   4.234  13.892 -0.0722 -0.2935  0.1224
  708MPD2    C410468   3.493   4.135  13.831 -0.2014 -0.2313 -0.1112
  708MPD2    C510469   3.438   4.162  13.707 -0.1046  0.1715 -0.4191
  708MPD2     H10470   3.625   4.436  13.895  1.8523 -1.4944 -0.8812
  708MPD2    H110471   3.473   4.033  13.861 -0.1901 -0.3231 -0.4177
  708MPD2    H210472   3.381   4.278  13.566 -0.0913 -0.4001  1.1025
  708MPD2    H310473   3.372   4.091  13.658 -1.9502  0.9075  0.9977
  708MPD2     N10474   3.631   4.203  14.013 -0.1629  0.0624 -0.1907
  708MPD2    H510475   3.592   4.126  14.066  1.8977  0.2508  1.5773
  708MPD2    N110476   3.487   4.523  13.670 -0.0757 -0.6296  0.2580
  708MPD2    H710477   3.455   4.529  13.574  0.3889 -0.8550  0.0908
  709TMC3    C110478   3.442   0.032  13.700  0.1698 -0.4378 -0.0271
  709TMC3    C210479   3.346   0.013  13.609  0.2096  0.0754 -0.2240
  709TMC3    C310480   3.218   0.067  13.623 -0.5734 -0.3981  0.6732
  709TMC3    C410481   3.415   0.118  13.799  0.4335 -0.7211  0.4667
  709TMC3    C510482   3.285   0.158  13.823 -1.1565  0.2729 -0.1229
  709TMC3    C610483   3.184   0.128  13.741  0.2652 -0.1297  0.2607
  709TMC3     C10484   3.499   4.634  13.751  0.5110  0.1988  0.0478
  709TMC3     O10485   3.522   4.637  13.871  0.0665  0.8100  0.5247
  709TMC3     H10486   3.379   4.673  13.526 -1.1775 -0.1541 -0.6016
  709TMC3    H110487   3.482   0.148  13.879  3.0256 -1.0336 -1.5851
  709TMC3    H210488   3.083   0.163  13.754  0.1918 -0.2314 -0.0181
  709TMC3    C710489   3.243   0.139  13.957  0.2717 -0.2188  0.2650
  709TMC3    C810490   3.107   4.719  13.570 -0.5631  0.9629 -0.5767
  709TMC3    O110491   3.321   0.173  14.047 -0.1922  0.1634 -0.0777
  709TMC3    O210492   3.025   4.674  13.654  0.4570  0.4639  0.3877
  710TMC3    C110493   4.397   1.490   0.760  0.0793  0.6230  0.0099
  710TMC3    C210494   4.488   1.461   0.666 -0.3351 -0.3953 -0.1603
  710TMC3    C310495   4.583   1.365   0.684  1.0300 -0.0309 -0.4855
  710TMC3    C410496   4.381   1.406   0.869 -0.0091  0.0059 -0.1655
  710TMC3    C510497   4.474   1.305   0.876 -0.2743 -0.1028  0.3446
  710TMC3    C610498   4.579   1.284   0.795  0.6029  0.4889 -0.2079
  710TMC3     C10499   4.276   1.556   0.706 -0.2838 -0.1684 -0.3173
  710TMC3     O10500   4.268   1.585   0.586  0.6376 -0.4276  0.3584
  710TMC3     H10501   4.480   1.522   0.576 -1.2509 -1.6217 -0.9186
  710TMC3    H110502   4.293   1.410   0.933  2.1403 -1.8234  2.8974
  710TMC3    H210503   4.639   1.195   0.807  0.0941 -0.0807 -1.9516
  710TMC3    C710504   4.437   1.198   0.972  0.9435  0.3401  0.0214
  710TMC3    C810505   4.678   1.339   0.572 -0.1506  0.8110  0.5692
  710TMC3    O110506   4.478   1.088   0.939 -0.7451 -0.7015 -0.0153
  710TMC3    O210507   4.653   1.396   0.466  0.6392  0.3890  0.2558
  711TMC3    C110508   3.708   1.987  15.055 -0.3487  0.6428 -0.3063
  711TMC3    C210509   3.721   2.045  15.177  0.0900  0.3105  1.0435
  711TMC3    C310510   3.850   2.040  15.226  0.2108 -0.1931  0.0034
  711TMC3    C410511   3.808   1.913  14.997 -0.1978  0.2021 -0.5069
  711TMC3    C510512   3.928   1.898  15.055 -0.6379  0.0610 -0.1942
  711TMC3    C610513   3.962   1.980  15.163 -0.0168 -0.6906 -0.5290
  711TMC3     C10514   3.581   1.993  14.974  0.4950  1.0903 -0.0828
  711TMC3     O10515   3.594   1.965  14.859 -0.3623  0.0836 -0.2881
  711TMC3     H10516   3.638   2.083  15.235 -1.5884  0.1917 -1.2848
  711TMC3    H110517   3.795   1.881  14.894 -0.1753 -1.3379 -0.0207
  711TMC3    H210518   4.059   1.976  15.210  1.2126  0.2888 -3.0308
  711TMC3    C710519   3.984   1.766  15.054 -0.5030  0.1724  0.1745
  711TMC3    C810520   3.867   2.051  15.374 -0.4020  0.1786 -0.1300
  711TMC3    O110521   4.082   1.752  15.129 -0.0961  0.4533 -0.1011
  711TMC3    O210522   3.771   2.021  15.441 -0.1661 -0.2439 -0.6636
  712MPD2     C10523   0.296   2.804  13.620  0.1577 -0.0055  0.3385
  712MPD2    C110524   0.209   2.879  13.692 -0.4257 -1.0190  0.1172
  712MPD2    C210525   0.253   2.954  13.798 -0.3608  0.4727  0.0094
  712MPD2    C310526   0.386   2.959  13.828 -0.2706  0.2770  0.1301
  712MPD2    C410527   0.476   2.875  13.767 -0.1473 -0.3599 -0.1401
  712MPD2    C510528   0.426   2.799  13.655  0.8545  0.0087 -0.6717
  712MPD2     H10529   0.183   3.010  13.859 -0.5156 -0.3324  0.5732
  712MPD2    H110530   0.581   2.900  13.773  0.1526 -1.8427  0.6398
  712MPD2    H210531   0.273   2.740  13.535  0.3619  1.6845 -0.9773
  712MPD2    H310532   0.503   2.750  13.595  1.0172 -0.1853 -0.3044
  712MPD2     N10533   0.433   3.045  13.930 -0.0204  0.3970 -0.2047
  712MPD2    H510534   0.533   3.045  13.948 -0.3034  1.5247  1.3445
  712MPD2    N110535   0.073   2.881  13.661  0.4190 -0.4560 -0.1754
  712MPD2    H710536   0.006   2.927  13.722  1.3836 -0.4192  0.8577
  713TMC3    C110537   0.439   3.268  13.998  0.0799  0.1350  0.6190
  713TMC3    C210538   0.578   3.263  13.991  0.1826  0.1391 -0.2733
  713TMC3    C310539   0.641   3.376  13.947  0.1385  0.0944 -0.1696
  713TMC3    C410540   0.373   3.389  13.986 -0.0061 -0.1346  0.2128
  713TMC3    C510541   0.443   3.490  13.930 -0.1180 -0.8537  0.3447
  713TMC3    C610542   0.577   3.484  13.909  0.4030 -0.2817  0.4223
  713TMC3     C10543   0.363   3.147  13.989  0.4411 -0.2218  0.1335
  713TMC3     O10544   0.251   3.144  14.036  0.6253 -0.3005  0.2584
  713TMC3     H10545   0.625   3.166  14.006  1.8551  1.0400  0.3165
  713TMC3    H110546   0.265   3.391  13.988  0.0239  1.4044  0.5064
  713TMC3    H210547   0.631   3.562  13.856 -1.8156  1.1194  0.2163
  713TMC3    C710548   0.362   3.588  13.860  0.1543  0.6052 -0.1386
  713TMC3    C810549   0.769   3.351  13.869 -0.2364  0.8429 -0.0127
  713TMC3    O110550   0.245   3.560  13.836 -0.1602  0.3316  0.7836
  713TMC3    O210551   0.784   3.424  13.771 -0.0929  0.2073 -0.0938
  714MPD2     C10552   2.200   1.726   1.355  0.2892 -0.2187  0.6100
  714MPD2    C110553   2.275   1.649   1.260 -0.3003  0.2379  0.5999
  714MPD2    C210554   2.237   1.662   1.125 -0.1033  0.2047  0.1179
  714MPD2    C310555   2.139   1.752   1.086  0.3051 -0.1777  0.0536
  714MPD2    C410556   2.069   1.824   1.180 -0.3435 -0.1166 -0.6178
  714MPD2    C510557   2.102   1.805   1.311 -0.2528 -0.2407  0.0611
  714MPD2     H10558   2.284   1.617   1.039  0.5168 -0.3964  0.7656
  714MPD2    H110559   1.995   1.902   1.172  0.0997  0.4036  0.3938
  714MPD2    H210560   2.209   1.718   1.463 -1.0591 -2.4619  0.5479
  714MPD2    H310561   2.047   1.880   1.367  0.7863  1.2577 -0.9311
  714MPD2     N10562   2.126   1.769   0.952 -0.5769  0.2634 -0.2542
  714MPD2    H510563   2.183   1.718   0.886  0.5045  0.5590  0.4640
  714MPD2    N110564   2.378   1.574   1.311 -0.3941 -0.3349 -1.1488
  714MPD2    H710565   2.382   1.563   1.412  1.3313 -1.1578 -1.3007
  715TMC3    C110566   2.571   1.442   1.331 -0.0120 -0.4616  0.0159
  715TMC3    C210567   2.652   1.343   1.282 -0.4278 -0.4209  0.1289
  715TMC3    C310568   2.747   1.285   1.364 -0.3211  0.6655 -0.3613
  715TMC3    C410569   2.591   1.494   1.454  0.9938  0.0374 -0.0747
  715TMC3    C510570   2.684   1.430   1.535 -0.0686 -0.1684  0.0811
  715TMC3    C610571   2.765   1.325   1.492  0.1446 -0.4626 -0.0617
  715TMC3     C10572   2.467   1.498   1.242  0.5597  0.6032  0.6824
  715TMC3     O10573   2.478   1.487   1.118  0.5812  0.5046 -0.3700
  715TMC3     H10574   2.634   1.301   1.184  0.4242 -2.6399  0.9294
  715TMC3    H110575   2.537   1.579   1.493 -0.0900  0.5371 -2.6540
  715TMC3    H210576   2.836   1.278   1.559 -2.0167 -1.4004  1.6049
  715TMC3    C710577   2.724   1.484   1.666  0.4394  0.4364 -0.9502
  715TMC3    C810578   2.831   1.184   1.304  0.4227  0.3622  0.1062
  715TMC3    O110579   2.833   1.455   1.710  0.6102 -0.5377  0.0217
  715TMC3    O210580   2.825   1.172   1.183  0.2901 -0.1056  0.0239
  716MPD2     C10581   2.173   4.341  10.116 -0.1988 -0.8156  0.3531
  716MPD2    C110582   2.185   4.344   9.975 -0.1982 -0.3494  0.0713
  716MPD2    C210583   2.263   4.245   9.917 -0.7383  0.0381 -0.7114
  716MPD2    C310584   2.332   4.145   9.988  0.4297  0.1854 -0.2397
  716MPD2    C410585   2.320   4.143  10.124 -0.4598 -0.8373  0.5241
  716MPD2    C510586   2.242   4.238  10.181  0.0278  0.3166 -0.0369
  716MPD2     H10587   2.279   4.242   9.810 -3.9395 -0.8405 -1.1536
  716MPD2    H110588   2.376   4.079  10.191  0.7918  0.1498  0.4167
  716MPD2    H210589   2.115   4.413  10.172  1.6916  1.4616 -0.5827
  716MPD2    H310590   2.240   4.230  10.289  2.9325 -0.6277 -0.0497
  716MPD2     N10591   2.416   4.049   9.919 -0.1495  0.2313  0.3473
  716MPD2    H510592   2.418   4.049   9.817 -0.3953 -1.0873  0.3383
  716MPD2    N110593   2.107   4.443   9.904 -0.3493 -0.1656  0.1694
  716MPD2    H710594   2.048   4.501   9.961  1.2566  1.3272  0.3196
  717TMC3    C110595   2.560   3.876   9.880 -0.5811 -0.4146  0.3086
  717TMC3    C210596   2.540   3.873   9.747 -0.6984 -0.3429  0.3000
  717TMC3    C310597   2.588   3.771   9.681 -0.7774  0.5218 -0.4497
  717TMC3    C410598   2.655   3.802   9.945 -0.1870  0.0402 -0.6280
  717TMC3    C510599   2.703   3.694   9.872 -0.0524 -0.6694  0.3306
  717TMC3    C610600   2.671   3.680   9.738 -0.1397  0.5280 -0.1222
  717TMC3     C10601   2.472   3.937   9.973 -0.6187 -0.1518 -0.0666
  717TMC3     O10602   2.464   3.888  10.086  0.2222 -0.5311  0.4571
  717TMC3     H10603   2.471   3.941   9.698 -0.5615  0.7257  1.5726
  717TMC3    H110604   2.672   3.814  10.051 -1.1525 -2.0668 -0.2360
  717TMC3    H210605   2.716   3.595   9.688 -0.0307 -0.2161  1.2254
  717TMC3    C710606   2.807   3.606   9.931 -0.0408  0.2354 -0.1778
  717TMC3    C810607   2.520   3.731   9.561  0.5819  0.2383  0.8632
  717TMC3    O110608   2.825   3.507   9.863 -0.3676  0.4971  0.3806
  717TMC3    O210609   2.476   3.823   9.493  0.0382  0.1289 -0.0840
  718MPD2     C10610   1.869   3.882  13.009  0.4462  0.2918 -0.0453
  718MPD2    C110611   1.877   3.769  12.933 -0.0020 -0.1133 -0.5221
  718MPD2    C210612   1.757   3.702  12.916  0.4596  0.5033 -0.0039
  718MPD2    C310613   1.643   3.742  12.967  0.3836  0.0573 -0.4200
  718MPD2    C410614   1.630   3.855  13.045  0.3669 -0.0490 -0.4767
  718MPD2    C510615   1.748   3.930  13.059 -0.4122 -0.4456 -0.5422
  718MPD2     H10616   1.746   3.619  12.847  0.1260  0.4699  0.0892
  718MPD2    H110617   1.532   3.895  13.070 -0.7273 -1.8867 -1.7713
  718MPD2    H210618   1.961   3.931  13.037  0.5579  0.4135 -0.6199
  718MPD2    H310619   1.749   4.010  13.131 -0.1576 -0.1483 -0.8783
  718MPD2     N10620   1.533   3.664  12.931  0.2244  0.1008  0.0052
  718MPD2    H510621   1.564   3.576  12.891 -1.6947 -0.2848 -0.6518
  718MPD2    N110622   2.002   3.731  12.875 -0.8893 -0.2514 -0.7987
  718MPD2    H710623   2.083   3.787  12.895 -0.4120 -0.4332 -2.1975
  719TMC3    C110624   2.159   3.626  12.729  0.2537 -0.9937  0.1806
  719TMC3    C210625   2.173   3.523  12.639 -0.9151 -0.3337 -1.1429
  719TMC3    C310626   2.178   3.538  12.502 -0.2203  0.2455 -0.4377
  719TMC3    C410627   2.199   3.749  12.683 -0.5638  0.0575  0.2361
  719TMC3    C510628   2.220   3.763  12.542  0.5378 -0.1699 -0.7930
  719TMC3    C610629   2.215   3.661  12.453 -0.3737 -0.2328 -0.0497
  719TMC3     C10630   2.031   3.616  12.804  0.6576 -0.5657  0.1783
  719TMC3     O10631   1.950   3.527  12.768  0.6330 -0.1768  0.5617
  719TMC3     H10632   2.142   3.431  12.687 -1.4047  0.7744  0.6664
  719TMC3    H110633   2.207   3.834  12.750  1.2422  3.0164 -3.7761
  719TMC3    H210634   2.219   3.676  12.346 -0.7637 -0.5454 -0.1071
  719TMC3    C710635   2.299   3.872  12.490 -0.3187 -0.0216  0.0301
  719TMC3    C810636   2.076   3.475  12.424  0.3105 -0.2012 -1.0009
  719TMC3    O110637   2.368   3.837  12.395 -0.7845 -0.1544 -0.2705
  719TMC3    O210638   2.099   3.466  12.305 -0.0692 -0.0329  0.5532
  720MPD2     C10639   0.722   4.622  14.130  0.6657  1.4223 -0.6374
  720MPD2    C110640   0.809   4.671  14.036  0.5148 -0.4211 -0.6457
  720MPD2    C210641   0.937   4.704  14.070 -0.1510 -0.4879 -0.1070
  720MPD2    C310642   0.971   4.711  14.205 -0.2796 -0.6044 -0.3777
  720MPD2    C410643   0.888   4.653  14.300 -0.8534  0.1056  0.1805
  720MPD2    C510644   0.769   4.603  14.258  0.3961 -0.0583  0.4700
  720MPD2     H10645   1.011   0.021  14.001 -1.0728  0.8137 -0.3443
  720MPD2    H110646   0.919   4.644  14.403 -1.0988 -0.9482  0.1594
  720MPD2    H210647   0.621   4.598  14.099  0.6642 -2.7832  2.6389
  720MPD2    H310648   0.706   4.549  14.329  0.0139  1.1445  1.0382
  720MPD2     N10649   1.085   0.054  14.237  0.0456  0.2386 -0.5377
  720MPD2    H510650   1.143   0.077  14.158 -0.8275  0.6269 -1.0709
  720MPD2    N110651   0.764   4.697  13.906  0.1804  0.0077  0.1389
  720MPD2    H710652   0.664   4.689  13.893 -0.2061  2.4945  1.6661
  721TMC3    C110653   1.231   0.180  14.376 -0.2252  0.0652 -0.4077
  721TMC3    C210654   1.222   0.268  14.480 -0.0223  0.9978 -0.0987
  721TMC3    C310655   1.293   0.384  14.469  0.4239  0.2764  0.1548
  721TMC3    C410656   1.305   0.207  14.265  0.2489 -0.2984 -0.2566
  721TMC3    C510657   1.367   0.326  14.262 -0.0592  0.7728  0.4702
  721TMC3    C610658   1.366   0.416  14.363 -0.7903 -0.2554 -0.5077
  721TMC3     C10659   1.119   0.080  14.367 -0.2379  0.6182  0.4553
  721TMC3     O10660   1.064   0.050  14.472 -0.1614  0.1842  0.4956
  721TMC3     H10661   1.149   0.246  14.558  2.2899 -0.5183  1.6476
  721TMC3    H110662   1.332   0.138  14.186  1.1134 -1.2039  0.8381
  721TMC3    H210663   1.423   0.508  14.356  0.9152 -1.2975 -0.3883
  721TMC3    C710664   1.446   0.354  14.142 -0.1495 -0.1725 -1.0650
  721TMC3    C810665   1.334   0.458  14.589 -0.1807  0.2238 -0.7824
  721TMC3    O110666   1.534   0.274  14.122  0.2470  0.7398  0.7543
  721TMC3    O210667   1.414   0.550  14.571 -0.1071  0.1275 -0.0659
  722MPD2     C10668   4.280   3.359  13.363  0.0194  0.2984 -0.0439
  722MPD2    C110669   4.259   3.469  13.293 -0.0436 -0.6985  0.5932
  722MPD2    C210670   4.150   3.477  13.208 -0.3931 -0.2638  0.4577
  722MPD2    C310671   4.050   3.388  13.221  0.0648  0.0378  0.0226
  722MPD2    C410672   4.059   3.277  13.309 -0.0328  0.0633 -0.4100
  722MPD2    C510673   4.179   3.262  13.377  0.0590  0.3753  0.3576
  722MPD2     H10674   4.140   3.572  13.157  4.3807 -1.5244 -2.8474
  722MPD2    H110675   3.983   3.204  13.331 -0.7687  0.1563 -2.5976
  722MPD2    H210676   4.375   3.344  13.412  0.6326 -0.3007 -1.4138
  722MPD2    H310677   4.184   3.187  13.455 -0.6105 -1.1941 -1.0896
  722MPD2     N10678   3.938   3.422  13.144 -0.3134  0.2402  0.4554
  722MPD2    H510679   3.946   3.492  13.072 -0.3041 -0.5030 -0.2635
  722MPD2    N110680   4.343   3.582  13.289  0.4399 -0.7295  0.2401
  722MPD2    H710681   4.332   3.649  13.214  1.1002  1.2120  1.8839
  723TMC3    C110682   3.716   3.422  13.084  1.3886  0.4338  0.4508
  723TMC3    C210683   3.601   3.352  13.062 -0.2239  0.3579  0.5710
  723TMC3    C310684   3.487   3.420  13.018 -0.0673  0.3202  0.3464
  723TMC3    C410685   3.723   3.554  13.063  0.3660 -0.7642  0.0427
  723TMC3    C510686   3.612   3.617  13.018  1.1910 -0.1919 -0.2421
  723TMC3    C610687   3.493   3.553  12.992  1.0520 -0.1253 -0.7993
  723TMC3     C10688   3.816   3.361  13.158  0.0519  0.2278 -0.5685
  723TMC3     O10689   3.774   3.268  13.226  0.3307 -0.8327  0.7280
  723TMC3     H10690   3.602   3.243  13.069  0.9571  0.4102  1.2102
  723TMC3    H110691   3.816   3.610  13.068 -0.4228  0.9109 -4.1519
  723TMC3    H210692   3.407   3.610  12.960  1.6302  1.3348  0.2310
  723TMC3    C710693   3.629   3.744  12.966 -0.4536 -0.1374  0.0692
  723TMC3    C810694   3.367   3.355  12.983  0.6465 -0.6641 -0.4884
  723TMC3    O110695   3.718   3.814  13.012 -0.5028  0.1534  0.0093
  723TMC3    O210696   3.272   3.429  12.963  0.0740 -0.1661  0.6515
  724TMC3    C110697   4.030   1.362   9.577  0.3140 -0.8192  0.2829
  724TMC3    C210698   3.941   1.443   9.517  0.4879 -0.5085  0.0798
  724TMC3    C310699   3.929   1.568   9.552  0.0587 -0.2459 -0.9646
  724TMC3    C410700   4.114   1.403   9.681  0.5610  0.5701 -0.6316
  724TMC3    C510701   4.084   1.533   9.723  0.4771  0.2367 -0.5776
  724TMC3    C610702   3.994   1.615   9.663  0.2494 -0.3213  0.0086
  724TMC3     C10703   4.019   1.222   9.538  0.4380 -0.3949  0.2233
  724TMC3     O10704   3.954   1.190   9.439  0.3840 -0.1155  0.0785
  724TMC3     H10705   3.911   1.420   9.415  1.6363  0.2746 -0.4342
  724TMC3    H110706   4.208   1.355   9.702  0.5353  1.3027  1.1406
  724TMC3    H210707   3.973   1.707   9.716  1.5414  0.2238 -0.4336
  724TMC3    C710708   4.203   1.611   9.724 -0.3241 -0.1630  0.3822
  724TMC3    C810709   3.894   1.672   9.456 -0.1503  0.8512  0.4393
  724TMC3    O110710   4.185   1.716   9.670 -0.0225  0.5308 -0.2065
  724TMC3    O210711   3.804   1.645   9.379 -0.1516 -0.5877 -0.4843
  725TMC3    C110712   1.225   0.775  13.117  0.5429 -0.1823  0.2653
  725TMC3    C210713   1.171   0.843  13.004  0.9577 -0.4136 -0.2242
  725TMC3    C310714   1.112   0.778  12.899  0.2174  0.0525 -0.3606
  725TMC3    C410715   1.238   0.640  13.113  0.3051 -0.0193  0.0651
  725TMC3    C510716   1.186   0.577  13.001 -0.0901 -0.0398 -0.0115
  725TMC3    C610717   1.117   0.641  12.903  0.1952  0.1522  0.4448
  725TMC3     C10718   1.334   0.848  13.187  0.1901 -0.4524 -0.2943
  725TMC3     O10719   1.303   0.964  13.207 -0.1472 -0.2044 -0.4460
  725TMC3     H10720   1.181   0.950  12.990 -0.0552 -0.2124  0.5689
  725TMC3    H110721   1.274   0.581  13.197 -0.3512 -1.5573 -0.7139
  725TMC3    H210722   1.059   0.593  12.825  1.4091 -1.0443  0.2740
  725TMC3    C710723   1.278   0.480  12.944 -0.5538 -0.5620  0.6290
  725TMC3    C810724   1.165   0.829  12.770 -0.7634 -0.5661 -0.5237
  725TMC3    O110725   1.313   0.503  12.831  0.2970 -0.5044  0.3547
  725TMC3    O210726   1.153   0.948  12.743  0.6546 -0.5036  0.5530
  726MPD2     C10727   4.228   1.736  10.382 -0.2649 -0.2283  0.1824
  726MPD2    C110728   4.110   1.800  10.358 -0.1410 -0.1146  0.2405
  726MPD2    C210729   3.990   1.738  10.388 -0.3151  0.9552  0.0562
  726MPD2    C310730   3.986   1.608  10.442  0.6673 -0.1568 -0.6427
  726MPD2    C410731   4.108   1.548  10.470  0.0655  0.2675  0.9839
  726MPD2    C510732   4.224   1.614  10.441 -0.3883  0.3863 -0.5458
  726MPD2     H10733   3.901   1.799  10.376 -2.0218 -2.2605 -3.9216
  726MPD2    H110734   4.101   1.444  10.501  1.4210  0.1060  0.7658
  726MPD2    H210735   4.327   1.770  10.354  0.3399 -2.0407  0.1119
  726MPD2    H310736   4.316   1.557  10.452 -1.3398 -1.1412 -0.5414
  726MPD2     N10737   3.865   1.548  10.483 -0.0298 -0.2186  0.0355
  726MPD2    H510738   3.873   1.460  10.532  2.2431 -0.7333 -1.2662
  726MPD2    N110739   4.090   1.927  10.303 -0.5426  0.0065 -0.2279
  726MPD2    H710740   3.993   1.953  10.293 -0.3843 -0.2615 -2.6309
  727TMC3    C110741   4.142   2.149  10.235  1.4145  0.3570  0.2716
  727TMC3    C210742   4.229   2.257  10.245 -0.6420 -0.0932  0.3407
  727TMC3    C310743   4.193   2.376  10.192 -0.5484 -0.2653 -0.2530
  727TMC3    C410744   4.019   2.171  10.179 -0.2313 -0.6207 -0.2654
  727TMC3    C510745   3.984   2.289  10.120 -0.0936 -0.5645 -1.0862
  727TMC3    C610746   4.074   2.396  10.128  0.3959 -0.3810 -0.5549
  727TMC3     C10747   4.191   2.015  10.269  0.3199  0.4664 -0.0072
  727TMC3     O10748   4.308   1.994  10.277 -0.0458 -0.5477 -0.5127
  727TMC3     H10749   4.321   2.251  10.301  0.8711 -1.7678 -2.3404
  727TMC3    H110750   3.952   2.086  10.179 -0.6787 -0.2690  2.0712
  727TMC3    H210751   4.060   2.492  10.081  0.9782  0.4950  1.0723
  727TMC3    C710752   3.859   2.293  10.057 -0.4440 -0.0910 -0.2279
  727TMC3    C810753   4.295   2.472  10.199  0.0453  0.0410  0.4294
  727TMC3    O110754   3.796   2.186  10.052  0.3818  0.1566  0.2051
  727TMC3    O210755   4.409   2.437  10.176  0.2248  0.4291 -0.7891
  728TMC3    C110756   3.480   0.913  15.041  1.1397 -0.3462 -0.4118
  728TMC3    C210757   3.612   0.942  15.029 -0.3197  0.5687  0.7134
  728TMC3    C310758   3.652   0.951  14.902 -0.2217  0.0217  0.2899
  728TMC3    C410759   3.395   0.909  14.936  0.1838  0.1375  0.1295
  728TMC3    C510760   3.438   0.949  14.816  0.0288  0.4187 -0.1128
  728TMC3    C610761   3.575   0.962  14.792 -0.7734 -0.4722  0.7423
  728TMC3     C10762   3.436   0.882  15.181 -1.0181 -0.1343  0.1068
  728TMC3     O10763   3.508   0.913  15.274 -0.1731 -0.0456 -0.2008
  728TMC3     H10764   3.677   0.949  15.115  1.8062 -2.7151 -0.6421
  728TMC3    H110765   3.288   0.890  14.947  0.2980 -0.2690  0.5116
  728TMC3    H210766   3.616   0.951  14.692 -1.2657  1.2646  0.3555
  728TMC3    C710767   3.346   0.939  14.711 -0.3285 -0.2496 -0.2534
  728TMC3    C810768   3.792   0.930  14.877  0.0300 -0.4762  0.4065
  728TMC3    O110769   3.259   0.851  14.717  0.2884 -0.0316 -0.7743
  728TMC3    O210770   3.831   0.970  14.770  0.8002  0.3065 -0.3445
  729MPD2     C10771   0.487   2.266  16.386 -1.1792 -0.7937  0.5650
  729MPD2    C110772   0.586   2.172  16.382  0.0372  0.1607 -0.2535
  729MPD2    C210773   0.606   2.103  16.497  0.3342 -0.8622  0.5597
  729MPD2    C310774   0.549   2.143  16.619  0.3763  0.4549  0.4121
  729MPD2    C410775   0.454   2.235  16.618  0.7760 -0.2192  0.1195
  729MPD2    C510776   0.422   2.295  16.501  0.4220  0.1232  0.7467
  729MPD2     H10777   0.690   2.034  16.492  0.4507 -0.7180  0.5461
  729MPD2    H110778   0.402   2.266  16.709 -0.8003  1.5062 -1.3752
  729MPD2    H210779   0.456   2.316  16.295 -0.2062  0.5264  0.9785
  729MPD2    H310780   0.339   2.365  16.497 -1.1984 -1.6884  2.7277
  729MPD2     N10781   0.579   2.089  16.745 -0.6412  0.0151 -0.3395
  729MPD2    H510782   0.527   2.132  16.821  0.7387  0.7251  0.1897
  729MPD2    N110783   0.658   2.168  16.265  0.3420  0.1994  0.5282
  729MPD2    H710784   0.622   2.229  16.193  0.1130  0.3306  0.7514
  730TMC3    C110785   0.702   1.992  16.923 -0.2278 -0.6104 -0.5976
  730TMC3    C210786   0.819   1.938  16.968  0.3129 -0.4760  0.1293
  730TMC3    C310787   0.871   1.980  17.089  0.4879 -0.4700 -0.4572
  730TMC3    C410788   0.634   2.079  17.002 -0.3233  0.3046  0.9123
  730TMC3    C510789   0.689   2.120  17.122 -0.1035 -0.2738 -0.0574
  730TMC3    C610790   0.805   2.069  17.170  0.1144 -0.1021 -0.3234
  730TMC3     C10791   0.672   1.996  16.781  0.9597 -0.7063 -0.6802
  730TMC3     O10792   0.725   1.913  16.708 -0.1568 -0.0987 -0.3403
  730TMC3     H10793   0.869   1.869  16.901 -1.0924 -1.6770  0.3073
  730TMC3    H110794   0.537   2.121  16.974 -0.8541 -1.2179  0.4679
  730TMC3    H210795   0.853   2.099  17.263  0.0851  0.0262 -0.3492
  730TMC3    C710796   0.682   2.265  17.125  0.4025  0.3729  0.1997
  730TMC3    C810797   0.968   1.889  17.141 -0.1566 -0.0365 -0.5864
  730TMC3    O110798   0.617   2.319  17.035 -0.6700  0.7140 -0.3337
  730TMC3    O210799   0.977   1.884  17.262  0.0736 -0.4007 -0.2324
  731MPD2     C10800   1.379   4.136  11.872 -0.2056 -0.4779 -0.3824
  731MPD2    C110801   1.247   4.138  11.847 -0.1485  0.0591  0.7141
  731MPD2    C210802   1.166   4.055  11.929 -0.8074  0.3908 -0.5192
  731MPD2    C310803   1.218   3.969  12.018  0.3608 -0.1796  0.2103
  731MPD2    C410804   1.355   3.965  12.034 -0.5842  0.3291  0.1406
  731MPD2    C510805   1.435   4.047  11.959 -0.3524 -0.4025 -0.0094
  731MPD2     H10806   1.058   4.049  11.919 -0.8118  0.5687 -0.5842
  731MPD2    H110807   1.401   3.891  12.098  0.4088 -1.0961 -2.2298
  731MPD2    H210808   1.442   4.208  11.821  0.4051 -0.8265 -0.1214
  731MPD2    H310809   1.539   4.065  11.984  0.3714 -3.0507 -1.1847
  731MPD2     N10810   1.125   3.894  12.093 -0.2555 -0.3183 -0.3030
  731MPD2    H510811   1.026   3.895  12.069 -0.6728  2.1170  1.5048
  731MPD2    N110812   1.192   4.237  11.761  0.8433 -1.2839 -0.4201
  731MPD2    H710813   1.250   4.305  11.712 -1.7084  2.5094  1.7456
  732TMC3    C110814   1.029   4.363  11.652 -0.3403  0.3219 -0.6977
  732TMC3    C210815   0.916   4.367  11.575 -0.5291  0.6920 -0.0912
  732TMC3    C310816   0.892   4.467  11.483  0.5702 -0.8958 -0.3839
  732TMC3    C410817   1.115   4.470  11.643 -0.4511 -0.0421 -0.9072
  732TMC3    C510818   1.088   4.575  11.558 -0.2330  0.0257  0.2313
  732TMC3    C610819   0.983   4.573  11.465 -1.0249  0.2646  0.6845
  732TMC3     C10820   1.056   4.237  11.722 -0.1063  0.5859 -0.1233
  732TMC3     O10821   0.960   4.169  11.759  0.2258 -0.4610  0.1158
  732TMC3     H10822   0.840   4.291  11.588 -1.3876  1.5863  0.1150
  732TMC3    H110823   1.193   4.478  11.718 -1.7229 -2.2426  0.6317
  732TMC3    H210824   0.943   4.659  11.412 -2.2612 -1.6813 -1.5258
  732TMC3    C710825   1.135   4.707  11.596 -1.0803  0.7104  0.2216
  732TMC3    C810826   0.766   4.490  11.416  0.1320  0.0711 -0.0441
  732TMC3    O110827   1.061   0.078  11.571 -0.3018 -0.8134  0.4148
  732TMC3    O210828   0.766   4.545  11.307 -0.2703  0.1568 -0.3231
  733TMC3    C110829   1.129   3.465  12.822 -0.1024  0.0813 -0.1940
  733TMC3    C210830   1.191   3.556  12.903  0.4325  0.2655  0.0205
  733TMC3    C310831   1.311   3.613  12.856  0.4058  0.8100  0.9388
  733TMC3    C410832   1.170   3.440  12.695 -0.0432  0.0248 -0.5604
  733TMC3    C510833   1.294   3.482  12.659 -0.1737  0.1589 -0.2240
  733TMC3    C610834   1.358   3.573  12.736 -0.5250  0.1978  0.6585
  733TMC3     C10835   0.996   3.421  12.851  0.4588 -0.4889 -0.5255
  733TMC3     O10836   0.915   3.409  12.758  0.2821 -0.3148  0.1358
  733TMC3     H10837   1.147   3.575  13.000 -0.7127 -1.4180 -0.1880
  733TMC3    H110838   1.121   3.367  12.631  2.4001  0.2840 -2.7214
  733TMC3    H210839   1.444   3.624  12.695  1.0076 -2.2459  0.8073
  733TMC3    C710840   1.354   3.431  12.537 -1.0178 -0.0452  0.5092
  733TMC3    C810841   1.396   3.696  12.937  0.0099 -0.0800 -0.3178
  733TMC3    O110842   1.302   3.385  12.437  0.0011 -0.8466 -0.9772
  733TMC3    O210843   1.328   3.785  12.983  0.0421  0.1575  0.3675
  734MPD2     C10844   3.520   0.812  12.029  0.3645  0.1896  0.3288
  734MPD2    C110845   3.581   0.689  12.032  0.4447  0.2321 -0.1805
  734MPD2    C210846   3.697   0.670  11.955  0.7060  0.9441  0.2120
  734MPD2    C310847   3.742   0.777  11.878  0.1525  0.2569  0.1578
  734MPD2    C410848   3.675   0.895  11.880 -0.4628 -0.1215 -0.0034
  734MPD2    C510849   3.569   0.918  11.957 -0.2897  0.1249  0.9095
  734MPD2     H10850   3.737   0.569  11.954 -2.1718 -0.1819 -0.3132
  734MPD2    H110851   3.712   0.980  11.824  1.8772 -0.6048  0.7986
  734MPD2    H210852   3.428   0.834  12.083  0.3483  1.8272 -0.3616
  734MPD2    H310853   3.512   1.010  11.950  0.4208  0.4154 -1.1144
  734MPD2     N10854   3.860   0.753  11.803 -0.3699  0.5351  0.0553
  734MPD2    H510855   3.901   0.660  11.805 -0.7715  0.2886 -2.7753
  734MPD2    N110856   3.544   0.588  12.121 -0.4338  0.0908 -0.0055
  734MPD2    H710857   3.600   0.505  12.140  0.7138  0.2667 -2.5235
  735TMC3    C110858   3.380   0.452  12.213 -0.4819  0.1282 -0.2078
  735TMC3    C210859   3.320   0.376  12.115 -0.1086  0.0379  0.1878
  735TMC3    C310860   3.345   0.237  12.108 -1.1084  0.4174  0.2917
  735TMC3    C410861   3.479   0.402  12.287  0.3266  0.6031 -0.0344
  735TMC3    C510862   3.502   0.270  12.284  0.6465 -0.4356 -0.3196
  735TMC3    C610863   3.433   0.179  12.203  0.9603  0.1976 -0.7226
  735TMC3     C10864   3.413   0.580  12.166  0.4257  0.2608 -0.2248
  735TMC3     O10865   3.312   0.637  12.121  0.2828 -0.6909 -0.5903
  735TMC3     H10866   3.257   0.412  12.035  0.5445  0.5653 -0.0889
  735TMC3    H110867   3.534   0.459  12.362 -0.7450  2.2589 -0.4965
  735TMC3    H210868   3.463   0.076  12.187  1.9318  0.3073  0.4291
  735TMC3    C710869   3.644   0.225  12.317  0.6636 -0.6276  0.2234
  735TMC3    C810870   3.349   0.195  11.967 -0.0583  0.1494  0.8699
  735TMC3    O110871   3.723   0.316  12.331  0.6031 -0.2269 -0.5660
  735TMC3    O210872   3.290   0.095  11.925  0.0267  0.0780  0.5986
  736MPD2     C10873   3.769   4.627  12.407  0.0631  0.2616 -0.1876
  736MPD2    C110874   3.761   0.024  12.338 -0.2821  0.0496  0.1644
  736MPD2    C210875   3.854   0.058  12.244  0.6262 -0.0817  0.1145
  736MPD2    C310876   3.960   4.696  12.217  0.2696  0.0069  0.1312
  736MPD2    C410877   3.977   4.585  12.298  0.3851  0.2017 -0.5587
  736MPD2    C510878   3.879   4.551  12.395  0.6844  0.5829 -0.0204
  736MPD2     H10879   3.842   0.150  12.189 -2.3868 -0.7052 -0.3240
  736MPD2    H110880   4.069   4.527  12.294 -0.0484 -0.5026 -0.1801
  736MPD2    H210881   3.696   4.587  12.477 -0.9964 -0.5560 -1.7616
  736MPD2    H310882   3.876   4.457  12.449 -2.4509 -0.7465 -2.4724
  736MPD2     N10883   4.053   4.708  12.112 -0.1209 -0.8488 -0.0450
  736MPD2    H510884   4.119   4.632  12.103  2.3603  1.4742 -1.5810
  736MPD2    N110885   3.644   0.092  12.352  0.6086  0.1815 -0.6169
  736MPD2    H710886   3.558   0.045  12.376 -0.9737  3.7769  0.7768
  737TMC3    C110887   4.157   0.070  11.925 -0.5427  0.2477 -0.5377
  737TMC3    C210888   4.206   0.190  11.880  0.1497  0.3379  0.4659
  737TMC3    C310889   4.258   0.188  11.747  0.6988 -0.3785  0.7930
  737TMC3    C410890   4.165   4.675  11.857 -0.1854 -0.5141 -0.9911
  737TMC3    C510891   4.222   4.680  11.732  0.0399 -0.0015 -0.6313
  737TMC3    C610892   4.263   0.076  11.670 -0.1823  1.1102  0.2721
  737TMC3     C10893   4.051   0.086  12.021 -0.4208 -0.2240  0.1223
  737TMC3     O10894   4.022   0.206  12.021  0.3749 -0.1173  0.8551
  737TMC3     H10895   4.202   0.283  11.934  4.9624 -0.6070  2.4382
  737TMC3    H110896   4.107   4.591  11.893 -2.0185  1.0010 -0.3838
  737TMC3    H210897   4.293   0.075  11.566 -0.3235  2.6574  0.2185
  737TMC3    C710898   4.258   4.555  11.669  0.3425 -0.1505 -0.3602
  737TMC3    C810899   4.266   0.322  11.683  0.3935 -0.2375  0.6931
  737TMC3    O110900   4.226   4.455  11.735  0.1726  0.2994  0.3756
  737TMC3    O210901   4.308   0.416  11.750  0.2921 -0.1204 -0.9132
  738MPD2     C10902   4.533   4.319  15.240 -0.2504 -1.0801  0.1457
  738MPD2    C110903   4.492   4.238  15.132 -1.1406  0.4940 -0.1131
  738MPD2    C210904   4.572   4.237  15.022 -0.5078 -0.5779 -0.3504
  738MPD2    C310905   4.680   4.325  15.007 -0.0431 -0.2571 -0.8622
  738MPD2    C410906   4.722   4.392  15.114  0.4399 -0.2010 -0.4926
  738MPD2    C510907   4.640   4.402  15.231 -0.4871 -0.3692  0.0481
  738MPD2     H10908   4.543   4.174  14.938 -0.5808  2.7951 -2.8653
  738MPD2    H110909   0.092   4.448  15.107  1.1049 -1.2570 -0.0558
  738MPD2    H210910   4.485   4.332  15.337  1.6604 -0.2042  0.9829
  738MPD2    H310911   4.666   4.468  15.313  1.2420 -0.8385 -0.1337
  738MPD2     N10912   0.053   4.328  14.898  0.2134  0.8219 -0.7322
  738MPD2    H510913   0.142   4.373  14.918  1.2492 -1.8436  0.7317
  738MPD2    N110914   4.392   4.137  15.150  0.0145  0.3908 -0.2997
  738MPD2    H710915   4.384   4.072  15.073 -1.4649 -0.4202  0.5480
  739TMC3    C110916   0.156   4.285  14.691 -0.1640  0.5554  0.7301
  739TMC3    C210917   0.146   4.272  14.560  0.3052  0.5135  0.2632
  739TMC3    C310918   0.252   4.280  14.476  0.3204  0.1725 -0.3071
  739TMC3    C410919   0.281   4.291  14.755  0.6926 -0.5449  0.8316
  739TMC3    C510920   0.390   4.279  14.674  0.6736  0.3644  0.1482
  739TMC3    C610921   0.379   4.283  14.534  0.3275 -0.2593 -0.6587
  739TMC3     C10922   0.032   4.277  14.771  0.1678 -0.5144 -0.3312
  739TMC3     O10923   4.657   4.215  14.729  0.7033  0.0016  0.1717
  739TMC3     H10924   0.046   4.279  14.517  0.6208  1.6674 -0.2633
  739TMC3    H110925   0.290   4.279  14.862 -0.7196  1.3901  1.1744
  739TMC3    H210926   0.473   4.274  14.479  1.2578  0.4831  0.8147
  739TMC3    C710927   0.525   4.253  14.726 -0.4664 -0.1802  0.1477
  739TMC3    C810928   0.234   4.297  14.324 -0.0195  0.8153  0.0490
  739TMC3    O110929   0.618   4.295  14.661  0.4601 -0.3171  0.3878
  739TMC3    O210930   0.119   4.297  14.283  0.3902 -0.5707  0.6166
  740TMC3    C110931   0.624   0.530  14.479  0.2229 -0.6256  0.7540
  740TMC3    C210932   0.698   0.510  14.594 -0.6317 -0.5897 -0.2841
  740TMC3    C310933   0.820   0.457  14.577  0.1590  0.2625 -1.0402
  740TMC3    C410934   0.685   0.534  14.352 -0.1536 -0.0939  0.6524
  740TMC3    C510935   0.818   0.497  14.347 -0.6337  0.2087 -0.0008
  740TMC3    C610936   0.882   0.448  14.456 -0.1455 -0.0538  0.2516
  740TMC3     C10937   0.487   0.583  14.477 -0.0937  0.4961  0.3447
  740TMC3     O10938   0.454   0.652  14.380 -0.3820 -0.4287  0.1418
  740TMC3     H10939   0.654   0.535  14.690  0.9522 -1.4000  0.6446
  740TMC3    H110940   0.627   0.558  14.264  0.5002  0.8779  0.4995
  740TMC3    H210941   0.972   0.390  14.443 -0.1784  0.3298 -1.6585
  740TMC3    C710942   0.876   0.472  14.215 -0.7280 -0.0375  0.3003
  740TMC3    C810943   0.906   0.453  14.694  0.1535  0.3729  0.3499
  740TMC3    O110944   0.995   0.444  14.219 -0.1374 -0.5981  0.1000
  740TMC3    O210945   1.026   0.474  14.680  0.2297 -0.7968 -0.5117
  741TMC3    C110946   0.276   4.720  13.974 -0.1303  0.3354 -0.3173
  741TMC3    C210947   0.146   4.691  13.946 -0.8878 -0.5920 -0.1419
  741TMC3    C310948   0.068   4.624  14.039 -0.6786  0.6258  0.3898
  741TMC3    C410949   0.333   4.686  14.095 -0.1264  0.3376 -0.8774
  741TMC3    C510950   0.246   4.641  14.189  0.3827  0.1237  0.5148
  741TMC3    C610951   0.110   4.609  14.170 -0.3163  0.5904  0.1690
  741TMC3     C10952   0.367   4.715  13.858 -0.1057  0.0402 -0.1151
  741TMC3     O10953   0.479   4.661  13.875  0.4987 -0.5813 -0.8074
  741TMC3     H10954   0.106   4.706  13.846  0.8227 -0.3999 -0.8000
  741TMC3    H110955   0.432   4.717  14.125 -1.3149  0.4523  2.9378
  741TMC3    H210956   0.061   4.544  14.241 -0.2323 -1.1995 -1.4045
  741TMC3    C710957   0.291   4.633  14.321 -0.1939  0.1565  1.0279
  741TMC3    C810958   4.688   4.524  13.990 -0.2315  0.2149 -0.2147
  741TMC3    O110959   0.408   4.592  14.331  0.1258  0.2246 -0.1829
  741TMC3    O210960   4.653   4.540  13.878  0.4900 -0.6958  0.7634
  742TMC3    C110961   4.438   3.152  15.182  0.3258 -0.1261 -0.2450
  742TMC3    C210962   4.330   3.146  15.089 -0.3022  0.1452 -0.3129
  742TMC3    C310963   4.348   3.071  14.984  0.0785 -0.5715  0.1370
  742TMC3    C410964   4.562   3.093  15.160 -0.0587  0.0252 -0.6819
  742TMC3    C510965   4.566   3.008  15.048  0.6511  0.5291 -0.3801
  742TMC3    C610966   4.465   2.995  14.958  0.0971 -0.1485  0.1105
  742TMC3     C10967   4.403   3.200  15.313 -1.1558 -0.6655  0.2973
  742TMC3     O10968   4.283   3.220  15.337 -0.1988  0.0691 -0.0162
  742TMC3     H10969   4.239   3.198  15.115  0.4835  1.2518  0.2160
  742TMC3    H110970   4.636   3.071  15.236 -0.2546  2.1368  0.1244
  742TMC3    H210971   4.470   2.935  14.868  0.0957  0.3546 -0.2280
  742TMC3    C710972   4.675   2.912  15.022  0.5937 -0.1023 -0.1201
  742TMC3    C810973   4.233   3.025  14.901 -1.0726 -0.7067 -0.1513
  742TMC3    O110974   4.649   2.822  14.936 -0.0801  0.1246  0.1730
  742TMC3    O210975   4.261   2.929  14.830 -0.2272  0.4001  0.3621
  743MPD2     C10976   2.724   3.618   1.767 -0.4076 -0.0320 -0.4012
  743MPD2    C110977   2.799   3.582   1.658  0.1016 -0.1641  0.3642
  743MPD2    C210978   2.933   3.570   1.662 -0.3077 -0.0831  0.0985
  743MPD2    C310979   3.002   3.587   1.774 -0.1382 -0.1390  0.4745
  743MPD2    C410980   2.931   3.630   1.885 -0.1993  0.1378  0.0997
  743MPD2    C510981   2.793   3.631   1.880 -0.0143  0.1712  0.4902
  743MPD2     H10982   2.987   3.534   1.575  0.7333  0.3632  0.5577
  743MPD2    H110983   2.972   3.656   1.981  0.6810 -0.6373 -0.0704
  743MPD2    H210984   2.616   3.615   1.768 -0.4432  1.3045 -4.2639
  743MPD2    H310985   2.745   3.666   1.971 -4.4589 -1.9508 -1.0391
  743MPD2     N10986   3.150   3.580   1.769  0.6820 -0.4493  0.0614
  743MPD2    H510987   3.194   3.582   1.678  1.8990  0.6218  0.6737
  743MPD2    N110988   2.725   3.562   1.537 -0.6119 -0.3331  0.1892
  743MPD2    H710989   2.627   3.590   1.545  0.1161  1.8183  1.5995
  744TMC3    C110990   2.656   3.515   1.329 -0.0158  0.2948  0.1896
  744TMC3    C210991   2.540   3.465   1.383  0.2303  0.0211  0.0309
  744TMC3    C310992   2.439   3.435   1.293  0.9232 -1.3046  0.5014
  744TMC3    C410993   2.675   3.535   1.198 -0.1256  0.0718  0.4071
  744TMC3    C510994   2.580   3.494   1.110 -0.1806  0.2670  0.1552
  744TMC3    C610995   2.453   3.457   1.158  0.1261 -0.3906  0.0133
  744TMC3     C10996   2.775   3.514   1.414 -0.0112  0.4317  0.1146
  744TMC3     O10997   2.889   3.485   1.379  0.2991 -0.4505 -0.0255
  744TMC3     H10998   2.522   3.424   1.482 -2.6065  0.3015 -0.3914
  744TMC3    H110999   2.773   3.571   1.165 -0.7519  2.1901  0.8685
  744TMC3    H211000   2.369   3.434   1.094  0.7596  0.5455 -1.1523
  744TMC3    C711001   2.601   3.534   0.970  1.0118 -0.6032 -0.3527
  744TMC3    C811002   2.302   3.421   1.346  0.2852  0.4354 -0.1829
  744TMC3    O111003   2.674   3.632   0.952 -0.3071 -0.7336 -0.0396
  744TMC3    O211004   2.290   3.376   1.458 -0.0496  0.2439  0.2860
  745TMC3    C111005   4.591   2.821  13.578  0.2792 -0.9654 -0.4179
  745TMC3    C211006   4.535   2.816  13.703  0.4619  0.9255  0.2875
  745TMC3    C311007   4.397   2.804  13.705 -1.2989  0.3929 -0.1257
  745TMC3    C411008   4.519   2.833  13.463  0.2947 -0.0500 -0.5425
  745TMC3    C511009   4.384   2.847  13.480 -0.4183 -0.3271  0.1174
  745TMC3    C611010   4.314   2.819  13.595 -0.0065 -0.0237 -0.3485
  745TMC3     C11011   0.012   2.811  13.565  0.8470 -0.3094 -0.3399
  745TMC3     O11012   0.059   2.750  13.467  0.2439  0.3487 -0.2160
  745TMC3     H11013   4.600   2.796  13.787 -0.5368  0.9696  1.0643
  745TMC3    H111014   4.572   2.850  13.370  2.5911  1.2938  1.0301
  745TMC3    H211015   4.207   2.829  13.599 -0.0967 -0.7767 -0.7688
  745TMC3    C711016   4.314   2.904  13.364  0.7308  0.1122  0.4030
  745TMC3    C811017   4.337   2.781  13.839  0.1947  0.3806  0.3295
  745TMC3    O111018   4.196   2.875  13.338 -0.2699 -0.8172  0.1300
  745TMC3    O211019   4.243   2.701  13.838 -0.2310  0.2120  0.0649
  746TMC3    C111020   2.734   4.630  10.988  0.0383  0.4564 -0.7905
  746TMC3    C211021   2.799   4.627  10.864 -0.0261  0.3743  0.3573
  746TMC3    C311022   2.776   4.519  10.782 -0.6112 -0.4615 -0.6043
  746TMC3    C411023   2.658   4.528  11.035  0.1822  0.1909  0.6990
  746TMC3    C511024   2.641   4.422  10.947 -0.2824 -0.1648 -0.1668
  746TMC3    C611025   2.687   4.420  10.819  0.0173 -0.2256 -0.3678
  746TMC3     C11026   2.722   0.034  11.059 -0.0705  0.1922 -0.2849
  746TMC3     O11027   2.608   0.068  11.100  0.0846 -0.5329 -0.1875
  746TMC3     H11028   2.858   4.714  10.836 -2.0861  1.4403 -0.6560
  746TMC3    H111029   2.603   4.535  11.128  0.4801 -1.1091  0.9833
  746TMC3    H211030   2.660   4.338  10.753 -2.6305  0.5961 -0.2713
  746TMC3    C711031   2.534   4.335  10.981  0.7921  0.0987 -0.1009
  746TMC3    C811032   2.788   4.540  10.638 -0.3786 -0.1295  0.7294
  746TMC3    O111033   2.452   4.320  10.889 -0.4760 -0.3680  0.1385
  746TMC3    O211034   2.799   4.436  10.572  0.0476 -0.2184 -0.3411
  747TMC3    C111035   0.162   4.414  10.799 -0.5443 -0.5649  0.8361
  747TMC3    C211036   0.052   4.372  10.868 -0.4018 -0.8962  0.5930
  747TMC3    C311037   0.023   4.448  10.978  0.2645 -0.0489  0.7160
  747TMC3    C411038   0.234   4.529  10.828  0.5969  0.2275 -1.1844
  747TMC3    C511039   0.196   4.600  10.940 -0.1674 -0.0940 -0.0817
  747TMC3    C611040   0.092   4.553  11.021  0.2926 -0.5161  0.9055
  747TMC3     C11041   0.221   4.307  10.715  0.5274 -0.2212 -0.5038
  747TMC3     O11042   0.137   4.227  10.671 -0.0012  0.0192  0.0099
  747TMC3     H11043   0.008   4.274  10.858 -1.4974 -0.2597 -0.9804
  747TMC3    H111044   0.312   4.567  10.763  2.3724  0.3103  1.0075
  747TMC3    H211045   0.071   4.611  11.110  0.7999 -0.2191  0.8317
  747TMC3    C711046   0.278   4.702  10.992  0.4843  0.1976 -0.4147
  747TMC3    C811047   4.648   4.393  11.069  0.2099  0.2323 -0.5621
  747TMC3    O111048   0.287   4.721  11.113  0.0759  0.0532 -0.0221
  747TMC3    O211049   4.645   4.270  11.049  0.3082  0.1809  0.4494
  748MPD2     C11050   1.811   0.009   1.003  0.8168  0.0465  0.1988
  748MPD2    C111051   1.940   0.001   1.057  0.3289  0.1506  0.1866
  748MPD2    C211052   2.023   0.107   1.024 -0.3037  0.1141  0.3256
  748MPD2    C311053   1.972   0.219   0.960  0.7378  0.6964 -0.3628
  748MPD2    C411054   1.843   0.218   0.913 -0.4949  0.1913 -0.7439
  748MPD2    C511055   1.762   0.112   0.933 -0.6142 -0.2027  0.0248
  748MPD2     H11056   2.128   0.102   1.048 -0.6634  1.3404  2.0941
  748MPD2    H111057   1.781   0.289   0.860 -2.4973  0.6705  2.2187
  748MPD2    H211058   1.734   4.662   1.035 -1.5367  2.4635 -0.1908
  748MPD2    H311059   1.655   0.124   0.927 -0.4850  0.7340 -0.2794
  748MPD2     N11060   2.066   0.323   0.944 -0.0006 -0.0495  0.2967
  748MPD2    H511061   2.150   0.319   1.001 -0.9512 -2.5010  1.5223
  748MPD2    N111062   1.979   4.617   1.140  0.3898 -0.5225 -0.0979
  748MPD2    H711063   1.923   4.537   1.165 -0.1746  0.3391  1.4213
  749TMC3    C111064   2.168   0.518   0.872 -0.1325 -0.1793 -0.3155
  749TMC3    C211065   2.253   0.508   0.985  0.2260  0.4878  0.8669
  749TMC3    C311066   2.314   0.627   1.027  0.1830  0.7619  0.2191
  749TMC3    C411067   2.150   0.639   0.806  1.0121 -0.2952  0.1523
  749TMC3    C511068   2.223   0.752   0.855 -0.0362  0.0742 -0.8682
  749TMC3    C611069   2.311   0.751   0.959  0.4384  0.1398 -0.8044
  749TMC3     C11070   2.053   0.432   0.866  0.9671  0.4889  0.2419
  749TMC3     O11071   1.962   0.460   0.790 -0.8595 -0.7602 -0.3250
  749TMC3     H11072   2.267   0.419   1.045  0.7008 -0.7291 -1.0794
  749TMC3    H111073   2.084   0.653   0.722 -0.0722  1.6112  1.3305
  749TMC3    H211074   2.363   0.838   0.996  0.7404 -0.7677  0.9139
  749TMC3    C711075   2.242   0.861   0.754 -0.2968 -0.1641  0.4885
  749TMC3    C811076   2.427   0.611   1.114  0.5527 -0.2418  0.2903
  749TMC3    O111077   2.315   0.957   0.789  0.1609 -0.6412 -0.0247
  749TMC3    O211078   2.456   0.712   1.178  0.1009 -0.3673  0.1432
  750MPD2     C11079   3.022   1.630  11.264  0.5606 -0.4818 -1.3648
  750MPD2    C111080   2.886   1.642  11.278  0.2508 -0.2396 -0.0305
  750MPD2    C211081   2.806   1.565  11.190  0.4178  0.2355  0.0323
  750MPD2    C311082   2.862   1.483  11.098 -0.0067  1.1286 -0.8667
  750MPD2    C411083   3.002   1.470  11.095 -0.0003 -0.4918 -0.4883
  750MPD2    C511084   3.082   1.546  11.177  0.5110 -0.6228 -0.3056
  750MPD2     H11085   2.698   1.571  11.198  0.7471  3.5456  1.9292
  750MPD2    H111086   3.064   1.416  11.024  0.2823 -0.8276  0.0164
  750MPD2    H211087   3.087   1.697  11.319  3.6298 -1.9155 -3.2675
  750MPD2    H311088   3.190   1.547  11.179  0.4633  1.4883  0.3393
  750MPD2     N11089   2.791   1.400  11.006  0.3132 -0.0957 -0.2062
  750MPD2    H511090   2.850   1.343  10.947  1.8597 -0.0075  1.2666
  750MPD2    N111091   2.831   1.725  11.378 -0.2559 -0.7951  1.0281
  750MPD2    H711092   2.893   1.772  11.443  0.9224 -0.3095 -0.4555
  751TMC3    C111093   2.600   1.296  10.899  0.8294  0.1023 -0.0479
  751TMC3    C211094   2.479   1.252  10.918 -0.1973 -1.4022  0.3810
  751TMC3    C311095   2.438   1.158  10.825  0.2862 -0.5346  0.2073
  751TMC3    C411096   2.676   1.260  10.788 -0.2978  0.0548  0.5188
  751TMC3    C511097   2.643   1.152  10.711  0.6126  0.5308  0.0627
  751TMC3    C611098   2.517   1.103  10.727 -0.0363  0.2000 -0.2436
  751TMC3     C11099   2.654   1.386  11.000  0.4322  0.1258  0.3545
  751TMC3     O11100   2.568   1.447  11.061  0.6979 -0.2196 -0.2041
  751TMC3     H11101   2.426   1.278  11.009 -0.8137  0.2503 -0.4621
  751TMC3    H111102   2.773   1.308  10.776 -0.0255 -0.9442 -1.2585
  751TMC3    H211103   2.485   1.008  10.686 -1.7397  1.5327 -1.9971
  751TMC3    C711104   2.716   1.136  10.591  0.4713 -0.0672 -0.5003
  751TMC3    C811105   2.318   1.084  10.851  0.0074  0.4263  0.1733
  751TMC3    O111106   2.822   1.195  10.569  0.6531 -0.1105 -0.2277
  751TMC3    O211107   2.300   0.974  10.805 -0.7606 -0.3776 -0.2156
  752TMC3    C111108   1.458   1.377  16.108  0.3840 -0.6703  0.4761
  752TMC3    C211109   1.578   1.318  16.133  0.3658  0.2779 -0.0989
  752TMC3    C311110   1.604   1.270  16.257  0.4105 -0.5238 -0.6786
  752TMC3    C411111   1.354   1.376  16.198  0.1124  0.5821  0.2658
  752TMC3    C511112   1.386   1.306  16.316 -0.1165 -0.1274 -0.0609
  752TMC3    C611113   1.508   1.258  16.349 -0.8858  0.1256  0.4741
  752TMC3     C11114   1.442   1.464  15.992  0.3810  0.2050  0.0383
  752TMC3     O11115   1.535   1.457  15.911 -0.0419  0.3653  0.9042
  752TMC3     H11116   1.652   1.334  16.055  1.4246  2.1181  1.2942
  752TMC3    H111117   1.255   1.406  16.168  0.3988  0.3954 -0.8546
  752TMC3    H211118   1.521   1.238  16.455  0.9571  0.2033  0.2650
  752TMC3    C711119   1.273   1.289  16.409 -0.4914 -0.5953 -0.9228
  752TMC3    C811120   1.725   1.192  16.269  0.2253 -0.0441  0.1393
  752TMC3    O111121   1.173   1.354  16.393 -0.1908  0.5669 -0.4127
  752TMC3    O211122   1.811   1.225  16.192 -0.2145 -0.2428  0.4190
  753TMC3    C111123   3.266   3.152  13.393 -0.1185  0.1268 -0.6248
  753TMC3    C211124   3.314   3.107  13.512  0.2144 -0.5197 -0.1970
  753TMC3    C311125   3.293   2.981  13.549  0.6059 -0.0678 -0.2218
  753TMC3    C411126   3.182   3.067  13.314 -0.0051  0.2465  0.4633
  753TMC3    C511127   3.176   2.937  13.357 -0.1014 -0.2930  0.3208
  753TMC3    C611128   3.224   2.884  13.474 -0.6899 -0.1326 -0.3903
  753TMC3     C11129   3.268   3.297  13.369 -0.5863  0.0504  0.1224
  753TMC3     O11130   3.187   3.340  13.290  0.9156 -0.4252 -0.0101
  753TMC3     H11131   3.362   3.177  13.579 -3.5495  1.3111  0.6068
  753TMC3    H111132   3.135   3.110  13.226 -0.8789  1.2068  1.4014
  753TMC3    H211133   3.208   2.782  13.508  0.7588 -0.8051 -1.6922
  753TMC3    C711134   3.091   2.844  13.287 -0.5377 -0.4801  0.0166
  753TMC3    C811135   3.372   2.918  13.657  0.6490 -0.3868 -0.3472
  753TMC3    O111136   2.987   2.889  13.237  0.3509  0.8314  0.2295
  753TMC3    O211137   3.377   2.793  13.660 -0.1778 -0.2416 -0.1767
  754MPD2     C11138   2.373   1.866  12.963  0.3111  0.0755  0.3097
  754MPD2    C111139   2.371   1.731  12.973  0.2793 -0.6583 -0.0202
  754MPD2    C211140   2.251   1.662  12.995  0.1152  0.0404 -0.0893
  754MPD2    C311141   2.138   1.733  13.021  0.8252 -0.5942 -0.0535
  754MPD2    C411142   2.147   1.871  13.024  0.3168 -0.3673 -0.1215
  754MPD2    C511143   2.261   1.933  12.989  0.0255 -0.0664 -0.4053
  754MPD2     H11144   2.236   1.558  12.969  0.4775 -0.2975  1.0430
  754MPD2    H111145   2.065   1.938  13.047  0.6919 -0.4213  1.4117
  754MPD2    H211146   2.458   1.930  12.940 -0.5354  1.2713  0.5098
  754MPD2    H311147   2.264   2.042  12.988  0.2943 -0.0624  2.0705
  754MPD2     N11148   2.011   1.682  13.062  0.8264 -0.2054 -0.2055
  754MPD2    H511149   1.939   1.750  13.084 -0.8716 -1.5063 -1.8265
  754MPD2    N111150   2.492   1.664  12.947  0.3344 -0.6759  0.2034
  754MPD2    H711151   2.560   1.725  12.902 -0.1553 -0.7376 -0.6149
  755MPD2     C11152   1.367   2.153  13.435 -0.4533  0.5450 -0.7311
  755MPD2    C111153   1.392   2.054  13.529  0.8011 -0.3358  0.0509
  755MPD2    C211154   1.474   1.946  13.482  0.1507 -0.7546 -0.3014
  755MPD2    C311155   1.529   1.938  13.358  0.2512  0.6022  0.0643
  755MPD2    C411156   1.498   2.041  13.273  0.3154 -0.7768 -0.2353
  755MPD2    C511157   1.429   2.148  13.314  0.3090  0.5556 -0.1618
  755MPD2     H11158   1.482   1.868  13.558 -1.8079 -2.2844 -1.6680
  755MPD2    H111159   1.540   2.036  13.173 -2.1570  0.4587 -1.3357
  755MPD2    H211160   1.292   2.230  13.448  1.7812  2.4786  0.7850
  755MPD2    H311161   1.394   2.221  13.241  1.6719  0.1812 -1.1932
  755MPD2     N11162   1.604   1.819  13.308  0.7424 -0.1872  0.4626
  755MPD2    H511163   1.660   1.822  13.223 -0.9630 -0.7448 -0.6696
  755MPD2    N111164   1.323   2.042  13.649 -0.0756 -0.3632 -0.1898
  755MPD2    H711165   1.360   1.974  13.714  0.4512 -0.1049 -0.2225
  756MPD2     C11166   2.609   2.156   9.340  0.2334  0.2707  0.4627
  756MPD2    C111167   2.509   2.148   9.430 -0.0777  0.9490  0.1667
  756MPD2    C211168   2.384   2.131   9.382 -0.5730  0.5810 -0.7721
  756MPD2    C311169   2.353   2.125   9.249  0.1113  0.5757 -0.1884
  756MPD2    C411170   2.454   2.130   9.159  0.5089 -0.3339 -0.6447
  756MPD2    C511171   2.578   2.143   9.209  0.3596 -0.3410 -0.6626
  756MPD2     H11172   2.309   2.113   9.458 -0.9496  0.3182 -1.2138
  756MPD2    H111173   2.440   2.114   9.052  0.6116  0.9041 -0.8368
  756MPD2    H211174   2.713   2.173   9.365 -0.3717  1.4698  2.1521
  756MPD2    H311175   2.658   2.131   9.136  1.0481 -0.5537  0.1328
  756MPD2     N11176   2.224   2.078   9.224 -0.2825 -0.6969 -0.0812
  756MPD2    H511177   2.163   2.046   9.298 -2.1307  0.9504 -0.8914
  756MPD2    N111178   2.532   2.161   9.569 -0.3165  0.4734 -0.0206
  756MPD2    H711179   2.450   2.152   9.629  0.9777 -3.2071  1.2431
  757MPD2     C11180   1.933   1.237   9.580 -0.1774  0.2474  0.4584
  757MPD2    C111181   1.814   1.288   9.537  0.1585  0.0091 -0.0032
  757MPD2    C211182   1.808   1.390   9.452  0.6947 -0.4623  0.1247
  757MPD2    C311183   1.930   1.454   9.421  0.3123  0.3185 -0.4361
  757MPD2    C411184   2.055   1.396   9.462  0.7592 -0.3245  0.0272
  757MPD2    C511185   2.053   1.288   9.543 -0.0529 -0.3760 -0.1352
  757MPD2     H11186   1.721   1.438   9.409  1.9110  0.3368 -1.4565
  757MPD2    H111187   2.151   1.428   9.425  0.0009  0.3528 -1.3698
  757MPD2    H211188   1.931   1.145   9.637 -0.2796 -0.6457 -0.9766
  757MPD2    H311189   2.139   1.227   9.569 -0.1387 -1.2459 -1.8852
  757MPD2     N11190   1.927   1.568   9.336 -0.9493  0.2658  0.2318
  757MPD2    H511191   1.835   1.588   9.298 -0.8597  1.7980  0.8024
  757MPD2    N111192   1.697   1.214   9.579 -0.0817 -0.0859 -0.6390
  757MPD2    H711193   1.716   1.125   9.624  0.7267 -0.5824 -1.9466
  758MPD2     C11194   2.274   1.173  15.584 -0.5086  0.8044  0.1524
  758MPD2    C111195   2.366   1.153  15.683  0.2529 -0.2310 -0.5381
  758MPD2    C211196   2.343   1.209  15.807  0.0077 -0.4127  0.2097
  758MPD2    C311197   2.231   1.288  15.823 -0.7483 -0.1427 -0.1216
  758MPD2    C411198   2.140   1.302  15.718  0.3760 -0.5229 -0.4820
  758MPD2    C511199   2.161   1.247  15.598 -0.8661 -0.7341  0.1950
  758MPD2     H11200   2.419   1.195  15.884  0.7966  0.4819 -0.4092
  758MPD2    H111201   2.057   1.371  15.726  0.5339 -0.3514 -0.3407
  758MPD2    H211202   2.294   1.125  15.488  0.2656 -0.7097  1.0707
  758MPD2    H311203   2.097   1.265  15.512  0.6937  1.2089 -0.5579
  758MPD2     N11204   2.205   1.360  15.942 -0.1663 -0.2370 -0.2322
  758MPD2    H511205   2.117   1.410  15.943  0.1220  0.2213  2.9573
  758MPD2    N111206   2.489   1.089  15.653 -0.0648 -0.2953 -0.0685
  758MPD2    H711207   2.505   1.072  15.554 -0.5015 -2.1161  0.1750
  759MPD2     C11208   1.274   4.011  10.151 -0.4110 -0.3638  0.1641
  759MPD2    C111209   1.167   3.941  10.100  0.1022 -0.1780  0.4624
  759MPD2    C211210   1.128   3.972   9.972 -0.3048  0.3383  0.3355
  759MPD2    C311211   1.198   4.063   9.887  0.0689 -0.4751 -0.5251
  759MPD2    C411212   1.309   4.122   9.942  0.2135  0.4793 -0.0945
  759MPD2    C511213   1.344   4.103  10.075 -0.3192  0.2228  0.4150
  759MPD2     H11214   1.044   3.915   9.935 -0.0066 -0.6725  1.2443
  759MPD2    H111215   1.358   4.205   9.893 -0.0488  0.6544 -0.0620
  759MPD2    H211216   1.299   3.999  10.256  2.9998  2.0651 -0.3640
  759MPD2    H311217   1.424   4.159  10.122  0.3153  0.5723 -1.0798
  759MPD2     N11218   1.141   4.087   9.757  0.1842  0.5767  0.6985
  759MPD2    H511219   1.060   4.036   9.724  1.1297  0.0539 -0.8273
  759MPD2    N111220   1.104   3.830  10.163 -0.5183 -0.0680  0.2877
  759MPD2    H711221   1.045   3.769  10.107 -0.6246 -1.0021  1.4291
  760MPD2     C11222   0.763   1.655  12.439 -0.2753  0.4421 -0.5691
  760MPD2    C111223   0.821   1.702  12.329  0.3368 -0.1243 -0.2258
  760MPD2    C211224   0.902   1.622  12.260 -0.3545 -0.3152  0.0811
  760MPD2    C311225   0.923   1.491  12.298 -0.0569  0.7665 -0.5673
  760MPD2    C411226   0.851   1.437  12.404  0.1778 -0.1599  0.5420
  760MPD2    C511227   0.762   1.523  12.464  0.4947 -0.0654 -0.0622
  760MPD2     H11228   0.960   1.666  12.180 -2.0904  0.0172 -0.9718
  760MPD2    H111229   0.861   1.332  12.429 -0.9239 -0.0724  1.3470
  760MPD2    H211230   0.710   1.710  12.517  2.4084  1.7360  0.3213
  760MPD2    H311231   0.706   1.500  12.554  0.3690 -1.1378 -0.4131
  760MPD2     N11232   0.997   1.399  12.227 -0.4095 -0.0838  0.2893
  760MPD2    H511233   0.994   1.305  12.267  0.0877 -0.8431 -1.4379
  760MPD2    N111234   0.805   1.832  12.280 -0.0244 -0.3009  0.2613
  760MPD2    H711235   0.859   1.853  12.197 -0.4307 -0.8043 -0.1350
  761MPD2     C11236   1.867   1.014  11.067 -0.1438  0.4890  0.2661
  761MPD2    C111237   1.957   0.926  11.006  0.4207 -0.2038 -0.0520
  761MPD2    C211238   2.089   0.965  10.984 -1.0824 -0.0152  0.2341
  761MPD2    C311239   2.110   1.101  10.992 -0.8385  0.0571 -0.0362
  761MPD2    C411240   2.026   1.192  11.040 -0.6232 -0.0771  0.2797
  761MPD2    C511241   1.902   1.147  11.082 -0.4584 -0.6566  0.4728
  761MPD2     H11242   2.154   0.886  10.949 -0.0405  1.4493 -1.1280
  761MPD2    H111243   2.061   1.293  11.060 -0.3216 -0.2885  0.8188
  761MPD2    H211244   1.769   0.980  11.098 -0.7728 -0.1232 -2.3720
  761MPD2    H311245   1.829   1.219  11.119 -1.7555 -1.5450 -0.3890
  761MPD2     N11246   2.233   1.152  10.939  0.3159 -0.0762 -0.8146
  761MPD2    H511247   2.245   1.252  10.954  3.7594 -0.5841 -0.1817
  761MPD2    N111248   1.921   0.795  10.974 -0.9826 -0.5977 -0.7757
  761MPD2    H711249   1.994   0.728  10.953 -1.7285 -0.9979 -2.0462
  762MPD2     C11250   2.447   0.662  10.968 -0.0864  0.3670  0.6103
  762MPD2    C111251   2.362   0.633  10.859 -0.7493  0.0983  0.4576
  762MPD2    C211252   2.414   0.644  10.729 -0.2684  0.0493  0.1885
  762MPD2    C311253   2.547   0.690  10.712 -1.0058  0.1439 -0.0649
  762MPD2    C411254   2.614   0.736  10.828  0.2874 -0.6533  0.3631
  762MPD2    C511255   2.566   0.716  10.953  0.2521 -1.0953  0.8651
  762MPD2     H11256   2.362   0.621  10.637 -1.6067  0.7740  0.7629
  762MPD2    H111257   2.711   0.781  10.813 -1.1507  1.6654 -2.0365
  762MPD2    H211258   2.406   0.649  11.068  0.8222 -1.8971  0.6866
  762MPD2    H311259   2.632   0.731  11.038  0.2961 -0.1657  0.6655
  762MPD2     N11260   2.607   0.692  10.580 -0.5057  0.4728 -0.0552
  762MPD2    H511261   2.549   0.650  10.509  1.1149  0.8982 -1.6159
  762MPD2    N111262   2.234   0.580  10.885 -0.0924 -1.1846 -0.2374
  762MPD2    H711263   2.192   0.591  10.977 -0.7149 -0.5242 -0.5936
  763MPD2     C11264   4.438   1.110  16.187  0.4140  0.8613  0.0392
  763MPD2    C111265   4.309   1.163  16.182 -0.2107  0.9252 -0.3406
  763MPD2    C211266   4.285   1.286  16.235 -0.6349  0.5575  0.1568
  763MPD2    C311267   4.388   1.362  16.295 -0.3033  0.1838  0.0830
  763MPD2    C411268   4.518   1.308  16.288 -0.5007 -0.3535 -0.3090
  763MPD2    C511269   4.539   1.189  16.231 -0.6140  0.5104 -0.1732
  763MPD2     H11270   4.186   1.327  16.221 -0.7036  0.2743 -0.1898
  763MPD2    H111271   4.601   1.363  16.330  0.9075 -2.5618 -0.1801
  763MPD2    H211272   4.457   1.009  16.154  1.3346  0.1916  2.5805
  763MPD2    H311273   4.635   1.140  16.239 -1.7623 -1.6424  0.3552
  763MPD2     N11274   4.371   1.480  16.361 -0.1140  0.1751  0.8081
  763MPD2    H511275   4.451   1.527  16.400 -0.4673  1.8221 -0.4346
  763MPD2    N111276   4.209   1.095  16.099 -0.1970  0.3162  0.0226
  763MPD2    H711277   4.114   1.131  16.093 -0.0284  0.9570  1.3086
  764MPD2     C11278   2.460   2.969  16.961 -0.0409 -0.4140 -0.4622
  764MPD2    C111279   2.374   2.872  16.912  0.0763 -0.6969 -0.0450
  764MPD2    C211280   2.375   2.749  16.974 -0.3774 -0.5795  0.3079
  764MPD2    C311281   2.433   2.741  17.097 -0.4665 -0.4391  0.2139
  764MPD2    C411282   2.495   2.845  17.157  0.0163 -0.0202 -0.4305
  764MPD2    C511283   2.519   2.955  17.079 -0.7038  0.4597  0.6299
  764MPD2     H11284   2.315   2.671  16.931  1.0607 -1.1658 -0.6447
  764MPD2    H111285   2.540   2.851  17.256 -0.1041  0.2436 -0.3896
  764MPD2    H211286   2.471   3.063  16.908  1.8989 -0.0974  0.5131
  764MPD2    H311287   2.574   3.040  17.118 -0.4061  0.2995  0.5509
  764MPD2     N11288   2.422   2.615  17.160  0.6679  0.0688 -0.1820
  764MPD2    H511289   2.379   2.537  17.112 -0.0782  0.1017  0.4457
  764MPD2    N111290   2.296   2.897  16.798  0.3330 -0.0588  0.2933
  764MPD2    H711291   2.242   2.821  16.758  0.5547  0.7133 -1.4386
  765MPD2     C11292   1.972   0.526  15.820 -0.3845  0.8787  0.0538
  765MPD2    C111293   2.009   0.641  15.760  0.6807 -0.3916 -0.3562
  765MPD2    C211294   2.137   0.646  15.711 -0.4943 -0.5355  0.2357
  765MPD2    C311295   2.221   0.540  15.718  0.1728 -0.0472 -0.4358
  765MPD2    C411296   2.184   0.427  15.790  0.3937 -0.0351  0.2338
  765MPD2    C511297   2.058   0.425  15.843 -0.3931 -0.2185  0.6756
  765MPD2     H11298   2.170   0.731  15.653  3.9471 -2.3612  0.0747
  765MPD2    H111299   2.247   0.340  15.799  1.3601  0.6970  0.5864
  765MPD2    H211300   1.877   0.526  15.873 -0.3218  0.2224  0.1644
  765MPD2    H311301   2.022   0.336  15.894  0.4952 -0.1352  1.4642
  765MPD2     N11302   2.338   0.545  15.641 -0.6272  0.5823 -0.1619
  765MPD2    H511303   2.348   0.631  15.587  2.4194 -0.8298 -1.8671
  765MPD2    N111304   1.914   0.749  15.745 -0.0801  0.8054  0.5801
  765MPD2    H711305   1.816   0.725  15.753  0.2735 -0.2361  1.7627
  766MPD2     C11306   1.765   0.547  15.186 -0.1376  0.1480  0.0294
  766MPD2    C111307   1.736   0.680  15.174 -0.6419  1.0883 -0.1888
  766MPD2    C211308   1.765   0.736  15.049 -0.0906 -0.1460 -0.1404
  766MPD2    C311309   1.831   0.672  14.950  0.5490 -0.0745 -0.0111
  766MPD2    C411310   1.867   0.539  14.974 -0.1179  0.0131  0.2097
  766MPD2    C511311   1.825   0.475  15.088 -0.2307 -0.1444 -0.0698
  766MPD2     H11312   1.755   0.842  15.028  1.7456  0.2409  0.9414
  766MPD2    H111313   1.947   0.489  14.920  0.3303  0.7954  0.1456
  766MPD2    H211314   1.721   0.503  15.274  0.7114 -1.9621 -0.6090
  766MPD2    H311315   1.845   0.369  15.102  0.3896 -0.0864 -0.5101
  766MPD2     N11316   1.872   0.749  14.835  0.5057 -0.0125 -0.4688
  766MPD2    H511317   1.832   0.842  14.827 -1.3409 -0.8449 -0.9986
  766MPD2    N111318   1.691   0.746  15.286 -0.5753  0.3210 -0.4783
  766MPD2    H711319   1.670   0.684  15.363  2.2749 -2.1134 -1.6702
  767MPD2     C11320   1.443   0.909  14.930  0.2196  0.1037  0.7551
  767MPD2    C111321   1.540   0.985  14.871  0.6266  0.1448 -0.2328
  767MPD2    C211322   1.541   0.997  14.733 -0.5340  1.0147 -0.7680
  767MPD2    C311323   1.451   0.920  14.656 -0.5282  0.3904  0.7037
  767MPD2    C411324   1.357   0.840  14.719  0.0511  0.7649 -0.0992
  767MPD2    C511325   1.356   0.842  14.854 -0.0198 -0.2799  0.0825
  767MPD2     H11326   1.618   1.057  14.686 -1.4453  0.4246 -3.0362
  767MPD2    H111327   1.289   0.777  14.664  1.3701 -0.2928 -0.5186
  767MPD2    H211328   1.436   0.889  15.036 -1.4236  0.6974  0.7614
  767MPD2    H311329   1.274   0.798  14.909 -0.0030 -0.4985 -0.0699
  767MPD2     N11330   1.459   0.934  14.514  1.7082 -0.4090  0.4536
  767MPD2    H511331   1.538   0.987  14.478  1.2250  0.6386  0.9345
  767MPD2    N111332   1.641   1.042  14.956 -0.0504 -0.2524  0.2135
  767MPD2    H711333   1.621   1.046  15.056 -1.3754 -0.6194 -0.0366
  768MPD2     C11334   2.394   4.033  10.502 -0.4917 -0.1811  0.5214
  768MPD2    C111335   2.369   4.005  10.630 -0.2452 -0.3938  0.4151
  768MPD2    C211336   2.459   4.019  10.733  0.5472  0.3287  0.6327
  768MPD2    C311337   2.592   4.052  10.700 -0.2582  0.3421  0.1894
  768MPD2    C411338   2.620   4.086  10.572 -0.0365 -0.5796  0.2348
  768MPD2    C511339   2.522   4.080  10.476 -0.6014 -0.3696  0.1950
  768MPD2     H11340   2.430   3.994  10.834  0.0241 -1.7190 -0.0344
  768MPD2    H111341   2.718   4.126  10.548 -0.3400 -0.0235 -0.0582
  768MPD2    H211342   2.315   4.030  10.428  1.0035  1.6293 -1.1444
  768MPD2    H311343   2.554   4.110  10.376 -2.3824  0.1760 -0.2223
  768MPD2     N11344   2.700   4.047  10.794  0.1057  0.5023 -0.5970
  768MPD2    H511345   2.794   4.070  10.763  0.8598  0.3857  1.6177
  768MPD2    N111346   2.250   3.946  10.688  0.2785 -0.0600  0.5886
  768MPD2    H711347   2.258   3.932  10.789 -1.4839  0.0141  0.7330
  769MPD2     C11348   3.392   2.300  14.878 -0.3651 -1.2119 -0.5080
  769MPD2    C111349   3.290   2.304  14.967  0.4528 -0.5022  0.1899
  769MPD2    C211350   3.326   2.323  15.100 -0.2863 -0.2706  0.0927
  769MPD2    C311351   3.455   2.339  15.144 -1.5717 -0.4744  0.1650
  769MPD2    C411352   3.560   2.347  15.048  0.0467  0.7764  0.2368
  769MPD2    C511353   3.522   2.326  14.917 -0.1636 -0.0902 -0.3081
  769MPD2     H11354   3.251   2.315  15.178  0.5332  1.5141  1.0692
  769MPD2    H111355   3.664   2.361  15.076  0.3590  0.3185 -0.6701
  769MPD2    H211356   3.376   2.279  14.773 -0.1182 -1.6690 -0.4551
  769MPD2    H311357   3.597   2.323  14.839 -1.2636  1.7099 -1.4454
  769MPD2     N11358   3.474   2.334  15.286  0.2631  0.3319 -0.6427
  769MPD2    H511359   3.392   2.305  15.340 -0.8073  0.5516 -2.1663
  769MPD2    N111360   3.157   2.283  14.922 -0.3090 -0.5531  0.6284
  769MPD2    H711361   3.156   2.261  14.823 -0.7595  1.3355  0.2043
  770MPD2     C11362   2.589   1.489  14.977 -0.1468  0.5628 -0.3690
  770MPD2    C111363   2.648   1.524  14.861 -0.2770  0.5956 -0.4098
  770MPD2    C211364   2.698   1.658  14.849 -0.4109 -0.3732  0.0919
  770MPD2    C311365   2.649   1.753  14.941  0.0322 -0.0902  0.5880
  770MPD2    C411366   2.586   1.712  15.054  0.1573 -0.2569 -0.3143
  770MPD2    C511367   2.562   1.582  15.077  0.0955 -0.1700  0.6734
  770MPD2     H11368   2.764   1.694  14.771  1.9745 -0.0993  2.2511
  770MPD2    H111369   2.564   1.781  15.134  2.7505 -0.7786  0.8860
  770MPD2    H211370   2.575   1.383  14.995 -0.6017  0.8386  0.8762
  770MPD2    H311371   2.522   1.556  15.174 -0.8510  1.3744  0.7011
  770MPD2     N11372   2.693   1.882  14.915 -0.3773  0.8588 -0.3425
  770MPD2    H511373   2.733   1.898  14.822  0.7536  0.3436  0.0579
  770MPD2    N111374   2.696   1.420  14.779  0.0227  0.2024 -0.9564
  770MPD2    H711375   2.673   1.325  14.806 -0.2945  1.0263  1.7184
  771MPD2     C11376   4.240   0.006  13.451 -0.0914 -0.2386  0.4003
  771MPD2    C111377   4.123   0.085  13.445 -0.3545 -0.8997  0.5800
  771MPD2    C211378   4.024   0.061  13.358  0.8122  0.0039 -0.4549
  771MPD2    C311379   4.027   4.672  13.277  0.0933  0.8180  0.1328
  771MPD2    C411380   4.136   4.589  13.277  0.5947  0.1088  0.2200
  771MPD2    C511381   4.245   4.630  13.355 -0.1759  0.3980 -0.5628
  771MPD2     H11382   3.936   0.125  13.353  1.0728  0.2749 -1.3841
  771MPD2    H111383   4.150   4.497  13.221  0.0136 -0.5282  1.1248
  771MPD2    H211384   4.324   0.018  13.518  1.4131  1.0276 -1.7024
  771MPD2    H311385   4.329   4.562  13.359  1.6989  2.8993  1.4502
  771MPD2     N11386   3.919   4.650  13.186  0.4524  0.2250 -0.1858
  771MPD2    H511387   3.845   4.716  13.210  0.7293  0.8048 -0.9427
  771MPD2    N111388   4.114   0.200  13.527 -0.0871  0.2720 -0.5239
  771MPD2    H711389   4.045   0.269  13.499  1.0725  1.3726 -0.7020
  772MPD2     C11390   3.777   0.767  13.389 -0.3965  0.6599 -0.2981
  772MPD2    C111391   3.765   0.697  13.503  0.0158  0.3842  0.6329
  772MPD2    C211392   3.646   0.682  13.571 -0.6629  0.6882 -0.2656
  772MPD2    C311393   3.541   0.738  13.513  0.5635  0.5750 -0.4470
  772MPD2    C411394   3.551   0.803  13.392  0.0129  0.4965 -0.1524
  772MPD2    C511395   3.669   0.811  13.324 -0.0207  0.8985 -0.2643
  772MPD2     H11396   3.638   0.630  13.666  3.6521 -0.1512 -0.3962
  772MPD2    H111397   3.462   0.842  13.342 -0.6339 -0.9194 -0.0857
  772MPD2    H211398   3.869   0.785  13.333 -0.2137 -0.8959 -0.5013
  772MPD2    H311399   3.675   0.859  13.227 -1.2075  2.5998  0.5242
  772MPD2     N11400   3.410   0.734  13.565  0.0117 -0.1150 -0.0755
  772MPD2    H511401   3.340   0.773  13.502 -0.5458 -0.3738  0.3917
  772MPD2    N111402   3.880   0.641  13.568  0.4830 -0.3987 -0.0605
  772MPD2    H711403   3.865   0.596  13.657  2.3348  2.4379  1.6913
  773MPD2     C11404   2.573   1.725  17.641 -0.2527  0.3809 -0.2935
  773MPD2    C111405   2.581   1.611  17.573 -0.4362  0.0918  0.5152
  773MPD2    C211406   2.626   1.495  17.639 -0.0104  0.3963 -0.4358
  773MPD2    C311407   2.675   1.507   0.074  0.4736 -0.4951  0.5624
  773MPD2    C411408   2.662   1.625   0.141 -0.8287  0.0137  0.4162
  773MPD2    C511409   2.607   1.736   0.079  0.0155 -0.2478  0.3826
  773MPD2     H11410   2.640   1.401  17.588  0.6534 -0.3493  1.1071
  773MPD2    H111411   2.674   1.631   0.248  1.7875 -1.1469  0.1901
  773MPD2    H211412   2.542   1.817  17.593 -0.7591  0.5694  0.4055
  773MPD2    H311413   2.595   1.830   0.131  1.2118  0.5897 -0.8720
  773MPD2     N11414   2.744   1.390   0.124 -0.0952  0.1977  0.1581
  773MPD2    H511415   2.759   1.319   0.053 -0.8046  0.8377 -0.6356
  773MPD2    N111416   2.540   1.601  17.436  0.1525  0.7898 -0.3486
  773MPD2    H711417   2.531   1.506  17.399  0.0358  0.6984 -0.0810
  774MPD2     C11418   2.451   0.580  13.085 -0.3070 -0.1085  0.0229
  774MPD2    C111419   2.364   0.638  13.173  0.3648 -0.3429  0.1679
  774MPD2    C211420   2.352   0.774  13.180 -0.2676  0.2998 -0.4103
  774MPD2    C311421   2.444   0.855  13.106  0.2234 -1.0829 -0.2201
  774MPD2    C411422   2.519   0.795  13.007 -0.0271 -0.0524  0.3873
  774MPD2    C511423   2.526   0.658  12.998 -0.7948 -0.1110  0.8069
  774MPD2     H11424   2.293   0.807  13.264 -1.8728 -1.7117 -0.7443
  774MPD2    H111425   2.588   0.846  12.939  1.6673  0.5856  2.5629
  774MPD2    H211426   2.466   0.473  13.085  3.3831  0.4111 -3.0825
  774MPD2    H311427   2.593   0.607  12.929  0.8696  3.7110 -0.4246
  774MPD2     N11428   2.440   0.991  13.139  0.1558 -0.4383 -0.8203
  774MPD2    H511429   2.360   1.019  13.195 -0.2938 -1.4020 -0.9719
  774MPD2    N111430   2.285   0.556  13.254 -0.2593 -0.2664  0.3058
  774MPD2    H711431   2.321   0.463  13.270 -0.7895 -0.9020 -2.1774
  775MPD2     C11432   3.641   2.213  15.973  0.4316 -0.6924 -0.2956
  775MPD2    C111433   3.588   2.333  16.024  0.0985  0.1708 -0.5087
  775MPD2    C211434   3.661   2.452  16.003  0.1445 -0.1717 -0.0086
  775MPD2    C311435   3.776   2.451  15.925  0.0659 -0.5190  0.5465
  775MPD2    C411436   3.819   2.329  15.870 -0.4185 -0.0037 -0.1798
  775MPD2    C511437   3.754   2.216  15.907  0.5334 -0.5559 -0.1915
  775MPD2     H11438   3.622   2.546  16.040  0.8579 -0.1356  0.6456
  775MPD2    H111439   3.909   2.324  15.811  0.1896 -1.2085  0.8466
  775MPD2    H211440   3.595   2.117  15.993 -0.2328 -0.8667 -2.6487
  775MPD2    H311441   3.772   2.122  15.855  1.3707 -0.4269 -0.1411
  775MPD2     N11442   3.844   2.564  15.887  0.1805  0.2711  0.5216
  775MPD2    H511443   3.918   2.551  15.820 -1.3691 -0.0363 -1.1143
  775MPD2    N111444   3.468   2.330  16.104  0.5505 -0.6653  0.2102
  775MPD2    H711445   3.430   2.238  16.120  4.4119 -2.4834 -1.2737
  776MPD2     C11446   2.978   2.378  11.784 -0.4764 -0.4670  0.2229
  776MPD2    C111447   2.839   2.356  11.775 -0.4850  0.7078 -0.0646
  776MPD2    C211448   2.763   2.470  11.790  0.5179  0.1428 -0.3575
  776MPD2    C311449   2.801   2.596  11.829  0.0154  0.1031 -0.5646
  776MPD2    C411450   2.938   2.606  11.844 -0.8987 -0.0013 -0.6246
  776MPD2    C511451   3.023   2.498  11.815  0.0106  0.4788 -0.3151
  776MPD2     H11452   2.660   2.455  11.759  0.2933  0.5812  0.1933
  776MPD2    H111453   2.982   2.696  11.885  0.4334 -0.3625 -1.2400
  776MPD2    H211454   3.050   2.297  11.775 -1.1648 -1.0372 -0.2030
  776MPD2    H311455   3.129   2.520  11.822  0.1237 -0.2093  0.1584
  776MPD2     N11456   2.716   2.712  11.839 -0.2496  0.0726  0.3581
  776MPD2    H511457   2.750   2.802  11.873 -3.0341  1.6172 -1.0009
  776MPD2    N111458   2.783   2.236  11.730  0.0831  0.3109 -0.1180
  776MPD2    H711459   2.685   2.254  11.708  0.2951 -0.6649 -1.8203
  777MPD2     C11460   3.234   4.444   0.593 -0.4534  0.1809  0.2821
  777MPD2    C111461   3.115   4.416   0.655  0.0913  0.0991 -0.0506
  777MPD2    C211462   3.029   4.321   0.607 -0.1154 -0.7200 -0.2299
  777MPD2    C311463   3.063   4.251   0.491 -0.2460 -0.3079  0.3039
  777MPD2    C411464   3.188   4.288   0.426 -0.3113  0.2618 -0.3818
  777MPD2    C511465   3.275   4.376   0.479 -0.8019  0.1769 -0.1100
  777MPD2     H11466   2.942   4.294   0.667 -1.9578  0.1368 -2.4897
  777MPD2    H111467   3.225   4.244   0.334  3.2575 -1.5275  1.9194
  777MPD2    H211468   3.304   4.515   0.635 -0.3397  0.6427 -0.6782
  777MPD2    H311469   3.369   4.385   0.425 -1.0165  0.9185 -0.3716
  777MPD2     N11470   2.974   4.157   0.437 -0.0015 -0.1296 -0.1839
  777MPD2    H511471   2.886   4.136   0.484 -1.2193 -0.3354 -2.5691
  777MPD2    N111472   3.095   4.490   0.775 -0.6272 -0.8878  0.9240
  777MPD2    H711473   3.161   4.559   0.810  0.5943 -0.9824 -1.1870
  778MPD2     C11474   4.272   0.436  14.792 -0.0253 -0.4212 -0.9682
  778MPD2    C111475   4.276   0.336  14.700  0.0761  0.7145  0.0697
  778MPD2    C211476   4.359   0.338  14.589  1.0777  0.5199  1.3586
  778MPD2    C311477   4.441   0.449  14.570 -0.2525  0.0279  0.2615
  778MPD2    C411478   4.431   0.552  14.656 -0.5339  0.5706 -0.1727
  778MPD2    C511479   4.345   0.547  14.761  0.4965 -0.6614 -0.0032
  778MPD2     H11480   4.356   0.249  14.528  0.4526  0.2965  1.7164
  778MPD2    H111481   4.498   0.638  14.654  1.0418 -0.6589  0.3386
  778MPD2    H211482   4.221   0.430  14.887  1.2620  1.0907 -0.1942
  778MPD2    H311483   4.346   0.623  14.838  0.2250 -1.1898  0.5214
  778MPD2     N11484   4.540   0.464  14.468  0.0336 -0.6602 -0.0452
  778MPD2    H511485   4.563   0.373  14.428  0.7768 -0.4210 -0.1604
  778MPD2    N111486   4.201   0.216  14.710 -0.0442  0.1394 -0.4401
  778MPD2    H711487   4.211   0.155  14.629  0.3336 -0.3077 -0.0480
  779MPD2     C11488   3.692   3.619  13.855 -0.3519 -0.0407  0.2371
  779MPD2    C111489   3.775   3.680  13.947  0.5877  0.1081 -0.1375
  779MPD2    C211490   3.808   3.815  13.941 -0.0758  0.9430 -0.2480
  779MPD2    C311491   3.765   3.890  13.827 -0.0666  0.4855  0.6234
  779MPD2    C411492   3.693   3.821  13.729  0.0109 -0.2569  0.1377
  779MPD2    C511493   3.652   3.691  13.745 -0.9022 -0.1626  0.1058
  779MPD2     H11494   3.869   3.870  14.012  0.7159 -0.3811  0.0990
  779MPD2    H111495   3.662   3.868  13.636 -0.9735  0.4710  0.8304
  779MPD2    H211496   3.662   3.515  13.868  0.3532  0.0020  2.3380
  779MPD2    H311497   3.586   3.643  13.673 -1.0183  0.6505 -0.3289
  779MPD2     N11498   3.818   4.022  13.807  0.4421 -0.6134 -0.1442
  779MPD2    H511499   3.880   4.049  13.883  1.0534 -0.0602 -0.8456
  779MPD2    N111500   3.818   3.593  14.051 -0.3895 -0.2780  0.3062
  779MPD2    H711501   3.805   3.493  14.044 -0.7418 -0.1769 -0.5713
  780MPD2     C11502   3.186   3.072   1.273 -0.8589  0.5897 -0.2655
  780MPD2    C111503   3.089   3.147   1.211  0.5604 -0.3440  0.8815
  780MPD2    C211504   3.128   3.223   1.105 -0.6676 -0.1977  0.0601
  780MPD2    C311505   3.258   3.221   1.055 -0.7600 -0.3317 -0.3440
  780MPD2    C411506   3.345   3.141   1.119  0.5200 -0.2330  0.3580
  780MPD2    C511507   3.314   3.070   1.230 -0.3888  0.0021  0.6644
  780MPD2     H11508   3.048   3.275   1.052 -0.1152  0.0439 -0.5412
  780MPD2    H111509   3.449   3.135   1.089  0.5354  0.3879  0.2978
  780MPD2    H211510   3.164   3.014   1.362  0.5098 -0.1839 -0.4252
  780MPD2    H311511   3.390   3.023   1.291  0.9863  3.0553  1.2924
  780MPD2     N11512   3.294   3.297   0.941  0.4661  0.6097 -0.3039
  780MPD2    H511513   3.214   3.348   0.905  0.9514  0.2699 -1.8492
  780MPD2    N111514   2.958   3.133   1.263 -0.1784  0.1595 -0.3253
  780MPD2    H711515   2.943   3.094   1.355 -1.1790  0.1321 -0.4984
  781MPD2     C11516   0.377   0.081  11.904 -0.3041 -0.2169  0.0614
  781MPD2    C111517   0.471   0.170  11.943 -0.2275 -0.7387 -0.7895
  781MPD2    C211518   0.562   0.225  11.854  0.0473 -0.7529 -0.0711
  781MPD2    C311519   0.563   0.182  11.723  0.2741  0.6708 -0.0544
  781MPD2    C411520   0.468   0.087  11.688 -0.1313  0.0993  0.3181
  781MPD2    C511521   0.371   0.043  11.776  0.4586  0.4042  0.2838
  781MPD2     H11522   0.626   0.304  11.890 -1.0902 -0.0936  0.5165
  781MPD2    H111523   0.472   0.047  11.587  0.4211 -0.8832  0.7337
  781MPD2    H211524   0.312   0.031  11.975  0.7157 -1.9658 -0.2124
  781MPD2    H311525   0.311   4.679  11.751  1.1407  0.0488 -0.1146
  781MPD2     N11526   0.650   0.227  11.625 -0.0305 -0.1602  0.3279
  781MPD2    H511527   0.643   0.182  11.534  0.1740 -0.2620  0.3601
  781MPD2    N111528   0.446   0.215  12.075  0.3561  0.3280  0.3206
  781MPD2    H711529   0.368   0.171  12.124  1.6963 -0.9867  1.2803
  782MPD2     C11530   2.952   1.526   9.988  0.0171  0.6343  0.0054
  782MPD2    C111531   3.080   1.513   9.940  0.0027  0.3900  0.2959
  782MPD2    C211532   3.185   1.527  10.031  0.6273  0.0169  0.5540
  782MPD2    C311533   3.168   1.535  10.169  0.2447 -0.9105  0.5145
  782MPD2    C411534   3.044   1.544  10.216 -0.1601 -0.1167 -0.2815
  782MPD2    C511535   2.935   1.544  10.124 -0.0485  0.3243  0.3837
  782MPD2     H11536   3.287   1.517   9.994  1.8878  1.1945  3.7288
  782MPD2    H111537   3.022   1.560  10.321 -0.7995 -0.5200 -0.3538
  782MPD2    H211538   2.865   1.519   9.923 -0.0723 -1.7923  0.3822
  782MPD2    H311539   2.833   1.561  10.159  0.2094  1.5870  0.5093
  782MPD2     N11540   3.284   1.531  10.250 -0.8509 -0.7720  0.1042
  782MPD2    H511541   3.366   1.510  10.194 -0.2817  2.5528 -0.2832
  782MPD2    N111542   3.092   1.461   9.809 -0.4823 -0.4605 -0.8832
  782MPD2    H711543   3.002   1.429   9.773 -0.6603 -0.5574 -0.3471
  783MPD2     C11544   2.570   0.965  10.297 -0.6326 -0.5091  0.8337
  783MPD2    C111545   2.661   1.048  10.365  0.1218  0.3753  0.1249
  783MPD2    C211546   2.772   1.103  10.295 -0.7507 -0.2853  0.0413
  783MPD2    C311547   2.782   1.085  10.162 -0.3120 -0.2782  0.3240
  783MPD2    C411548   2.688   1.008  10.094 -0.2004 -0.3955  0.5343
  783MPD2    C511549   2.582   0.950  10.161 -0.2537  0.1180  0.4211
  783MPD2     H11550   2.855   1.148  10.348 -0.5641  0.1701 -0.6451
  783MPD2    H111551   2.703   0.987   9.989 -0.2651 -0.3747  0.5209
  783MPD2    H211552   2.493   0.918  10.357 -0.3811 -1.4144  0.4397
  783MPD2    H311553   2.520   0.878  10.108 -3.5555  2.1434  1.5574
  783MPD2     N11554   2.906   1.133  10.099  0.8197  0.6134  0.2585
  783MPD2    H511555   2.978   1.164  10.164  0.9698  0.0322  0.3665
  783MPD2    N111556   2.638   1.064  10.503 -0.3404  0.1260  0.7002
  783MPD2    H711557   2.559   1.018  10.546  0.5225 -0.0597  2.0988
  784MPD2     C11558   0.894   1.601   0.483 -0.1798 -0.1793 -0.1562
  784MPD2    C111559   0.865   1.668   0.598  0.0524  0.2021  0.6344
  784MPD2    C211560   0.737   1.722   0.612 -0.2489 -0.6149  0.1251
  784MPD2    C311561   0.636   1.706   0.515  0.6349  0.0752  0.0845
  784MPD2    C411562   0.664   1.637   0.403 -0.1364 -0.5479  0.4366
  784MPD2    C511563   0.792   1.586   0.391  0.7300  0.4907 -0.2388
  784MPD2     H11564   0.710   1.768   0.706  0.7583  1.0860 -0.4180
  784MPD2    H111565   0.595   1.611   0.323  1.1807  0.3744 -0.9887
  784MPD2    H211566   0.997   1.574   0.459  0.2295 -0.2571  1.6540
  784MPD2    H311567   0.832   1.543   0.300 -0.5321 -0.8169 -0.1748
  784MPD2     N11568   0.511   1.773   0.535  0.5437  0.2624 -0.4206
  784MPD2    H511569   0.489   1.797   0.631 -1.6148  0.0014 -0.8618
  784MPD2    N111570   0.969   1.697   0.693 -0.7464  0.3306  0.3157
  784MPD2    H711571   0.951   1.769   0.763 -0.1048  0.4858  0.3143
  785MPD2     C11572   1.110   4.517   9.555  0.5657 -0.0358  0.0878
  785MPD2    C111573   1.047   4.475   9.667  0.0413 -0.0778 -0.2019
  785MPD2    C211574   0.929   4.401   9.645 -0.0921  0.0936 -0.4062
  785MPD2    C311575   0.879   4.370   9.517 -0.6087  0.4933 -0.3312
  785MPD2    C411576   0.949   4.418   9.404  0.3389  0.2762  0.2965
  785MPD2    C511577   1.065   4.491   9.420  1.2065 -0.6002  0.0910
  785MPD2     H11578   0.857   4.385   9.725 -1.4147  0.0461 -1.6054
  785MPD2    H111579   0.907   4.388   9.308 -0.4202  0.0963  0.6860
  785MPD2    H211580   1.199   4.579   9.549  1.3642 -1.1728  0.1337
  785MPD2    H311581   1.136   4.513   9.341 -0.3377  0.3707 -0.9943
  785MPD2     N11582   0.750   4.318   9.513  0.1997 -0.6663 -0.6278
  785MPD2    H511583   0.708   4.302   9.604  2.4506  0.9050  0.6966
  785MPD2    N111584   1.096   4.508   9.793  0.2835  0.3648 -0.1757
  785MPD2    H711585   1.183   4.561   9.794  0.3200  0.2648  2.8354
  786MPD2     C11586   3.764   3.037  14.675  0.5833  0.3542 -0.2318
  786MPD2    C111587   3.872   2.957  14.658  1.1306  0.3506  0.3563
  786MPD2    C211588   3.988   2.961  14.735 -0.1611  0.6407 -0.6066
  786MPD2    C311589   3.998   3.070  14.820  0.3952  0.3067 -0.3015
  786MPD2    C411590   3.893   3.160  14.828  0.0964 -0.2176  0.2338
  786MPD2    C511591   3.781   3.141  14.756 -0.1386  0.0954 -0.9801
  786MPD2     H11592   4.063   2.885  14.713  0.2650  0.6314  0.8988
  786MPD2    H111593   3.897   3.246  14.894  0.7593 -0.0364 -0.0441
  786MPD2    H211594   3.671   3.024  14.622  0.2300 -0.0155  0.4779
  786MPD2    H311595   3.690   3.195  14.780 -0.7637 -2.5920  2.6546
  786MPD2     N11596   4.118   3.098  14.890  0.0557  0.1331 -0.5539
  786MPD2    H511597   4.111   3.179  14.951  0.1943 -1.6353  1.7887
  786MPD2    N111598   3.869   2.850  14.565  1.0387  0.1766  0.3342
  786MPD2    H711599   3.951   2.790  14.572  0.5237 -0.7029 -1.1675
  787MPD2     C11600   3.928   2.327  14.744  1.1475  0.3238  0.1101
  787MPD2    C111601   3.988   2.343  14.616  0.3112 -0.4775 -1.0014
  787MPD2    C211602   4.107   2.266  14.596  0.2920  0.6042 -0.7856
  787MPD2    C311603   4.153   2.173  14.691  0.4192 -0.1611  0.3697
  787MPD2    C411604   4.092   2.159  14.810  0.4294 -0.3418  0.4125
  787MPD2    C511605   3.992   2.249  14.837  0.3806 -0.5423 -0.5242
  787MPD2     H11606   4.158   2.278  14.501 -0.0103 -0.2344 -1.0516
  787MPD2    H111607   4.128   2.099  14.892 -1.2476 -0.3331  1.1593
  787MPD2    H211608   3.848   2.392  14.778 -1.0379 -2.1109 -0.3798
  787MPD2    H311609   3.968   2.264  14.942 -1.2380 -1.0955 -0.8185
  787MPD2     N11610   4.269   2.092  14.654  0.2381 -0.6909  0.0543
  787MPD2    H511611   4.312   2.108  14.563  3.5388  0.9346  1.9057
  787MPD2    N111612   3.919   2.417  14.525 -0.3583 -0.7125  0.1222
  787MPD2    H711613   3.840   2.472  14.555  1.0250  0.2349  2.0092
  788MPD2     C11614   1.350   0.816   0.966  0.5501  0.3297  0.1143
  788MPD2    C111615   1.336   0.761   0.842  0.8343 -0.4932 -0.6105
  788MPD2    C211616   1.357   0.826   0.723 -0.1001 -0.1831  0.1310
  788MPD2    C311617   1.407   0.954   0.720  0.3245  1.3212  0.0269
  788MPD2    C411618   1.442   1.001   0.846  0.0557  0.4940  0.3862
  788MPD2    C511619   1.402   0.943   0.964  0.3007  0.6243  0.4927
  788MPD2     H11620   1.337   0.781   0.626  1.8971  1.6898 -1.1551
  788MPD2    H111621   1.494   1.095   0.862 -0.8716  1.0035  0.3909
  788MPD2    H211622   1.317   0.775   1.060 -0.1777  0.9565  0.1310
  788MPD2    H311623   1.414   1.000   1.056  1.1540 -0.7663  1.2328
  788MPD2     N11624   1.447   1.014   0.598  0.2775  0.4665 -0.8050
  788MPD2    H511625   1.442   0.971   0.507 -2.2687 -1.1665  0.1219
  788MPD2    N111626   1.277   0.630   0.832 -0.2865  0.6271 -0.1670
  788MPD2    H711627   1.258   0.592   0.739 -0.4535 -0.3868  0.2766
  789MPD2     C11628   1.566   0.959  15.943 -0.0332  0.0555  0.4849
  789MPD2    C111629   1.545   0.895  16.060  0.3518 -0.6625  0.3977
  789MPD2    C211630   1.426   0.918  16.123  0.4257  0.9031  0.3657
  789MPD2    C311631   1.330   1.001  16.070  0.5016  0.8923 -0.7755
  789MPD2    C411632   1.358   1.066  15.951 -0.6429 -0.0266 -0.6569
  789MPD2    C511633   1.477   1.046  15.893 -0.1453 -0.4033  0.1783
  789MPD2     H11634   1.399   0.857  16.209 -0.6946  0.8342 -0.0405
  789MPD2    H111635   1.284   1.130  15.903 -0.2739  0.8574 -0.0505
  789MPD2    H211636   1.661   0.946  15.893 -0.0974  2.1803 -0.1989
  789MPD2    H311637   1.511   1.095  15.802 -3.6962 -0.1797 -1.0222
  789MPD2     N11638   1.213   1.030  16.145  0.1798 -0.4277 -0.0262
  789MPD2    H511639   1.142   1.091  16.107  0.1603 -1.0185 -0.9306
  789MPD2    N111640   1.648   0.806  16.113 -0.2583 -0.3266 -1.2405
  789MPD2    H711641   1.611   0.739  16.178  1.5409  0.2469  0.3843
  790MPD2     C11642   2.689   3.003  13.401  0.3514  0.2306  0.4932
  790MPD2    C111643   2.690   2.864  13.407  0.1252 -0.2593 -0.3326
  790MPD2    C211644   2.618   2.783  13.322  0.2094  0.2946 -0.3766
  790MPD2    C311645   2.539   2.843  13.224 -0.0760 -0.2199 -0.0462
  790MPD2    C411646   2.522   2.983  13.221 -0.3969  0.0350 -1.4987
  790MPD2    C511647   2.611   3.056  13.298  0.6686  0.0694  0.2145
  790MPD2     H11648   2.623   2.675  13.327 -1.5740  0.1564 -1.4167
  790MPD2    H111649   2.469   3.043  13.148 -0.0233 -0.1403 -1.9149
  790MPD2    H211650   2.752   3.071  13.458 -0.5718  1.4750  0.0160
  790MPD2    H311651   2.605   3.164  13.297  2.6448  0.1778  0.4819
  790MPD2     N11652   2.458   2.749  13.142  0.0827 -0.2119 -0.5391
  790MPD2    H511653   2.489   2.653  13.137 -2.5229 -0.9994 -1.6195
  790MPD2    N111654   2.763   2.810  13.516 -0.1173  0.1041  0.6870
  790MPD2    H711655   2.802   2.880  13.578  1.1231  0.6871 -0.7379
  791MPD2     C11656   1.768   2.797  12.740  0.0570  0.5436 -0.0212
  791MPD2    C111657   1.815   2.670  12.762 -0.2061 -0.2848 -0.2542
  791MPD2    C211658   1.731   2.567  12.784  0.1128  0.4524 -0.7633
  791MPD2    C311659   1.593   2.587  12.785 -0.0318  0.0967 -0.5208
  791MPD2    C411660   1.545   2.722  12.784 -0.2224  0.2998 -0.2788
  791MPD2    C511661   1.637   2.827  12.760  0.5431 -0.3105  0.2592
  791MPD2     H11662   1.769   2.467  12.802 -0.9304  0.3607  0.9030
  791MPD2    H111663   1.444   2.746  12.815 -0.2963  0.2759 -0.5005
  791MPD2    H211664   1.836   2.879  12.722 -0.5382  1.7973  3.3001
  791MPD2    H311665   1.603   2.930  12.755 -0.6940 -0.5117  4.9320
  791MPD2     N11666   1.503   2.477  12.800 -0.1630 -0.4047  0.3514
  791MPD2    H511667   1.542   2.383  12.810  0.2116  0.0952  3.6613
  791MPD2    N111668   1.957   2.658  12.782 -0.7240 -0.0230  0.3747
  791MPD2    H711669   2.012   2.742  12.778  1.8333 -1.6811  0.7032
  792MPD2     C11670   3.009   2.176  11.422 -1.0590 -0.1031 -0.1837
  792MPD2    C111671   2.907   2.265  11.392 -0.3538  0.0062  0.4801
  792MPD2    C211672   2.810   2.218  11.310 -0.3960  0.6410 -0.4933
  792MPD2    C311673   2.814   2.096  11.243 -0.0166  1.2901 -0.3309
  792MPD2    C411674   2.922   2.012  11.274 -0.4581 -0.5171  0.4053
  792MPD2    C511675   3.021   2.057  11.360  0.1336  0.2900  0.0698
  792MPD2     H11676   2.723   2.280  11.292 -0.9713 -0.0105  0.0137
  792MPD2    H111677   2.936   1.926  11.209 -0.9725 -1.2053  1.2053
  792MPD2    H211678   3.091   2.212  11.483 -0.4602  0.3773 -1.2567
  792MPD2    H311679   3.110   1.998  11.375  0.0292  0.1279  0.0529
  792MPD2     N11680   2.714   2.043  11.155 -0.1174 -0.2002  0.1174
  792MPD2    H511681   2.743   1.967  11.095 -0.5377  0.1905 -0.5756
  792MPD2    N111682   2.904   2.396  11.444 -0.2128  1.4639 -0.4603
  792MPD2    H711683   2.994   2.437  11.467 -0.0091  0.8225 -0.1414
  793MPD2     C11684   2.273   2.337  10.279 -0.2787 -0.2415  0.1899
  793MPD2    C111685   2.397   2.272  10.296  0.3021 -0.6607  0.2553
  793MPD2    C211686   2.440   2.231  10.424 -0.2939 -0.0879  0.0843
  793MPD2    C311687   2.350   2.244  10.533  0.9337 -0.1551  0.3914
  793MPD2    C411688   2.236   2.311  10.515 -0.1679 -0.2109  0.3551
  793MPD2    C511689   2.195   2.357  10.387 -0.0087  0.0706  0.2007
  793MPD2     H11690   2.536   2.181  10.433  0.4183  0.8511 -2.1177
  793MPD2    H111691   2.167   2.328  10.596  0.4216 -0.5491  0.9286
  793MPD2    H211692   2.241   2.368  10.180 -2.4024 -0.7805  0.7161
  793MPD2    H311693   2.097   2.402  10.379 -0.2366 -0.5810 -0.7199
  793MPD2     N11694   2.389   2.177  10.655 -0.9297 -0.0079 -0.1576
  793MPD2    H511695   2.475   2.124  10.656 -0.6510  0.4504  0.8738
  793MPD2    N111696   2.479   2.253  10.187 -0.7838 -0.0930 -0.1941
  793MPD2    H711697   2.557   2.192  10.210  0.3065  1.3666  0.0590
  794MPD2     C11698   2.600   1.706  16.593  0.2148 -0.0016  0.5175
  794MPD2    C111699   2.471   1.711  16.635 -0.8886 -0.2210 -0.2748
  794MPD2    C211700   2.368   1.725  16.543 -0.1894 -0.9520 -1.2502
  794MPD2    C311701   2.383   1.747  16.413  0.3975  0.1253  0.0554
  794MPD2    C411702   2.513   1.729  16.369  0.1876 -0.4566 -0.7688
  794MPD2    C511703   2.619   1.719  16.458 -0.0210 -0.2088  0.4150
  794MPD2     H11704   2.273   1.728  16.594 -0.0815 -1.0553 -1.0411
  794MPD2    H111705   2.543   1.732  16.265 -2.3247 -3.7696 -1.5829
  794MPD2    H211706   2.685   1.687  16.657  0.8777 -4.3187 -1.6355
  794MPD2    H311707   2.721   1.714  16.422  0.0820  0.2208  0.6560
  794MPD2     N11708   2.285   1.789  16.324 -0.3978 -0.6194  0.2383
  794MPD2    H511709   2.312   1.797  16.226  1.0697 -1.5575  0.5800
  794MPD2    N111710   2.434   1.700  16.764 -0.2326 -0.7287  0.5544
  794MPD2    H711711   2.338   1.675  16.788 -0.5375 -0.0770  0.0346
  795MPD2     C11712   0.318   3.997  13.565  0.6132 -0.2343 -0.4195
  795MPD2    C111713   0.238   3.882  13.576  0.1259 -0.4248 -1.3845
  795MPD2    C211714   0.285   3.782  13.657  0.2506  0.1324  0.0053
  795MPD2    C311715   0.401   3.795  13.733  0.3815 -0.5952 -0.1259
  795MPD2    C411716   0.476   3.915  13.724  0.1002  0.7057  0.0958
  795MPD2    C511717   0.432   4.017  13.639 -0.0620  0.3771  0.3657
  795MPD2     H11718   0.219   3.695  13.661 -0.2689  0.6230  1.8208
  795MPD2    H111719   0.571   3.935  13.772 -0.8974  0.5061  2.1635
  795MPD2    H211720   0.300   4.087  13.508  0.4969  0.2180  0.3339
  795MPD2    H311721   0.488   4.107  13.620  0.9172 -0.0515  1.2343
  795MPD2     N11722   0.441   3.697  13.828 -0.2995 -0.3116 -0.4163
  795MPD2    H511723   0.534   3.711  13.868 -0.5149 -2.0279  0.6757
  795MPD2    N111724   0.117   3.862  13.506 -0.3456  0.4851 -0.2046
  795MPD2    H711725   0.067   3.775  13.524  0.1275  0.2034 -0.2325
  796MPD2     C11726   4.596   0.807  15.832 -0.2337  0.0449  0.1849
  796MPD2    C111727   4.684   0.877  15.910  0.0532  0.7773  0.8650
  796MPD2    C211728   4.663   1.009  15.929  0.6691 -0.7923  0.3465
  796MPD2    C311729   4.560   1.075  15.866 -0.3310  0.3163 -0.3795
  796MPD2    C411730   4.484   1.009  15.768 -0.0244 -0.5195  0.1563
  796MPD2    C511731   4.501   0.870  15.754 -0.0370  0.1230  0.5626
  796MPD2     H11732   4.721   1.064  16.003 -0.3256 -1.1217  1.3827
  796MPD2    H111733   4.414   1.064  15.706 -1.0116  0.0779  1.7761
  796MPD2    H211734   4.609   0.701  15.813 -0.7540  0.0990 -0.5078
  796MPD2    H311735   4.446   0.808  15.685  0.6964 -0.4919  0.5320
  796MPD2     N11736   4.548   1.212  15.884 -0.9973 -0.2790 -0.4442
  796MPD2    H511737   4.618   1.259  15.941 -0.6473 -2.0186  0.5481
  796MPD2    N111738   0.056   0.804  15.980  0.0358  0.3249 -0.0073
  796MPD2    H711739   0.055   0.703  15.974  0.0749  0.3087  0.2656
  797MPD2     C11740   0.902   0.545  17.177  0.3623  0.4514 -0.0910
  797MPD2    C111741   1.039   0.538  17.169 -0.0570  0.1810 -0.0756
  797MPD2    C211742   1.091   0.602  17.059 -0.1388  0.6366  0.3809
  797MPD2    C311743   1.017   0.651  16.952  0.2743  0.3254 -0.2461
  797MPD2    C411744   0.882   0.658  16.966 -0.1003  0.4221 -0.3811
  797MPD2    C511745   0.828   0.604  17.080 -0.5167 -0.0546 -0.8462
  797MPD2     H11746   1.199   0.614  17.054 -0.2133  0.8885 -0.5884
  797MPD2    H111747   0.825   0.712  16.891 -2.1253 -0.7220  0.3291
  797MPD2    H211748   0.852   0.491  17.257  2.9809  0.6192  1.6686
  797MPD2    H311749   0.725   0.624  17.107 -0.4970  0.3546 -1.0722
  797MPD2     N11750   1.078   0.717  16.840 -0.0190  0.1073  0.1133
  797MPD2    H511751   1.016   0.762  16.774  0.5022  2.0479  0.9462
  797MPD2    N111752   1.127   0.470  17.261 -0.2277  0.6017  0.0197
  797MPD2    H711753   1.228   0.482  17.251 -0.0697  0.7826  1.8633
  798MPD2     C11754   1.736   0.437  16.819  0.0578  0.4146  0.5248
  798MPD2    C111755   1.622   0.511  16.859  0.3668 -0.0769 -0.2833
  798MPD2    C211756   1.571   0.505  16.990 -0.6432 -0.3505  0.3446
  798MPD2    C311757   1.631   0.423  17.079 -0.3013  0.4392  0.1327
  798MPD2    C411758   1.744   0.358  17.040 -0.2214  0.2327  0.1202
  798MPD2    C511759   1.795   0.365  16.914 -0.2378  0.3888  0.3835
  798MPD2     H11760   1.485   0.564  17.019 -0.9945 -0.2545 -0.8801
  798MPD2    H111761   1.802   0.300  17.111  0.3446  0.8891  0.1881
  798MPD2    H211762   1.789   0.441  16.725 -2.5875 -0.9020 -1.0246
  798MPD2    H311763   1.889   0.317  16.891 -1.3572 -0.2710 -2.7080
  798MPD2     N11764   1.569   0.414  17.205 -0.1483 -0.5055 -0.3297
  798MPD2    H511765   1.493   0.479  17.224  1.5504  1.3449  0.1053
  798MPD2    N111766   1.551   0.596  16.771 -0.0125 -0.1553 -0.1703
  798MPD2    H711767   1.475   0.646  16.816 -0.1668 -2.1228  1.7116
  799MPD2     C11768   4.176   1.671  14.660  0.8949 -0.3153  0.0438
  799MPD2    C111769   4.263   1.650  14.554 -0.7229  0.4729 -0.0521
  799MPD2    C211770   4.247   1.721  14.438  0.3818  0.1989 -0.2083
  799MPD2    C311771   4.147   1.815  14.429 -0.0203  0.3565  0.6513
  799MPD2    C411772   4.068   1.835  14.542 -0.3123 -0.3551 -0.6260
  799MPD2    C511773   4.077   1.764  14.651 -0.3460 -0.3047  0.7992
  799MPD2     H11774   4.323   1.703  14.363  1.8774 -1.5568  1.7197
  799MPD2    H111775   3.982   1.900  14.554  1.4222  1.7623  0.4938
  799MPD2    H211776   4.187   1.608  14.747  1.6658  2.1107  1.7183
  799MPD2    H311777   4.006   1.774  14.732  0.4651  0.2449  1.4437
  799MPD2     N11778   4.107   1.891  14.312 -0.0208  0.0794 -0.4018
  799MPD2    H511779   4.039   1.965  14.326  0.6494  0.9531 -1.7162
  799MPD2    N111780   4.370   1.557  14.552 -0.5332 -0.4086 -0.3134
  799MPD2    H711781   4.415   1.548  14.462  1.3941  0.0575  0.6048
  800MPD2     C11782   4.312   2.908  14.330 -0.4657  0.5154 -1.1136
  800MPD2    C111783   4.425   2.961  14.277  0.1348  0.5898 -0.7474
  800MPD2    C211784   4.450   2.937  14.144  0.9369  0.3623  0.2569
  800MPD2    C311785   4.373   2.856  14.065 -0.7268  0.8218  0.1892
  800MPD2    C411786   4.258   2.803  14.118  0.4628 -0.5350 -0.3571
  800MPD2    C511787   4.228   2.829  14.252  0.4617  0.2281  0.0168
  800MPD2     H11788   4.536   2.986  14.099 -1.0857  3.0929 -0.5688
  800MPD2    H111789   4.196   2.728  14.068  0.8596 -0.2125 -1.3346
  800MPD2    H211790   4.289   2.921  14.435 -0.1746 -2.3687 -0.6860
  800MPD2    H311791   4.149   2.761  14.282  0.8494 -1.2547 -2.3532
  800MPD2     N11792   4.406   2.855  13.931 -0.1724 -0.0887 -0.7823
  800MPD2    H511793   4.494   2.899  13.910 -0.6776  1.2810 -0.0231
  800MPD2    N111794   4.512   3.057  14.350  0.6233 -0.0455 -0.3844
  800MPD2    H711795   4.490   3.068  14.448  0.7704 -0.5657 -0.2949
  801MPD2     C11796   0.039   3.823  14.393  0.0105  0.0573  0.4211
  801MPD2    C111797   4.706   3.734  14.486  0.4464 -0.0270 -0.6988
  801MPD2    C211798   4.626   3.779  14.591  0.9037  0.6117 -0.0181
  801MPD2    C311799   4.569   3.905  14.582 -0.2636  0.4766  0.2886
  801MPD2    C411800   4.616   3.989  14.484 -0.2304  0.0200 -0.6520
  801MPD2    C511801   4.717   3.950  14.398  0.5963  0.1572 -0.3475
  801MPD2     H11802   4.618   3.713  14.676 -1.7264 -0.3754 -1.0343
  801MPD2    H111803   4.573   4.088  14.496 -2.2941 -0.5305 -3.3171
  801MPD2    H211804   0.097   3.792  14.307 -2.1222  0.9206 -1.3487
  801MPD2    H311805   0.029   4.025  14.328  0.2332  1.0948  0.4787
  801MPD2     N11806   4.481   3.968  14.676  0.9093 -0.1793 -0.1592
  801MPD2    H511807   4.456   4.062  14.648  0.5232 -0.1419  0.3155
  801MPD2    N111808   0.011   3.597  14.471 -0.2995  0.5493 -0.1354
  801MPD2    H711809   0.080   3.566  14.403 -0.6874  0.4368 -0.4767
  802MPD2     C11810   3.870   3.814  17.059  0.5966 -0.2797 -0.0694
  802MPD2    C111811   3.980   3.842  17.136 -0.3295  0.2649  0.3832
  802MPD2    C211812   4.101   3.784  17.095  0.7470  0.1357  0.8862
  802MPD2    C311813   4.108   3.695  16.994 -0.1811 -0.9180 -0.6877
  802MPD2    C411814   3.999   3.664  16.924 -0.0224 -0.6928 -0.4305
  802MPD2    C511815   3.882   3.717  16.963  0.2196  0.2774 -0.2577
  802MPD2     H11816   4.185   3.793  17.163  2.2247  1.8566 -1.1762
  802MPD2    H111817   3.995   3.597  16.839  0.0924 -2.6176  1.0720
  802MPD2    H211818   3.769   3.838  17.088  0.0473 -0.0900 -2.1299
  802MPD2    H311819   3.790   3.687  16.915  0.7284  0.2915 -1.2307
  802MPD2     N11820   4.237   3.649  16.963  0.1770  0.2920 -0.3188
  802MPD2    H511821   4.310   3.690  17.021 -0.9933  0.9995  0.6617
  802MPD2    N111822   3.974   3.925  17.249  0.0535 -0.3472 -0.2395
  802MPD2    H711823   4.065   3.934  17.293  1.0607  0.8512 -2.5727
  803MPD2     C11824   0.370   2.394  11.665 -0.6796  0.3755 -0.8258
  803MPD2    C111825   0.450   2.421  11.780 -0.0541  0.7378  0.6875
  803MPD2    C211826   0.424   2.345  11.891  0.8357  0.4512 -0.6277
  803MPD2    C311827   0.330   2.247  11.888  0.8688  0.6479 -0.2437
  803MPD2    C411828   0.254   2.227  11.779  0.1517  0.1400  0.0017
  803MPD2    C511829   0.271   2.300  11.667  0.3008 -0.4572  0.1848
  803MPD2     H11830   0.490   2.358  11.976  0.9650  2.6389 -1.0830
  803MPD2    H111831   0.167   2.163  11.781  0.1051  0.1610 -1.0926
  803MPD2    H211832   0.375   2.452  11.574 -0.9045  1.1649 -0.3375
  803MPD2    H311833   0.203   2.309  11.583 -0.6059 -0.5374  0.9191
  803MPD2     N11834   0.302   2.171  12.008 -1.1406  0.8683 -0.3714
  803MPD2    H511835   0.218   2.114  12.018 -0.5243 -0.1530 -1.0186
  803MPD2    N111836   0.553   2.520  11.786 -0.3649 -0.3894  0.7975
  803MPD2    H711837   0.582   2.536  11.882  1.2877  0.6190  0.1288
  804MPD2     C11838   0.261   3.684  16.786 -0.3574  0.7072 -0.0818
  804MPD2    C111839   0.377   3.656  16.857  0.1266  0.1795  0.8668
  804MPD2    C211840   0.462   3.758  16.891  0.3698  0.1172 -1.1287
  804MPD2    C311841   0.413   3.891  16.892  0.0239  0.3490 -0.3906
  804MPD2    C411842   0.291   3.913  16.840  0.4659 -0.2502  0.3294
  804MPD2    C511843   0.220   3.811  16.774  0.3034  0.2469  0.0020
  804MPD2     H11844   0.553   3.735  16.945  0.1903 -1.4400 -1.5139
  804MPD2    H111845   0.244   4.010  16.837  2.0979  0.5666  1.3396
  804MPD2    H211846   0.202   3.606  16.740  2.0646 -0.5804 -0.9959
  804MPD2    H311847   0.133   3.844  16.717  1.5140  1.1456 -1.3172
  804MPD2     N11848   0.492   4.001  16.942  0.0624  0.8626 -0.5527
  804MPD2    H511849   0.448   4.092  16.951 -0.0767  0.7785 -0.4000
  804MPD2    N111850   0.422   3.527  16.898 -0.7800 -0.4498  0.5038
  804MPD2    H711851   0.514   3.534  16.942 -0.0771 -0.6570 -0.9139
  805MPD2     C11852   3.975   2.043  15.644  0.4861  0.6677  0.4515
  805MPD2    C111853   4.047   2.074  15.531 -0.7738  0.4112  0.1593
  805MPD2    C211854   4.183   2.096  15.544 -0.2430 -0.4631 -0.8468
  805MPD2    C311855   4.243   2.093  15.667  0.8700 -0.1065  1.1898
  805MPD2    C411856   4.172   2.073  15.779 -0.0604  0.4230 -0.1225
  805MPD2    C511857   4.041   2.048  15.767  0.1282  0.1693  0.0787
  805MPD2     H11858   4.243   2.128  15.460  1.2162 -1.9095 -0.3615
  805MPD2    H111859   4.226   2.065  15.873  2.4315 -1.6216 -1.7123
  805MPD2    H211860   3.872   2.008  15.645  1.2423 -1.5347  0.4028
  805MPD2    H311861   3.983   2.010  15.851  1.6383 -2.2635  0.0084
  805MPD2     N11862   4.381   2.116  15.657 -0.2698 -0.0394 -0.1137
  805MPD2    H511863   4.422   2.087  15.568 -1.0944  1.5709 -1.0228
  805MPD2    N111864   3.992   2.091  15.403  0.2359 -0.1507  0.1769
  805MPD2    H711865   4.058   2.120  15.331 -1.4471 -1.1663 -1.7713
  806MPD2     C11866   4.714   1.580   0.207 -0.2862 -0.4054 -0.2866
  806MPD2    C111867   4.715   1.691   0.285  0.0608 -0.0555  0.6285
  806MPD2    C211868   4.700   1.812   0.228  0.2220 -0.0316 -0.1003
  806MPD2    C311869   4.713   1.829   0.092  0.4665  0.0358  0.0492
  806MPD2    C411870   4.717   1.719   0.010 -1.2088  0.0105  0.1951
  806MPD2    C511871   4.718   1.595   0.068 -0.2750  0.0972 -0.3990
  806MPD2     H11872   4.678   1.896   0.293  4.6685  1.2274 -0.1686
  806MPD2    H111873   0.010   1.731  17.595 -2.1201  0.4232  0.1077
  806MPD2    H211874   4.722   1.483   0.253  0.1891  1.4275  3.4874
  806MPD2    H311875   0.005   1.507   0.006  5.4449  0.9046 -0.6590
  806MPD2     N11876   4.716   1.958   0.039  0.5820 -0.3609  0.2125
  806MPD2    H511877   0.004   2.038   0.101  0.4601  0.1421 -0.4157
  806MPD2    N111878   0.000   1.664   0.426 -0.4223  0.2628 -0.0244
  806MPD2    H711879   0.004   1.565   0.447 -1.7624  0.4446  1.0677
  807MPD2     C11880   4.467   1.722   1.251  0.2163  0.2956  0.2384
  807MPD2    C111881   4.538   1.618   1.214 -0.1878 -0.6578 -0.1089
  807MPD2    C211882   4.543   1.510   1.301  0.0991 -0.4646 -0.0717
  807MPD2    C311883   4.496   1.520   1.432  0.1110  0.0149 -0.7444
  807MPD2    C411884   4.423   1.628   1.468 -0.1426  0.2525 -0.8014
  807MPD2    C511885   4.398   1.720   1.372  0.4547  0.0230 -0.0594
  807MPD2     H11886   4.606   1.424   1.280  0.2590 -0.1582 -0.8579
  807MPD2    H111887   4.382   1.651   1.565  1.4803  1.2565 -0.3612
  807MPD2    H211888   4.443   1.817   1.205  2.2927 -0.1020 -1.6945
  807MPD2    H311889   4.334   1.799   1.411 -1.9056 -2.6487  1.4858
  807MPD2     N11890   4.528   1.413   1.519 -0.1554  0.1224 -0.2716
  807MPD2    H511891   4.582   1.337   1.480  1.4346  1.5272 -0.7882
  807MPD2    N111892   4.604   1.615   1.095  0.2300  0.1384  0.6663
  807MPD2    H711893   4.654   1.529   1.073  0.1649  0.0102  1.0330
  808MPD2     C11894   4.706   2.733   9.128  1.0730  0.0151 -0.6568
  808MPD2    C111895   4.710   2.740   9.267  0.9621  0.0634 -0.7401
  808MPD2    C211896   0.072   2.829   9.333 -0.1043 -0.1106  0.0895
  808MPD2    C311897   0.163   2.911   9.263  0.3370 -0.7819  0.4087
  808MPD2    C411898   0.154   2.905   9.127 -0.3882 -0.5194 -0.1412
  808MPD2    C511899   0.076   2.813   9.063  0.1799 -0.2292  0.4451
  808MPD2     H11900   0.078   2.823   9.442 -0.6097 -0.2990  0.1051
  808MPD2    H111901   0.237   2.947   9.072 -1.3660 -0.5631 -1.6422
  808MPD2    H211902   4.643   2.660   9.077 -1.4727  2.4729 -1.0201
  808MPD2    H311903   0.078   2.808   8.955  1.7151 -1.4300  0.5330
  808MPD2     N11904   0.265   2.987   9.319 -0.0573  0.1299  0.1034
  808MPD2    H511905   0.337   3.020   9.256 -0.2101 -0.5571 -0.4295
  808MPD2    N111906   4.638   2.654   9.349  0.7439 -0.0968 -1.0430
  808MPD2    H711907   4.662   2.673   9.446  0.8672 -0.6408 -0.9666
  809MPD2     C11908   0.895   2.596   9.125 -0.0732 -0.3032 -0.8045
  809MPD2    C111909   0.921   2.605   9.257 -0.0989  1.2362 -0.7472
  809MPD2    C211910   0.866   2.711   9.328 -0.0499  0.3476 -0.1184
  809MPD2    C311911   0.795   2.812   9.261  0.4125 -0.0920 -0.8694
  809MPD2    C411912   0.763   2.799   9.126 -0.1599 -0.0506  0.4682
  809MPD2    C511913   0.825   2.695   9.063 -0.3263 -0.2465 -0.8312
  809MPD2     H11914   0.861   2.715   9.437 -1.4734  0.3397 -0.1793
  809MPD2    H111915   0.692   2.861   9.074 -0.6193 -2.1525 -1.4331
  809MPD2    H211916   0.942   2.520   9.063 -3.1641 -1.0398 -2.2278
  809MPD2    H311917   0.811   2.692   8.955 -0.7101 -1.5357 -0.7482
  809MPD2     N11918   0.739   2.919   9.332 -0.5021  0.2818 -0.3862
  809MPD2    H511919   0.687   2.986   9.277 -0.2981 -0.1473 -1.1026
  809MPD2    N111920   0.975   2.499   9.328  0.1233 -0.3356  0.0668
  809MPD2    H711921   0.984   2.512   9.428 -2.1841  0.8309  0.1247
  810MPD2     C11922   0.410   2.011  10.077  0.2867  0.0765 -0.5709
  810MPD2    C111923   0.292   2.074  10.076  0.2895  0.3862 -0.1698
  810MPD2    C211924   0.289   2.213  10.103 -0.4108 -1.2452  0.0735
  810MPD2    C311925   0.411   2.280  10.130 -0.7752  0.2619  0.4595
  810MPD2    C411926   0.524   2.216  10.115  0.4783 -0.0921  0.0623
  810MPD2    C511927   0.528   2.079  10.098  0.3279 -0.0818 -0.5553
  810MPD2     H11928   0.196   2.266  10.119 -0.1687 -0.7008 -0.3281
  810MPD2    H111929   0.618   2.265  10.138 -0.8644  2.1821  0.7300
  810MPD2    H211930   0.410   1.904  10.059  1.1868  0.1188 -0.8260
  810MPD2    H311931   0.621   2.024  10.103  1.1308  1.5413  2.4661
  810MPD2     N11932   0.417   2.416  10.168 -0.3013  0.0188  0.0453
  810MPD2    H511933   0.508   2.456  10.189 -0.3257  0.8748 -1.4217
  810MPD2    N111934   0.168   2.011  10.040 -0.0111  0.1077 -0.2417
  810MPD2    H711935   0.175   1.911  10.025 -0.0965  0.3345 -1.8073
  811MPD2     C11936   4.004   2.036   9.757 -0.4287  0.2377  0.1330
  811MPD2    C111937   4.107   2.100   9.819 -0.5398 -0.0505  0.2597
  811MPD2    C211938   4.109   2.238   9.806 -0.3372 -0.4930 -0.1213
  811MPD2    C311939   4.016   2.316   9.744 -0.2731 -0.6270 -0.4764
  811MPD2    C411940   3.908   2.249   9.690  0.4723  0.4942 -0.3458
  811MPD2    C511941   3.905   2.111   9.698 -0.5054 -0.0157  0.4028
  811MPD2     H11942   4.195   2.299   9.833 -1.4741  0.7621  0.7049
  811MPD2    H111943   3.819   2.293   9.647 -0.2328  0.3027  0.9090
  811MPD2    H211944   4.003   1.928   9.755 -1.4527  0.2578 -0.5109
  811MPD2    H311945   3.818   2.056   9.664 -1.2615  1.5501 -0.2240
  811MPD2     N11946   4.025   2.456   9.747  0.9451  0.5861 -0.2210
  811MPD2    H511947   4.099   2.501   9.800  2.1725 -0.5450 -0.9829
  811MPD2    N111948   4.217   2.030   9.877 -0.9135 -0.3263  0.3780
  811MPD2    H711949   4.226   1.931   9.854 -0.3325 -0.1696 -0.0682
  812MPD2     C11950   3.529   2.268  12.127  0.3323  0.1159 -0.3938
  812MPD2    C111951   3.447   2.332  12.211  1.2259 -0.0945  0.3056
  812MPD2    C211952   3.384   2.251  12.298 -0.1662  0.0707  0.4193
  812MPD2    C311953   3.411   2.118  12.325 -0.2070  0.0961 -0.2732
  812MPD2    C411954   3.494   2.060  12.236 -0.3061 -0.3500  0.3892
  812MPD2    C511955   3.556   2.133  12.136  0.5074 -0.4102  0.6530
  812MPD2     H11956   3.310   2.296  12.363 -0.4217 -0.0882  0.2351
  812MPD2    H111957   3.512   1.953  12.236  1.3901 -0.0768  0.0983
  812MPD2    H211958   3.577   2.307  12.038 -1.1538  1.2689 -0.7060
  812MPD2    H311959   3.625   2.088  12.066  1.1083  0.2698  0.8117
  812MPD2     N11960   3.350   2.055  12.432  0.6405  0.2069 -0.3407
  812MPD2    H511961   3.292   2.116  12.488 -0.1068  0.4807 -1.4113
  812MPD2    N111962   3.432   2.474  12.205  0.2023 -0.0892  0.2068
  812MPD2    H711963   3.481   2.517  12.127  1.0231  2.3916  2.0978
  813MPD2     C11964   2.427   4.646  12.786 -0.5032  0.9437 -0.6168
  813MPD2    C111965   2.529   4.563  12.821 -0.0657  0.3576  0.3137
  813MPD2    C211966   2.520   4.500  12.944 -0.1350 -0.2360 -0.2013
  813MPD2    C311967   2.412   4.525  13.027 -0.2190  0.5003  0.1888
  813MPD2    C411968   2.308   4.608  12.995 -1.1021 -0.3795 -0.7960
  813MPD2    C511969   2.321   4.662  12.873 -0.0830  0.9082 -0.5668
  813MPD2     H11970   2.595   4.447  13.001  0.5270  0.4332 -0.4491
  813MPD2    H111971   2.220   4.623  13.057 -0.1845  0.1487  0.3840
  813MPD2    H211972   2.434   4.709  12.698  1.1622  0.6546 -0.6915
  813MPD2    H311973   2.247   0.015  12.847 -0.6800  0.4905 -0.0765
  813MPD2     N11974   2.422   4.478  13.157  0.2813 -0.6146  0.5733
  813MPD2    H511975   2.512   4.433  13.170  1.0770  0.4932 -1.1626
  813MPD2    N111976   2.651   4.566  12.747 -0.3074 -0.0374 -0.2448
  813MPD2    H711977   2.653   4.620  12.661 -1.2024 -1.8158 -1.3755
  814MPD2     C11978   2.891   0.963  12.345 -0.2095  0.2080  0.6798
  814MPD2    C111979   2.967   0.924  12.232 -0.3576 -0.9337 -0.7926
  814MPD2    C211980   3.066   1.011  12.203  0.1490 -0.5850  0.6844
  814MPD2    C311981   3.082   1.135  12.261 -0.2338 -0.3593  0.5489
  814MPD2    C411982   2.999   1.176  12.364  0.9124  0.2858 -0.0326
  814MPD2    C511983   2.907   1.082  12.407  0.3386 -0.1352 -1.1859
  814MPD2     H11984   3.136   0.978  12.128 -1.1796  2.1130 -1.7471
  814MPD2    H111985   3.003   1.271  12.416 -1.5804 -0.1170  0.8572
  814MPD2    H211986   2.816   0.896  12.387 -0.2717 -0.4781 -0.5115
  814MPD2    H311987   2.844   1.099  12.493  0.2307 -1.8864 -0.9209
  814MPD2     N11988   3.187   1.223  12.227  0.0337  0.2691 -0.2676
  814MPD2    H511989   3.206   1.305  12.284  1.4278  0.1967 -0.6261
  814MPD2    N111990   2.954   0.799  12.163  0.1800 -0.1725  0.2669
  814MPD2    H711991   3.026   0.780  12.093  0.3993  0.4722  0.3233
  815MPD2     C11992   3.500   4.338  11.731  0.3356  0.0835  0.6877
  815MPD2    C111993   3.495   4.215  11.790 -0.0131  0.0502  0.3147
  815MPD2    C211994   3.407   4.201  11.894 -0.5357 -0.1203 -0.2927
  815MPD2    C311995   3.334   4.309  11.949  0.1231 -0.6563 -0.2207
  815MPD2    C411996   3.353   4.436  11.896 -0.2099 -1.0438  0.1428
  815MPD2    C511997   3.441   4.449  11.796  0.1928  0.0674 -0.0381
  815MPD2     H11998   3.386   4.102  11.932 -1.7594  0.7890  1.4254
  815MPD2    H111999   3.304   4.528  11.926 -0.6246 -1.1234 -0.2922
  815MPD2    H212000   3.544   4.345  11.632 -0.3031 -1.0260  0.3259
  815MPD2    H312001   3.453   4.548  11.753 -1.5230 -0.1839 -1.0969
  815MPD2     N12002   3.246   4.276  12.052 -0.3181 -0.7192  0.4589
  815MPD2    H512003   3.247   4.175  12.066  1.1566 -0.9285 -1.1513
  815MPD2    N112004   3.568   4.105  11.731  0.2933 -0.2367 -0.7854
  815MPD2    H712005   3.620   4.131  11.648  2.1325 -0.5441  0.2899
  816MPD2     C12006   3.834   3.623  17.517  0.6115 -0.6256 -0.8077
  816MPD2    C112007   3.711   3.601  17.471 -0.0300 -0.3847  0.4511
  816MPD2    C212008   3.697   3.526  17.353  0.9313 -0.1808  0.4330
  816MPD2    C312009   3.809   3.480  17.285 -0.5308  0.7491 -0.1306
  816MPD2    C412010   3.935   3.517  17.329 -0.1151  0.2454  0.6482
  816MPD2    C512011   3.942   3.580  17.452  0.2996  0.5665 -0.1340
  816MPD2     H12012   3.601   3.498  17.312  1.6090  1.4191 -2.2990
  816MPD2    H112013   4.027   3.494  17.277  0.2597 -0.1117  1.4742
  816MPD2    H212014   3.853   3.671  17.613 -6.1623 -1.3810  0.8779
  816MPD2    H312015   4.039   3.607  17.494  0.3014 -0.4444  0.4923
  816MPD2     N12016   3.790   3.401  17.168  0.2002 -0.1200  0.3811
  816MPD2    H512017   3.700   3.391  17.122 -0.3466  0.8765  1.2203
  816MPD2    N112018   3.598   3.639  17.552 -0.4811 -0.2273 -0.1851
  816MPD2    H712019   3.629   3.685  17.636  0.1622  0.2711 -0.6921
  817MPD2     C12020   2.727   4.231  10.183  0.3901  0.0836 -0.1581
  817MPD2    C112021   2.716   4.222  10.041  0.2769  0.2444  0.3744
  817MPD2    C212022   2.651   4.323   9.983  0.4563  1.2473  0.5779
  817MPD2    C312023   2.575   4.411  10.051  0.6858  0.1368  0.0628
  817MPD2    C412024   2.571   4.412  10.186  0.2022  0.6054 -0.8937
  817MPD2    C512025   2.650   4.323  10.253 -0.0697 -1.0083 -0.8905
  817MPD2     H12026   2.656   4.332   9.875 -2.9780  3.5409  0.6126
  817MPD2    H112027   2.523   4.493  10.240  1.0436 -0.0978  0.9212
  817MPD2    H212028   2.783   4.164  10.247  0.0929  0.8753  0.9234
  817MPD2    H312029   2.648   4.321  10.361  0.4548 -0.3455 -0.8619
  817MPD2     N12030   2.502   4.499   9.966  0.1562  0.0953 -0.0508
  817MPD2    H512031   2.505   4.486   9.865 -0.1363 -0.9504  0.0769
  817MPD2    N112032   2.784   4.131   9.959  0.3945 -0.1051  0.7331
  817MPD2    H712033   2.787   4.154   9.861  1.7317  2.1008  1.2781
  818MPD2     C12034   1.561   4.397   9.872 -0.9416 -0.2719  0.1820
  818MPD2    C112035   1.608   4.373  10.002  0.0561  0.2695 -0.5179
  818MPD2    C212036   1.723   4.294  10.012 -0.1160 -0.8725  0.1457
  818MPD2    C312037   1.781   4.238   9.900  0.1484  0.8494  0.5263
  818MPD2    C412038   1.731   4.270   9.777  0.0259  0.4027 -0.0369
  818MPD2    C512039   1.622   4.349   9.762 -0.8643  0.1263 -0.7350
  818MPD2     H12040   1.755   4.263  10.110 -0.2368 -1.0779  0.1204
  818MPD2    H112041   1.772   4.223   9.688  3.0569 -0.1585  1.6619
  818MPD2    H212042   1.473   4.458   9.856  0.5905  0.8334 -4.0444
  818MPD2    H312043   1.588   4.364   9.660 -0.3629  0.3641 -0.8651
  818MPD2     N12044   1.890   4.157   9.894 -0.0040  0.2300 -1.4527
  818MPD2    H512045   1.923   4.127   9.804  0.0506 -2.6756 -0.4604
  818MPD2    N112046   1.539   4.414  10.120 -0.0679 -0.1727 -0.1650
  818MPD2    H712047   1.579   4.379  10.207 -0.5383 -0.6634 -0.1472
  819MPD2     C12048   4.471   1.672  15.556  0.0999  0.5294  0.2294
  819MPD2    C112049   4.543   1.556  15.538  0.1620 -0.0125 -0.0227
  819MPD2    C212050   4.679   1.559  15.552  0.0703  0.2472  0.0297
  819MPD2    C312051   0.019   1.667  15.608 -0.6839  0.0197  0.3513
  819MPD2    C412052   4.663   1.780  15.644 -0.2632 -0.3623 -0.9226
  819MPD2    C512053   4.527   1.775  15.618  0.6294  0.0862  0.2586
  819MPD2     H12054   0.024   1.477  15.530 -0.2856 -0.2639  0.8541
  819MPD2    H112055   4.704   1.872  15.682  0.0844 -0.9755  0.2057
  819MPD2    H212056   4.364   1.671  15.539  0.3539 -2.4021 -1.1197
  819MPD2    H312057   4.474   1.866  15.642 -3.1057 -1.7079 -1.1760
  819MPD2     N12058   0.157   1.657  15.612  0.2837  0.0841 -0.2554
  819MPD2    H512059   0.210   1.588  15.559  2.3922  1.4432  0.0471
  819MPD2    N112060   4.476   1.438  15.508 -0.1264  0.4711  0.5138
  819MPD2    H712061   4.381   1.452  15.476 -1.3146 -1.7197  3.0208
  820MPD2     C12062   3.804   1.434  14.966  0.1494  0.3764 -0.3752
  820MPD2    C112063   3.906   1.521  15.010 -0.4008  0.3808 -0.4550
  820MPD2    C212064   4.011   1.462  15.073 -0.3266  0.8307 -0.3934
  820MPD2    C312065   4.024   1.323  15.099  0.1489 -0.2351  0.7352
  820MPD2    C412066   3.925   1.243  15.055  0.1145 -0.3924  0.3889
  820MPD2    C512067   3.822   1.297  14.985 -0.0870  0.5730 -0.0066
  820MPD2     H12068   4.079   1.533  15.119 -0.6824  0.5217  0.6245
  820MPD2    H112069   3.938   1.136  15.062 -0.9555 -0.7392 -2.9967
  820MPD2    H212070   3.712   1.471  14.920 -0.6749 -1.1757  0.0338
  820MPD2    H312071   3.742   1.231  14.953  1.3457 -0.9672 -0.4329
  820MPD2     N12072   4.122   1.274  15.188 -0.3752  0.7234 -0.9074
  820MPD2    H512073   4.186   1.348  15.216  0.1338  0.1175 -0.4843
  820MPD2    N112074   3.897   1.667  15.001 -0.1219 -0.2589  0.0234
  820MPD2    H712075   3.810   1.703  14.963  1.3524  0.8937 -2.2380
  821MPD2     C12076   4.295   3.021  13.077 -0.3263  1.0819  0.5673
  821MPD2    C112077   4.388   3.052  13.174 -0.5880 -0.0920 -0.3604
  821MPD2    C212078   4.491   3.131  13.141  0.3417  0.9380 -0.1208
  821MPD2    C312079   4.495   3.203  13.027  0.0950 -0.1855  0.1994
  821MPD2    C412080   4.393   3.172  12.936  0.6472 -0.2786 -0.1253
  821MPD2    C512081   4.295   3.083  12.959 -0.1359 -0.5817 -0.1443
  821MPD2     H12082   4.563   3.151  13.219  0.6782  1.0182 -0.4550
  821MPD2    H112083   4.391   3.226  12.842  0.4708  2.2807  1.3273
  821MPD2    H212084   4.217   2.949  13.095  0.5283  0.6228  2.4050
  821MPD2    H312085   4.214   3.073  12.888 -1.0147 -1.2874  0.9638
  821MPD2     N12086   4.600   3.281  12.973 -0.1182 -0.5179 -0.1243
  821MPD2    H512087   4.591   3.301  12.874 -0.3219 -1.1500 -0.2320
  821MPD2    N112088   4.401   2.991  13.300 -0.3167  0.5138 -0.2360
  821MPD2    H712089   4.483   3.015  13.355 -1.1371 -0.4753  1.4228
  822MPD2     C12090   0.859   2.825  15.388  0.0359  0.2037  0.2481
  822MPD2    C112091   0.929   2.850  15.507 -0.6468 -0.2671  0.3851
  822MPD2    C212092   0.887   2.949  15.597  0.4175  0.5595  0.0457
  822MPD2    C312093   0.769   3.025  15.569 -0.0758 -0.3924 -0.0303
  822MPD2    C412094   0.702   3.002  15.454 -0.1081 -0.2480 -0.0340
  822MPD2    C512095   0.745   2.896  15.369  0.2628 -0.4230  0.1378
  822MPD2     H12096   0.932   2.965  15.695  1.1665 -2.4787  0.1942
  822MPD2    H112097   0.634   3.075  15.411 -2.4304 -2.6738 -0.4761
  822MPD2    H212098   0.881   2.749  15.313 -0.3656 -0.3649  0.7026
  822MPD2    H312099   0.690   2.895  15.276  0.5231  0.2181 -0.0228
  822MPD2     N12100   0.727   3.124  15.662  0.0922  0.2743  0.1394
  822MPD2    H512101   0.796   3.143  15.734 -1.6716  1.3105  1.5691
  822MPD2    N112102   1.050   2.776  15.548 -0.0219  0.4974 -0.0772
  822MPD2    H712103   1.095   2.808  15.633 -2.5145  2.8431  0.3530
  823MPD2     C12104   0.655   3.609  16.383  0.0864  0.5343  0.5578
  823MPD2    C112105   0.648   3.486  16.315  0.9927  0.0722  0.2019
  823MPD2    C212106   0.638   3.366  16.380 -0.3663  0.0577  0.4067
  823MPD2    C312107   0.633   3.375  16.523  0.4009 -0.3294 -0.2954
  823MPD2    C412108   0.655   3.493  16.589  0.5586 -0.2237 -0.2513
  823MPD2    C512109   0.661   3.610  16.519 -0.1269 -0.2517  0.4933
  823MPD2     H12110   0.640   3.277  16.319 -0.1172  1.1396 -1.1576
  823MPD2    H112111   0.669   3.497  16.696 -1.4403  1.5683 -0.0699
  823MPD2    H212112   0.653   3.708  16.337 -0.4200 -1.2902 -3.3849
  823MPD2    H312113   0.682   3.710  16.555 -0.1801 -0.5470  1.3394
  823MPD2     N12114   0.645   3.254  16.594  0.3924 -0.0132  0.2958
  823MPD2    H512115   0.629   3.170  16.540  2.0717 -1.1944  1.6436
  823MPD2    N112116   0.655   3.488  16.173 -0.0889  0.0022  0.1223
  823MPD2    H712117   0.697   3.568  16.126 -0.7474  0.4250  0.2564
  824MPD2     C12118   1.191   1.923  15.497  0.6551 -0.5001  0.0694
  824MPD2    C112119   1.264   2.027  15.437 -0.3279 -0.3489  0.5080
  824MPD2    C212120   1.334   1.999  15.324  0.1252 -0.2078  0.1228
  824MPD2    C312121   1.343   1.869  15.271 -0.5563  0.0061  0.0001
  824MPD2    C412122   1.268   1.765  15.324 -0.9752  0.2526 -0.1156
  824MPD2    C512123   1.206   1.800  15.442 -0.6466  0.6582  0.1361
  824MPD2     H12124   1.393   2.078  15.281 -1.5918  1.1432  0.2183
  824MPD2    H112125   1.289   1.664  15.291 -2.2482 -0.1290  0.2664
  824MPD2    H212126   1.139   1.935  15.592  1.9295  0.3921  0.6631
  824MPD2    H312127   1.151   1.718  15.489 -0.4461 -0.3416 -1.3874
  824MPD2     N12128   1.416   1.833  15.150  0.7456 -0.3267  0.2436
  824MPD2    H512129   1.382   1.752  15.099 -1.5487  0.9738 -0.2840
  824MPD2    N112130   1.259   2.157  15.500  0.2122  0.5564  0.2667
  824MPD2    H712131   1.208   2.165  15.587 -2.7806  0.0427 -1.4179
  825MPD2     C12132   1.906   2.454  14.971  0.2287 -0.1558  0.3152
  825MPD2    C112133   1.852   2.451  15.094 -0.9931  1.0042  0.6003
  825MPD2    C212134   1.856   2.567  15.172 -0.0765 -0.3704  0.8664
  825MPD2    C312135   1.940   2.675  15.136  0.6227  0.0121 -0.0833
  825MPD2    C412136   1.996   2.676  15.012 -0.0853 -0.2934 -0.5717
  825MPD2    C512137   1.976   2.567  14.931 -0.7623 -0.0818  0.2271
  825MPD2     H12138   1.798   2.575  15.263  0.1185 -0.2760  0.9821
  825MPD2    H112139   2.041   2.762  14.964  2.4033 -0.3262  1.7090
  825MPD2    H212140   1.910   2.379  14.893 -1.5305  0.4161 -0.3423
  825MPD2    H312141   2.021   2.571  14.832 -0.5008 -3.1723  0.2208
  825MPD2     N12142   1.946   2.787  15.223 -0.2031 -0.2655  0.3451
  825MPD2    H512143   1.890   2.791  15.308  0.6061  1.6303  0.7847
  825MPD2    N112144   1.795   2.332  15.141 -0.2896  0.6090  0.2575
  825MPD2    H712145   1.804   2.252  15.079 -2.5332  1.1293 -0.7296
  826MPD2     C12146   1.576   2.308  13.888  1.1100 -0.2191  0.3524
  826MPD2    C112147   1.606   2.368  13.772 -0.1150  0.0587 -0.0662
  826MPD2    C212148   1.612   2.505  13.771  0.0479 -0.3750  0.8710
  826MPD2    C312149   1.595   2.581  13.886  0.1294 -0.1833  0.7393
  826MPD2    C412150   1.558   2.519  14.006 -0.6637  0.0980 -0.7306
  826MPD2    C512151   1.551   2.380  14.002  0.3560  0.4249  0.2674
  826MPD2     H12152   1.663   2.551  13.687  0.7592 -0.1843  1.4057
  826MPD2    H112153   1.516   2.563  14.095 -2.1090 -2.0508 -0.3652
  826MPD2    H212154   1.553   2.202  13.886 -0.2323  0.0918 -0.2756
  826MPD2    H312155   1.503   2.326  14.084 -0.5290  1.4488  0.4212
  826MPD2     N12156   1.614   2.725  13.878 -0.0582  0.6717 -0.0857
  826MPD2    H512157   1.573   2.778  13.955 -3.1591 -0.2813 -1.0806
  826MPD2    N112158   1.641   2.290  13.656  0.1779  0.1711  0.5991
  826MPD2    H712159   1.651   2.190  13.667  0.7085 -0.0801 -2.0299
  827MPD2     C12160   2.093   3.232  10.094 -0.1807  0.5030  0.2431
  827MPD2    C112161   2.097   3.126  10.179  0.3531  0.0554 -0.1717
  827MPD2    C212162   2.070   2.998  10.127  0.3042 -0.2998  0.9964
  827MPD2    C312163   2.017   2.981   9.999 -0.1998  0.2836 -0.0751
  827MPD2    C412164   1.991   3.103   9.929  0.2231 -0.4894 -0.2244
  827MPD2    C512165   2.041   3.217   9.970 -1.0368  0.2871  0.0643
  827MPD2     H12166   2.087   2.916  10.195  0.1732 -0.0738  1.3002
  827MPD2    H112167   1.967   3.096   9.824  0.7552 -0.6545 -0.3373
  827MPD2    H212168   2.128   3.330  10.123 -0.8995  0.3910  1.4533
  827MPD2    H312169   2.033   3.293   9.893  1.3650 -0.7650 -1.2106
  827MPD2     N12170   1.972   2.856   9.956  0.3461 -0.3773 -0.0907
  827MPD2    H512171   1.991   2.779  10.018  1.6040  1.3544  1.6749
  827MPD2    N112172   2.135   3.153  10.312 -0.8107 -0.5462 -0.4789
  827MPD2    H712173   2.158   3.249  10.335 -1.8045 -0.3231 -0.4201
  828MPD2     C12174   0.502   3.183  12.712  0.6344 -0.4738 -0.5837
  828MPD2    C112175   0.536   3.223  12.582 -0.3513  0.1474  0.3612
  828MPD2    C212176   0.663   3.201  12.540  0.7274  0.3952 -0.2746
  828MPD2    C312177   0.754   3.133  12.618  0.0882  0.2846  0.4191
  828MPD2    C412178   0.710   3.085  12.747 -0.1867 -0.5862  0.2884
  828MPD2    C512179   0.584   3.099  12.786 -0.7318 -0.0107 -0.3104
  828MPD2     H12180   0.693   3.243  12.444 -3.4165  2.4189 -0.6874
  828MPD2    H112181   0.781   3.043  12.818  1.8143 -2.2189 -2.6339
  828MPD2    H212182   0.402   3.198  12.750  0.4338 -2.3733 -0.3552
  828MPD2    H312183   0.555   3.075  12.888 -1.7242  1.1028 -0.3385
  828MPD2     N12184   0.893   3.111  12.588 -0.3417 -0.5942 -0.1431
  828MPD2    H512185   0.939   3.059  12.662  1.8613 -1.1734 -1.9149
  828MPD2    N112186   0.448   3.290  12.494 -0.1381  0.0781 -0.4164
  828MPD2    H712187   0.490   3.303  12.402 -0.1349 -1.1587 -0.5972
  829MPD2     C12188   0.721   3.493  11.725 -0.3797 -0.4639 -0.1808
  829MPD2    C112189   0.593   3.553  11.710  0.2073  0.3521 -0.3106
  829MPD2    C212190   0.502   3.546  11.818 -0.1313  0.0334 -0.6174
  829MPD2    C312191   0.533   3.480  11.936  0.0068  0.1546  0.2592
  829MPD2    C412192   0.662   3.427  11.948  0.0890  0.1649  0.4850
  829MPD2    C512193   0.758   3.443  11.848 -0.2481 -0.6577 -0.3597
  829MPD2     H12194   0.404   3.592  11.812  0.2075  0.7422 -0.6916
  829MPD2    H112195   0.706   3.381  12.036  0.7047 -0.0949  0.0384
  829MPD2    H212196   0.791   3.501  11.642 -1.6069  2.0736 -0.9609
  829MPD2    H312197   0.861   3.418  11.867  0.1912  0.6502 -1.0557
  829MPD2     N12198   0.452   3.470  12.047  0.4045  0.6969 -1.1090
  829MPD2    H512199   0.502   3.440  12.129  0.0644  1.1025 -0.7544
  829MPD2    N112200   0.563   3.595  11.583  0.2954 -0.2202  0.3684
  829MPD2    H712201   0.619   3.569  11.502  0.5742 -0.3219  0.5944
  830MPD2     C12202   0.471   1.246  15.277 -0.0204  0.5627 -0.0082
  830MPD2    C112203   0.549   1.364  15.286 -0.6961 -0.5528  0.1237
  830MPD2    C212204   0.663   1.383  15.206  0.4325  0.6652  0.5576
  830MPD2    C312205   0.698   1.287  15.108  0.3778  0.0711  1.5257
  830MPD2    C412206   0.613   1.175  15.093 -0.1668  0.1128 -0.9639
  830MPD2    C512207   0.502   1.156  15.174  0.2233  0.2386 -0.0456
  830MPD2     H12208   0.720   1.474  15.215 -0.8695  1.6033 -0.6893
  830MPD2    H112209   0.628   1.094  15.024  0.4136 -1.0091  0.4786
  830MPD2    H212210   0.382   1.234  15.337  0.9189 -1.7915  0.9174
  830MPD2    H312211   0.446   1.065  15.155  0.5274  0.1001 -0.2934
  830MPD2     N12212   0.808   1.303  15.021 -0.0655 -0.2082  0.4137
  830MPD2    H512213   0.809   1.235  14.946  1.0204 -1.5902  1.6659
  830MPD2    N112214   0.521   1.453  15.393  0.4561  0.0016  0.1635
  830MPD2    H712215   0.438   1.434  15.447  0.6944 -0.1393  0.4790
  831MPD2     C12216   1.109   3.371  16.114 -0.0531 -0.3743 -0.1260
  831MPD2    C112217   1.078   3.299  16.002  0.0888  0.3481  0.2677
  831MPD2    C212218   0.986   3.191  16.005  0.1490  0.6612 -0.0729
  831MPD2    C312219   0.917   3.164  16.127  0.3034 -0.1619 -0.0070
  831MPD2    C412220   0.941   3.254  16.226 -0.2416  0.1473 -0.1404
  831MPD2    C512221   1.040   3.346  16.225 -0.9607  1.0702 -0.6076
  831MPD2     H12222   0.967   3.139  15.912  0.0495 -0.7528  0.7363
  831MPD2    H112223   0.883   3.238  16.316 -0.5168  3.3553  0.2311
  831MPD2    H212224   1.174   3.457  16.112  0.2535 -0.5844  0.7694
  831MPD2    H312225   1.054   3.400  16.318  2.2329  0.4004 -0.7063
  831MPD2     N12226   0.828   3.054  16.141  0.1055 -0.0829 -0.4423
  831MPD2    H512227   0.785   3.026  16.229  1.3014 -1.3514 -0.2560
  831MPD2    N112228   1.126   3.347  15.883  0.1331 -0.1456 -0.0028
  831MPD2    H712229   1.203   3.413  15.884 -0.1090  0.1533 -0.7630
  832MPD2     C12230   4.291   4.254  17.148 -0.2583 -0.6237 -0.2955
  832MPD2    C112231   4.248   4.382  17.154  0.6010  0.8130  0.0060
  832MPD2    C212232   4.124   4.417  17.099 -0.2938 -0.1904  0.0074
  832MPD2    C312233   4.036   4.314  17.057  0.6344 -0.5083  0.1832
  832MPD2    C412234   4.083   4.183  17.055  0.2959  0.1679  0.6822
  832MPD2    C512235   4.213   4.159  17.094  0.0321  1.4583 -0.5405
  832MPD2     H12236   4.086   4.517  17.117  2.2020  0.9721 -1.2752
  832MPD2    H112237   4.024   4.098  17.022  0.9330 -0.4240  1.0697
  832MPD2    H212238   4.394   4.229  17.172 -0.4980  0.4561  1.8801
  832MPD2    H312239   4.250   4.059  17.074  1.6202  1.7507  0.9458
  832MPD2     N12240   3.903   4.337  17.027 -0.1150  0.6873  0.0345
  832MPD2    H512241   3.851   4.250  17.024 -0.1272  0.6526  1.1039
  832MPD2    N112242   4.332   4.479  17.225 -0.2514 -0.3008 -0.3400
  832MPD2    H712243   4.413   4.440  17.272 -1.2359 -1.2614  0.5404
  833MPD2     C12244   1.536   0.958  12.900 -0.1323  0.2190  0.2213
  833MPD2    C112245   1.528   1.053  12.803  0.0401 -0.1821 -0.4187
  833MPD2    C212246   1.600   1.043  12.685 -0.1510  0.2663 -0.0215
  833MPD2    C312247   1.665   0.923  12.659  0.0288  0.3906  0.1476
  833MPD2    C412248   1.674   0.825  12.759 -0.2868  0.2274  0.5576
  833MPD2    C512249   1.602   0.842  12.876 -0.6268 -0.0926 -0.5466
  833MPD2     H12250   1.604   1.113  12.603  2.1871  1.4450  1.1299
  833MPD2    H112251   1.733   0.735  12.750  0.7930  0.8691  1.1641
  833MPD2    H212252   1.490   0.977  12.996 -2.9545  0.4202 -1.1623
  833MPD2    H312253   1.599   0.762  12.949 -2.7201  0.5959  0.1383
  833MPD2     N12254   1.740   0.887  12.538 -0.0888  0.4601  0.2573
  833MPD2    H512255   1.792   0.800  12.535 -0.5339  0.2783 -2.1652
  833MPD2    N112256   1.446   1.169  12.827  0.3160  0.1860  0.5790
  833MPD2    H712257   1.424   1.185  12.925  2.4216  2.0864  0.7456
  834MPD2     C12258   1.722   0.203  11.826 -0.0932  0.2857  0.4945
  834MPD2    C112259   1.646   0.298  11.760 -0.1546  0.2732  0.7469
  834MPD2    C212260   1.617   0.420  11.828 -0.1118 -0.0856 -0.3320
  834MPD2    C312261   1.677   0.448  11.951  0.4290 -0.0399 -0.3181
  834MPD2    C412262   1.766   0.354  12.001  0.3106 -0.2999 -0.1950
  834MPD2    C512263   1.784   0.226  11.937  0.2769 -0.0531 -0.5612
  834MPD2     H12264   1.553   0.495  11.782  1.0714  1.0362 -0.1605
  834MPD2    H112265   1.824   0.375  12.090  0.2477  1.0391 -0.4810
  834MPD2    H212266   1.716   0.103  11.782 -2.4225  0.4000  0.5534
  834MPD2    H312267   1.856   0.155  11.978 -0.2802 -0.8118 -0.8874
  834MPD2     N12268   1.660   0.578  12.009  0.4902  0.0438 -0.1091
  834MPD2    H512269   1.611   0.651  11.958 -1.9221 -0.4657  1.4774
  834MPD2    N112270   1.579   0.258  11.640  0.4431  0.2025  0.0239
  834MPD2    H712271   1.581   0.164  11.602  1.8822  0.1017  0.3319
  835MPD2     C12272   1.252   3.748  11.043  0.4985 -0.0725 -0.0700
  835MPD2    C112273   1.128   3.797  11.041  0.4290 -0.2057  0.3423
  835MPD2    C212274   1.086   3.874  11.150 -0.4167 -0.2156 -0.1485
  835MPD2    C312275   1.167   3.880  11.261 -0.3105  0.2622 -0.2315
  835MPD2    C412276   1.291   3.820  11.266 -0.8618 -0.2222 -0.7198
  835MPD2    C512277   1.337   3.761  11.154  0.4225  0.0932  0.2783
  835MPD2     H12278   0.985   3.912  11.149 -0.2010  0.3601  0.0284
  835MPD2    H112279   1.350   3.811  11.356 -0.8221 -0.9185 -0.8169
  835MPD2    H212280   1.292   3.691  10.959  1.0648 -1.2821  1.0229
  835MPD2    H312281   1.430   3.705  11.163  0.1819 -0.6149 -1.6260
  835MPD2     N12282   1.114   3.913  11.397  0.2796 -0.3523 -0.1713
  835MPD2    H512283   1.172   3.896  11.478 -1.6028 -0.4981  1.1684
  835MPD2    N112284   1.042   3.786  10.938 -0.3605 -0.2143  0.0473
  835MPD2    H712285   0.955   3.831  10.966  0.2996  0.9087  0.2657
  836MPD2     C12286   0.336   4.046  11.401 -0.1403 -0.3159  0.5775
  836MPD2    C112287   0.383   4.051  11.531  0.3065  0.6061 -0.0732
  836MPD2    C212288   0.296   4.073  11.635 -0.0003 -0.5882 -0.0612
  836MPD2    C312289   0.157   4.086  11.604 -0.2883 -0.7174  0.8020
  836MPD2    C412290   0.116   4.094  11.481 -0.2523 -0.1325  0.0156
  836MPD2    C512291   0.208   4.070  11.377  0.0042  0.3815 -0.1242
  836MPD2     H12292   0.330   4.081  11.738 -1.8095 -0.7521  0.5548
  836MPD2    H112293   0.012   4.112  11.457 -0.3539  0.2221  0.7369
  836MPD2    H212294   0.409   4.049  11.322 -0.9014 -0.6657 -0.1312
  836MPD2    H312295   0.173   4.073  11.274 -1.3011  2.3842  0.3772
  836MPD2     N12296   0.061   4.086  11.705  0.5504 -0.4793 -0.1794
  836MPD2    H512297   4.693   4.117  11.670  0.6782  1.4023  1.1624
  836MPD2    N112298   0.524   4.024  11.547 -0.4823 -0.4669 -0.5571
  836MPD2    H712299   0.577   4.012  11.461  0.4945  1.4998 -0.2160
  837MPD2     C12300   4.123   3.093  10.160 -0.2232  1.1823  0.4263
  837MPD2    C112301   4.125   3.141  10.027 -0.7934  0.0908 -0.1173
  837MPD2    C212302   4.120   3.270   9.988  0.0629  0.0250  0.0945
  837MPD2    C312303   4.094   3.364  10.088  0.4508  0.6464 -0.3911
  837MPD2    C412304   4.076   3.316  10.220  0.0987 -0.4631  0.2191
  837MPD2    C512305   4.091   3.185  10.256 -0.2934 -0.3735  0.0148
  837MPD2     H12306   4.106   3.297   9.884  2.9360 -1.8929 -0.7798
  837MPD2    H112307   4.071   3.384  10.304 -0.4048  1.6867 -1.5408
  837MPD2    H212308   4.146   2.991  10.187 -1.6887  0.7869  0.2043
  837MPD2    H312309   4.091   3.156  10.360 -0.4839  0.3593  0.2136
  837MPD2     N12310   4.067   3.493  10.048  0.0019 -0.4006  0.0320
  837MPD2    H512311   4.075   3.519   9.951  2.2501  0.5607  0.4737
  837MPD2    N112312   4.128   3.052   9.918 -0.4245  0.3606 -0.2673
  837MPD2    H712313   4.129   3.095   9.826  1.0625  1.9604  0.4986
  838MPD2     C12314   2.497   0.966  11.217  0.0319  0.1459  0.0914
  838MPD2    C112315   2.516   1.077  11.299  0.7632 -0.2628 -0.2634
  838MPD2    C212316   2.411   1.106  11.388  0.3089  0.1653  0.9759
  838MPD2    C312317   2.303   1.020  11.404  0.5580  0.6470  0.6577
  838MPD2    C412318   2.288   0.913  11.329 -0.3084 -0.1683  0.2781
  838MPD2    C512319   2.388   0.890  11.239 -0.0341  0.6079 -0.2224
  838MPD2     H12320   2.419   1.199  11.444  0.9275  2.2033 -2.4332
  838MPD2    H112321   2.211   0.838  11.343  1.1383 -1.0390  3.4704
  838MPD2    H212322   2.565   0.925  11.143 -2.0034 -0.0707 -1.6675
  838MPD2    H312323   2.366   0.811  11.167 -2.3691 -0.6940  1.9016
  838MPD2     N12324   2.211   1.047  11.508 -0.3730  0.6082 -0.1082
  838MPD2    H512325   2.235   1.119  11.576  0.1188 -0.1045  0.4758
  838MPD2    N112326   2.638   1.148  11.313  0.5116  0.0075  0.4290
  838MPD2    H712327   2.635   1.222  11.383 -1.4926  0.7870 -0.4698
  839MPD2     C12328   2.475   1.207  11.716 -0.3191 -0.8799 -0.2539
  839MPD2    C112329   2.580   1.135  11.670  0.0238  0.7265  0.3706
  839MPD2    C212330   2.700   1.204  11.651  0.4276 -0.2866 -0.0950
  839MPD2    C312331   2.706   1.334  11.673  0.3943 -0.1935 -0.0077
  839MPD2    C412332   2.595   1.401  11.718  0.0170 -0.9271 -0.6179
  839MPD2    C512333   2.470   1.342  11.735 -0.3875  0.0979  0.2366
  839MPD2     H12334   2.778   1.144  11.606 -0.5368 -3.7395  2.8663
  839MPD2    H112335   2.600   1.507  11.743  2.1875 -0.9984 -0.7318
  839MPD2    H212336   2.384   1.157  11.746 -1.6477  2.6259  1.6649
  839MPD2    H312337   2.385   1.391  11.781 -0.7548  0.0380 -0.3769
  839MPD2     N12338   2.826   1.412  11.654  0.8717  0.8914 -0.3304
  839MPD2    H512339   2.817   1.496  11.710 -2.1699  0.2105  0.1792
  839MPD2    N112340   2.573   0.991  11.653  0.3694  0.4038 -0.0671
  839MPD2    H712341   2.648   0.945  11.603 -1.1602 -0.4724 -1.5739
  840MPD2     C12342   2.787   3.220  10.289 -0.3982  0.1573 -0.2917
  840MPD2    C112343   2.736   3.264  10.413 -0.2873  0.7718  0.6257
  840MPD2    C212344   2.821   3.340  10.495  0.3213  0.2551 -0.6984
  840MPD2    C312345   2.950   3.351  10.458 -0.7158 -0.7713  0.0264
  840MPD2    C412346   2.994   3.301  10.338 -0.4162  0.0252  0.2613
  840MPD2    C512347   2.914   3.237  10.254 -0.1422 -0.4370 -0.1107
  840MPD2     H12348   2.785   3.392  10.582 -1.3964 -0.6852 -0.8406
  840MPD2    H112349   3.098   3.312  10.308 -0.4673  0.0256  0.0850
  840MPD2    H212350   2.728   3.171  10.213 -0.4041  0.5680 -0.5496
  840MPD2    H312351   2.952   3.221  10.153  2.4164 -1.5322  1.0297
  840MPD2     N12352   3.049   3.415  10.536  0.4718  0.2648 -0.5225
  840MPD2    H512353   3.143   3.419  10.500  0.7669  2.4303  0.5219
  840MPD2    N112354   2.607   3.228  10.453  0.6796  0.3250  0.0718
  840MPD2    H712355   2.548   3.186  10.382 -0.2495  1.1418  0.3506
  841MPD2     C12356   3.011   3.847  13.852 -0.1556 -0.4337 -0.0217
  841MPD2    C112357   3.021   3.718  13.902  0.3104 -0.0679  0.1380
  841MPD2    C212358   3.134   3.686  13.976 -0.5572 -0.0091  0.3039
  841MPD2    C312359   3.223   3.782  14.017 -0.0930 -0.1898  0.2406
  841MPD2    C412360   3.205   3.912  13.984  0.5390 -0.2303 -0.5008
  841MPD2    C512361   3.096   3.946  13.901  0.0021  0.8308 -0.0032
  841MPD2     H12362   3.151   3.585  14.011 -0.2185  0.0837  0.4024
  841MPD2    H112363   3.269   3.990  14.024 -0.7196 -0.0713  1.2113
  841MPD2    H212364   2.943   3.884  13.776  0.3961 -1.2082 -0.8895
  841MPD2    H312365   3.091   4.041  13.849  1.4329  0.4199 -0.9141
  841MPD2     N12366   3.324   3.736  14.105 -0.0104  0.7539  0.2001
  841MPD2    H512367   3.318   3.638  14.130  1.9814 -0.1480 -2.8944
  841MPD2    N112368   2.913   3.636  13.867  0.7250 -0.0795  0.1133
  841MPD2    H712369   2.845   3.676  13.804 -1.3423 -0.2464  2.2486
  842MPD2     C12370   3.319   0.207  16.813  0.2429  0.3716  0.3538
  842MPD2    C112371   3.211   0.123  16.808  0.1004 -0.2536 -0.1104
  842MPD2    C212372   3.187   0.035  16.911 -0.0755  0.2256 -0.1202
  842MPD2    C312373   3.261   0.042  17.027 -0.1078 -0.5492 -0.1385
  842MPD2    C412374   3.369   0.134  17.034 -0.5395 -0.5074 -0.4298
  842MPD2    C512375   3.388   0.219  16.929 -0.4705 -0.4304 -0.5065
  842MPD2     H12376   3.102   4.690  16.903 -0.5758  0.9562 -0.9284
  842MPD2    H112377   3.430   0.151  17.121 -1.2428 -0.2271  0.0112
  842MPD2    H212378   3.331   0.272  16.727  0.4125 -1.0417 -0.6894
  842MPD2    H312379   3.468   0.292  16.936 -0.1287 -0.8661  0.1952
  842MPD2     N12380   3.221   4.696  17.146 -0.1659 -0.2513  0.1305
  842MPD2    H512381   3.275   4.722  17.228 -0.2565  1.6723 -0.4141
  842MPD2    N112382   3.130   0.117  16.693 -0.1247 -0.0698  0.1025
  842MPD2    H712383   3.141   0.190  16.624  0.3177  0.4639  0.7384
  843MPD2     C12384   0.452   0.108  17.239  0.1172  0.3023  0.3436
  843MPD2    C112385   0.417   0.118  17.375 -0.2635 -0.2415 -0.2850
  843MPD2    C212386   0.491   0.195  17.458  0.4060 -0.2002 -0.3269
  843MPD2    C312387   0.600   0.259  17.412  0.1647 -0.8795  0.1254
  843MPD2    C412388   0.627   0.260  17.277  0.5719 -0.1679 -0.3075
  843MPD2    C512389   0.559   0.182  17.187  0.6146  0.5178 -0.0525
  843MPD2     H12390   0.462   0.202  17.562 -1.3335  0.1077 -0.8224
  843MPD2    H112391   0.719   0.307  17.243  0.0779  0.5165 -0.6924
  843MPD2    H212392   0.391   0.048  17.173 -0.1416 -0.1776  1.0233
  843MPD2    H312393   0.599   0.167  17.087  1.4818  0.1867  0.3413
  843MPD2     N12394   0.680   0.344  17.492 -0.6734 -0.0643 -0.1532
  843MPD2    H512395   0.755   0.395  17.446  0.1187 -0.9096  0.2132
  843MPD2    N112396   0.292   0.070  17.418  0.3485 -0.1247  0.3003
  843MPD2    H712397   0.240   0.016  17.349 -2.1309  0.2331  1.9009
  844MPD2     C12398   3.831   4.392  16.476  0.5358  0.1087  0.0046
  844MPD2    C112399   3.945   4.316  16.464 -0.6438  0.1678  0.5156
  844MPD2    C212400   4.054   4.359  16.542  0.6108  0.3891 -0.1641
  844MPD2    C312401   4.055   4.468  16.622 -0.2015  0.4084  0.5860
  844MPD2    C412402   3.947   4.550  16.619  0.0790  0.0273 -0.2769
  844MPD2    C512403   3.840   4.505  16.549 -0.0059  0.2562 -0.2091
  844MPD2     H12404   4.147   4.304  16.529  0.4475  0.7188 -2.7443
  844MPD2    H112405   3.948   4.641  16.677 -0.3018  0.3998 -0.8568
  844MPD2    H212406   3.738   4.364  16.430 -0.2954  0.1394  1.6498
  844MPD2    H312407   3.758   4.577  16.550 -2.0105 -2.0414  0.0547
  844MPD2     N12408   4.178   4.501  16.689 -0.8227  0.0574  0.6475
  844MPD2    H512409   4.258   4.439  16.674  0.7514  2.0899  0.6633
  844MPD2    N112410   3.950   4.193  16.393  0.2648  0.1334 -0.2710
  844MPD2    H712411   4.040   4.152  16.371  0.7713  0.7594  0.6161
  845MPD2     C12412   4.618   0.616  17.017 -0.4376 -0.0342 -0.2591
  845MPD2    C112413   4.493   0.583  17.061  0.2626  0.9170 -0.0498
  845MPD2    C212414   4.462   0.451  17.063 -0.8879  0.2265 -0.1072
  845MPD2    C312415   4.544   0.357  17.016 -0.4232  0.0064  0.5186
  845MPD2    C412416   4.672   0.396  16.980 -0.4741 -0.2645 -0.0819
  845MPD2    C512417   4.711   0.524  16.974  0.4489  0.3611  0.7293
  845MPD2     H12418   4.362   0.433  17.102 -0.6522  0.3858  0.5726
  845MPD2    H112419   0.009   0.317  16.936  0.3610  0.5896 -0.4452
  845MPD2    H212420   4.650   0.719  17.025  4.0206 -1.4696  0.5909
  845MPD2    H312421   0.091   0.550  16.947  0.1303  1.9322  1.0354
  845MPD2     N12422   4.498   0.223  16.998 -0.1757 -0.0242  0.9517
  845MPD2    H512423   4.404   0.201  17.030 -0.6139 -0.2289 -0.4817
  845MPD2    N112424   4.416   0.690  17.128  0.0072 -0.1965  0.1742
  845MPD2    H712425   4.437   0.787  17.107 -0.1923 -0.6424 -2.1412
  846MPD2     C12426   0.943   0.358  13.724  0.4563  0.0105 -0.0452
  846MPD2    C112427   0.859   0.466  13.724 -0.1741 -0.1788 -0.1151
  846MPD2    C212428   0.798   0.502  13.850  0.6502 -0.3376 -0.2739
  846MPD2    C312429   0.844   0.449  13.972 -0.3632  0.2777 -0.0496
  846MPD2    C412430   0.928   0.339  13.961  0.4700 -0.0522 -0.0133
  846MPD2    C512431   0.967   0.292  13.840 -0.2745  0.4748  0.6614
  846MPD2     H12432   0.734   0.589  13.845  0.5942 -0.4358 -1.3167
  846MPD2    H112433   0.971   0.286  14.046  0.1212  2.0783  1.5121
  846MPD2    H212434   1.007   0.326  13.642 -2.2977 -0.4853 -2.0083
  846MPD2    H312435   1.038   0.212  13.828  0.2268  0.9733  0.2879
  846MPD2     N12436   0.805   0.498  14.095  0.1555 -0.2784  0.5141
  846MPD2    H512437   0.730   0.566  14.093  1.9682  1.7072  1.3848
  846MPD2    N112438   0.836   0.547  13.611 -0.1374  0.0149  0.5106
  846MPD2    H712439   0.793   0.638  13.619 -0.2533 -0.0210  0.2953
  847MPD2     C12440   1.014   1.422  14.268  0.0391 -0.3172  0.4404
  847MPD2    C112441   1.071   1.544  14.295  0.6342  0.7043  0.0372
  847MPD2    C212442   1.191   1.553  14.356 -0.0550  0.5061  0.1358
  847MPD2    C312443   1.257   1.434  14.395 -0.1056 -0.2817 -0.9960
  847MPD2    C412444   1.202   1.312  14.356 -0.1108 -1.0710 -1.1603
  847MPD2    C512445   1.084   1.307  14.283  0.0364  0.1799  0.8326
  847MPD2     H12446   1.244   1.644  14.381  1.5664 -0.0954 -1.1089
  847MPD2    H112447   1.255   1.221  14.380  2.5543  1.4576  2.6083
  847MPD2    H212448   0.912   1.413  14.234  0.0942  0.7035 -0.0028
  847MPD2    H312449   1.052   1.207  14.254  0.3729 -0.0439  1.2242
  847MPD2     N12450   1.378   1.452  14.468  0.2542  0.2390  0.0097
  847MPD2    H512451   1.395   1.550  14.487 -0.3500  0.4261 -0.3990
  847MPD2    N112452   1.006   1.669  14.289  0.2745 -0.2795  0.3025
  847MPD2    H712453   1.071   1.745  14.309 -0.9299  0.5676  0.9855
  848MPD2     C12454   3.403   4.713  16.469 -0.2080  0.7909 -0.5441
  848MPD2    C112455   3.497   0.038  16.560  0.3797 -0.2810  0.1724
  848MPD2    C212456   3.572   0.151  16.525 -0.3098  0.1240  1.2429
  848MPD2    C312457   3.543   0.219  16.408 -0.4925  0.0694  0.3268
  848MPD2    C412458   3.452   0.164  16.321  0.7973  0.4421  0.9729
  848MPD2    C512459   3.394   0.049  16.345  0.2204 -0.3442  0.1413
  848MPD2     H12460   3.645   0.198  16.591  2.2431 -1.7228 -0.2707
  848MPD2    H112461   3.443   0.191  16.217  1.3256  0.5637  0.9596
  848MPD2    H212462   3.347   4.621  16.485 -0.1268  0.6188 -1.2464
  848MPD2    H312463   3.334   0.003  16.268  0.6307  2.5123 -1.8807
  848MPD2     N12464   3.604   0.337  16.365 -0.1821 -0.8885 -0.0925
  848MPD2    H512465   3.565   0.377  16.280  0.5430  0.7234  0.3460
  848MPD2    N112466   3.537   4.689  16.675 -0.7886 -0.0613  0.1521
  848MPD2    H712467   3.618   0.002  16.724  0.1230 -2.1878  0.1962
  849MPD2     C12468   3.018   4.596  14.070 -0.7909 -0.2558  0.0609
  849MPD2    C112469   3.137   4.667  14.054 -0.1520  0.5295  0.3780
  849MPD2    C212470   3.241   4.624  14.139 -0.1574  0.3720 -0.3027
  849MPD2    C312471   3.238   4.514  14.214  0.5683 -0.3629  0.2854
  849MPD2    C412472   3.118   4.451  14.231 -0.2871  0.2621  0.5784
  849MPD2    C512473   3.007   4.493  14.165 -0.6264  0.2054  0.1727
  849MPD2     H12474   3.327   4.690  14.151  0.2134  0.0501 -1.1832
  849MPD2    H112475   3.112   4.360  14.290 -2.4574 -1.6341 -2.6020
  849MPD2    H212476   2.932   4.615  14.007  0.5142 -0.4924 -1.8154
  849MPD2    H312477   2.918   4.431  14.172 -0.8251  0.3994 -0.5271
  849MPD2     N12478   3.361   4.472  14.271  0.9146 -0.2864  0.1192
  849MPD2    H512479   3.441   4.534  14.276 -0.7583  1.7902  0.9501
  849MPD2    N112480   3.147   0.042  13.952  0.2011  0.3148 -0.5174
  849MPD2    H712481   3.088   0.038  13.869 -2.1513  2.8371  1.0394
  850MPD2     C12482   0.839   2.660  14.410 -0.3588 -0.4532 -0.0175
  850MPD2    C112483   0.849   2.553  14.498  0.6209  0.3028 -0.0722
  850MPD2    C212484   0.974   2.540  14.559 -0.2324 -0.1248 -0.0609
  850MPD2    C312485   1.074   2.636  14.541  0.6060  0.5695 -0.0581
  850MPD2    C412486   1.062   2.738  14.456 -0.4439 -0.7827 -0.3125
  850MPD2    C512487   0.941   2.748  14.387 -0.2476 -0.0277  0.2187
  850MPD2     H12488   0.988   2.454  14.624 -0.8946  1.7434  2.5207
  850MPD2    H112489   1.139   2.813  14.443 -1.4622  0.6197  1.6773
  850MPD2    H212490   0.751   2.678  14.349 -0.3884  1.0659  0.4750
  850MPD2    H312491   0.921   2.829  14.317  0.8669 -0.7776 -0.9606
  850MPD2     N12492   1.202   2.627  14.592 -0.2841  0.1038 -0.0296
  850MPD2    H512493   1.272   2.696  14.564 -0.2497  0.0079 -0.1796
  850MPD2    N112494   0.749   2.470  14.540  0.4088  0.0130  0.1119
  850MPD2    H712495   0.772   2.397  14.607 -0.5739 -0.8404 -0.4894
  851MPD2     C12496   0.963   2.121  15.068  0.7448  0.3046 -0.4016
  851MPD2    C112497   0.916   2.102  14.943 -0.0362  0.1050 -0.0930
  851MPD2    C212498   0.950   1.990  14.870  0.0246  0.3197 -0.1049
  851MPD2    C312499   1.046   1.905  14.923  0.1286 -0.5357 -0.0632
  851MPD2    C412500   1.097   1.921  15.048  0.0337  0.6948 -0.3480
  851MPD2    C512501   1.063   2.040  15.115 -0.4573  0.3375  0.1384
  851MPD2     H12502   0.914   1.954  14.775 -0.6241  0.4670  0.0859
  851MPD2    H112503   1.170   1.860  15.100 -3.3194 -0.6269  2.7985
  851MPD2    H212504   0.929   2.207  15.124  1.9681  0.1886  0.5233
  851MPD2    H312505   1.103   2.057  15.214  0.1683  1.0246 -0.2330
  851MPD2     N12506   1.082   1.785  14.853  0.0807 -0.5904  0.3109
  851MPD2    H512507   1.037   1.769  14.763  0.7537 -2.3601  0.2882
  851MPD2    N112508   0.819   2.184  14.891 -0.5556 -0.1766 -0.0083
  851MPD2    H712509   0.803   2.274  14.935  1.6357  1.0404 -1.7181
  852MPD2     C12510   0.068   0.002   9.514 -0.5291  0.2838  1.0116
  852MPD2    C112511   0.165   4.700   9.601  0.8776 -0.1724  0.0951
  852MPD2    C212512   0.200   0.080   9.688 -0.1866  0.4367  0.4922
  852MPD2    C312513   0.143   0.205   9.688  0.3091  0.6304  0.3269
  852MPD2    C412514   0.044   0.228   9.601 -0.1865 -1.0829 -0.1039
  852MPD2    C512515   0.019   0.128   9.513  0.0523  0.4175 -0.1259
  852MPD2     H12516   0.283   0.061   9.755  1.2036 -1.3647 -1.7591
  852MPD2    H112517   4.713   0.320   9.582  1.1171 -0.2523  0.2579
  852MPD2    H212518   0.033   4.647   9.448 -1.9843  1.4884  0.3495
  852MPD2    H312519   4.672   0.149   9.432 -1.8844 -0.6523  1.2763
  852MPD2     N12520   0.208   0.310   9.761  0.7628  0.2042  0.0752
  852MPD2    H512521   0.286   0.286   9.823 -1.4554  2.3265  3.6904
  852MPD2    N112522   0.235   4.576   9.601 -0.0704  0.3608 -0.1489
  852MPD2    H712523   0.288   4.550   9.683  0.0851  1.3993  0.0859
  853MPD2     C12524   2.935   0.183  12.292 -0.1740  0.5632  0.0428
  853MPD2    C112525   2.812   0.190  12.244 -0.4496 -0.1241 -0.2161
  853MPD2    C212526   2.777   0.149  12.119  1.0732 -0.0706 -0.3522
  853MPD2    C312527   2.873   0.117  12.024 -0.3653  0.5098  0.2113
  853MPD2    C412528   3.000   0.098  12.070  0.2029 -0.3588 -0.2002
  853MPD2    C512529   3.031   0.135  12.200 -0.1413 -0.9225 -0.0993
  853MPD2     H12530   2.670   0.146  12.106  1.1974  1.1965 -1.8191
  853MPD2    H112531   3.088   0.062  12.017  0.9885 -0.6243  1.2944
  853MPD2    H212532   2.953   0.203  12.397  0.3834  1.1086 -0.1509
  853MPD2    H312533   3.127   0.107  12.241  0.0798  0.7883  0.5595
  853MPD2     N12534   2.840   0.096  11.889 -0.1179  0.4972  0.1978
  853MPD2    H512535   2.911   0.080  11.819  0.4358  1.2416  0.5897
  853MPD2    N112536   2.706   0.224  12.336  1.0319 -0.2037 -0.2469
  853MPD2    H712537   2.728   0.220  12.435 -2.0485 -0.4299  0.4420
  854MPD2     C12538   3.916   0.211  12.608 -0.0142 -0.2688  0.2906
  854MPD2    C112539   4.004   0.304  12.565  0.1136 -0.7719 -0.4007
  854MPD2    C212540   4.131   0.302  12.622  0.0937 -0.7367 -0.3619
  854MPD2    C312541   4.170   0.212  12.720 -0.6963  0.1704 -0.1478
  854MPD2    C412542   4.081   0.115  12.761 -0.1869 -0.0021 -0.5501
  854MPD2    C512543   3.956   0.119  12.700  0.2203  0.8584 -0.0847
  854MPD2     H12544   4.202   0.379  12.593  0.8167 -2.2236 -2.5053
  854MPD2    H112545   4.118   0.036  12.826 -2.3727 -0.0953  0.5671
  854MPD2    H212546   3.816   0.198  12.567  0.7176  0.0484 -1.5968
  854MPD2    H312547   3.881   0.045  12.729 -0.6487  1.4290 -0.8680
  854MPD2     N12548   4.299   0.197  12.769 -0.0228 -0.5440  0.1060
  854MPD2    H512549   4.310   0.117  12.829 -2.9158 -1.1842 -0.2261
  854MPD2    N112550   3.959   0.388  12.459 -0.6544  0.6419  0.0541
  854MPD2    H712551   3.865   0.368  12.428 -0.4404 -0.4428  0.0970
  855MPD2     C12552   4.632   0.068  13.590 -0.0199 -0.1742  0.5049
  855MPD2    C112553   4.614   4.694  13.495  0.3287  0.7712  0.4966
  855MPD2    C212554   4.615   4.718  13.358  0.5376  0.6958 -0.8891
  855MPD2    C312555   4.635   0.123  13.319  0.1492 -1.2827  0.5508
  855MPD2    C412556   4.639   0.227  13.408 -0.8734  0.0400  0.2790
  855MPD2    C512557   4.634   0.200  13.543  0.2510 -0.0797 -0.0362
  855MPD2     H12558   4.617   4.633  13.290 -0.8443  1.3514 -1.7500
  855MPD2    H112559   4.628   0.328  13.368 -0.0650 -0.1893 -0.5178
  855MPD2    H212560   4.636   0.047  13.696 -1.1863  0.1472  0.6195
  855MPD2    H312561   4.633   0.284  13.612  0.9363  0.3901 -0.6016
  855MPD2     N12562   4.652   0.150  13.184  0.1359  0.8420 -0.2914
  855MPD2    H512563   4.615   0.079  13.121 -0.3715  2.3207 -1.6560
  855MPD2    N112564   4.596   4.564  13.548 -0.2531 -0.1616 -0.5791
  855MPD2    H712565   4.602   4.545  13.647 -0.2520 -2.7192 -1.0688
  856MPD2     C12566   1.872   0.910  13.674  1.0151  0.2848  0.1003
  856MPD2    C112567   1.899   1.009  13.759  0.9736  0.4144 -0.2410
  856MPD2    C212568   1.811   1.110  13.784  0.9961  0.4298 -0.4726
  856MPD2    C312569   1.699   1.121  13.703  0.0082 -0.1441  0.2132
  856MPD2    C412570   1.670   1.023  13.611  0.3924  0.1263 -0.9914
  856MPD2    C512571   1.761   0.921  13.595 -0.1690 -0.5793  0.7317
  856MPD2     H12572   1.837   1.191  13.852  1.2956  1.0380 -1.3195
  856MPD2    H112573   1.582   1.045  13.552  1.2426  1.6842 -1.6714
  856MPD2    H212574   1.931   0.823  13.647  1.8623  0.9257 -0.1212
  856MPD2    H312575   1.741   0.846  13.520  1.9378  2.2604 -2.6461
  856MPD2     N12576   1.601   1.226  13.720  0.2068  0.1831  0.8922
  856MPD2    H512577   1.512   1.215  13.672  0.3685 -0.8554  0.8255
  856MPD2    N112578   2.017   1.014  13.834 -0.9198  0.4250 -0.2535
  856MPD2    H712579   2.023   1.096  13.894 -0.0814  0.6820 -0.6935
  857MPD2     C12580   3.068   2.954  12.888  0.2279 -0.6661  0.0863
  857MPD2    C112581   3.194   2.927  12.841 -0.0090  0.3331  0.5406
  857MPD2    C212582   3.287   3.023  12.868  0.1183  0.4242  0.8157
  857MPD2    C312583   3.263   3.135  12.946  0.1048 -0.1094 -0.3174
  857MPD2    C412584   3.135   3.162  12.979  0.7584  0.4244 -0.3124
  857MPD2    C512585   3.039   3.070  12.947 -0.1797  0.0787 -0.4012
  857MPD2     H12586   3.384   3.017  12.820 -0.0113 -1.2558  0.7466
  857MPD2    H112587   3.110   3.251  13.037 -0.8586  0.3665 -0.9162
  857MPD2    H212588   2.983   2.886  12.883  0.5631 -1.0847  0.0802
  857MPD2    H312589   2.937   3.096  12.972 -0.3749 -0.7488 -0.3367
  857MPD2     N12590   3.377   3.215  12.986  0.1985  0.1173 -0.2428
  857MPD2    H512591   3.471   3.177  12.995  0.6544  0.9881 -1.4067
  857MPD2    N112592   3.217   2.812  12.767 -0.3184  0.6098 -0.4394
  857MPD2    H712593   3.146   2.741  12.753 -1.7950  1.5223  2.5567
  858MPD2     C12594   3.786   1.887  16.626 -0.5761 -0.4391 -0.1930
  858MPD2    C112595   3.890   1.983  16.605  0.4304 -0.1896 -0.0985
  858MPD2    C212596   3.880   2.109  16.667  0.4848 -0.0169  0.2158
  858MPD2    C312597   3.768   2.144  16.749  0.0777  0.0991  0.2188
  858MPD2    C412598   3.670   2.048  16.764 -0.7920 -0.7730  0.2769
  858MPD2    C512599   3.676   1.923  16.704  0.0131  0.2027  0.3236
  858MPD2     H12600   3.965   2.176  16.676 -0.4181  0.9589  1.5030
  858MPD2    H112601   3.591   2.074  16.833 -0.2834 -1.0906  0.9903
  858MPD2    H212602   3.784   1.795  16.569 -0.4294  0.4813 -1.6761
  858MPD2    H312603   3.603   1.844  16.716  0.8790 -0.5247  0.7737
  858MPD2     N12604   3.768   2.261  16.830 -0.3900  0.6824  0.2689
  858MPD2    H512605   3.696   2.271  16.901  0.4224  0.0315  1.1909
  858MPD2    N112606   4.009   1.932  16.535 -0.0778 -0.3613 -0.2860
  858MPD2    H712607   4.003   1.835  16.507 -0.2328 -0.1999 -0.8162
  859MPD2     C12608   2.838   4.420  14.834 -0.1914 -0.0277 -0.0302
  859MPD2    C112609   2.937   4.416  14.926 -0.3288  0.7015  0.1608
  859MPD2    C212610   2.953   4.303  15.005 -0.4123 -0.7189 -0.2103
  859MPD2    C312611   2.866   4.201  14.992 -0.2208  0.0978 -0.2222
  859MPD2    C412612   2.764   4.208  14.898 -0.6065 -0.5215 -0.2799
  859MPD2    C512613   2.751   4.319  14.820 -0.0589  0.8839 -0.0905
  859MPD2     H12614   3.034   4.296  15.076  0.2260  0.2936 -0.8439
  859MPD2    H112615   2.692   4.128  14.882 -0.4628 -0.9576  1.3089
  859MPD2    H212616   2.835   4.504  14.765 -1.1909 -0.3555 -0.3749
  859MPD2    H312617   2.662   4.326  14.757  2.1952  2.0080 -3.1865
  859MPD2     N12618   2.871   4.087  15.078  0.4247 -0.0983  0.1830
  859MPD2    H512619   2.822   4.003  15.047 -0.7003  0.9804 -0.9494
  859MPD2    N112620   3.024   4.526  14.920  0.3336  0.5106 -0.2129
  859MPD2    H712621   3.000   4.593  14.848  0.3279 -1.4422 -2.0133
  860MPD2     C12622   0.479   4.470  11.331 -0.1932  0.7524 -0.3550
  860MPD2    C112623   0.526   4.463  11.462  0.0468  0.3607 -0.3759
  860MPD2    C212624   0.437   4.458  11.568 -0.1679 -0.5563 -0.2957
  860MPD2    C312625   0.301   4.453  11.548 -0.3600 -0.1843  0.0660
  860MPD2    C412626   0.261   4.433  11.414 -0.4532  0.0638  0.7365
  860MPD2    C512627   0.347   4.457  11.308  0.2154  0.2187  0.6899
  860MPD2     H12628   0.478   4.447  11.667  1.3756  2.1054 -0.6332
  860MPD2    H112629   0.155   4.428  11.393 -0.4816  0.4361  0.7826
  860MPD2    H212630   0.536   4.474  11.239 -0.2794  0.6420 -0.4146
  860MPD2    H312631   0.309   4.462  11.206  3.2666  1.3721 -0.3946
  860MPD2     N12632   0.218   4.451  11.657 -0.5867 -0.5965 -0.8478
  860MPD2    H512633   0.265   4.462  11.747  0.8285  0.8459 -1.7605
  860MPD2    N112634   0.662   4.468  11.497  0.1708  0.4508 -0.1014
  860MPD2    H712635   0.683   4.447  11.594 -0.3230 -0.1220 -0.1212
  861MPD2     C12636   3.486   2.698  11.306 -0.2865  0.4338  0.7784
  861MPD2    C112637   3.572   2.798  11.262  0.1225  0.6928 -0.0587
  861MPD2    C212638   3.516   2.897  11.183 -0.1458  0.5122  0.6677
  861MPD2    C312639   3.390   2.885  11.129 -0.4933  0.3059 -0.1525
  861MPD2    C412640   3.308   2.778  11.166 -1.0047 -0.4846  0.2891
  861MPD2    C512641   3.360   2.683  11.252 -0.2623  0.5206 -0.3032
  861MPD2     H12642   3.582   2.975  11.146  1.3450 -0.9944  0.1467
  861MPD2    H112643   3.204   2.765  11.138 -0.9659  0.4967 -0.2802
  861MPD2    H212644   3.527   2.626  11.376 -0.1549  1.3739  1.6792
  861MPD2    H312645   3.316   2.587  11.278  2.0946 -0.5375 -0.2178
  861MPD2     N12646   3.338   2.985  11.045 -0.1471 -0.6407 -0.4598
  861MPD2    H512647   3.385   3.074  11.034  0.9540 -1.3621 -1.5226
  861MPD2    N112648   3.709   2.815  11.293 -0.3975 -0.3238  0.2418
  861MPD2    H712649   3.759   2.886  11.240  1.6020 -1.9851 -0.0964
  862MPD2     C12650   3.367   3.079  10.259 -0.7703  0.5318  0.4029
  862MPD2    C112651   3.389   3.011  10.377  0.3447 -0.4460 -0.2421
  862MPD2    C212652   3.430   2.879  10.368  0.1911 -0.2132 -0.0757
  862MPD2    C312653   3.471   2.825  10.248 -0.3590 -0.4873  0.0836
  862MPD2    C412654   3.444   2.900  10.133  0.0507 -0.0859 -0.1595
  862MPD2    C512655   3.396   3.020  10.137  0.4922  0.3015 -0.1992
  862MPD2     H12656   3.428   2.816  10.456 -0.9625 -1.0573 -0.7017
  862MPD2    H112657   3.474   2.876  10.031 -2.8025 -0.4039 -0.9338
  862MPD2    H212658   3.331   3.180  10.248 -1.1450  0.3691  0.1358
  862MPD2    H312659   3.388   3.074  10.043  2.0021  0.0951 -0.4425
  862MPD2     N12660   3.527   2.692  10.240 -0.1360 -0.1407 -0.1464
  862MPD2    H512661   3.513   2.642  10.153 -1.8634  0.3374 -0.1542
  862MPD2    N112662   3.345   3.059  10.500 -0.3241  0.0778  0.5583
  862MPD2    H712663   3.362   2.993  10.575 -1.7016 -1.6966 -0.6957
  863MPD2     C12664   2.185   1.038  16.673 -0.4110 -0.4654  0.1425
  863MPD2    C112665   2.280   1.126  16.629  1.0773  0.2793 -0.5956
  863MPD2    C212666   2.417   1.093  16.652  0.1967  0.6052  1.0689
  863MPD2    C312667   2.455   0.975  16.707  0.0953 -0.1706  0.2415
  863MPD2    C412668   2.356   0.886  16.755 -0.0928  0.5566  0.6341
  863MPD2    C512669   2.225   0.921  16.735  0.0080  0.3353  0.1718
  863MPD2     H12670   2.497   1.156  16.615 -0.5142  0.5789 -0.5044
  863MPD2    H112671   2.380   0.790  16.800 -0.6839 -0.3072 -0.8763
  863MPD2    H212672   2.082   1.051  16.644 -0.3762 -0.1824  0.1508
  863MPD2    H312673   2.148   0.859  16.781  2.0622 -3.1413 -1.1151
  863MPD2     N12674   2.596   0.932  16.730  0.1982 -0.5343  0.3426
  863MPD2    H512675   2.606   0.836  16.761  0.1569 -0.6632 -0.0517
  863MPD2    N112676   2.242   1.241  16.558 -0.8877 -0.1614 -0.0011
  863MPD2    H712677   2.145   1.267  16.574 -0.6166 -0.4410  2.0744
  864MPD2     C12678   2.809   1.958  17.410 -0.0274  0.2592 -0.0310
  864MPD2    C112679   2.869   1.941  17.289  0.0846  0.8171 -0.2476
  864MPD2    C212680   2.931   2.050  17.234  0.2980 -0.2370 -0.0764
  864MPD2    C312681   2.906   2.178  17.283 -0.5118 -0.0634  0.3261
  864MPD2    C412682   2.816   2.195  17.388  0.0791 -0.2009  0.0216
  864MPD2    C512683   2.778   2.085  17.461 -0.7573  0.5378 -0.1537
  864MPD2     H12684   2.995   2.038  17.148  0.8555 -0.4263  0.3644
  864MPD2    H112685   2.786   2.290  17.430  0.7381  0.5371 -1.1907
  864MPD2    H212686   2.779   1.869  17.464  1.7150  0.2240  0.8916
  864MPD2    H312687   2.717   2.085  17.550  0.5385  0.3479  0.7288
  864MPD2     N12688   2.958   2.299  17.221 -0.2680  0.0132 -0.4343
  864MPD2    H512689   2.911   2.385  17.247  0.4310 -0.0609  1.0807
  864MPD2    N112690   2.883   1.814  17.236 -0.4484  0.2639  0.1379
  864MPD2    H712691   2.838   1.745  17.296 -0.9914 -0.7001 -1.3884
  865MPD2     C12692   2.976   2.806  16.475 -0.1092 -0.3151 -0.4260
  865MPD2    C112693   2.997   2.699  16.557 -0.2451  0.3539  0.3072
  865MPD2    C212694   2.968   2.707  16.693 -0.5431  0.4642 -0.0789
  865MPD2    C312695   2.929   2.829  16.758 -0.1017  0.0473 -0.3547
  865MPD2    C412696   2.906   2.932  16.669 -0.7743  0.0587  0.0861
  865MPD2    C512697   2.921   2.919  16.530  0.7021  0.2457  0.3891
  865MPD2     H12698   2.978   2.615  16.748  1.7128  0.3622 -0.6605
  865MPD2    H112699   2.865   3.028  16.698  0.2903 -0.3310  2.8348
  865MPD2    H212700   2.994   2.802  16.368  1.3297 -1.1750 -0.1468
  865MPD2    H312701   2.897   2.994  16.456 -3.1976  0.8685  2.3270
  865MPD2     N12702   2.902   2.844  16.897 -0.1814 -0.4464 -0.9312
  865MPD2    H512703   2.877   2.936  16.932  1.8417 -0.0647 -0.4770
  865MPD2    N112704   3.063   2.585  16.495 -0.1880  0.7869 -0.3382
  865MPD2    H712705   3.070   2.593  16.394 -1.3291  0.6756 -0.4344
  866MPD2     C12706   4.575   3.428  11.186  0.2143 -0.1765 -0.0371
  866MPD2    C112707   4.508   3.368  11.082 -0.4316 -0.8291 -0.2581
  866MPD2    C212708   4.373   3.360  11.074 -0.0370 -0.1572 -0.1872
  866MPD2    C312709   4.297   3.410  11.172  0.0674 -0.7375 -0.2909
  866MPD2    C412710   4.363   3.459  11.285 -0.2270  0.1958  0.2154
  866MPD2    C512711   4.500   3.458  11.297 -0.8268  0.1869  0.2788
  866MPD2     H12712   4.328   3.309  10.990 -0.9018 -0.0113  0.1852
  866MPD2    H112713   4.304   3.491  11.370  2.6959 -2.1974  3.1680
  866MPD2    H212714   4.683   3.425  11.197  0.2049 -0.7333 -0.0529
  866MPD2    H312715   4.553   3.490  11.385 -2.8911 -1.8335  2.2428
  866MPD2     N12716   4.155   3.411  11.186 -0.1497  0.2675  0.0221
  866MPD2    H512717   4.113   3.451  11.269  1.1925 -0.8647  1.2484
  866MPD2    N112718   4.590   3.298  10.992  0.1932 -0.8581 -0.0697
  866MPD2    H712719   4.690   3.312  11.003 -0.2361  1.6064  0.8507
  867MPD2     C12720   2.008   2.519  15.910  0.3373  0.5892 -0.4726
  867MPD2    C112721   2.070   2.473  16.026 -0.4537  0.6982  0.5548
  867MPD2    C212722   2.120   2.560  16.113 -0.0881 -0.7728  0.0318
  867MPD2    C312723   2.120   2.699  16.088 -0.0270  0.0136 -0.7122
  867MPD2    C412724   2.069   2.743  15.970  1.7681 -0.7490 -0.8168
  867MPD2    C512725   2.012   2.652  15.882  0.2430  0.1907  0.2371
  867MPD2     H12726   2.159   2.529  16.210  1.3042  2.3248  0.4751
  867MPD2    H112727   2.067   2.849  15.946 -2.3249 -0.8730 -0.9393
  867MPD2    H212728   1.957   2.457  15.837  3.2617  1.0318 -2.9084
  867MPD2    H312729   1.955   2.691  15.798 -1.2853 -0.2229  1.0786
  867MPD2     N12730   2.163   2.793  16.191  0.0344 -0.0550 -0.2365
  867MPD2    H512731   2.140   2.887  16.161  3.1811  0.7795  0.0655
  867MPD2    N112732   2.057   2.335  16.048  0.0902 -0.1812 -0.0839
  867MPD2    H712733   2.011   2.277  15.979 -1.2598  1.0612 -0.2543
  868MPD2     C12734   3.767   1.506  12.653  0.0802 -0.9089  0.4955
  868MPD2    C112735   3.811   1.448  12.772 -0.6135 -0.7486  0.7422
  868MPD2    C212736   3.727   1.453  12.881  0.4034 -0.2827 -0.2196
  868MPD2    C312737   3.607   1.524  12.873  0.2380  0.3872 -0.2526
  868MPD2    C412738   3.562   1.582  12.755  0.2836  0.0832 -0.6644
  868MPD2    C512739   3.643   1.559  12.647  0.6084 -0.4224  0.2242
  868MPD2     H12740   3.759   1.409  12.975  0.1940 -1.0489 -0.5020
  868MPD2    H112741   3.473   1.641  12.739  1.8206  1.8255 -2.8449
  868MPD2    H212742   3.832   1.500  12.567 -1.4316 -1.4430 -0.6094
  868MPD2    H312743   3.607   1.597  12.552  2.6572 -0.7107 -0.6556
  868MPD2     N12744   3.529   1.529  12.996 -0.3515 -0.1128 -0.1309
  868MPD2    H512745   3.578   1.503  13.081  0.5457  0.8922 -0.3430
  868MPD2    N112746   3.930   1.377  12.775  0.2652  0.1725  0.4298
  868MPD2    H712747   3.994   1.401  12.700  1.0469 -1.1749  0.6695
  869MPD2     C12748   0.592   4.043   1.273 -0.0638  0.9976  0.7376
  869MPD2    C112749   0.467   4.012   1.320 -0.2268  0.0042  0.1841
  869MPD2    C212750   0.359   4.080   1.256 -0.1950  0.4654  0.2481
  869MPD2    C312751   0.370   4.147   1.138  0.1961 -0.2830  0.2161
  869MPD2    C412752   0.499   4.165   1.084  0.2621  0.5977  0.2624
  869MPD2    C512753   0.607   4.109   1.151 -0.4348  0.5400 -0.4410
  869MPD2     H12754   0.256   4.059   1.282 -1.1330  0.1060 -3.7379
  869MPD2    H112755   0.508   4.228   0.996 -0.0299 -0.9236 -0.8410
  869MPD2    H212756   0.682   3.998   1.314  0.6689  2.3050  0.5619
  869MPD2    H312757   0.705   4.131   1.110 -0.5244 -0.1595 -1.0250
  869MPD2     N12758   0.262   4.196   1.060 -0.0451  0.0253 -0.5105
  869MPD2    H512759   0.289   4.237   0.971 -0.3857  0.4977 -0.3973
  869MPD2    N112760   0.449   3.929   1.431 -0.6288  0.3877  0.5642
  869MPD2    H712761   0.531   3.889   1.475  0.6699  1.8155 -0.5602
  870MPD2     C12762   4.601   2.199   0.777  0.4689 -0.2010  0.3917
  870MPD2    C112763   4.623   2.320   0.837 -0.7471  0.5990 -0.2355
  870MPD2    C212764   4.608   2.430   0.753  0.2608  0.0278  0.4108
  870MPD2    C312765   4.593   2.421   0.616  0.6013  0.0124 -0.1661
  870MPD2    C412766   4.585   2.296   0.555  0.5927  0.0211  0.6656
  870MPD2    C512767   4.600   2.187   0.643  0.4172  0.2617  0.3395
  870MPD2     H12768   4.644   2.528   0.782  0.6709  0.5337 -1.7989
  870MPD2    H112769   4.566   2.288   0.449 -0.7641  0.4565  0.8854
  870MPD2    H212770   4.608   2.103   0.828  0.9686 -0.7779 -0.7573
  870MPD2    H312771   4.600   2.091   0.591 -0.0558 -0.6331  2.0019
  870MPD2     N12772   4.575   2.544   0.548  0.4132  0.5680  0.3081
  870MPD2    H512773   4.579   2.629   0.604 -0.4721  1.4095 -0.9032
  870MPD2    N112774   4.652   2.332   0.974  0.9417 -0.7062  0.2332
  870MPD2    H712775   4.629   2.251   1.030  0.3553 -0.5691  0.1893
  871MPD2     C12776   1.091   2.899  16.273 -0.4504 -0.3508 -0.0851
  871MPD2    C112777   1.009   2.823  16.350  0.3388  0.2031 -0.7968
  871MPD2    C212778   0.968   2.698  16.308 -0.0165  0.5166 -0.3415
  871MPD2    C312779   1.005   2.648  16.183  0.7068 -0.4717 -0.1288
  871MPD2    C412780   1.081   2.725  16.102  0.8244  0.0117  0.2565
  871MPD2    C512781   1.130   2.846  16.151 -0.7617 -0.0573 -0.5741
  871MPD2     H12782   0.901   2.634  16.364 -0.2559  0.8532 -0.2444
  871MPD2    H112783   1.107   2.703  15.999  1.0722 -2.0496  0.7683
  871MPD2    H212784   1.130   2.996  16.301 -0.5078 -0.3764  0.0838
  871MPD2    H312785   1.195   2.899  16.082  1.9935 -2.2024  0.3809
  871MPD2     N12786   0.950   2.528  16.143  0.1532  0.1210 -0.6270
  871MPD2    H512787   0.924   2.454  16.206 -0.7804  0.2295 -0.8879
  871MPD2    N112788   0.965   2.890  16.468  0.4336 -0.2320  0.6749
  871MPD2    H712789   1.000   2.984  16.482  1.2400 -0.9356  3.3824
  872MPD2     C12790   1.645   0.666  13.799 -0.3927  0.3889  0.4142
  872MPD2    C112791   1.690   0.543  13.833  0.0133 -0.5008 -0.1945
  872MPD2    C212792   1.617   0.478  13.935 -0.1214  0.2228 -0.4322
  872MPD2    C312793   1.508   0.543  13.993  0.5894 -0.1078 -0.5986
  872MPD2    C412794   1.473   0.673  13.967  0.0837 -0.8250 -0.2442
  872MPD2    C512795   1.537   0.732  13.866  0.2870 -0.3693 -0.5490
  872MPD2     H12796   1.642   0.377  13.966  1.2308  0.2233 -1.5099
  872MPD2    H112797   1.388   0.723  14.013  0.4499 -1.0832  0.6958
  872MPD2    H212798   1.686   0.715  13.711 -0.8881  2.5566  1.3821
  872MPD2    H312799   1.494   0.824  13.828 -2.8344 -1.6096 -0.0592
  872MPD2     N12800   1.425   0.482  14.088 -0.2664 -0.3347  0.2025
  872MPD2    H512801   1.357   0.545  14.128 -1.0097 -1.3151  0.4831
  872MPD2    N112802   1.802   0.484  13.766  0.0487  0.7139 -0.4515
  872MPD2    H712803   1.852   0.418  13.825 -0.1671 -1.2658 -2.5069
  873MPD2     C12804   3.691   0.062   0.797  0.3210 -0.4782  0.3566
  873MPD2    C112805   3.561   0.014   0.805 -0.1368 -0.3081  0.3396
  873MPD2    C212806   3.549   4.599   0.798  0.2246  0.7226  0.2753
  873MPD2    C312807   3.657   4.509   0.787 -0.0562 -0.6409 -0.6610
  873MPD2    C412808   3.784   4.566   0.778 -0.4365 -0.7092  0.0052
  873MPD2    C512809   3.799   4.704   0.779  0.0208  0.5228 -0.4868
  873MPD2     H12810   3.448   4.560   0.796  0.5186 -0.0555  0.9180
  873MPD2    H112811   3.877   4.513   0.794  0.6311  0.6323 -1.7882
  873MPD2    H212812   3.716   0.167   0.806  0.9867 -0.6007 -0.0529
  873MPD2    H312813   3.899   0.023   0.777  0.1451  0.2829  0.4708
  873MPD2     N12814   3.643   4.364   0.798  0.6160  0.0358  0.8616
  873MPD2    H512815   3.726   4.307   0.785 -0.0837 -0.2955 -2.2082
  873MPD2    N112816   3.456   0.106   0.837  0.1008 -0.3315  0.2053
  873MPD2    H712817   3.484   0.203   0.844  3.3952 -1.2075 -1.1021
  874MPD2     C12818   2.989   0.517  16.010  0.9897 -0.1039  0.0940
  874MPD2    C112819   3.058   0.455  16.110  0.3091  0.0322  0.0413
  874MPD2    C212820   3.185   0.502  16.139  0.0373 -0.1034  0.0508
  874MPD2    C312821   3.243   0.600  16.065  0.3373  0.3703 -0.0933
  874MPD2    C412822   3.173   0.660  15.960  0.2421 -0.4106 -0.0376
  874MPD2    C512823   3.045   0.617  15.933  0.3644 -0.1987 -0.1818
  874MPD2     H12824   3.241   0.459  16.221 -2.6240  1.8564  2.9217
  874MPD2    H112825   3.216   0.740  15.901  0.1223 -0.1443  0.2370
  874MPD2    H212826   2.884   0.494  16.003  1.0967 -1.3756  2.7282
  874MPD2    H312827   2.986   0.667  15.858 -0.5541 -1.2870 -0.1786
  874MPD2     N12828   3.375   0.646  16.088 -0.1020  0.0158 -0.1729
  874MPD2    H512829   3.404   0.728  16.036  1.6199 -0.6081 -0.1868
  874MPD2    N112830   2.985   0.358  16.192  0.3460  0.4196  0.3684
  874MPD2    H712831   2.894   0.327  16.162 -0.4862 -0.9026  4.2928
  875MPD2     C12832   3.655   3.533  14.812  0.5466  0.5435  0.6505
  875MPD2    C112833   3.783   3.554  14.764  0.6064  0.3591 -0.2041
  875MPD2    C212834   3.879   3.624  14.840  0.8142 -0.0988  0.1604
  875MPD2    C312835   3.845   3.663  14.967 -0.0062 -0.3547  0.5082
  875MPD2    C412836   3.731   3.614  15.024  0.4056  0.3298  0.1051
  875MPD2    C512837   3.637   3.559  14.944  0.3750  0.3187  0.9400
  875MPD2     H12838   3.973   3.658  14.798  0.4504  0.3968 -0.2440
  875MPD2    H112839   3.708   3.632  15.128 -0.1895 -2.7371  0.5076
  875MPD2    H212840   3.575   3.493  14.751  0.9931 -0.3823  0.6752
  875MPD2    H312841   3.545   3.529  14.991  0.1513 -1.6365 -0.7154
  875MPD2     N12842   3.929   3.733  15.057 -0.0216  0.0822  0.7934
  875MPD2    H512843   3.892   3.735  15.151  0.0119 -0.5179  0.8169
  875MPD2    N112844   3.814   3.504  14.629  0.1334 -0.0930 -0.1597
  875MPD2    H712845   3.906   3.533  14.598 -0.3612 -0.2110 -1.7595
  876MPD2     C12846   3.178   0.099  16.046 -0.3127  0.2496 -0.7716
  876MPD2    C112847   3.299   0.099  15.975 -0.3894  0.3751  0.2229
  876MPD2    C212848   3.364   4.703  15.956 -0.2371 -0.0996 -0.4451
  876MPD2    C312849   3.313   4.584  15.993 -0.0974 -0.3383 -0.5224
  876MPD2    C412850   3.192   4.587  16.068 -0.1235  0.0229 -0.0946
  876MPD2    C512851   3.122   4.705  16.093 -0.0734  0.0204 -0.0807
  876MPD2     H12852   3.465   4.693  15.918 -1.3803 -4.1273 -2.3273
  876MPD2    H112853   3.145   4.496  16.103 -1.3147  1.4792  2.0836
  876MPD2    H212854   3.123   0.192  16.053 -1.3355 -0.5365  1.6263
  876MPD2    H312855   3.033   4.705  16.155 -0.9148  0.7423 -1.2882
  876MPD2     N12856   3.392   4.465  15.979  0.2230 -0.6588 -0.0674
  876MPD2    H512857   3.478   4.465  15.926  0.7858  0.1696  0.8571
  876MPD2    N112858   3.338   0.223  15.925  0.4330  0.3498 -0.1534
  876MPD2    H712859   3.274   0.299  15.946 -1.0456  0.1387 -3.8006
  877MPD2     C12860   3.156   0.465  15.233 -0.0030 -0.3340 -0.3168
  877MPD2    C112861   3.290   0.497  15.254  0.2442 -0.3337  0.0486
  877MPD2    C212862   3.374   0.515  15.149 -0.6824  0.1326  0.1353
  877MPD2    C312863   3.333   0.499  15.017 -0.0224 -0.1340  0.0236
  877MPD2    C412864   3.201   0.474  14.991 -0.1059 -0.4959  0.7115
  877MPD2    C512865   3.115   0.466  15.099  0.6423 -0.2275  0.2231
  877MPD2     H12866   3.477   0.536  15.175 -1.0515  0.9848  0.9320
  877MPD2    H112867   3.171   0.451  14.890  0.0188  0.9432  0.3468
  877MPD2    H212868   3.082   0.436  15.306  1.7728  0.6794  1.8709
  877MPD2    H312869   3.010   0.456  15.076 -0.0574  0.6080  3.1174
  877MPD2     N12870   3.418   0.518  14.907  0.3274 -0.2064 -1.0304
  877MPD2    H512871   3.374   0.525  14.816 -0.4113  1.5922 -0.5419
  877MPD2    N112872   3.349   0.496  15.386 -0.2741  0.0950  0.6110
  877MPD2    H712873   3.447   0.519  15.396 -0.3415  0.4304  0.5142
  878MPD2     C12874   2.919   4.436  13.202  0.5065 -0.9088  0.2927
  878MPD2    C112875   3.009   4.519  13.144  0.7848  0.5474 -0.0219
  878MPD2    C212876   3.076   4.607  13.224 -0.6565 -0.3381 -0.0361
  878MPD2    C312877   3.062   4.602  13.363 -0.3999 -0.1419  0.1611
  878MPD2    C412878   2.974   4.508  13.420 -0.9611 -0.1280  0.2824
  878MPD2    C512879   2.903   4.424  13.335 -0.2251  0.3099 -0.3199
  878MPD2     H12880   3.145   4.678  13.181 -0.2981 -0.8782 -0.3504
  878MPD2    H112881   2.954   4.503  13.526 -2.2950 -1.4646 -0.0340
  878MPD2    H212882   2.855   4.371  13.144  0.2331  0.3989 -0.8515
  878MPD2    H312883   2.825   4.357  13.368  1.2619 -2.9048 -3.3028
  878MPD2     N12884   3.132   4.690  13.438  0.3412 -0.0714 -0.3386
  878MPD2    H512885   3.197   0.026  13.387  0.7910 -0.6427 -0.4155
  878MPD2    N112886   3.012   4.534  13.001  0.0322 -0.0328 -1.0576
  878MPD2    H712887   2.949   4.477  12.946  1.8736 -1.6633 -1.4949
  879MPD2     C12888   3.619   0.843  17.206 -0.3931  0.2383 -0.3347
  879MPD2    C112889   3.535   0.949  17.179  0.3823  0.0858 -0.6511
  879MPD2    C212890   3.455   0.939  17.072  0.1779  0.0405 -0.0264
  879MPD2    C312891   3.468   0.838  16.979  0.2828 -0.3370 -0.1082
  879MPD2    C412892   3.551   0.731  17.006 -0.3806 -0.1334  0.5829
  879MPD2    C512893   3.629   0.742  17.114  0.3763  0.6170  0.0761
  879MPD2     H12894   3.383   1.018  17.054 -1.0061 -1.1681 -0.6526
  879MPD2    H112895   3.570   0.640  16.950 -2.1597 -0.5229  0.6201
  879MPD2    H212896   3.671   0.849  17.301 -0.5610  1.0104 -0.2917
  879MPD2    H312897   3.707   0.670  17.130  0.7103  1.7948  3.7500
  879MPD2     N12898   3.383   0.821  16.867  0.7851 -0.2490 -0.0466
  879MPD2    H512899   3.383   0.726  16.830  0.1345 -0.8251  1.4287
  879MPD2    N112900   3.526   1.050  17.281  0.1933  0.4788 -0.2405
  879MPD2    H712901   3.584   1.038  17.363  1.1603 -0.2514 -1.0218
  880MPD2     C12902   0.149   2.665   0.164 -0.2693 -0.1816  0.0601
  880MPD2    C112903   0.230   2.660   0.272 -0.1619 -0.0612 -0.0907
  880MPD2    C212904   0.252   2.548   0.345 -0.2292  0.2679  0.4434
  880MPD2    C312905   0.186   2.433   0.304  0.1527  0.1032 -0.0845
  880MPD2    C412906   0.107   2.435   0.197  0.5682 -0.7155 -0.5419
  880MPD2    C512907   0.094   2.547   0.120  0.1747 -0.8852  0.4652
  880MPD2     H12908   0.306   2.544   0.440 -0.6518 -1.6229  0.6129
  880MPD2    H112909   0.048   2.346   0.177 -1.4107  0.9356 -1.9899
  880MPD2    H212910   0.137   2.744   0.091 -0.2947  1.6285  2.0504
  880MPD2    H312911   0.038   2.541   0.028  0.5210  0.3579  0.1660
  880MPD2     N12912   0.185   2.317   0.386 -0.5034  0.4714 -0.1391
  880MPD2    H512913   0.239   2.332   0.471 -0.8226  0.0178  0.1468
  880MPD2    N112914   0.293   2.787   0.297  0.3886 -0.0848  0.5770
  880MPD2    H712915   0.273   2.864   0.234  1.1270 -2.3736 -2.4852
  881MPD2     C12916   0.622   3.550  17.467  0.0496  0.4903  0.5428
  881MPD2    C112917   0.620   3.415  17.449  0.0566 -0.0854  0.7360
  881MPD2    C212918   0.580   3.338  17.551  0.1693 -0.1687 -0.4061
  881MPD2    C312919   0.587   3.387  17.677  0.5407  0.4894  0.9461
  881MPD2    C412920   0.617   3.519   0.007 -0.2487 -0.0187 -0.9917
  881MPD2    C512921   0.642   3.602  17.592  0.6752  0.0056  1.1359
  881MPD2     H12922   0.539   3.240  17.528  1.2994 -1.1274  1.6407
  881MPD2    H112923   0.624   3.567   0.104 -0.2544 -0.8934 -0.5543
  881MPD2    H212924   0.643   3.615  17.382 -0.2655  2.0567  1.6498
  881MPD2    H312925   0.673   3.705  17.606  0.3969  0.4554 -1.4825
  881MPD2     N12926   0.537   3.318   0.099  0.4550  0.0866  0.1702
  881MPD2    H512927   0.558   3.366   0.186  2.2058  1.9285 -1.2637
  881MPD2    N112928   0.590   3.369  17.319  0.0298 -0.1189  0.2276
  881MPD2    H712929   0.565   3.443  17.255  1.6611  1.1438  1.0595
  882MPD2     C12930   3.456   0.937  14.229  0.0754  0.3019  0.6175
  882MPD2    C112931   3.442   0.817  14.285 -0.4922  0.0926  0.7719
  882MPD2    C212932   3.359   0.728  14.229 -0.6787  0.1830  0.1252
  882MPD2    C312933   3.282   0.764  14.116 -0.6368 -0.5521 -0.2949
  882MPD2    C412934   3.305   0.886  14.059  0.4294  0.4039  0.3087
  882MPD2    C512935   3.394   0.970  14.112 -0.4470 -0.0791  0.5184
  882MPD2     H12936   3.333   0.633  14.274 -1.8107  0.1129 -0.6556
  882MPD2    H112937   3.257   0.906  13.964 -2.6541 -0.4201  1.7027
  882MPD2    H212938   3.520   1.017  14.266  0.2067  0.5495 -0.1404
  882MPD2    H312939   3.400   1.064  14.059 -0.4471  0.9361  2.3531
  882MPD2     N12940   3.186   0.679  14.066  0.4792 -0.6497 -0.0564
  882MPD2    H512941   3.120   0.726  14.005 -1.4339 -3.8438 -0.4408
  882MPD2    N112942   3.517   0.790  14.403  0.1347 -0.4123  0.1148
  882MPD2    H712943   3.594   0.855  14.418  0.1708  0.1261 -2.4474
  883MPD2     C12944   0.368   4.656  16.484 -0.9404 -0.4041  0.3621
  883MPD2    C112945   0.453   0.019  16.415 -1.2107 -0.0176 -0.3938
  883MPD2    C212946   0.575   0.046  16.465 -0.3305  0.6585 -0.5002
  883MPD2    C312947   0.613   0.001  16.590 -0.2230  0.0481 -0.2344
  883MPD2    C412948   0.526   4.643  16.666  0.7604  0.3142 -0.2855
  883MPD2    C512949   0.401   4.614  16.609 -0.2675 -0.2325  0.1315
  883MPD2     H12950   0.642   0.107  16.404  0.1111  0.1349 -0.5398
  883MPD2    H112951   0.537   4.609  16.768  0.1885 -1.3409 -0.7619
  883MPD2    H212952   0.266   4.636  16.456 -0.0853 -4.1860  0.0518
  883MPD2    H312953   0.329   4.551  16.661 -1.0730 -2.0408 -3.1525
  883MPD2     N12954   0.749   0.018  16.627 -0.1206 -0.0773 -0.1520
  883MPD2    H512955   0.809   0.050  16.551 -0.1767 -1.0011 -0.5921
  883MPD2    N112956   0.429   0.078  16.290  0.3263  0.0097 -0.0816
  883MPD2    H712957   0.489   0.151  16.253  1.5072 -0.6871  0.4572
  884MPD2     C12958   2.528   0.777  14.790  0.4841  0.5596  0.4590
  884MPD2    C112959   2.536   0.905  14.842  0.1807 -0.0797 -0.7935
  884MPD2    C212960   2.438   0.951  14.925  0.4327 -0.4075  0.3226
  884MPD2    C312961   2.328   0.874  14.951 -0.0195 -0.2530  0.1570
  884MPD2    C412962   2.325   0.745  14.900  0.5759 -0.1213  0.5420
  884MPD2    C512963   2.424   0.692  14.822 -0.0049 -0.0502 -0.5720
  884MPD2     H12964   2.455   1.053  14.957 -1.9543  1.0774 -3.1307
  884MPD2    H112965   2.249   0.672  14.924  0.5667  0.6361  2.7689
  884MPD2    H212966   2.607   0.746  14.722 -2.4461 -0.3548 -2.5766
  884MPD2    H312967   2.423   0.584  14.806 -1.1926 -0.0316 -0.6620
  884MPD2     N12968   2.216   0.922  15.019 -0.5729  0.1651 -0.2152
  884MPD2    H512969   2.142   0.856  15.042  1.0633 -3.1314 -4.4223
  884MPD2    N112970   2.633   0.992  14.793  0.0392 -0.5293  0.3479
  884MPD2    H712971   2.621   1.091  14.810  0.2900 -0.4652  0.1380
  885MPD2     C12972   0.435   1.482   0.078  0.1922  0.0790 -0.0657
  885MPD2    C112973   0.458   1.377  17.680 -0.1883 -0.3609  0.3117
  885MPD2    C212974   0.411   1.394  17.554 -0.2343 -0.7225 -1.0359
  885MPD2    C312975   0.349   1.508  17.499  0.1144 -0.3400 -0.7190
  885MPD2    C412976   0.316   1.603  17.594 -0.3697  0.3885  0.2136
  885MPD2    C512977   0.357   1.586   0.028 -0.8697 -0.1370  0.7248
  885MPD2     H12978   0.443   1.317  17.485  1.9985  0.7847 -1.6979
  885MPD2    H112979   0.272   1.698  17.565  3.0454  1.2557 -2.1965
  885MPD2    H212980   0.454   1.469   0.184  1.2201 -1.4008 -0.4456
  885MPD2    H312981   0.331   1.667   0.096  0.8636 -0.0776  1.3156
  885MPD2     N12982   0.323   1.513  17.361  0.1253  0.0773  0.0131
  885MPD2    H512983   0.352   1.434  17.305 -0.3341  0.9487 -1.4485
  885MPD2    N112984   0.534   1.266   0.035  0.5524  0.1125  0.0056
  885MPD2    H712985   0.552   1.268   0.135  0.0187 -1.9576  0.1328
  886MPD2     C12986   1.951   4.434  14.773 -0.4233  0.4958 -0.2215
  886MPD2    C112987   2.070   4.470  14.828 -0.2096  0.4117  0.6092
  886MPD2    C212988   2.152   4.568  14.771  0.4909 -0.1708 -0.5576
  886MPD2    C312989   2.117   4.628  14.644 -0.1498 -0.1844 -0.0419
  886MPD2    C412990   1.998   4.585  14.587 -0.6200  0.5375  0.3718
  886MPD2    C512991   1.916   4.499  14.652  0.0022  0.5367 -0.1360
  886MPD2     H12992   2.246   4.589  14.820 -1.6768  1.7198  2.7737
  886MPD2    H112993   1.956   4.630  14.498  0.6400  1.1163  0.0690
  886MPD2    H212994   1.881   4.375  14.830  1.1303 -1.6237 -0.4634
  886MPD2    H312995   1.815   4.487  14.614  0.5777  0.0228 -1.4984
  886MPD2     N12996   2.194   0.015  14.604 -0.3030 -0.3378  0.0291
  886MPD2    H512997   2.269   0.045  14.666  1.5483 -1.2284 -1.7506
  886MPD2    N112998   2.124   4.410  14.946  0.1308  0.6212  0.3128
  886MPD2    H712999   2.221   4.423  14.972 -0.2211 -0.5046  2.2447
  887MPD2     C13000   2.741   4.452  15.232 -0.4659 -0.3688 -0.3237
  887MPD2    C113001   2.614   4.492  15.229 -0.0035  0.2765 -0.1729
  887MPD2    C213002   2.592   4.631  15.230  0.4594  0.1960  0.1922
  887MPD2    C313003   2.690   0.007  15.254  0.3004  0.3251  0.1909
  887MPD2    C413004   2.811   4.678  15.267 -0.7293 -0.1417 -0.0835
  887MPD2    C513005   2.836   4.552  15.237  0.0517  0.1589  0.0705
  887MPD2     H13006   2.491   4.668  15.224  0.1339 -0.6815  0.1831
  887MPD2    H113007   2.892   0.024  15.290 -0.4375 -0.5489  0.1141
  887MPD2    H213008   2.766   4.348  15.218 -0.8311 -0.4654 -0.2493
  887MPD2    H313009   2.934   4.507  15.226 -1.0532 -2.5107  1.1534
  887MPD2     N13010   2.647   0.144  15.289  0.3603  0.0824  0.3431
  887MPD2    H513011   2.549   0.168  15.285 -0.4088 -2.0439  6.6174
  887MPD2    N113012   2.493   4.414  15.219 -0.5768  0.3226  0.4396
  887MPD2    H713013   2.404   4.463  15.213  0.0968  1.6489  1.2017
  888MPD2     C13014   4.131   4.250  14.915 -0.7823  0.2348  0.1369
  888MPD2    C113015   4.101   4.331  15.022  0.0735 -0.3231  0.6189
  888MPD2    C213016   4.163   4.451  15.035 -0.1741 -0.0991  0.2799
  888MPD2    C313017   4.249   4.501  14.945  0.2952 -0.5437 -0.3858
  888MPD2    C413018   4.282   4.420  14.843  0.2200 -0.4014 -0.3999
  888MPD2    C513019   4.229   4.291  14.829  0.1388 -0.2427 -0.0977
  888MPD2     H13020   4.134   4.519  15.115 -0.8689  0.0764 -0.1193
  888MPD2    H113021   4.351   4.442  14.762  0.4849 -1.7979 -0.5594
  888MPD2    H213022   4.095   4.148  14.912  1.7067 -0.5969 -1.5904
  888MPD2    H313023   4.258   4.236  14.741  0.6374  0.4340 -0.3568
  888MPD2     N13024   4.309   4.625  14.975  0.8913  0.3797  0.3500
  888MPD2    H513025   4.284   4.668  15.064  2.2481  0.2621  0.7954
  888MPD2    N113026   4.011   4.302  15.126  0.1700  0.4879  0.3731
  888MPD2    H713027   4.013   4.371  15.201  0.4287  0.1639  0.6620
  889MPD2     C13028   3.504   3.881  12.658  0.3959  0.6989  0.2272
  889MPD2    C113029   3.546   3.892  12.788 -0.1612 -0.0806 -0.0941
  889MPD2    C213030   3.608   4.010  12.832  0.2001 -0.2718 -0.2714
  889MPD2    C313031   3.586   4.127  12.761  0.1348  0.4432  0.4456
  889MPD2    C413032   3.526   4.115  12.638 -0.0731  0.9667  0.1633
  889MPD2    C513033   3.502   3.993  12.581  1.0704  0.1096 -0.5196
  889MPD2     H13034   3.641   4.015  12.936  0.5160 -0.9129 -0.3360
  889MPD2    H113035   3.513   4.201  12.573 -0.6365  2.4958  2.2964
  889MPD2    H213036   3.496   3.787  12.606 -1.2018  0.1164  1.5384
  889MPD2    H313037   3.479   3.995  12.475  1.1255  2.0037 -0.5095
  889MPD2     N13038   3.617   4.245  12.827 -0.3520  0.2826 -0.4139
  889MPD2    H513039   3.632   4.246  12.928 -0.2651  0.2211 -0.4256
  889MPD2    N113040   3.562   3.765  12.854  0.0264  0.2121 -0.0057
  889MPD2    H713041   3.518   3.683  12.813  1.6285 -0.9763  0.6817
  890MPD2     C13042   3.097   1.175  14.329  0.5300  0.2610 -0.1501
  890MPD2    C113043   3.187   1.262  14.388  0.4760  0.1038  0.5334
  890MPD2    C213044   3.268   1.220  14.487  0.3490 -1.0228  0.2213
  890MPD2    C313045   3.268   1.090  14.528  0.2313 -0.5450  0.5083
  890MPD2    C413046   3.178   1.010  14.465  0.9307 -0.2896  0.1415
  890MPD2    C513047   3.080   1.054  14.379  1.1736 -0.2148  0.8163
  890MPD2     H13048   3.331   1.291  14.540  0.3594 -1.3777  0.6870
  890MPD2    H113049   3.169   0.907  14.498 -2.3759  0.4325  1.5102
  890MPD2    H213050   3.018   1.216  14.266 -0.6212 -1.4987  0.1259
  890MPD2    H313051   3.014   0.981  14.334 -0.6004  2.1588 -0.4494
  890MPD2     N13052   3.357   1.054  14.637 -0.1772  0.1025  0.1371
  890MPD2    H513053   3.426   1.122  14.666  0.7825 -0.7378 -0.1567
  890MPD2    N113054   3.172   1.396  14.355  0.9177 -0.6543 -0.4868
  890MPD2    H713055   3.098   1.409  14.288 -0.3436 -0.8915  0.8692
  891MPD2     C13056   1.449   3.932  16.418 -0.1838 -0.5080  0.8315
  891MPD2    C113057   1.376   3.962  16.534  0.0684  0.6080 -0.1931
  891MPD2    C213058   1.440   3.991  16.652 -0.3417 -0.7649 -0.0984
  891MPD2    C313059   1.578   3.991  16.650  0.0051 -0.8810  0.2644
  891MPD2    C413060   1.656   3.955  16.535  0.0960 -0.3659 -0.3978
  891MPD2    C513061   1.586   3.925  16.418  0.2267  0.1445  0.0237
  891MPD2     H13062   1.387   4.031  16.738  1.3761  1.9866 -0.3275
  891MPD2    H113063   1.763   3.960  16.521  0.1149  0.2291 -0.0132
  891MPD2    H213064   1.389   3.893  16.337 -0.8549 -0.7501  1.4416
  891MPD2    H313065   1.639   3.921  16.324 -0.3252  0.2101 -0.2947
  891MPD2     N13066   1.635   4.016  16.773 -0.5004  0.4828  0.1569
  891MPD2    H513067   1.578   4.027  16.856  0.7015  0.3943  0.9853
  891MPD2    N113068   1.233   3.978  16.511 -0.3532  0.0481  0.6275
  891MPD2    H713069   1.193   3.951  16.422 -1.1175 -2.1887  1.6399
  892MPD2     C13070   2.530   1.085  14.393  0.1566  0.2125 -0.0234
  892MPD2    C113071   2.497   0.958  14.442  0.5284 -0.1269 -0.2800
  892MPD2    C213072   2.585   0.857  14.410 -0.0057 -0.1883  0.0127
  892MPD2    C313073   2.695   0.873  14.321 -0.1786 -0.6893  0.4945
  892MPD2    C413074   2.725   1.003  14.287 -0.2304  0.3416 -0.0073
  892MPD2    C513075   2.646   1.110  14.320  0.2476  1.6714 -0.0006
  892MPD2     H13076   2.579   0.767  14.471  0.0645  1.9356  3.1530
  892MPD2    H113077   2.801   1.026  14.214 -1.5984 -0.0719 -1.5653
  892MPD2    H213078   2.461   1.168  14.404 -2.3814 -1.8011 -0.8123
  892MPD2    H313079   2.665   1.207  14.276 -0.0294  0.0464 -3.7444
  892MPD2     N13080   2.779   0.771  14.275 -0.4786  0.2160  0.3077
  892MPD2    H513081   2.866   0.802  14.233 -0.3256 -1.7012 -0.7487
  892MPD2    N113082   2.382   0.933  14.518 -0.4992 -0.5807 -0.4186
  892MPD2    H713083   2.357   0.835  14.517  0.7904 -0.9212  0.4194
  893MPD2     C13084   3.656   3.503   1.086 -0.0125  0.2886  0.2167
  893MPD2    C113085   3.722   3.444   1.192  0.6775 -0.1789 -0.3312
  893MPD2    C213086   3.651   3.390   1.304  0.3332 -0.8355 -0.6247
  893MPD2    C313087   3.512   3.409   1.320  0.0485  0.9700 -0.0545
  893MPD2    C413088   3.457   3.487   1.226  0.1130  0.2079 -0.4459
  893MPD2    C513089   3.526   3.533   1.111  0.0270  0.0651 -0.4011
  893MPD2     H13090   3.704   3.332   1.379 -1.2004  0.0899  1.1763
  893MPD2    H113091   3.349   3.483   1.224  0.1311 -0.1229 -0.8199
  893MPD2    H213092   3.695   3.535   0.990 -0.1891  1.5810  0.5682
  893MPD2    H313093   3.460   3.578   1.038 -2.3626 -1.5793  0.7208
  893MPD2     N13094   3.436   3.364   1.428  0.3830  0.1763 -0.2316
  893MPD2    H513095   3.336   3.381   1.419  0.1426 -1.2877 -0.3564
  893MPD2    N113096   3.860   3.439   1.182  0.0436 -0.3035 -0.3837
  893MPD2    H713097   3.902   3.469   1.094  3.2374  0.5200  1.4199
  894MPD2     C13098   1.923   1.150   0.393  0.7026 -0.3788 -0.2753
  894MPD2    C113099   1.917   1.179   0.528 -0.2531 -0.1765 -0.4095
  894MPD2    C213100   1.936   1.313   0.563 -0.3944 -0.3193 -0.2671
  894MPD2    C313101   1.967   1.404   0.465 -1.0064 -0.5092 -0.6111
  894MPD2    C413102   1.980   1.374   0.330  0.2183  0.4077  1.0147
  894MPD2    C513103   1.936   1.246   0.299 -0.0728  0.8542  1.2255
  894MPD2     H13104   1.916   1.350   0.663  1.7658  0.6025 -0.1923
  894MPD2    H113105   1.988   1.452   0.255 -1.9303 -0.0100  0.3500
  894MPD2    H213106   1.916   1.046   0.363 -2.1365  0.1822 -1.5301
  894MPD2    H313107   1.927   1.211   0.197  1.5140 -1.8260  1.9824
  894MPD2     N13108   1.996   1.531   0.513  0.2305 -0.1453  0.3392
  894MPD2    H513109   1.988   1.530   0.614  1.1960  2.3717  0.4297
  894MPD2    N113110   1.887   1.085   0.635  0.1770  0.1004  0.6562
  894MPD2    H713111   1.877   1.128   0.726 -0.3484 -2.9501  2.0345
  895MPD2     C13112   1.489   4.253  13.369  0.6613 -0.1592 -0.4303
  895MPD2    C113113   1.405   4.184  13.289 -0.2017  0.5876 -0.5440
  895MPD2    C213114   1.414   4.045  13.295  0.5241  0.0448  0.1039
  895MPD2    C313115   1.514   3.977  13.362  0.0265  0.3243 -0.5355
  895MPD2    C413116   1.605   4.054  13.432 -0.3631  0.0790  0.4834
  895MPD2    C513117   1.587   4.188  13.444  0.1751  0.0306 -0.0374
  895MPD2     H13118   1.362   3.994  13.215 -1.6431  1.8701  0.3257
  895MPD2    H113119   1.692   4.011  13.482 -0.0560 -1.2136 -1.1607
  895MPD2    H213120   1.488   4.361  13.380 -2.0799 -0.1149 -1.1262
  895MPD2    H313121   1.661   4.244  13.500  1.0222 -1.3244  0.2017
  895MPD2     N13122   1.510   3.839  13.355 -0.0326  0.0006 -0.1278
  895MPD2    H513123   1.432   3.798  13.304 -1.7495  0.9177  1.7628
  895MPD2    N113124   1.306   4.239  13.209  0.7002  0.0244 -0.5484
  895MPD2    H713125   1.252   4.166  13.163  2.2688  0.4045 -3.0088
  896MPD2     C13126   3.479   1.976   1.586  0.3063  0.4569  0.3303
  896MPD2    C113127   3.461   1.925   1.463  0.3861  0.2664 -0.2652
  896MPD2    C213128   3.332   1.866   1.436 -0.6474  0.0291  0.3049
  896MPD2    C313129   3.226   1.868   1.526  0.0284  0.4242  0.5783
  896MPD2    C413130   3.249   1.933   1.652 -0.4148 -0.4035 -0.0245
  896MPD2    C513131   3.380   1.973   1.676  0.2402 -0.1113  0.3720
  896MPD2     H13132   3.305   1.817   1.344  1.3323  1.5811 -1.0976
  896MPD2    H113133   3.175   1.958   1.727  1.5443  0.1707  1.7183
  896MPD2    H213134   3.576   2.013   1.615 -0.5361  0.8267  2.7099
  896MPD2    H313135   3.402   2.015   1.774  2.1837  0.6008 -0.3718
  896MPD2     N13136   3.098   1.814   1.482  0.1550 -0.3388  0.3776
  896MPD2    H513137   3.089   1.760   1.397 -0.4707 -0.3562  0.4529
  896MPD2    N113138   3.574   1.925   1.374 -0.0522 -0.1056 -0.1358
  896MPD2    H713139   3.655   1.977   1.408  0.4341 -1.7676  1.2785
  897MPD2     C13140   4.634   3.307  10.198  0.2465  0.4908 -0.0787
  897MPD2    C113141   4.672   3.404  10.287 -0.1284  0.0573 -0.2727
  897MPD2    C213142   4.602   3.430  10.402  1.0481  0.2238 -0.7208
  897MPD2    C313143   4.488   3.361  10.430 -0.3334  0.2575  0.2758
  897MPD2    C413144   4.451   3.259  10.340 -0.3347  1.3549  0.4556
  897MPD2    C513145   4.524   3.228  10.230  0.7467  0.3648  0.3827
  897MPD2     H13146   4.630   3.510  10.469  0.9107 -2.8040  2.9445
  897MPD2    H113147   4.359   3.202  10.347  0.0101  0.9173  1.5800
  897MPD2    H213148   4.685   3.289  10.104 -0.7410  0.8855 -0.6943
  897MPD2    H313149   4.504   3.141  10.169  1.8279 -0.0669  0.6299
  897MPD2     N13150   4.428   3.404  10.550 -0.2840 -0.3451 -0.3615
  897MPD2    H513151   4.465   3.483  10.603 -0.0566 -0.4234 -0.4060
  897MPD2    N113152   0.063   3.467  10.251 -0.3277  0.7119  0.2898
  897MPD2    H713153   0.090   3.447  10.155  1.5427  0.9803  0.7741
  898MPD2     C13154   1.975   4.679  17.680 -0.0429  0.4167 -0.1992
  898MPD2    C113155   2.080   4.721  17.602  0.1601 -0.1593  0.4248
  898MPD2    C213156   2.082   0.122  17.545  0.4017  0.0050 -0.6262
  898MPD2    C313157   1.964   0.200  17.569 -0.3333  0.0547  0.6211
  898MPD2    C413158   1.860   0.159  17.648 -0.4626 -0.1643  0.3165
  898MPD2    C513159   1.866   0.041   0.016  0.4388 -0.0154  0.2080
  898MPD2     H13160   2.164   0.157  17.484 -1.3241 -1.5907 -3.8562
  898MPD2    H113161   1.766   0.213  17.649 -1.4250 -1.8558 -0.5647
  898MPD2    H213162   1.963   4.580   0.032 -0.0572  0.5381  0.0742
  898MPD2    H313163   1.783   0.001   0.073  0.2239  0.8399  0.4832
  898MPD2     N13164   1.955   0.317  17.488  0.1059  1.1235 -0.7746
  898MPD2    H513165   2.036   0.341  17.432 -0.0994  1.4771 -0.9229
  898MPD2    N113166   2.192   4.644  17.577  0.4247  0.0647 -0.1257
  898MPD2    H713167   2.275   4.690  17.542  0.7046 -0.3477 -0.0085
  899MPD2     C13168   2.597   0.428  17.037 -0.1354 -0.3590 -0.5868
  899MPD2    C113169   2.685   0.517  17.097 -0.6787  0.2630 -0.3210
  899MPD2    C213170   2.702   0.512  17.232 -0.4050  0.3213  0.5831
  899MPD2    C313171   2.633   0.423  17.315 -0.0464 -0.2765 -0.1950
  899MPD2    C413172   2.559   0.331  17.254  0.9618 -0.6572 -0.0651
  899MPD2    C513173   2.551   0.328  17.118 -0.1798  0.2822 -0.1723
  899MPD2     H13174   2.769   0.584  17.277 -0.9085  0.5506  0.9797
  899MPD2    H113175   2.511   0.255  17.314  0.3437  0.7702  1.2550
  899MPD2    H213176   2.572   0.428  16.931 -0.2752 -3.4132 -0.5786
  899MPD2    H313177   2.499   0.245  17.070 -0.0700 -0.2467  0.6277
  899MPD2     N13178   2.616   0.443  17.452 -0.1063 -0.3528  0.3606
  899MPD2    H513179   2.550   0.377  17.493  1.6923 -3.1761 -1.2705
  899MPD2    N113180   2.749   0.612  17.019  0.1467  0.7384 -0.7112
  899MPD2    H713181   2.718   0.599  16.923 -2.2048  0.8393  0.0435
  900MPD2     C13182   2.519   2.573  12.529 -0.5162  0.3240  0.8626
  900MPD2    C113183   2.435   2.475  12.489 -0.0161 -0.3912 -0.3040
  900MPD2    C213184   2.304   2.501  12.463 -0.4523  0.3761 -0.2053
  900MPD2    C313185   2.252   2.627  12.465 -0.2367 -0.6182  1.1330
  900MPD2    C413186   2.331   2.733  12.508 -0.1745  0.3880 -0.1832
  900MPD2    C513187   2.462   2.699  12.536  0.0249 -0.1104 -0.1566
  900MPD2     H13188   2.243   2.421  12.423 -1.4985  0.3384  1.4586
  900MPD2    H113189   2.301   2.837  12.509  0.2740  0.5024  0.7827
  900MPD2    H213190   2.622   2.556  12.558 -0.7487  0.5815  1.8564
  900MPD2    H313191   2.528   2.779  12.569  2.4577 -1.5905 -1.4077
  900MPD2     N13192   2.116   2.642  12.426 -0.1259  0.4244  0.0537
  900MPD2    H513193   2.068   2.555  12.405 -0.0934 -0.3547  3.1970
  900MPD2    N113194   2.486   2.336  12.494 -0.2657  0.2134 -0.2320
  900MPD2    H713195   2.583   2.321  12.521 -0.9507 -0.2308  1.9685
  901MPD2     C13196   2.192   1.311  12.732 -0.0347 -0.2349 -0.3300
  901MPD2    C113197   2.324   1.308  12.715  0.2953 -0.1423  0.5518
  901MPD2    C213198   2.393   1.419  12.681 -0.7145 -0.0945  0.2488
  901MPD2    C313199   2.321   1.537  12.664 -0.0298 -0.5429  0.1398
  901MPD2    C413200   2.183   1.543  12.687  0.3223  0.0971  0.6682
  901MPD2    C513201   2.120   1.431  12.719  0.0094 -0.2232  0.4907
  901MPD2     H13202   2.501   1.427  12.677 -0.6690  0.1890  2.0441
  901MPD2    H113203   2.132   1.637  12.670  0.3315  0.1538  0.9530
  901MPD2    H213204   2.140   1.217  12.738 -1.6426  0.6691 -0.2109
  901MPD2    H313205   2.012   1.431  12.718  0.0236 -0.1921 -1.2584
  901MPD2     N13206   2.392   1.655  12.626 -0.2641  0.6704 -0.9469
  901MPD2    H513207   2.493   1.646  12.623 -0.4527 -1.2897 -1.4179
  901MPD2    N113208   2.390   1.184  12.718  0.5426 -0.4229  0.2551
  901MPD2    H713209   2.337   1.099  12.736 -2.3404  0.7288 -2.7683
  902MPD2     C13210   1.419   0.166  13.066  0.5582  0.2002 -0.5473
  902MPD2    C113211   1.397   0.268  12.977  0.0972  0.9502  0.2319
  902MPD2    C213212   1.441   0.248  12.840 -0.7107 -0.2872 -0.1067
  902MPD2    C313213   1.521   0.140  12.809  0.2704  0.0545  0.4677
  902MPD2    C413214   1.559   0.052  12.907  0.5005  1.4080  0.1190
  902MPD2    C513215   1.505   0.062  13.035 -0.2264 -1.0792 -0.1857
  902MPD2     H13216   1.419   0.333  12.777  2.7622 -0.3100 -1.3526
  902MPD2    H113217   1.626   4.693  12.882  1.0906  2.2141 -0.9696
  902MPD2    H213218   1.368   0.188  13.159 -1.1737  0.0214 -1.4386
  902MPD2    H313219   1.522   4.706  13.107  1.4348 -0.3813  0.1749
  902MPD2     N13220   1.568   0.102  12.682 -0.5406 -0.3202 -0.5110
  902MPD2    H513221   1.622   0.016  12.685 -0.2898 -0.0604  2.5284
  902MPD2    N113222   1.315   0.376  13.024  0.1913 -0.0331  0.1135
  902MPD2    H713223   1.280   0.371  13.119 -1.9289 -1.0281 -0.7259
  903MPD2     C13224   1.318   0.278  11.967  0.3758  0.1750  0.0597
  903MPD2    C113225   1.379   0.161  11.970 -0.1271  0.0657  0.0510
  903MPD2    C213226   1.351   0.069  11.872 -0.4542 -0.2087 -0.0512
  903MPD2    C313227   1.257   0.097  11.775 -0.5834  0.0532 -0.0524
  903MPD2    C413228   1.186   0.220  11.781 -0.4736 -0.4238  0.1058
  903MPD2    C513229   1.220   0.304  11.881  0.5047  0.0866 -0.3357
  903MPD2     H13230   1.399   4.694  11.880 -0.2736 -0.2613 -1.8250
  903MPD2    H113231   1.117   0.255  11.705 -0.8862 -0.0526  0.6536
  903MPD2    H213232   1.350   0.360  12.030  0.1959  0.7490 -0.5900
  903MPD2    H313233   1.177   0.404  11.879  1.7908  0.6639  1.2799
  903MPD2     N13234   1.235   4.714  11.681 -0.6178 -0.0665  0.4129
  903MPD2    H513235   1.278   4.624  11.700 -2.3117 -1.2479 -1.3018
  903MPD2    N113236   1.475   0.148  12.072  0.3637  0.4604 -0.6686
  903MPD2    H713237   1.482   0.228  12.135 -2.1266 -0.4107  0.7147
  904MPD2     C13238   1.582   3.704  13.831 -0.5358  0.1980  0.3755
  904MPD2    C113239   1.586   3.821  13.901 -0.1365  0.1717  0.5747
  904MPD2    C213240   1.706   3.843  13.975  0.2168 -0.0010 -0.2065
  904MPD2    C313241   1.812   3.752  13.963 -0.2539 -0.2365 -0.6068
  904MPD2    C413242   1.800   3.631  13.893 -0.3959 -0.2194  0.5089
  904MPD2    C513243   1.681   3.612  13.831 -0.1471 -0.2035  0.1824
  904MPD2     H13244   1.727   3.937  14.024 -0.4112  0.3854 -0.6671
  904MPD2    H113245   1.879   3.560  13.872 -0.1010  0.4403 -0.6350
  904MPD2    H213246   1.500   3.677  13.765 -0.4484  0.4823  0.1449
  904MPD2    H313247   1.677   3.520  13.774 -2.1016  1.1457 -1.8301
  904MPD2     N13248   1.938   3.799  14.016  0.1148  0.4208  0.3685
  904MPD2    H513249   1.944   3.878  14.080  3.2024  1.6313 -1.4058
  904MPD2    N113250   1.487   3.917  13.911  0.3608  0.1441 -0.2266
  904MPD2    H713251   1.497   4.003  13.963 -1.4887 -0.0195  0.4118
  905MPD2     C13252   0.807   3.852  13.532  0.1391 -0.2453 -0.3613
  905MPD2    C113253   0.937   3.896  13.507  0.2152  0.5038 -0.4091
  905MPD2    C213254   1.028   3.823  13.430  0.7768 -0.1165  0.3620
  905MPD2    C313255   0.995   3.692  13.395 -0.3443 -0.5144  0.4057
  905MPD2    C413256   0.871   3.646  13.426 -0.3698  0.2773 -0.5669
  905MPD2    C513257   0.770   3.728  13.491 -0.0921 -0.4694  0.7985
  905MPD2     H13258   1.125   3.863  13.405  0.1772  0.9057 -0.3381
  905MPD2    H113259   0.856   3.544  13.392  1.2258  0.1040 -0.7407
  905MPD2    H213260   0.736   3.914  13.586 -0.9451 -0.2600 -1.7849
  905MPD2    H313261   0.672   3.693  13.519 -1.0794  0.7698 -1.1132
  905MPD2     N13262   1.091   3.609  13.335  0.4224 -0.2401  0.0553
  905MPD2    H513263   1.068   3.510  13.339  2.2803 -0.7127 -0.9456
  905MPD2    N113264   0.971   4.017  13.568 -0.1117 -0.6391 -0.1492
  905MPD2    H713265   0.908   4.060  13.635 -0.0686 -0.7549 -0.0323
  906MPD2     C13266   3.237   3.763  11.304  0.1131 -0.9769  0.1518
  906MPD2    C113267   3.139   3.690  11.232 -0.7933 -0.9966  0.1429
  906MPD2    C213268   3.041   3.630  11.303 -0.5325  0.1236  0.6961
  906MPD2    C313269   3.027   3.655  11.436 -0.0080 -0.5578  0.6528
  906MPD2    C413270   3.112   3.736  11.500 -0.7591 -1.3796 -0.3370
  906MPD2    C513271   3.224   3.785  11.437 -0.0840  0.0360 -0.1018
  906MPD2     H13272   2.975   3.558  11.255 -0.0795  0.3334 -0.2365
  906MPD2    H113273   3.106   3.746  11.608  1.2010 -0.1123 -0.3489
  906MPD2    H213274   3.323   3.806  11.254  0.4115 -0.8523  0.7726
  906MPD2    H313275   3.298   3.849  11.483 -2.0675  1.9148  0.5208
  906MPD2     N13276   2.938   3.594  11.522 -0.3540 -0.3020 -0.4295
  906MPD2    H513277   2.944   3.634  11.615  0.8474  0.5195 -0.8527
  906MPD2    N113278   3.129   3.677  11.089 -0.9291  0.0037  0.2390
  906MPD2    H713279   3.060   3.610  11.057  0.2659 -0.9705 -0.2644
  907MPD2     C13280   2.482   3.451  15.348 -0.1896  0.0644  0.1376
  907MPD2    C113281   2.428   3.340  15.410 -0.0807  0.4947 -0.1607
  907MPD2    C213282   2.495   3.284  15.518  0.2380  0.0760 -0.5588
  907MPD2    C313283   2.590   3.362  15.582 -0.1238 -0.0363  0.0475
  907MPD2    C413284   2.623   3.481  15.532 -0.1306  0.1712  1.3679
  907MPD2    C513285   2.579   3.521  15.411 -0.3811 -0.2439  0.6573
  907MPD2     H13286   2.468   3.187  15.560 -1.7121  0.1273 -1.6877
  907MPD2    H113287   2.692   3.549  15.581 -1.0085  1.8184  0.3560
  907MPD2    H213288   2.446   3.485  15.251 -3.2192 -0.0304  1.2099
  907MPD2    H313289   2.609   3.613  15.364  1.9099 -2.4402 -2.1807
  907MPD2     N13290   2.646   3.312  15.703  0.1515  0.0664  0.1181
  907MPD2    H513291   2.638   3.212  15.721  0.9343  0.4508  2.5636
  907MPD2    N113292   2.311   3.275  15.366  0.1635  0.3961  0.1833
  907MPD2    H713293   2.287   3.198  15.428  2.9913 -0.1973  0.5531
  908MPD2     C13294   0.372   3.452   9.440  0.0586  0.5914 -0.2699
  908MPD2    C113295   0.250   3.442   9.498 -0.8939 -0.2716 -0.1256
  908MPD2    C213296   0.238   3.482   9.632  0.0367 -0.2578  0.2760
  908MPD2    C313297   0.343   3.538   9.705  0.3035  0.0970 -0.7061
  908MPD2    C413298   0.465   3.539   9.638  0.3121  0.3287  0.5995
  908MPD2    C513299   0.480   3.492   9.513  0.3405  0.3297  0.3109
  908MPD2     H13300   0.141   3.476   9.680 -0.7629  0.5108 -1.2252
  908MPD2    H113301   0.547   3.593   9.684 -1.3047  2.6195  0.7613
  908MPD2    H213302   0.391   3.397   9.348  1.1001  0.7053 -0.1224
  908MPD2    H313303   0.582   3.482   9.478  0.4514 -0.5542  0.8697
  908MPD2     N13304   0.328   3.586   9.843 -0.1452  0.7763  0.4555
  908MPD2    H513305   0.230   3.578   9.870 -0.4498  1.3907 -0.4357
  908MPD2    N113306   0.137   3.379   9.432 -0.3952  0.2026 -0.2525
  908MPD2    H713307   0.053   3.382   9.489  0.2283  2.9503  0.5235
  909MPD2     C13308   0.357   1.768  11.943 -0.1349 -0.3980  0.8797
  909MPD2    C113309   0.275   1.825  11.849 -0.5678 -1.0633  0.0313
  909MPD2    C213310   0.142   1.857  11.882  0.4926 -0.3487  0.4107
  909MPD2    C313311   0.101   1.839  12.014  0.3917  0.1811  0.0592
  909MPD2    C413312   0.183   1.767  12.101  0.4479 -0.4859 -0.0916
  909MPD2    C513313   0.311   1.742  12.065 -1.2490  0.6706  0.0256
  909MPD2     H13314   0.078   1.898  11.805  2.4134  1.5207 -0.1985
  909MPD2    H113315   0.155   1.735  12.200 -1.2528 -1.5876 -0.9320
  909MPD2    H213316   0.457   1.741  11.912 -0.4837 -0.2875 -0.3737
  909MPD2    H313317   0.368   1.681  12.134 -0.8910 -1.1542 -1.9040
  909MPD2     N13318   4.692   1.879  12.049  0.5657 -0.4455  0.2049
  909MPD2    H513319   4.640   1.945  11.992  1.0012 -0.0788  0.2316
  909MPD2    N113320   0.325   1.830  11.712 -0.0348  0.1343  0.9856
  909MPD2    H713321   0.413   1.785  11.689 -1.0449 -0.7013 -1.2546
  910MPD2     C13322   1.647   3.481  15.718 -0.4659 -0.2983 -0.5821
  910MPD2    C113323   1.763   3.457  15.651  0.6890  0.3966 -0.0530
  910MPD2    C213324   1.766   3.480  15.522  0.1390 -0.4391 -0.4728
  910MPD2    C313325   1.651   3.506  15.448  1.0539 -0.1572 -0.1886
  910MPD2    C413326   1.532   3.502  15.511 -0.1300  0.3886  0.0800
  910MPD2    C513327   1.532   3.498  15.649 -0.1000  0.4717  0.1645
  910MPD2     H13328   1.861   3.471  15.470 -1.4879 -0.2150 -3.4793
  910MPD2    H113329   1.439   3.516  15.458 -0.6016 -0.6565  0.6300
  910MPD2    H213330   1.643   3.474  15.826 -1.0375  0.0789 -0.5751
  910MPD2    H313331   1.437   3.511  15.699 -0.4285 -2.8358  0.4071
  910MPD2     N13332   1.650   3.545  15.312  0.1446 -0.0511  0.0888
  910MPD2    H513333   1.564   3.569  15.265 -0.4430  0.5066  1.4434
  910MPD2    N113334   1.885   3.425  15.708  0.4302 -0.2005  0.2247
  910MPD2    H713335   1.967   3.416  15.650  0.6084 -2.2444  0.7951
  911MPD2     C13336   4.243   4.339  16.065 -0.5242 -0.0847  0.2518
  911MPD2    C113337   4.270   4.379  16.191  0.5292 -0.0310 -0.0958
  911MPD2    C213338   4.212   4.498  16.234 -0.2078  0.4444  0.0826
  911MPD2    C313339   4.127   4.566  16.150 -0.4619 -0.2801 -0.2718
  911MPD2    C413340   4.107   4.517  16.024 -0.2074  0.2358 -0.7498
  911MPD2    C513341   4.169   4.407  15.977  0.3292  0.4050 -0.1693
  911MPD2     H13342   4.213   4.524  16.340  1.6824 -0.1494  0.2142
  911MPD2    H113343   4.039   4.564  15.953 -1.1961  2.0195  1.3802
  911MPD2    H213344   4.303   4.256  16.030  1.1379  1.0270  0.4690
  911MPD2    H313345   4.141   4.368  15.880 -0.2344 -0.5716  0.3795
  911MPD2     N13346   4.059   4.686  16.177  0.2243  0.2469 -0.4413
  911MPD2    H513347   3.988   4.708  16.108  1.3212 -0.2991 -1.7467
  911MPD2    N113348   4.365   4.297  16.255 -0.1890  0.5006  0.5265
  911MPD2    H713349   4.397   4.214  16.207 -3.6900 -1.0358  0.8069
  912MPD2     C13350   3.706   4.569  15.783 -0.4543  0.3922 -0.0187
  912MPD2    C113351   3.739   4.564  15.917  0.5957  0.6068 -0.4664
  912MPD2    C213352   3.772   4.448  15.972  0.4999 -0.1658 -0.2021
  912MPD2    C313353   3.786   4.336  15.891  0.8680  1.0649  0.0280
  912MPD2    C413354   3.745   4.336  15.756 -0.0964  0.5140 -0.5435
  912MPD2    C513355   3.698   4.456  15.709  0.3603 -0.4962  0.1134
  912MPD2     H13356   3.801   4.448  16.077 -0.8285  0.6868  0.1644
  912MPD2    H113357   3.753   4.255  15.683  2.2636 -0.7282  1.0940
  912MPD2    H213358   3.664   4.659  15.741 -2.8893 -1.3823 -1.3572
  912MPD2    H313359   3.657   4.461  15.608 -0.6815 -1.9162  0.4705
  912MPD2     N13360   3.842   4.222  15.953 -0.2665  0.2525 -0.2890
  912MPD2    H513361   3.880   4.237  16.046 -0.2353 -0.8321 -0.1278
  912MPD2    N113362   3.730   4.686  15.995  0.5869 -0.2958  0.2964
  912MPD2    H713363   3.718   0.046  15.937 -2.1801  0.0838  1.3769
  913MPD2     C13364   4.720   0.170  10.805  0.7900  0.1115  0.6420
  913MPD2    C113365   0.052   0.278  10.742  0.7340 -0.1780  0.2669
  913MPD2    C213366   4.704   0.338  10.638  0.6914 -0.0439 -0.3007
  913MPD2    C313367   4.579   0.283  10.597  0.1578 -0.2561  0.2060
  913MPD2    C413368   4.541   0.162  10.651 -0.2022 -0.8070 -0.1369
  913MPD2    C513369   4.611   0.111  10.748 -0.5128 -0.3826 -0.2053
  913MPD2     H13370   0.008   0.432  10.592  1.0458  0.9447  1.9443
  913MPD2    H113371   4.452   0.113  10.613 -0.0117 -0.0016 -1.6252
  913MPD2    H213372   0.041   0.132  10.897  0.4405  1.3205  1.3139
  913MPD2    H313373   4.577   0.025  10.805  1.2723 -1.1373 -0.2580
  913MPD2     N13374   4.489   0.350  10.507 -0.7798  0.1130  0.0024
  913MPD2    H513375   4.401   0.307  10.482 -0.7343 -0.9049  1.6386
  913MPD2    N113376   0.177   0.326  10.796  0.3766  0.5929  0.8302
  913MPD2    H713377   0.207   0.273  10.878  2.4815  1.0405  0.3557
  914MPD2     C13378   2.045   0.652  12.122  0.0053 -0.1927 -0.0680
  914MPD2    C113379   2.086   0.781  12.118  0.3087 -0.0309 -0.3213
  914MPD2    C213380   2.165   0.837  12.222 -0.0253 -0.3823 -0.3068
  914MPD2    C313381   2.199   0.759  12.332 -0.7736  0.0656  0.2157
  914MPD2    C413382   2.147   0.635  12.341  0.1605 -0.1907  0.2566
  914MPD2    C513383   2.081   0.578  12.235 -0.2351  0.4707 -0.8672
  914MPD2     H13384   2.209   0.936  12.215  1.4275 -1.0307 -0.4445
  914MPD2    H113385   2.167   0.571  12.426  2.0599 -1.2174 -0.9940
  914MPD2    H213386   1.997   0.601  12.039  1.8098 -1.4516 -0.3296
  914MPD2    H313387   2.049   0.474  12.238 -0.6268  0.5873 -0.9952
  914MPD2     N13388   2.289   0.814  12.428 -0.2848 -0.1978 -0.1313
  914MPD2    H513389   2.310   0.914  12.429 -1.8714  0.1180  1.2481
  914MPD2    N113390   2.053   0.862  12.012 -0.1582  0.6631 -0.0736
  914MPD2    H713391   1.997   0.819  11.938 -0.7605 -0.3224  0.9452
  915MPD2     C13392   0.828   1.129  15.506 -0.1497  0.9828 -0.0409
  915MPD2    C113393   0.748   1.035  15.565  0.1226 -0.8916 -0.4612
  915MPD2    C213394   0.686   1.078  15.684  0.6256 -0.6261 -0.2127
  915MPD2    C313395   0.711   1.196  15.741 -0.7140 -0.4559 -0.3926
  915MPD2    C413396   0.806   1.282  15.693  0.3141 -0.2411  0.2877
  915MPD2    C513397   0.860   1.246  15.568 -0.8255  0.7072 -0.3562
  915MPD2     H13398   0.613   1.012  15.728 -0.6370 -0.2478 -1.7325
  915MPD2    H113399   0.830   1.374  15.745  1.0315 -0.2788  0.0153
  915MPD2    H213400   0.868   1.121  15.406  0.1007 -1.1267  0.2400
  915MPD2    H313401   0.925   1.317  15.519  1.1471 -0.7298  0.1856
  915MPD2     N13402   0.657   1.232  15.869  0.1184 -0.6119 -0.3910
  915MPD2    H513403   0.668   1.330  15.894 -0.8870 -0.9424  1.3367
  915MPD2    N113404   0.715   0.910  15.497 -0.9623  0.0090  0.0789
  915MPD2    H713405   0.774   0.886  15.418  1.1573  2.4683  0.9028
  916MPD2     C13406   3.290   4.060  15.465  0.3949 -0.1913  0.8469
  916MPD2    C113407   3.358   3.975  15.558  0.2081 -1.0579 -0.1333
  916MPD2    C213408   3.371   3.847  15.514 -0.4088 -0.2407 -0.0587
  916MPD2    C313409   3.343   3.793  15.392  0.3495 -0.1045 -0.4834
  916MPD2    C413410   3.289   3.880  15.301  0.1124  0.5442  0.8147
  916MPD2    C513411   3.262   4.005  15.339 -0.5907 -0.0624 -0.4583
  916MPD2     H13412   3.417   3.780  15.585 -2.4693 -1.0389  0.5150
  916MPD2    H113413   3.259   3.850  15.201  1.5527 -1.0422  0.8676
  916MPD2    H213414   3.265   4.157  15.504 -0.1334  0.0415 -0.0819
  916MPD2    H313415   3.211   4.070  15.268 -0.8045  0.8316  0.5114
  916MPD2     N13416   3.345   3.651  15.374 -0.0335 -0.2963 -0.1968
  916MPD2    H513417   3.394   3.592  15.440 -0.7144 -0.4786  0.1541
  916MPD2    N113418   3.390   4.031  15.680  0.3408  0.5067 -0.5491
  916MPD2    H713419   3.369   4.129  15.693  1.5619  0.5758  0.9081
  917MPD2     C13420   3.668   1.042  11.012 -0.2734 -1.0922  0.9013
  917MPD2    C113421   3.737   1.095  11.120 -0.0632  0.3766 -0.2942
  917MPD2    C213422   3.850   1.176  11.089  0.3167 -0.0900  0.6563
  917MPD2    C313423   3.870   1.215  10.960 -0.1003 -0.2798  0.3772
  917MPD2    C413424   3.790   1.172  10.860  0.2485 -0.6833  0.5103
  917MPD2    C513425   3.689   1.088  10.885  0.1307 -0.6526  0.6765
  917MPD2     H13426   3.918   1.216  11.164 -0.4621 -0.4560  1.5518
  917MPD2    H113427   3.791   1.208  10.758  1.7693 -0.8222  0.4821
  917MPD2    H213428   3.593   0.966  11.029 -0.6608 -1.3105 -1.7707
  917MPD2    H313429   3.623   1.054  10.806 -0.6655  0.1308  1.0017
  917MPD2     N13430   3.964   1.320  10.938 -0.5802  0.0647  0.2413
  917MPD2    H513431   4.026   1.347  11.013  0.1085  1.0569 -0.6787
  917MPD2    N113432   3.698   1.072  11.256  0.2413 -1.0124  0.5739
  917MPD2    H713433   3.616   1.018  11.282 -1.4568  0.9660 -0.6457
  918MPD2     C13434   4.011   1.742  11.842 -0.5049 -0.3106  0.0738
  918MPD2    C113435   4.067   1.618  11.874  0.2890 -0.7110 -0.4732
  918MPD2    C213436   3.992   1.503  11.851  0.1274 -0.4376  0.4786
  918MPD2    C313437   3.857   1.512  11.811  0.7237 -0.5107 -0.1065
  918MPD2    C413438   3.800   1.636  11.784 -0.0640 -0.5779  0.1028
  918MPD2    C513439   3.877   1.753  11.806 -0.5791  0.6103  0.4106
  918MPD2     H13440   4.029   1.402  11.859 -0.1451 -0.4117  2.0275
  918MPD2    H113441   3.703   1.656  11.739  0.5073  0.3688 -0.7305
  918MPD2    H213442   4.077   1.828  11.850 -1.8631  0.6576  0.7443
  918MPD2    H313443   3.839   1.851  11.781 -0.6455  0.1891 -1.1275
  918MPD2     N13444   3.794   1.393  11.785  0.2713  0.0409 -0.2039
  918MPD2    H513445   3.850   1.310  11.800  0.8367 -0.0316 -2.6899
  918MPD2    N113446   4.209   1.607  11.906  0.4963  0.5091 -0.3572
  918MPD2    H713447   4.236   1.511  11.925  3.0333  0.9391 -1.8385
  919MPD2     C13448   4.306   0.546  11.487 -0.5527 -0.4576 -0.3011
  919MPD2    C113449   4.253   0.423  11.455  0.1666 -0.5435 -0.2983
  919MPD2    C213450   4.206   0.403  11.334 -0.5771  0.9892  0.5414
  919MPD2    C313451   4.213   0.498  11.236 -0.3606  0.0491  0.6121
  919MPD2    C413452   4.269   0.623  11.266  0.6170 -0.4936  0.0413
  919MPD2    C513453   4.315   0.648  11.392 -0.2152 -0.8136 -0.3017
  919MPD2     H13454   4.160   0.306  11.320  0.4577  0.6912 -0.7231
  919MPD2    H113455   4.274   0.698  11.187  0.4327 -0.5079  0.0161
  919MPD2    H213456   4.348   0.558  11.586 -2.2636 -0.1299  0.3775
  919MPD2    H313457   4.347   0.748  11.417 -0.0185 -0.9861  0.1448
  919MPD2     N13458   4.156   0.482  11.102 -0.5085  0.3470  0.3317
  919MPD2    H513459   4.144   0.565  11.045  2.4583 -1.4445 -2.8959
  919MPD2    N113460   4.239   0.318  11.547  0.4726  0.9553 -0.0243
  919MPD2    H713461   4.181   0.241  11.515  1.0976  1.1690 -1.6596
  920MPD2     C13462   4.149   0.916  10.229  0.5997 -0.1710 -0.5236
  920MPD2    C113463   4.023   0.867  10.242  0.2445 -0.0870 -0.1366
  920MPD2    C213464   3.990   0.777  10.347  0.0069  0.3099  0.6949
  920MPD2    C313465   4.083   0.739  10.435 -0.4800  0.3283  0.1403
  920MPD2    C413466   4.208   0.804  10.425 -0.2006 -0.0203 -0.6038
  920MPD2    C513467   4.242   0.890  10.325  0.3972 -0.4687  0.0851
  920MPD2     H13468   3.891   0.733  10.349  0.2819 -0.2741  1.6381
  920MPD2    H113469   4.279   0.782  10.504  0.0343  2.5803 -0.1006
  920MPD2    H213470   4.183   0.983  10.151 -1.3187  1.2150 -0.1600
  920MPD2    H313471   4.344   0.927  10.324  0.0258  0.5280 -0.6842
  920MPD2     N13472   4.051   0.648  10.537  0.5649 -0.2667 -0.2720
  920MPD2    H513473   3.956   0.614  10.537  0.9043 -1.2320 -0.6614
  920MPD2    N113474   3.916   0.903  10.152  0.0556  0.8136  0.0494
  920MPD2    H713475   3.826   0.857  10.157  0.1362  0.7341  0.7660
  921MPD2     C13476   0.475   4.328  16.857  0.3820 -0.3681 -0.1289
  921MPD2    C113477   0.461   4.259  16.734 -0.9718 -0.5774  0.4797
  921MPD2    C213478   0.340   4.231  16.684  0.3836  0.5835 -0.0183
  921MPD2    C313479   0.225   4.281  16.739 -0.6506 -0.1643  0.1781
  921MPD2    C413480   0.237   4.347  16.858 -0.0695 -0.2170 -0.3038
  921MPD2    C513481   0.359   4.369  16.916 -0.0291  0.8429  0.7206
  921MPD2     H13482   0.344   4.157  16.605 -1.5242  0.5589 -0.0878
  921MPD2    H113483   0.156   4.400  16.907  2.3506  1.9231  1.3785
  921MPD2    H213484   0.572   4.339  16.904  0.1718  1.0687 -0.0332
  921MPD2    H313485   0.365   4.412  17.015 -0.6669  0.4778  0.9120
  921MPD2     N13486   0.097   4.245  16.688 -0.1309  0.4347 -0.4237
  921MPD2    H513487   0.019   4.267  16.750 -0.5872  0.2737 -0.9319
  921MPD2    N113488   0.573   4.200  16.669  0.2948 -0.2159 -0.3594
  921MPD2    H713489   0.563   4.125  16.602 -1.6086 -1.4044  1.2447
  922MPD2     C13490   1.436   1.680  17.114  0.2100 -0.1695 -0.2801
  922MPD2    C113491   1.412   1.751  17.000 -0.3789  0.4007 -0.5451
  922MPD2    C213492   1.295   1.818  16.984  0.2407  0.7915  0.4857
  922MPD2    C313493   1.196   1.807  17.076 -0.5154  0.1769  0.2618
  922MPD2    C413494   1.222   1.745  17.197  0.1627 -0.4542  0.2209
  922MPD2    C513495   1.344   1.681  17.213 -0.7356  0.0939 -0.7465
  922MPD2     H13496   1.279   1.868  16.889  0.3024 -0.9675 -0.4464
  922MPD2    H113497   1.145   1.718  17.268 -0.6568  0.3228 -0.3729
  922MPD2    H213498   1.532   1.636  17.136 -0.1711 -0.8484  0.0133
  922MPD2    H313499   1.360   1.610  17.293 -3.3788 -0.0412 -0.3075
  922MPD2     N13500   1.073   1.875  17.049  0.1754 -0.4661  0.1689
  922MPD2    H513501   1.059   1.909  16.954 -0.3897 -2.2929 -0.3967
  922MPD2    N113502   1.515   1.778  16.905 -0.3480 -0.6034  0.2837
  922MPD2    H713503   1.496   1.858  16.846  1.5227 -0.9201 -0.7543
  923MPD2     C13504   2.389   3.392   9.207 -0.6558 -0.1584 -0.2720
  923MPD2    C113505   2.343   3.517   9.234  0.0033 -0.1135 -0.0023
  923MPD2    C213506   2.392   3.589   9.342 -0.3610 -0.5861 -0.2010
  923MPD2    C313507   2.473   3.528   9.430 -0.3747  0.0035 -0.7806
  923MPD2    C413508   2.527   3.404   9.405 -0.2817  0.1468  0.5800
  923MPD2    C513509   2.485   3.339   9.289  0.1242  0.0329  0.0091
  923MPD2     H13510   2.343   3.681   9.373  3.6479  1.1843  0.9136
  923MPD2    H113511   2.610   3.368   9.466  0.4421 -0.9539 -1.0301
  923MPD2    H213512   2.370   3.344   9.113  1.2696  0.7523 -1.1322
  923MPD2    H313513   2.536   3.250   9.254 -0.2294 -0.0736 -0.2289
  923MPD2     N13514   2.520   3.597   9.543  0.0143  0.3824  0.9464
  923MPD2    H513515   2.576   3.545   9.610  0.6503 -2.1446 -1.5859
  923MPD2    N113516   2.231   3.543   9.155 -0.0454  0.4259 -0.6741
  923MPD2    H713517   2.206   3.472   9.087 -2.0644  0.9264 -0.4791
  924MPD2     C13518   3.089   2.620  15.779 -0.0893  0.1217 -0.2543
  924MPD2    C113519   3.035   2.649  15.903  0.4003 -0.1134  0.2825
  924MPD2    C213520   3.016   2.779  15.937 -0.0455 -0.8815  0.5606
  924MPD2    C313521   3.049   2.881  15.846 -0.3660 -0.5098  0.8313
  924MPD2    C413522   3.096   2.846  15.723  0.3068  0.2955  0.1865
  924MPD2    C513523   3.118   2.718  15.687 -0.5410 -0.0112  0.1511
  924MPD2     H13524   2.959   2.807  16.025 -1.0757 -0.1393 -0.3510
  924MPD2    H113525   3.115   2.916  15.643  2.4633 -1.5649 -0.9233
  924MPD2    H213526   3.104   2.518  15.747  2.3245  0.3339  0.2384
  924MPD2    H313527   3.159   2.693  15.590 -2.0325  2.8462 -1.2178
  924MPD2     N13528   3.006   3.016  15.865  1.0008 -0.4325 -0.2222
  924MPD2    H513529   3.004   3.081  15.787 -0.8992  1.8494  1.7135
  924MPD2    N113530   2.971   2.550  15.976 -0.2421 -0.2312  0.4884
  924MPD2    H713531   2.956   2.468  15.918 -1.5710 -1.6394  2.8208
  925MPD2     C13532   1.431   0.510  14.858  0.5544  0.2916  0.2879
  925MPD2    C113533   1.350   0.408  14.829  0.6014  0.8669 -0.3614
  925MPD2    C213534   1.295   0.326  14.921 -0.2435 -0.0858 -0.3185
  925MPD2    C313535   1.330   0.355  15.055 -0.5645 -0.1689  0.3474
  925MPD2    C413536   1.419   0.455  15.092  0.3880  0.3183 -0.4177
  925MPD2    C513537   1.467   0.535  14.991  0.1250  0.1378  0.7878
  925MPD2     H13538   1.227   0.246  14.897 -0.8336 -0.1067  1.4218
  925MPD2    H113539   1.456   0.455  15.193  0.4145 -1.7279 -0.4357
  925MPD2    H213540   1.481   0.569  14.781  0.3254 -1.4169 -1.1708
  925MPD2    H313541   1.535   0.618  15.010 -1.7658  1.4361  1.9109
  925MPD2     N13542   1.289   0.283  15.169  0.1281  0.6053  0.1843
  925MPD2    H513543   1.327   0.319  15.256  0.1021  1.1304 -0.0231
  925MPD2    N113544   1.300   0.387  14.701  0.0918  0.7057  0.1792
  925MPD2    H713545   1.222   0.324  14.685  0.4664  0.4981 -0.8183
  926MPD2     C13546   0.127   3.284  13.688 -0.7541 -0.0177 -0.3713
  926MPD2    C113547   0.021   3.354  13.625 -0.1099 -0.0955 -0.0590
  926MPD2    C213548   0.048   3.422  13.507  0.0413 -0.1353 -0.2827
  926MPD2    C313549   0.175   3.444  13.460  0.1641 -0.7381 -0.1319
  926MPD2    C413550   0.278   3.378  13.524  0.2523  0.5802  0.1414
  926MPD2    C513551   0.258   3.302  13.639 -0.1803  0.3551 -0.3810
  926MPD2     H13552   4.686   3.468  13.456 -0.5504 -1.8310 -0.8279
  926MPD2    H113553   0.378   3.394  13.486  0.5648  0.3414  0.8579
  926MPD2    H213554   0.109   3.230  13.781  0.4840 -2.2497 -1.4395
  926MPD2    H313555   0.343   3.247  13.677 -1.5547 -0.9870  0.7644
  926MPD2     N13556   0.220   3.526  13.352  0.3277 -0.3982  0.3568
  926MPD2    H513557   0.319   3.532  13.334  0.3178 -1.7329 -0.1366
  926MPD2    N113558   4.612   3.347  13.682 -0.3286 -0.4179  0.1178
  926MPD2    H713559   4.536   3.380  13.623  0.8988  1.4549 -0.4454
  927MPD2     C13560   0.249   1.113   0.555  0.3222  0.2113  0.0284
  927MPD2    C113561   0.149   1.194   0.499  0.0386  0.2207 -0.2036
  927MPD2    C213562   0.134   1.197   0.357 -0.5480 -0.0370 -0.8279
  927MPD2    C313563   0.222   1.125   0.279  0.2342 -0.0975  0.5513
  927MPD2    C413564   0.329   1.056   0.346 -0.6589  0.2466 -0.5071
  927MPD2    C513565   0.348   1.057   0.480 -0.4412 -0.2799  0.4148
  927MPD2     H13566   0.054   1.257   0.316 -1.4343 -1.3584 -1.0468
  927MPD2    H113567   0.411   1.013   0.290 -0.2839  0.9625 -0.5077
  927MPD2    H213568   0.271   1.120   0.661  0.2974 -0.8071  0.0941
  927MPD2    H313569   0.441   1.013   0.515  0.5346  1.1439 -0.3545
  927MPD2     N13570   0.197   1.104   0.140  0.2282  0.4619 -0.5539
  927MPD2    H513571   0.120   1.156   0.100 -1.1150 -1.0922  0.0113
  927MPD2    N113572   0.061   1.259   0.600 -0.5325 -0.4656  0.7712
  927MPD2    H713573   0.086   1.248   0.698  0.8657  1.6187  0.6395
  928MPD2     C13574   2.471   3.347   0.680  0.1094  0.2015  0.8140
  928MPD2    C113575   2.540   3.447   0.742  0.1996  0.1990  0.6019
  928MPD2    C213576   2.611   3.542   0.664  0.7597 -0.3367  0.3718
  928MPD2    C313577   2.605   3.531   0.530  0.0570  0.1430 -0.3703
  928MPD2    C413578   2.536   3.423   0.474 -0.4860 -0.0555 -0.3131
  928MPD2    C513579   2.463   3.331   0.546 -0.4574  0.1888  0.2022
  928MPD2     H13580   2.659   3.626   0.714 -1.0838  0.5079  0.7313
  928MPD2    H113581   2.531   3.408   0.366 -1.6625 -0.2964 -0.2180
  928MPD2    H213582   2.410   3.294   0.752 -0.5961  2.0316  1.5591
  928MPD2    H313583   2.412   3.252   0.492  0.8560 -0.2661 -0.3833
  928MPD2     N13584   2.656   3.617   0.436  0.0565 -0.5422 -0.4705
  928MPD2    H513585   2.636   3.596   0.338  0.9078  2.2182 -1.2449
  928MPD2    N113586   2.525   3.455   0.884 -0.1498 -0.5325  0.3506
  928MPD2    H713587   2.472   3.385   0.935  0.4425 -0.8570  0.5233
  929MPD2     C13588   2.527   3.630  10.569  0.2534 -0.5175  0.2644
  929MPD2    C113589   2.392   3.617  10.580  0.4276 -0.3028  0.0349
  929MPD2    C213590   2.313   3.659  10.476  0.0627 -0.0722  0.0146
  929MPD2    C313591   2.367   3.715  10.361  0.3711  0.0196  0.1680
  929MPD2    C413592   2.508   3.720  10.355 -0.6780  0.3169 -0.4087
  929MPD2    C513593   2.589   3.673  10.450  0.3650  0.1186  0.2757
  929MPD2     H13594   2.206   3.658  10.495 -0.2282  2.3471 -1.5222
  929MPD2    H113595   2.565   3.740  10.265 -1.2989 -1.4070 -1.1864
  929MPD2    H213596   2.596   3.629  10.652  0.6913 -0.7449 -0.0994
  929MPD2    H313597   2.697   3.682  10.441  0.2559 -0.2080 -1.4576
  929MPD2     N13598   2.296   3.755  10.248 -0.3708  0.7829  0.5562
  929MPD2    H513599   2.352   3.802  10.178 -1.1865 -0.9107 -1.2475
  929MPD2    N113600   2.343   3.578  10.703 -0.5266  0.0164 -0.0699
  929MPD2    H713601   2.407   3.573  10.782 -1.6790  1.9738  0.9911
  930MPD2     C13602   4.462   1.040  13.681 -0.5458 -0.1986  0.0904
  930MPD2    C113603   4.370   1.142  13.672  0.4004  0.1874  0.5839
  930MPD2    C213604   4.285   1.155  13.565  0.2690 -0.9167 -0.3123
  930MPD2    C313605   4.295   1.064  13.464 -0.1065  0.6679 -0.1286
  930MPD2    C413606   4.375   0.956  13.478  0.0478 -0.1633 -0.0316
  930MPD2    C513607   4.462   0.941  13.583 -0.0540  0.8506  0.6037
  930MPD2     H13608   4.218   1.240  13.555  0.5883 -0.9669 -2.8394
  930MPD2    H113609   4.377   0.886  13.395  0.5346  0.6942 -0.7459
  930MPD2    H213610   4.519   1.028  13.772 -3.2105 -1.8924  1.5136
  930MPD2    H313611   4.528   0.855  13.591 -1.8005 -0.5452  0.1654
  930MPD2     N13612   4.235   1.074  13.342 -0.3151  0.0786 -0.7686
  930MPD2    H513613   4.262   1.023  13.258  3.9176 -1.4385  1.5361
  930MPD2    N113614   4.354   1.226  13.778 -0.9873  0.1550  0.7090
  930MPD2    H713615   4.416   1.217  13.858  1.1602 -0.2634 -0.9914
  931MPD2     C13616   4.287   1.265   1.298  0.0573  0.0400  0.0492
  931MPD2    C113617   4.333   1.186   1.200 -0.5384 -0.2646  0.0507
  931MPD2    C213618   4.325   1.054   1.213  0.5049  0.0073  0.6825
  931MPD2    C313619   4.292   0.999   1.339  0.3339 -0.8609  0.3394
  931MPD2    C413620   4.240   1.077   1.440 -0.3457 -1.1201  0.7272
  931MPD2    C513621   4.246   1.209   1.416 -0.5463  0.0466 -0.0657
  931MPD2     H13622   4.368   0.991   1.136  0.4008 -1.4971  1.8449
  931MPD2    H113623   4.197   1.036   1.530 -0.7142 -0.1714  0.9758
  931MPD2    H213624   4.293   1.373   1.293  1.9604 -0.0008  1.0632
  931MPD2    H313625   4.215   1.279   1.493 -1.2036 -1.7598  1.3201
  931MPD2     N13626   4.286   0.856   1.364  0.2681  0.6495 -0.4680
  931MPD2    H513627   4.245   0.832   1.454  0.8946 -1.1629 -0.6652
  931MPD2    N113628   4.379   1.254   1.084  0.4562  0.3126 -0.6689
  931MPD2    H713629   4.373   1.355   1.091  2.9245  0.6007 -2.4984
  932MPD2     C13630   1.251   4.411  11.321 -0.7229  0.0885  1.0053
  932MPD2    C113631   1.363   4.479  11.364  0.4095 -0.0173  0.7872
  932MPD2    C213632   1.455   4.405  11.437  0.0246 -0.5662 -0.4554
  932MPD2    C313633   1.438   4.270  11.461  0.1668 -0.0699  0.4141
  932MPD2    C413634   1.331   4.197  11.401 -0.9489 -0.0591  0.2389
  932MPD2    C513635   1.248   4.272  11.329  0.5101  0.4040  0.4695
  932MPD2     H13636   1.544   4.453  11.475  0.2111 -1.0228 -0.3212
  932MPD2    H113637   1.320   4.089  11.405 -1.5054  0.0253  0.8650
  932MPD2    H213638   1.166   4.461  11.277 -0.0039 -0.0638 -0.5669
  932MPD2    H313639   1.160   4.222  11.290 -0.2332  2.3103 -0.2884
  932MPD2     N13640   1.535   4.188  11.534  0.1538 -0.8745  0.0699
  932MPD2    H513641   1.505   4.093  11.551  0.2392 -1.0205 -0.5776
  932MPD2    N113642   1.388   4.619  11.355  1.1940 -0.0557 -0.1922
  932MPD2    H713643   1.473   4.657  11.395 -0.9194  2.9168  1.5012
  933MPD2     C13644   2.011   3.351   1.373  0.7419  0.7052  0.7375
  933MPD2    C113645   2.057   3.432   1.276 -0.5815 -0.3617  0.6974
  933MPD2    C213646   1.968   3.512   1.212  0.6461  0.3364  0.1928
  933MPD2    C313647   1.829   3.505   1.241  0.3794  0.7502 -0.3958
  933MPD2    C413648   1.783   3.415   1.335 -0.0263  0.0623  0.0483
  933MPD2    C513649   1.876   3.334   1.396  0.3671 -0.2124 -0.0789
  933MPD2     H13650   2.006   3.583   1.138 -1.0969  1.9626  0.8651
  933MPD2    H113651   1.677   3.406   1.352 -0.5882  2.5835 -2.0005
  933MPD2    H213652   2.082   3.304   1.440  1.0981  1.0543  0.6077
  933MPD2    H313653   1.852   3.249   1.459  1.5470 -0.7946 -0.4223
  933MPD2     N13654   1.753   3.605   1.178  0.5758 -0.9038  0.2814
  933MPD2    H513655   1.800   3.675   1.123  0.0595 -0.1997  0.7396
  933MPD2    N113656   2.198   3.455   1.259  0.5999  0.2880  0.1279
  933MPD2    H713657   2.229   3.516   1.184 -0.5085  1.2025  0.4086
  934MPD2     C13658   2.615   1.723   2.113  0.5346  0.7991 -0.8080
  934MPD2    C113659   2.738   1.686   2.059  0.2646 -0.4956 -0.7635
  934MPD2    C213660   2.738   1.627   1.932  0.0853  0.2843 -0.8280
  934MPD2    C313661   2.626   1.611   1.857  0.2472  0.4233  0.8248
  934MPD2    C413662   2.508   1.655   1.908 -0.0530  0.2442  0.6858
  934MPD2    C513663   2.502   1.719   2.033 -0.2202  0.3588 -0.2268
  934MPD2     H13664   2.830   1.584   1.897  0.5714 -0.3331  1.1730
  934MPD2    H113665   2.415   1.635   1.857  0.1144 -0.7475  0.7765
  934MPD2    H213666   2.607   1.771   2.210 -0.9953  1.4700 -1.2738
  934MPD2    H313667   2.403   1.749   2.064 -0.4223  0.3102 -0.8146
  934MPD2     N13668   2.623   1.548   1.731  0.5290  0.3239 -0.0805
  934MPD2    H513669   2.528   1.545   1.694  0.7240  1.7982 -0.7097
  934MPD2    N113670   2.856   1.681   2.137  0.8094 -0.4490  0.6424
  934MPD2    H713671   2.947   1.671   2.093  0.3965 -3.1156  0.4328
  935MPD2     C13672   3.198   0.819   1.298 -0.2464 -0.1414 -0.0396
  935MPD2    C113673   3.122   0.876   1.193 -0.5072 -0.1711  0.2169
  935MPD2    C213674   3.023   0.966   1.214 -0.4663  0.0056  0.6339
  935MPD2    C313675   2.997   1.004   1.348 -0.0064 -0.2846  0.9260
  935MPD2    C413676   3.073   0.950   1.453  0.6413  0.2139 -0.0165
  935MPD2    C513677   3.168   0.855   1.423 -0.0691  0.6782  0.0128
  935MPD2     H13678   2.976   1.019   1.133 -1.6064  0.2255  1.4345
  935MPD2    H113679   3.061   0.981   1.556 -1.6042 -0.8946  0.0400
  935MPD2    H213680   3.275   0.748   1.271  0.1525 -0.2776  1.4753
  935MPD2    H313681   3.222   0.808   1.505 -0.0935 -0.2802 -0.5250
  935MPD2     N13682   2.913   1.110   1.392 -0.0353 -0.2639 -0.0885
  935MPD2    H513683   2.905   1.121   1.492  0.9319  2.9483 -0.3692
  935MPD2    N113684   3.142   0.840   1.061  0.2732 -0.2335  0.4485
  935MPD2    H713685   3.071   0.873   0.996  0.1464 -0.6917  0.3589
  936MPD2     C13686   1.583   3.395  12.326  0.3213 -0.1118  1.0048
  936MPD2    C113687   1.595   3.423  12.460 -0.7424  0.4279  0.1583
  936MPD2    C213688   1.720   3.435  12.507  0.0239  0.1835 -0.1506
  936MPD2    C313689   1.832   3.439  12.426  0.3659  0.1366  0.8861
  936MPD2    C413690   1.811   3.414  12.290 -0.0423  0.2331 -0.4870
  936MPD2    C513691   1.690   3.404  12.240  0.8176 -0.0074  0.1032
  936MPD2     H13692   1.729   3.454  12.613 -0.3977 -1.0264  0.0919
  936MPD2    H113693   1.890   3.406  12.217 -0.0834  2.3506 -0.7748
  936MPD2    H213694   1.480   3.392  12.291 -0.0788  1.0714  2.0783
  936MPD2    H313695   1.681   3.392  12.133 -0.6612  1.8969  0.0205
  936MPD2     N13696   1.955   3.464  12.489 -0.4505  0.3055 -0.0641
  936MPD2    H513697   1.951   3.483  12.589  2.0317  0.8707 -0.0740
  936MPD2    N113698   1.489   3.439  12.553  0.6425 -0.1242  0.4549
  936MPD2    H713699   1.521   3.471  12.644  0.8455 -1.4063  0.8425
  937MPD2     C13700   4.329   4.345  11.468 -0.2545  0.3699  0.2153
  937MPD2    C113701   4.384   4.466  11.476 -0.0327  0.5213 -0.4476
  937MPD2    C213702   4.456   4.518  11.362 -0.0143  0.3737 -0.9255
  937MPD2    C313703   4.496   4.432  11.262  0.2059  0.6836  0.4122
  937MPD2    C413704   4.453   4.297  11.267 -0.2475 -0.4477  0.4977
  937MPD2    C513705   4.366   4.260  11.365  0.2555 -0.3555  0.0941
  937MPD2     H13706   4.492   4.620  11.362 -0.3433  0.4864  0.1254
  937MPD2    H113707   4.475   4.227  11.187 -1.1892 -1.0955  0.7977
  937MPD2    H213708   4.257   4.300  11.536 -1.3396 -0.4312 -1.4564
  937MPD2    H313709   4.322   4.161  11.367  1.1397 -0.7577 -0.3576
  937MPD2     N13710   4.589   4.475  11.161 -0.3400 -0.2615  0.3279
  937MPD2    H513711   4.609   4.575  11.160  0.7815 -0.4805  0.7654
  937MPD2    N113712   4.357   4.563  11.577  0.2691  0.1975 -0.4319
  937MPD2    H713713   4.401   4.654  11.566  0.5233  0.1703  0.3730
  938MPD2     C13714   2.270   1.033   0.268 -0.0388 -0.0372  0.4197
  938MPD2    C113715   2.295   1.098   0.393 -0.8268  0.7185 -0.2237
  938MPD2    C213716   2.273   1.036   0.512 -0.1682 -0.2442  0.2684
  938MPD2    C313717   2.237   0.902   0.509  0.6934  0.2293  0.2612
  938MPD2    C413718   2.219   0.838   0.386 -0.8940 -0.8053  0.1816
  938MPD2    C513719   2.238   0.901   0.269 -0.4375  0.3408 -0.6781
  938MPD2     H13720   2.294   1.087   0.605 -0.0793 -2.4131  1.4379
  938MPD2    H113721   2.183   0.736   0.372 -0.3038 -1.2410  1.8422
  938MPD2    H213722   2.281   1.070   0.167 -3.3462  4.1516  1.6229
  938MPD2    H313723   2.232   0.847   0.174  2.8362 -1.2267  0.0244
  938MPD2     N13724   2.218   0.825   0.626  0.0565 -0.1437 -0.4047
  938MPD2    H513725   2.189   0.728   0.612  0.2312 -0.3182  0.4361
  938MPD2    N113726   2.323   1.233   0.397  0.0542  0.0013 -0.2798
  938MPD2    H713727   2.341   1.277   0.486 -0.4437 -3.5982  1.6058
  939MPD2     C13728   3.320   1.776   0.895  0.4475 -0.5755  0.6885
  939MPD2    C113729   3.278   1.903   0.891 -0.7082  0.2551  0.0052
  939MPD2    C213730   3.289   1.972   0.767  0.2199 -0.2265  0.3633
  939MPD2    C313731   3.323   1.917   0.646  0.4765 -0.4292  0.1979
  939MPD2    C413732   3.365   1.782   0.649  0.5615 -1.0966 -0.0977
  939MPD2    C513733   3.363   1.717   0.773  0.8090 -0.0086 -0.0374
  939MPD2     H13734   3.268   2.079   0.766  1.8977  0.1016 -0.6439
  939MPD2    H113735   3.381   1.723   0.560 -0.9829  0.2009 -1.2216
  939MPD2    H213736   3.335   1.722   0.988 -0.3460 -1.1404  0.4864
  939MPD2    H313737   3.389   1.614   0.792 -1.5986 -0.4130  1.0815
  939MPD2     N13738   3.314   1.991   0.523  0.3511  0.3286  0.9211
  939MPD2    H513739   3.293   2.090   0.532  1.0023  0.4351  1.2936
  939MPD2    N113740   3.231   1.972   1.005  0.2586 -0.5421 -0.3799
  939MPD2    H713741   3.246   2.072   1.006  0.1962 -0.5418  0.3941
  940MPD2     C13742   2.835   3.062  12.608 -0.4997 -0.4933  0.3400
  940MPD2    C113743   2.722   3.115  12.536  0.5975  0.0086  0.2048
  940MPD2    C213744   2.681   3.041  12.431  0.3134 -0.1295 -0.6749
  940MPD2    C313745   2.746   2.921  12.386  0.3062 -0.5127  0.0438
  940MPD2    C413746   2.857   2.879  12.455 -0.1803  0.0198 -0.3444
  940MPD2    C513747   2.901   2.951  12.558 -1.2446  0.4297  0.9286
  940MPD2     H13748   2.591   3.071  12.380  2.0756  2.9595 -1.9529
  940MPD2    H113749   2.912   2.788  12.434 -1.0958 -1.0482  1.8463
  940MPD2    H213750   2.855   3.117  12.699 -0.4886  0.8231 -0.4574
  940MPD2    H313751   2.989   2.921  12.615 -0.8905  0.1108  0.2109
  940MPD2     N13752   2.694   2.850  12.282  0.0205  0.4201 -0.2187
  940MPD2    H513753   2.610   2.890  12.240  1.0719  1.7200 -1.1063
  940MPD2    N113754   2.641   3.222  12.579  0.2532 -0.2317  0.7644
  940MPD2    H713755   2.541   3.215  12.563 -0.0466  0.3006  2.3514
  941MPD2     C13756   1.619   1.524   9.751 -0.3230 -0.3732 -0.1248
  941MPD2    C113757   1.730   1.532   9.839 -0.1786  0.6141 -0.0741
  941MPD2    C213758   1.721   1.512   9.976 -0.2084  0.1558 -0.2087
  941MPD2    C313759   1.594   1.475  10.027 -0.4661 -0.0730 -0.6098
  941MPD2    C413760   1.491   1.458   9.938  0.1615 -0.0937  0.7840
  941MPD2    C513761   1.504   1.472   9.802  0.0503 -0.0546  0.5791
  941MPD2     H13762   1.812   1.524  10.033  1.5979  1.7353 -3.3570
  941MPD2    H113763   1.392   1.437   9.978  1.5456 -3.0755  2.5844
  941MPD2    H213764   1.617   1.550   9.646  1.7507 -0.8556 -0.2750
  941MPD2    H313765   1.420   1.457   9.735  0.1010  0.9092  0.3016
  941MPD2     N13766   1.563   1.464  10.162 -0.2370 -0.1202 -0.0019
  941MPD2    H513767   1.471   1.428  10.186  1.1732 -4.2031 -0.7420
  941MPD2    N113768   1.856   1.583   9.792  0.4386 -0.0018  0.0328
  941MPD2    H713769   1.935   1.575   9.856  1.3225  1.3856 -0.8631
  942MPD2     C13770   1.473   3.366   9.178  0.3215  0.3430  1.2414
  942MPD2    C113771   1.582   3.293   9.211  0.4275 -0.9596 -0.5103
  942MPD2    C213772   1.687   3.361   9.270  0.1103 -0.3564  0.1605
  942MPD2    C313773   1.671   3.496   9.311 -0.2753  1.0883  0.0624
  942MPD2    C413774   1.562   3.560   9.277  0.0507  0.2324 -0.4583
  942MPD2    C513775   1.464   3.495   9.205  0.2944  0.0432  0.2796
  942MPD2     H13776   1.780   3.308   9.285  0.3831 -0.0455 -0.4461
  942MPD2    H113777   1.557   3.668   9.289 -0.7163  0.1637 -0.1155
  942MPD2    H213778   1.389   3.327   9.121  1.5019 -2.1542  1.2175
  942MPD2    H313779   1.373   3.551   9.188 -1.3098 -1.8672  2.5167
  942MPD2     N13780   1.764   3.576   9.376  0.5560  0.4650  0.1264
  942MPD2    H513781   1.726   3.667   9.399  0.0416  0.1707  0.4320
  942MPD2    N113782   1.603   3.158   9.172 -0.3479 -0.2071  0.0141
  942MPD2    H713783   1.690   3.120   9.209 -0.0314 -1.7056 -2.2092
  943MPD2     C13784   4.136   1.626   9.062  0.3305  0.0160 -0.0512
  943MPD2    C113785   4.236   1.581   9.146 -0.6173 -0.2858  0.0522
  943MPD2    C213786   4.344   1.671   9.170 -0.7437  0.1787 -0.8495
  943MPD2    C313787   4.358   1.796   9.116 -0.1301  0.0327  0.0800
  943MPD2    C413788   4.253   1.833   9.027  0.2032  0.5860 -0.2446
  943MPD2    C513789   4.148   1.750   9.008 -0.5243 -0.4779 -0.4639
  943MPD2     H13790   4.427   1.628   9.226 -0.4654  0.7251 -0.8466
  943MPD2    H113791   4.245   1.929   8.976  2.0037 -0.1106 -1.8175
  943MPD2    H213792   4.052   1.560   9.042 -0.6272  0.8021  1.4257
  943MPD2    H313793   4.070   1.791   8.946  2.5901  3.0744 -2.0765
  943MPD2     N13794   4.463   1.872   9.171  0.6417  0.1249  0.5698
  943MPD2    H513795   4.519   1.824   9.241 -0.0217 -0.7728  0.4833
  943MPD2    N113796   4.233   1.449   9.196 -0.6576  0.2628  0.0368
  943MPD2    H713797   4.157   1.391   9.162 -1.1800  1.9533 -1.6807
  944MPD2     C13798   0.200   0.833  10.760 -0.2055 -0.6283 -0.4974
  944MPD2    C113799   0.303   0.914  10.800 -0.0891 -0.1792  0.3099
  944MPD2    C213800   0.345   0.914  10.930  0.5182  0.0987 -0.2453
  944MPD2    C313801   0.278   0.847  11.029  0.5452 -0.2102 -0.2808
  944MPD2    C413802   0.181   0.755  10.993  0.4714 -0.2774  0.3854
  944MPD2    C513803   0.148   0.750  10.855 -0.1691 -0.4958  0.3967
  944MPD2     H13804   0.427   0.971  10.975 -0.3089  0.3062  1.0004
  944MPD2    H113805   0.137   0.680  11.057  0.9694 -0.5617  0.4014
  944MPD2    H213806   0.173   0.829  10.655 -2.4727 -1.0426  0.1150
  944MPD2    H313807   0.064   0.685  10.833 -0.4318 -0.6495  1.8669
  944MPD2     N13808   0.322   0.858  11.169  0.1317 -0.2752  0.0058
  944MPD2    H513809   0.391   0.931  11.188 -0.1667 -0.3461  1.3544
  944MPD2    N113810   0.365   0.995  10.705 -0.3331  0.7239  0.3265
  944MPD2    H713811   0.329   0.991  10.611  1.8530 -1.4866 -0.4427
    1TCq1    O113812   3.093   2.207  14.005  0.1321 -0.1090  0.1348
    1TCq1    C113813   3.187   2.118  14.048 -0.2529 -1.1019 -0.1343
    1TCq1    O213814   3.278   2.078  13.976  0.7180 -0.9247 -0.3065
    1TCq1    C213815   3.201   2.112  14.192 -0.2547  0.2150 -0.2766
    1TCq1    C313816   3.263   2.000  14.239 -0.1925  0.1782  0.5404
    1TCq1    C413817   3.285   1.994  14.375 -0.1458  0.3302 -0.1635
    1TCq1    C513818   3.242   2.093  14.461  0.4611  0.4566  0.9241
    1TCq1    C613819   3.174   2.202  14.409  0.5464 -0.0297  0.1502
    1TCq1    C713820   3.158   2.218  14.274  0.4887  0.8338  0.3252
    1TCq1    C813821   3.149   2.316  14.506  0.0331 -0.0686 -0.1178
    1TCq1    O413822   3.184   2.305  14.623  0.0176  0.1669 -0.0644
    1TCq1    C913823   3.359   1.886  14.429  0.2592 -0.2808  1.1736
    1TCq1    O513824   3.359   1.877  14.558 -0.1190  0.3923  0.1314
    1TCq1    O613825   3.434   1.822  14.350  0.0236 -0.0493  0.4176
    1TCq1    H113826   3.048   2.260  14.075 -0.4895  0.3883 -0.6436
    1TCq1    H213827   3.303   1.930  14.167  0.9936 -1.4972  2.7847
    1TCq1    H313828   3.269   2.086  14.566  0.2872  1.1947  1.0165
    1TCq1    H413829   3.136   2.317  14.235 -0.4810  0.9632  1.1985
    2MPD2     C13830   3.126   2.822  14.591  0.1680  0.3345  0.1583
    2MPD2    C113831   3.106   2.795  14.456 -0.1147  0.5087  0.2752
    2MPD2    C213832   3.083   2.669  14.412  0.0304 -0.1082 -0.0843
    2MPD2    C313833   3.100   2.564  14.497  0.1817 -0.0415 -0.5038
    2MPD2    C413834   3.125   2.585  14.628 -0.5400  0.5489 -0.0631
    2MPD2    C513835   3.130   2.716  14.675 -0.1192 -0.2184 -0.2327
    2MPD2     H13836   3.077   2.644  14.307  1.0210  1.2835 -0.4689
    2MPD2    H113837   3.151   2.501  14.693 -0.8234  1.6968  1.5405
    2MPD2    H213838   3.145   2.924  14.622  0.6935  0.4947 -0.7038
    2MPD2    H313839   3.141   2.738  14.781 -1.9116  0.0168 -0.0931
    2MPD2     N13840   3.102   2.431  14.441 -0.0009 -0.4567 -0.3253
    2MPD2    H513841   3.076   2.428  14.343  1.4190 -1.6994 -0.6562
    2MPD2    N113842   3.137   2.905  14.370 -0.4864  0.3562 -0.2115
    2MPD2    H713843   3.173   2.988  14.417 -0.3093 -0.2166  0.6532
    3TMC2    C113844   3.184   3.017  14.167 -0.2344  0.3436 -0.8353
    3TMC2    C213845   3.249   3.116  14.237 -0.2708  0.1050 -0.7286
    3TMC2    C313846   3.266   3.230  14.162  0.0449  0.1787  0.5549
    3TMC2    C413847   3.150   3.032  14.038  0.1308  0.0042  0.2565
    3TMC2    C513848   3.179   3.145  13.964 -0.3246  1.0649 -0.0365
    3TMC2    C613849   3.241   3.251  14.028  0.0842  0.3503  0.6992
    3TMC2     C13850   3.126   2.906  14.234  0.0470 -0.0456 -0.1227
    3TMC2     O13851   3.076   2.820  14.163 -0.7501  0.5390  0.5031
    3TMC2     H13852   3.257   3.128  14.344  2.4089 -1.1355 -0.7839
    3TMC2    H113853   3.075   2.964  13.998  1.5816 -0.4610 -1.6785
    3TMC2    H213854   3.245   3.355  13.998 -2.8292  0.7463  1.7128
    3TMC2    C713855   3.121   3.163  13.838  0.3346  0.4276 -0.2666
    3TMC2    C813856   3.306   3.354  14.228  0.3783 -0.0024  0.3818
    3TMC2    O113857   3.043   3.079  13.797  0.5363 -0.0512 -0.7301
    3TMC2    O213858   3.299   3.469  14.187  0.0391 -0.2696  0.1439
    3TMC2    O513859   3.391   3.325  14.330  0.5801 -0.0052  0.1112
    3TMC2    H513860   3.423   3.234  14.350 -2.9728 -0.9034  1.7429
    4MPD2     C13861   2.435   4.160  13.610 -0.3526 -0.0511  0.0036
    4MPD2    C113862   2.452   4.124  13.481  0.1390 -0.9598 -0.1866
    4MPD2    C213863   2.580   4.114  13.429  0.0705 -0.0897  0.4891
    4MPD2    C313864   2.687   4.118  13.518  0.2832  0.2363 -0.5761
    4MPD2    C413865   2.670   4.158  13.646  0.0549  0.2354  0.7393
    4MPD2    C513866   2.545   4.193  13.686  0.0493 -0.0968  0.3361
    4MPD2     H13867   2.596   4.082  13.326 -0.8415 -0.9340  0.6101
    4MPD2    H113868   2.750   4.147  13.719  1.4167 -1.5870 -1.0453
    4MPD2    H213869   2.335   4.175  13.651 -0.3190  3.3509 -1.1461
    4MPD2    H313870   2.538   4.215  13.792 -1.4432 -0.3942  0.3031
    4MPD2     N13871   2.817   4.092  13.463  0.3713 -0.0774  0.7146
    4MPD2    H513872   2.820   4.047  13.372  0.7437  0.5304  0.4221
    4MPD2    N113873   2.330   4.125  13.401  0.4133  0.0457  0.1907
    4MPD2    H713874   2.248   4.135  13.460  1.0667 -1.0807  1.3078
    5TCq2    C113875   2.938   4.117  13.529 -0.0174 -0.5672  0.0515
    5TCq2    O213876   2.961   4.166  13.642  0.1817 -0.5975 -0.0468
    5TCq2    C213877   3.045   4.051  13.467 -0.4215  0.4744 -0.1015
    5TCq2    C313878   3.150   4.126  13.425  0.1123 -0.1833  0.2380
    5TCq2    C413879   3.275   4.066  13.417  0.2497 -0.1392  0.8734
    5TCq2    C513880   3.290   3.937  13.467 -0.0241 -0.1290  0.0418
    5TCq2    C613881   3.183   3.866  13.509 -0.7432 -0.0264  0.2262
    5TCq2    C713882   3.057   3.923  13.514 -0.3592  0.0745  0.1810
    5TCq2    C813883   3.197   3.735  13.557  0.1528  0.0641  0.4867
    5TCq2    O413884   3.299   3.708  13.624  0.3722  1.1229 -0.1106
    5TCq2    C913885   3.383   4.137  13.350 -0.1901 -0.1435 -0.2898
    5TCq2    O513886   3.359   4.247  13.298  0.3473 -0.1120 -0.2885
    5TCq2    O613887   3.476   4.062  13.316  0.0579 -0.1175 -0.3530
    5TCq2    H213888   3.132   4.231  13.402  3.3165  0.2546 -0.3527
    5TCq2    H313889   3.381   3.879  13.453  0.5834  0.7443  0.4081
    5TCq2    H413890   2.972   3.888  13.571  0.2682 -1.5020  0.1518
    6MPD1     C13891   1.162   0.726  13.677 -0.0679 -0.0889 -1.0110
    6MPD1    C113892   1.246   0.764  13.570  0.0943 -0.2001  0.8781
    6MPD1    C213893   1.349   0.681  13.528 -0.3241 -0.6667  0.2465
    6MPD1    C313894   1.360   0.551  13.569  0.5958 -0.0877  0.1590
    6MPD1    C413895   1.288   0.522  13.682 -0.3815 -0.0747  0.1853
    6MPD1    C513896   1.188   0.602  13.733  0.3839 -0.6219 -0.3735
    6MPD1     H13897   1.411   0.719  13.448  1.3315  2.1065  2.8390
    6MPD1    H113898   1.311   0.427  13.730 -0.7203 -0.9263 -1.3046
    6MPD1    H213899   1.083   0.786  13.721 -0.2685 -0.5898 -0.6846
    6MPD1    H313900   1.132   0.584  13.825 -0.2405 -1.6325 -0.9471
    6MPD1     N13901   1.453   0.457  13.530  0.1277 -0.2369 -0.1534
    6MPD1    H513902   1.462   0.377  13.592  1.0850  0.0110  0.0227
    6MPD1    N113903   1.235   0.896  13.523  0.2339 -0.0967 -0.4379
    6MPD1    H613904   1.142   0.931  13.543  0.6519 -0.7153  2.4825
    6MPD1    H713905   1.257   0.902  13.424  0.4381  1.1278 -0.3248
    7MPD2     C13906   1.648   4.696  13.441 -0.8046  0.3965  0.3080
    7MPD2    C113907   1.764   4.664  13.495  0.4622 -0.1716 -0.0750
    7MPD2    C213908   1.827   4.549  13.452  0.1985 -0.0079 -0.2072
    7MPD2    C313909   1.774   4.473  13.350  0.8221  0.2019 -0.2476
    7MPD2    C413910   1.664   4.527  13.287  0.0676 -0.0768 -0.1551
    7MPD2    C513911   1.589   4.622  13.342  0.1457  0.4553  0.3481
    7MPD2     H13912   1.920   4.518  13.499  1.0316  0.5273 -1.5210
    7MPD2    H113913   1.621   4.468  13.207  2.4265 -0.4287 -1.1640
    7MPD2    H213914   1.587   0.056  13.476 -0.6853  0.5315  0.1964
    7MPD2    H313915   1.494   4.660  13.306  0.7302  0.5190 -1.1596
    7MPD2     N13916   1.827   4.353  13.301 -0.1398 -0.0981 -0.7975
    7MPD2    H513917   1.782   4.317  13.218 -1.2262  0.7808 -0.5871
    7MPD2    N113918   1.827   0.013  13.603 -0.5140  0.6124 -0.2297
    7MPD2    H713919   1.889   4.680  13.662 -0.3225 -0.5664 -1.5416
    8TMC3    C113920   1.960   4.170  13.268  0.5271  0.5922  0.4146
    8TMC3    C213921   2.079   4.118  13.315 -0.5055  0.1363  0.3918
    8TMC3    C313922   2.181   4.120  13.225  0.5954 -0.6478 -1.0880
    8TMC3    C413923   1.937   4.199  13.140 -0.3238  0.0389 -0.3107
    8TMC3    C513924   2.044   4.190  13.053  0.2242 -0.1556  0.1647
    8TMC3    C613925   2.165   4.168  13.099  0.2238  0.2874 -0.1493
    8TMC3     C13926   1.916   4.272  13.360  0.1755 -0.2050 -0.8292
    8TMC3     O13927   1.986   4.298  13.455 -0.2856  0.3965 -0.0852
    8TMC3     H13928   2.091   4.094  13.420  0.6740 -0.5995  0.0821
    8TMC3    H113929   1.836   4.215  13.103 -0.3102  2.3087  0.6000
    8TMC3    H213930   2.252   4.184  13.037  1.5086 -0.6601  1.3915
    8TMC3    C713931   2.041   4.305  12.955 -0.2773 -0.4263  0.3806
    8TMC3    C813932   2.320   4.113  13.267 -0.0268 -0.5444 -0.3486
    8TMC3    O113933   2.002   4.288  12.842 -0.1871 -0.3353  0.2708
    8TMC3    O213934   2.408   4.103  13.183  0.2227 -0.6756 -0.0823
    9TMC3    C113935   1.628   0.365  13.411  0.2243 -0.4923 -0.3550
    9TMC3    C213936   1.696   0.362  13.291  0.4358 -0.2531  0.1391
    9TMC3    C313937   1.809   0.284  13.287 -0.5994 -0.3034  0.3187
    9TMC3    C413938   1.667   0.306  13.524 -1.0345  0.4384  0.2147
    9TMC3    C513939   1.781   0.228  13.514  0.2262 -0.0481  0.5527
    9TMC3    C613940   1.850   0.211  13.393 -0.9400 -0.2117 -0.1100
    9TMC3     C13941   1.521   0.460  13.411  0.7503 -0.7802 -0.8856
    9TMC3     O13942   1.501   0.525  13.309  0.3991  0.3303  0.1274
    9TMC3     H13943   1.651   0.403  13.201  0.5904  1.5697  0.9038
    9TMC3    H113944   1.631   0.334  13.623  0.8204  1.1505  0.6934
    9TMC3    H213945   1.948   0.165  13.398 -1.9639 -2.4566 -0.8160
    9TMC3    C713946   1.811   0.140  13.626  0.2149 -0.2911  0.2616
    9TMC3    C813947   1.858   0.250  13.156  0.8954 -0.2035  0.9150
    9TMC3    O113948   1.855   0.195  13.726 -0.4998  0.2061 -0.1005
    9TMC3    O213949   1.840   0.321  13.059 -0.5908  0.8767 -0.1523
   10MPD2     C13950   1.976   4.576  12.848 -0.7017 -0.7213 -0.5293
   10MPD2    C113951   1.992   4.543  12.982  0.1356  0.2457 -0.2300
   10MPD2    C213952   1.969   4.635  13.073 -0.8500  1.2620 -0.2310
   10MPD2    C313953   1.930   0.042  13.041  0.3110 -0.2985 -0.3252
   10MPD2    C413954   1.920   0.081  12.911 -0.3122 -0.9951 -0.3470
   10MPD2    C513955   1.934   4.706  12.816  0.0722  0.0944 -0.2150
   10MPD2     H13956   1.969   4.603  13.176 -0.3691  1.4764 -0.1623
   10MPD2    H113957   1.887   0.182  12.890  0.9270 -0.4138  0.4992
   10MPD2    H213958   2.005   4.511  12.766  0.7807  0.0212 -0.5924
   10MPD2    H313959   1.948   0.008  12.711  2.8939  2.7090  0.7803
   10MPD2     N13960   1.902   0.119  13.158  0.5448 -0.0848 -0.1725
   10MPD2    H513961   1.890   0.077  13.249 -3.3139  1.7355  0.1526
   10MPD2    N113962   2.033   4.420  13.026 -0.1793 -0.1619 -0.3113
   10MPD2    H713963   2.072   4.411  13.119  1.1796 -1.8331 -1.0398
   11MPD2     C13964   2.998   3.271  13.581 -0.0369  1.1159  0.1191
   11MPD2    C113965   3.082   3.340  13.665 -0.1844  0.3319 -0.6531
   11MPD2    C213966   3.104   3.473  13.644 -0.2690  0.8050  0.1712
   11MPD2    C313967   3.043   3.539  13.545  0.1233  0.0112 -0.7156
   11MPD2    C413968   2.942   3.478  13.477  0.2068 -0.2486 -0.2114
   11MPD2    C513969   2.925   3.345  13.494  0.0957 -0.3344 -0.3950
   11MPD2     H13970   3.174   3.523  13.710  1.2539 -2.5702  1.0629
   11MPD2    H113971   2.884   3.526  13.399  0.7866  0.4664 -0.2085
   11MPD2    H213972   2.975   3.167  13.600  0.1045  1.4179  1.9548
   11MPD2    H313973   2.846   3.292  13.442  0.1843 -2.2806  1.4312
   11MPD2     N13974   3.084   3.670  13.522  0.1666  0.0778 -0.3538
   11MPD2    H513975   3.030   3.719  13.451 -1.4107  0.5117  1.1244
   11MPD2    N113976   3.145   3.287  13.776 -0.0792 -0.3827 -0.1890
   11MPD2    H713977   3.211   3.348  13.824 -2.8030  1.6778  1.0001
    1MPD1     C13978   1.455   4.667  17.132  0.1373 -0.2965 -0.1183
    1MPD1    C113979   1.565   4.646  17.054  0.1298 -0.2947 -0.4804
    1MPD1    C213980   1.552   4.563  16.940 -0.0467  0.7719 -0.5101
    1MPD1    C313981   1.436   4.489  16.918 -0.3754  0.7009  0.5761
    1MPD1    C413982   1.337   4.511  17.009 -1.0391  0.1578 -0.3262
    1MPD1    C513983   1.338   4.602  17.112 -0.0456  0.4454  0.2094
    1MPD1     H13984   1.642   4.557  16.880  0.0564 -2.4758 -0.0626
    1MPD1    H113985   1.254   4.441  17.003 -1.0605  0.3152 -1.9433
    1MPD1    H213986   1.463   0.017  17.212  1.3397 -1.4464  0.7936
    1MPD1    H313987   1.254   4.611  17.180 -0.3590 -2.6321  0.1932
    1MPD1     N13988   1.406   4.403  16.814  0.4301  0.3330 -0.1579
    1MPD1    H513989   1.314   4.363  16.835  0.8170  0.8617  2.6038
    1MPD1    N113990   1.679   0.006  17.071  0.1583 -0.0797  0.1900
    1MPD1    H613991   1.685   0.033  17.169 -1.7918  0.4158  0.1806
    1MPD1    H713992   1.759   4.675  17.038 -0.5552 -2.3061  2.0427
    2MPD1     C13993   1.618   4.699  15.905 -0.0039 -0.3504 -0.1504
    2MPD1    C113994   1.486   4.710  15.925 -0.0104  0.1060 -0.2094
    2MPD1    C213995   1.418   4.622  16.002 -0.2885  0.2050 -0.4292
    2MPD1    C313996   1.481   4.506  16.048 -0.5959  0.3653 -0.7031
    2MPD1    C413997   1.621   4.489  16.021  0.2541  0.1646  0.7413
    2MPD1    C513998   1.684   4.581  15.938 -0.5402 -0.0664  0.4050
    2MPD1     H13999   1.315   4.634  16.033 -0.1564 -2.1273  0.9483
    2MPD1    H114000   1.685   4.405  16.046  0.9942  0.9587  1.5126
    2MPD1    H214001   1.659   0.058  15.847  0.5599 -0.1936  0.4536
    2MPD1    H314002   1.786   4.560  15.906 -0.3096  0.6302  0.6787
    2MPD1     N14003   1.412   4.423  16.143  0.0033  0.2999 -0.2860
    2MPD1    H514004   1.323   4.460  16.175 -1.0671 -1.0611 -1.6559
    2MPD1    N114005   1.419   0.106  15.884  0.1375 -0.3535 -0.1459
    2MPD1    H614006   1.464   0.152  15.806  0.6022  0.0680  0.3668
    2MPD1    H714007   1.318   0.096  15.875 -0.1831  0.6762  2.2275
    3TMC3    C114008   1.407   4.306  16.345  0.4848 -0.1189 -0.9024
    3TMC3    C214009   1.272   4.306  16.345 -0.2260 -0.3634 -0.2622
    3TMC3    C314010   1.209   4.318  16.466 -0.1832 -0.4408 -0.0224
    3TMC3    C414011   1.472   4.329  16.460  0.3296  0.2311 -0.7925
    3TMC3    C514012   1.401   4.345  16.583  0.8402 -0.2799 -0.5361
    3TMC3    C614013   1.272   4.343  16.588  0.1241  0.0724  0.1318
    3TMC3     C14014   1.483   4.334  16.222  0.0439 -0.9843  0.0543
    3TMC3     O14015   1.599   4.290  16.210  0.1065 -0.0824  0.5251
    3TMC3     H14016   1.221   4.278  16.253 -1.9003 -0.1184  0.5879
    3TMC3    H114017   1.580   4.343  16.462  0.1451  1.7869 -1.8097
    3TMC3    H214018   1.219   4.371  16.678  0.3582  1.5775 -0.2022
    3TMC3    C714019   1.479   4.392  16.701 -0.4932  0.6076  0.0289
    3TMC3    C814020   1.068   4.351  16.468 -0.0460  0.6503 -0.1857
    3TMC3    O114021   1.590   4.440  16.675 -0.0608 -0.1773  0.0654
    3TMC3    O214022   1.020   4.370  16.581  0.3008  0.3813  0.6705
    4MPD1     C14023   0.619   4.477  16.267 -0.2111  0.4267 -0.6863
    4MPD1    C114024   0.710   4.490  16.165 -0.9767 -0.2451  0.1800
    4MPD1    C214025   0.842   4.461  16.196 -0.1782  0.3243 -0.7379
    4MPD1    C314026   0.876   4.413  16.323  0.4143 -0.2776  0.0595
    4MPD1    C414027   0.780   4.400  16.417 -0.1462 -0.8972  0.0648
    4MPD1    C514028   0.650   4.435  16.391 -0.2952 -0.0023 -0.2899
    4MPD1     H14029   0.917   4.479  16.121 -0.4267 -0.9706 -1.2905
    4MPD1    H114030   0.807   4.358  16.513  1.2526 -1.0525 -0.3970
    4MPD1    H214031   0.514   4.486  16.240 -0.2978  0.5011 -0.3325
    4MPD1    H314032   0.572   4.421  16.465 -0.4383 -2.1970 -0.8500
    4MPD1     N14033   1.008   4.383  16.345 -0.5250  0.1488  0.4977
    4MPD1    H514034   1.073   4.380  16.267  0.2743 -0.1843  1.1820
    4MPD1    N114035   0.677   4.533  16.035 -0.3349 -1.1360 -0.2783
    4MPD1    H614036   0.715   4.468  15.966  0.8122 -1.2242  0.4304
    4MPD1    H714037   0.577   4.535  16.017 -0.6382 -1.4714  1.3646
    1TCq1    O114038   2.414   4.116  11.677  0.0873 -0.2169  0.0849
    1TCq1    C114039   2.284   4.166  11.657  0.5290 -0.4113 -0.1250
    1TCq1    O214040   2.264   4.283  11.653 -0.2339 -0.1830 -0.4730
    1TCq1    C214041   2.215   4.067  11.580 -0.1678 -0.2758 -0.1743
    1TCq1    C314042   2.236   3.935  11.604  0.1895  0.3374 -0.6313
    1TCq1    C414043   2.151   3.847  11.540 -0.2336 -0.3873  0.4405
    1TCq1    C514044   2.064   3.886  11.455  0.9598 -0.5880 -0.3437
    1TCq1    C614045   2.056   4.015  11.423 -0.4114  0.0351 -0.9314
    1TCq1    C714046   2.132   4.111  11.478  0.1956 -0.2808  0.0747
    1TCq1    C814047   1.943   4.049  11.341 -0.7805 -0.0870  0.6152
    1TCq1    O414048   1.842   3.975  11.340 -0.1306 -0.1168  0.1235
    1TCq1    C914049   2.127   3.722  11.612 -0.1705 -0.7390 -0.7529
    1TCq1    O514050   2.037   3.643  11.569 -0.2726 -0.0855  0.2189
    1TCq1    O614051   2.166   3.723  11.731 -0.3669  0.4837 -0.0227
    1TCq1    H114052   2.409   4.021  11.654  2.8454  0.6315 -4.0077
    1TCq1    H214053   2.288   3.899  11.692  0.0797  0.3757 -0.5504
    1TCq1    H314054   2.001   3.809  11.411 -1.7093  1.9511 -0.9441
    1TCq1    H414055   2.120   4.218  11.460 -0.5584 -0.1545  1.2683
    2MPD1     C14056   1.708   4.398  11.053 -0.0112 -0.0458 -0.8064
    2MPD1    C114057   1.838   4.396  11.023  0.1631  0.7740  0.0898
    2MPD1    C214058   1.925   4.333  11.108  0.0659  0.1158 -0.1733
    2MPD1    C314059   1.875   4.240  11.198  1.0618 -0.5373 -0.4510
    2MPD1    C414060   1.736   4.223  11.205  0.0643  0.1741 -0.0635
    2MPD1    C514061   1.653   4.305  11.134 -0.3018 -0.1473 -0.2741
    2MPD1     H14062   2.031   4.328  11.088 -0.1533  1.2864 -1.6633
    2MPD1    H114063   1.691   4.152  11.274 -0.1929 -0.9213 -1.3646
    2MPD1    H214064   1.650   4.460  10.985 -0.0382  0.7795 -0.0404
    2MPD1    H314065   1.546   4.297  11.146 -0.1887  0.9658  1.5500
    2MPD1     N14066   1.966   4.168  11.282  0.6323 -0.4580 -0.0591
    2MPD1    H514067   2.064   4.197  11.281  0.5722 -0.2772 -1.2023
    2MPD1    N114068   1.903   4.489  10.933 -0.5499  0.5933 -0.0367
    2MPD1    H614069   1.998   4.461  10.912 -0.7774 -0.3400  0.2090
    2MPD1    H714070   1.847   4.485  10.848 -1.5351 -0.9679  0.7041
    1TCq1    O114071   1.402   0.923   1.413  0.3450 -0.8896 -0.2320
    1TCq1    C114072   1.476   1.026   1.449 -0.0485  0.2170 -0.0742
    1TCq1    O214073   1.573   1.012   1.525 -0.2235 -0.0068  0.4250
    1TCq1    C214074   1.401   1.150   1.454  0.4204  0.5264 -0.8198
    1TCq1    C314075   1.437   1.242   1.551 -0.3504 -0.5966  0.2654
    1TCq1    C414076   1.357   1.355   1.557  0.2793 -0.0226 -0.1005
    1TCq1    C514077   1.281   1.392   1.447  0.1476  0.2436 -0.6537
    1TCq1    C614078   1.263   1.304   1.344  0.0810  0.4771  0.5816
    1TCq1    C714079   1.315   1.180   1.351 -0.8133  0.0088  0.0481
    1TCq1    C814080   1.196   1.346   1.223  0.6378  0.8431 -0.2477
    1TCq1    O414081   1.233   1.300   1.115  0.2207 -0.2918  0.0898
    1TCq1    C914082   1.407   1.458   1.638  0.2876  1.2116  0.3620
    1TCq1    O514083   1.398   1.570   1.585 -0.0788 -0.1847  0.2512
    1TCq1    O614084   1.444   1.439   1.756 -0.0962 -0.2686  0.2339
    1TCq1    H114085   1.309   0.947   1.393  0.8619  0.6415 -0.8644
    1TCq1    H214086   1.484   1.215   1.644  1.8939 -3.2982 -1.6647
    1TCq1    H314087   1.246   1.495   1.436 -1.6523 -0.4046 -0.9785
    1TCq1    H414088   1.295   1.109   1.270 -1.1230  0.5965 -0.3873
    2MPD1     C14089   0.809   1.595   0.984  0.2683  1.5888 -0.8012
    2MPD1    C114090   0.813   1.631   1.112  0.0238  0.6447 -0.1694
    2MPD1    C214091   0.914   1.596   1.196  0.1613  0.9368  0.5494
    2MPD1    C314092   1.005   1.497   1.151  0.4228 -0.4748  0.1236
    2MPD1    C414093   1.006   1.457   1.020 -0.4359  0.4802 -0.3458
    2MPD1    C514094   0.903   1.506   0.936  0.6652  0.5463 -0.2295
    2MPD1     H14095   0.913   1.626   1.300  2.1649 -1.7461  1.3568
    2MPD1    H114096   1.068   1.385   0.968  1.1054  0.1364  1.9733
    2MPD1    H214097   0.733   1.626   0.913  0.1307  3.8223  0.3453
    2MPD1    H314098   0.896   1.472   0.834  1.7230 -0.6172  0.0798
    2MPD1     N14099   1.097   1.442   1.244  0.9317  0.1313  0.2955
    2MPD1    H514100   1.087   1.467   1.341 -0.8490  3.9093 -0.8783
    2MPD1    N114101   0.724   1.730   1.154 -0.5561 -0.5016 -0.5807
    2MPD1    H614102   0.706   1.699   1.249  2.4526 -1.5924 -0.3685
    2MPD1    H714103   0.634   1.726   1.106 -1.1846 -0.8385  0.6209
    1MPD1     C14104   3.152   3.531  12.209 -1.0384  0.0272 -0.4417
    1MPD1    C114105   3.260   3.516  12.292 -0.0282  0.0372 -0.0402
    1MPD1    C214106   3.359   3.608  12.281 -0.4817 -0.2772 -0.7105
    1MPD1    C314107   3.335   3.730  12.209 -0.0036  0.1128 -0.3645
    1MPD1    C414108   3.215   3.745  12.142 -0.1003  0.3920  0.3374
    1MPD1    C514109   3.133   3.645  12.131 -0.0325 -0.7147  0.3939
    1MPD1     H14110   3.452   3.588  12.332 -1.0229  0.7866  0.6921
    1MPD1    H114111   3.204   3.814  12.060  1.2629  0.7717  0.4764
    1MPD1    H214112   3.084   3.448  12.197 -0.6424 -0.3617  0.0281
    1MPD1    H314113   3.053   3.650  12.058  1.3210  0.9118 -0.9866
    1MPD1     N14114   3.436   3.827  12.212  0.3961  0.2729 -0.2697
    1MPD1    H514115   3.526   3.803  12.252  0.8292 -0.2893 -1.5884
    1MPD1    N114116   3.277   3.391  12.363  0.1651 -0.4963 -0.0844
    1MPD1    H614117   3.194   3.348  12.405 -1.0342  0.5445 -1.3776
    1MPD1    H714118   3.342   3.395  12.442  0.1074  1.2308 -0.1104
    2MPD1     C14119   3.165   0.678  10.456 -0.1139 -0.2750  0.3852
    2MPD1    C114120   3.123   0.636  10.581  0.6008  0.5698  0.0649
    2MPD1    C214121   3.115   0.503  10.604  1.2597 -0.0381  0.4873
    2MPD1    C314122   3.141   0.408  10.504  0.0611 -0.2492  0.1381
    2MPD1    C414123   3.169   0.455  10.375 -0.1976 -0.5298 -0.2778
    2MPD1    C514124   3.180   0.588  10.353  0.3554  0.3635  0.1520
    2MPD1     H14125   3.100   0.476  10.708  4.1110  0.6169  1.0628
    2MPD1    H114126   3.197   0.389  10.293  1.2052  2.0873 -1.8948
    2MPD1    H214127   3.189   0.782  10.434  1.2825 -0.5366  0.6225
    2MPD1    H314128   3.206   0.614  10.251  1.9924 -0.3900  0.3792
    2MPD1     N14129   3.157   0.270  10.523  0.0558 -0.5924  0.0968
    2MPD1    H514130   3.180   0.209  10.445  1.0035 -0.0807 -0.0108
    2MPD1    N114131   3.096   0.730  10.672  0.7288 -0.2458  0.1128
    2MPD1    H614132   3.047   0.679  10.744  0.7269 -0.7018 -0.2153
    2MPD1    H714133   3.036   0.804  10.635  1.1046  0.0765  0.1422
    3MPD1     C14134   3.030   4.492   9.864 -0.6042  0.5869 -0.1196
    3MPD1    C114135   3.072   4.621   9.896  0.2392  0.3260 -0.1268
    3MPD1    C214136   3.098   4.659  10.025 -0.1838  0.3597  0.7864
    3MPD1    C314137   3.092   4.572  10.125 -0.3756  0.0631  0.5245
    3MPD1    C414138   3.053   4.442  10.090  0.5409 -0.7238  0.5373
    3MPD1    C514139   3.014   4.404   9.964 -0.2780  0.0143 -0.0539
    3MPD1     H14140   3.120   0.040  10.048  0.5478  0.2435  0.6318
    3MPD1    H114141   3.047   4.369  10.170 -2.9267 -0.3478  0.6310
    3MPD1    H214142   3.014   4.457   9.763 -0.1620  1.5131 -0.5037
    3MPD1    H314143   3.002   4.298   9.945  1.5584 -0.2987  0.6141
    3MPD1     N14144   3.137   4.602  10.254  0.1899 -0.0745  0.5181
    3MPD1    H514145   3.163   4.699  10.268  0.4885  0.3859 -3.3005
    3MPD1    N114146   3.069   0.003   9.797  0.5495 -0.6550  0.3397
    3MPD1    H614147   3.061   4.699   9.699 -0.1893 -0.3371  0.3165
    3MPD1    H714148   3.125   0.087   9.808 -0.0164 -0.3008  0.5168
    4MPD2     C14149   3.660   4.637  12.020 -0.5692 -0.5282  0.2016
    4MPD2    C114150   3.697   4.508  11.993 -0.2133 -0.0799  0.1853
    4MPD2    C214151   3.757   4.484  11.872 -0.4515  0.7809 -0.6462
    4MPD2    C314152   3.776   4.587  11.783 -0.2285 -0.3408 -0.2364
    4MPD2    C414153   3.731   4.717  11.813  0.3532  0.3876  0.3184
    4MPD2    C514154   3.668   0.023  11.930  0.0047 -0.0959 -0.1934
    4MPD2     H14155   3.781   4.382  11.845 -3.0645 -0.3467  1.2360
    4MPD2    H114156   3.754   0.072  11.741 -0.5238 -1.4987 -1.9932
    4MPD2    H214157   3.609   4.666  12.111 -1.4019 -1.6337  0.0854
    4MPD2    H314158   3.643   0.120  11.973  0.2485 -0.3197  0.4445
    4MPD2     N14159   3.846   4.551  11.662 -0.4922 -0.1753  0.4094
    4MPD2    H514160   3.878   4.455  11.656 -2.0010 -0.9119  3.8627
    4MPD2    N114161   3.690   4.397  12.083 -0.2167 -0.3187 -0.5133
    4MPD2    H714162   3.749   4.317  12.061 -0.4610 -0.3812 -0.9402
    5TMC3    C114163   3.629   4.258  12.249 -0.0518 -0.0932  0.5249
    5TMC3    C214164   3.521   4.172  12.240  0.0892 -0.3870  0.2778
    5TMC3    C314165   3.533   4.043  12.190 -0.0657  0.0421 -0.1845
    5TMC3    C414166   3.752   4.202  12.221  0.5172 -0.0873  0.3489
    5TMC3    C514167   3.758   4.077  12.162 -1.0816 -0.2251 -0.1475
    5TMC3    C614168   3.653   3.994  12.149 -0.1720  0.1025 -0.2404
    5TMC3     C14169   3.609   4.390  12.189 -0.3141 -0.8909 -0.0256
    5TMC3     O14170   3.503   4.452  12.208 -0.7006  0.7872 -0.1270
    5TMC3     H14171   3.422   4.204  12.271  0.6838  0.8512  0.9063
    5TMC3    H114172   3.842   4.257  12.247  1.4593 -1.3281 -0.3091
    5TMC3    H214173   3.657   3.905  12.087 -0.2756  1.3485 -2.0520
    5TMC3    C714174   3.845   4.076  12.043  0.0004  0.7712 -0.5049
    5TMC3    C814175   3.410   3.961  12.185  0.5116  0.4457  0.4070
    5TMC3    O114176   3.877   4.190  12.011 -0.3036 -0.1886  0.6463
    5TMC3    O214177   3.306   4.014  12.157 -0.7955  0.0367  0.3039
    6TMC3    C114178   3.159   0.066  10.622  0.0802 -0.1280 -0.0282
    6TMC3    C214179   3.126   0.004  10.500 -0.4425 -0.0918 -0.4255
    6TMC3    C314180   3.136   4.588  10.490 -0.4826 -0.9533  0.4202
    6TMC3    C414181   3.180   4.717  10.732  0.2982 -0.3431  0.0197
    6TMC3    C514182   3.179   4.579  10.728  0.2131  0.1606 -0.5713
    6TMC3    C614183   3.175   4.518  10.602 -0.2353  0.1792 -0.5508
    6TMC3     C14184   3.130   0.208  10.639 -0.2331 -1.3310  0.3472
    6TMC3     O14185   3.084   0.251  10.745 -0.3201  0.1280  0.0209
    6TMC3     H14186   3.091   0.056  10.412 -1.0731  0.0315 -0.1016
    6TMC3    H114187   3.197   0.044  10.826  0.4476 -0.1281 -0.1213
    6TMC3    H214188   3.171   4.410  10.599 -1.1663  0.2069 -0.3247
    6TMC3    C714189   3.261   4.515  10.836  0.6085  0.2260 -0.7675
    6TMC3    C814190   3.142   4.523  10.363 -0.6071  0.0319 -0.0011
    6TMC3    O114191   3.329   4.591  10.909 -0.2042 -0.6443  0.1459
    6TMC3    O214192   3.143   4.400  10.369 -0.6313  0.1139  0.7539
    7MPD2     C14193   4.023   3.870  11.616 -0.3952 -0.0120 -0.0504
    7MPD2    C114194   3.971   3.994  11.635 -0.0595  0.4270  0.1327
    7MPD2    C214195   3.923   4.034  11.762 -0.0595 -0.1307 -0.2885
    7MPD2    C314196   3.929   3.938  11.864  0.5106  0.0207  0.3289
    7MPD2    C414197   3.971   3.812  11.840 -1.1131  0.1269 -0.2367
    7MPD2    C514198   4.018   3.774  11.717 -0.2939 -0.6038 -0.0366
    7MPD2     H14199   3.883   4.131  11.789  0.0028  0.3558 -1.9126
    7MPD2    H114200   3.952   3.731  11.910  0.8606  0.2284  0.4170
    7MPD2    H214201   4.080   3.847  11.526 -2.0941  0.4495 -1.2314
    7MPD2    H314202   4.062   3.679  11.690 -1.4554 -0.8681 -0.9816
    7MPD2     N14203   3.875   3.956  11.992  0.8651 -0.0881 -0.5322
    7MPD2    H514204   3.865   3.871  12.046 -1.2896  0.9861  0.7673
    7MPD2    N114205   3.977   4.094  11.533  0.1134  0.4037 -0.0182
    7MPD2    H714206   4.029   4.088  11.446 -0.6569 -2.2122 -0.3082
    8TMC3    C114207   3.923   4.305  11.428 -0.8866  0.5123 -0.4399
    8TMC3    C214208   3.832   4.294  11.335 -0.0790 -0.4661  0.3601
    8TMC3    C314209   3.771   4.408  11.285 -0.5284 -0.2001 -1.1820
    8TMC3    C414210   3.948   4.424  11.482  0.5703 -0.3864  0.0862
    8TMC3    C514211   3.888   4.536  11.438  0.3595  0.8307  0.0741
    8TMC3    C614212   3.794   4.531  11.338  1.0356  0.8391 -0.4809
    8TMC3     C14213   3.903   4.212  11.536 -0.1348 -0.3323 -0.4853
    8TMC3     O14214   3.834   4.262  11.623 -0.6301 -0.0287 -0.2163
    8TMC3     H14215   3.827   4.199  11.283  1.0301 -0.4578  0.2443
    8TMC3    H114216   4.020   4.429  11.563  1.1297  3.0785 -0.6142
    8TMC3    H214217   3.731   4.616  11.317 -0.4693 -0.2615 -0.4730
    8TMC3    C714218   3.844   4.629  11.547  0.2655 -0.0787  0.4144
    8TMC3    C814219   3.682   4.403  11.171 -0.2641  0.3069 -0.3917
    8TMC3    O114220   3.792   0.017  11.529 -0.3514  0.0658  0.0530
    8TMC3    O214221   3.643   4.505  11.114  0.5612 -0.1535  0.2439
    9MPD2     C14222   3.536   4.111  11.006  0.3050  0.7986 -0.3297
    9MPD2    C114223   3.543   4.247  11.039  0.0090  0.0249  0.1205
    9MPD2    C214224   3.446   4.339  10.987  0.3124  0.4540 -0.1260
    9MPD2    C314225   3.363   4.296  10.890  0.6503  0.2174  0.4972
    9MPD2    C414226   3.372   4.172  10.847 -0.3447  0.1223  0.1853
    9MPD2    C514227   3.457   4.080  10.895  0.0163 -0.8728  0.0030
    9MPD2     H14228   3.452   4.438  11.032 -3.2757  1.2268 -1.3437
    9MPD2    H114229   3.322   4.140  10.756  0.8846  1.2954 -0.8987
    9MPD2    H214230   3.605   4.034  11.038 -0.7376  0.1159  0.2703
    9MPD2    H314231   3.464   3.977  10.860 -0.8265 -0.9811  0.1764
    9MPD2     N14232   3.276   4.384  10.815 -0.4682 -0.3195 -0.3491
    9MPD2    H514233   3.213   4.342  10.748  0.2384 -0.7487 -0.7451
    9MPD2    N114234   3.641   4.278  11.140  0.2854  0.6691 -1.1102
    9MPD2    H714235   3.677   4.194  11.183 -2.0866  0.4032  0.3826
    1MPD1     C14236   4.279   3.981  16.681  0.3477  0.0836 -0.3965
    1MPD1    C114237   4.229   3.878  16.601 -0.4591 -0.2223  0.4029
    1MPD1    C214238   4.090   3.867  16.593  0.3848  0.0559 -0.1548
    1MPD1    C314239   4.006   3.942  16.670 -0.3627  0.1106  0.4803
    1MPD1    C414240   4.061   4.029  16.753  0.8505 -0.1203 -0.4158
    1MPD1    C514241   4.195   4.056  16.757 -0.3538  0.7927  0.5643
    1MPD1     H14242   4.045   3.792  16.528  0.5279  1.1997 -1.5733
    1MPD1    H114243   4.003   4.086  16.825  2.2403 -0.4040  0.9229
    1MPD1    H214244   4.386   3.998  16.686  0.4421 -0.8440  0.7470
    1MPD1    H314245   4.233   4.124  16.832 -0.5751  1.4716  0.0688
    1MPD1     N14246   3.866   3.924  16.681  0.1219  0.2398 -0.0869
    1MPD1    H514247   3.814   3.978  16.750  0.0414 -0.7362  0.6174
    1MPD1    N114248   4.313   3.815  16.508  0.2455 -0.3314 -0.1601
    1MPD1    H614249   4.268   3.726  16.486  0.3158 -1.0148  2.4995
    1MPD1    H714250   4.402   3.802  16.556 -0.5147 -0.2389  1.2663
    2MPD1     C14251   3.233   3.442  16.084 -0.2850  0.8090 -0.0413
    2MPD1    C114252   3.309   3.549  16.056  0.7834 -0.1831  0.1389
    2MPD1    C214253   3.345   3.622  16.164  0.2065 -0.4784  0.2825
    2MPD1    C314254   3.304   3.585  16.297 -0.4705  0.3622  0.2339
    2MPD1    C414255   3.229   3.469  16.320 -0.2929  0.4551  0.2179
    2MPD1    C514256   3.200   3.399  16.214 -0.3108  0.1748  0.2753
    2MPD1     H14257   3.404   3.711  16.149 -2.9312  1.5804  0.1236
    2MPD1    H114258   3.198   3.429  16.416 -0.0917  2.1581  1.0006
    2MPD1    H214259   3.196   3.375  16.007  0.2783  0.0367  0.3669
    2MPD1    H314260   3.153   3.304  16.235 -0.1371  0.1638  0.6219
    2MPD1     N14261   3.364   3.657  16.404 -0.6223 -0.0595 -0.4147
    2MPD1    H514262   3.411   3.742  16.376  0.4356 -1.2106 -2.2332
    2MPD1    N114263   3.318   3.594  15.925  0.3413 -0.0308  0.2241
    2MPD1    H614264   3.309   3.523  15.852  1.4633  0.8450 -0.7698
    2MPD1    H714265   3.407   3.643  15.919  0.8509 -0.9804  0.0421
    3TCq2    C114266   3.364   3.632  16.535 -0.3619 -0.1596 -0.1718
    3TCq2    O214267   3.297   3.550  16.600  0.4957 -0.1509  0.4954
    3TCq2    C214268   3.452   3.717  16.614 -0.1598 -0.2123 -0.4850
    3TCq2    C314269   3.418   3.736  16.742  0.0856 -0.5219  0.1067
    3TCq2    C414270   3.503   3.801  16.821 -0.9551  0.7973 -0.0472
    3TCq2    C514271   3.623   3.855  16.781 -0.3285  0.3644 -0.5871
    3TCq2    C614272   3.662   3.827  16.647 -0.0912 -0.0708 -0.2280
    3TCq2    C714273   3.573   3.766  16.557  0.2809 -0.1546 -0.4045
    3TCq2    C814274   3.798   3.837  16.607  0.1492 -0.0100 -0.4505
    3TCq2    O414275   3.824   3.760  16.515 -0.2598 -0.4944  0.1691
    3TCq2    C914276   3.469   3.816  16.960 -0.0682 -0.5178 -0.4611
    3TCq2    O514277   3.365   3.764  17.004 -0.1692  0.1666  0.3188
    3TCq2    O614278   3.543   3.887  17.031 -0.0306  0.1035 -0.0442
    3TCq2    H214279   3.333   3.682  16.782 -1.1118 -0.9373 -2.9607
    3TCq2    H314280   3.691   3.902  16.850 -0.4537 -1.8046  1.0208
    3TCq2    H414281   3.603   3.740  16.456  0.1940 -0.0998 -0.4448
    1TCq1    O114282   1.292   2.549  13.607 -0.4673 -0.2997 -0.0685
    1TCq1    C114283   1.292   2.674  13.664 -0.6780  0.0353  0.1035
    1TCq1    O214284   1.216   2.714  13.746  0.2502  0.0569 -0.6740
    1TCq1    C214285   1.337   2.755  13.552  0.1021 -0.0236  1.2596
    1TCq1    C314286   1.250   2.841  13.490  0.9526  0.2424 -0.0539
    1TCq1    C414287   1.290   2.918  13.384  0.6354  0.3146  0.7514
    1TCq1    C514288   1.415   2.897  13.326  0.4396 -0.0436 -0.2678
    1TCq1    C614289   1.505   2.816  13.391  0.1205 -0.7583  0.2413
    1TCq1    C714290   1.466   2.739  13.503 -0.5732  0.1133  0.5157
    1TCq1    C814291   1.622   2.770  13.312 -0.8107 -0.4028  0.0310
    1TCq1    O414292   1.630   2.790  13.192 -0.2886 -0.2670  0.1227
    1TCq1    C914293   1.190   2.991  13.309  0.6758  0.5694 -0.2689
    1TCq1    O514294   1.233   3.042  13.203 -0.0014  0.2991 -0.2954
    1TCq1    O614295   1.069   2.976  13.336  0.0901  1.0390  0.1077
    1TCq1    H114296   1.333   2.543  13.518 -1.1396  2.5696 -0.5781
    1TCq1    H214297   1.148   2.857  13.521  1.3410  2.6453 -0.0099
    1TCq1    H314298   1.439   2.944  13.231  0.7751  0.6090  0.1396
    1TCq1    H414299   1.527   2.666  13.555  0.1917 -1.4165 -2.5223
    2MPD2     C14300   1.878   2.668  13.206 -0.0691 -0.1206 -0.2628
    2MPD2    C114301   1.836   2.654  13.338 -0.7063 -0.3293  1.5382
    2MPD2    C214302   1.911   2.578  13.426 -0.2797 -0.5093 -0.2246
    2MPD2    C314303   2.037   2.523  13.387 -0.2098  0.0132 -1.2872
    2MPD2    C414304   2.069   2.544  13.255  0.2414 -0.0361 -0.5548
    2MPD2    C514305   1.990   2.608  13.165 -0.1380  0.7490  0.0021
    2MPD2     H14306   1.879   2.575  13.529 -2.0354  0.1827 -0.7464
    2MPD2    H114307   2.159   2.502  13.212  1.5559  0.9266  1.2750
    2MPD2    H214308   1.820   2.722  13.133  0.3010  0.2216 -0.3010
    2MPD2    H314309   2.007   2.613  13.058  1.7156 -0.4376  0.2474
    2MPD2     N14310   2.125   2.473  13.483  0.2825  0.0229  0.0957
    2MPD2    H514311   2.084   2.467  13.575 -0.7003 -0.3411 -0.3708
    2MPD2    N114312   1.721   2.710  13.386  0.3002 -0.1232 -0.4585
    2MPD2    H714313   1.702   2.713  13.486 -1.5244  1.1324 -0.8506
    3TCq1    O114314   2.661   2.442  13.850 -0.6260  0.0900 -0.0643
    3TCq1    C114315   2.627   2.358  13.750 -0.6512  0.4975 -0.0852
    3TCq1    O214316   2.702   2.339  13.651  0.2130  0.3068 -0.9569
    3TCq1    C214317   2.490   2.386  13.733  0.9690 -0.0239  0.0815
    3TCq1    C314318   2.412   2.305  13.811 -0.6640  0.3001  0.0059
    3TCq1    C414319   2.295   2.260  13.770  0.8953  0.2322 -0.3354
    3TCq1    C514320   2.248   2.293  13.647 -0.1065  0.3924  0.8449
    3TCq1    C614321   2.320   2.383  13.578  0.0751  0.0068 -0.2517
    3TCq1    C714322   2.447   2.419  13.613  0.1906  0.3967  0.3943
    3TCq1    C814323   2.259   2.447  13.459 -0.6319  0.2754  0.2180
    3TCq1    O414324   2.333   2.471  13.362 -0.1408 -0.1259  0.4053
    3TCq1    C914325   2.210   2.174  13.852  0.5152  0.4448 -0.4340
    3TCq1    O514326   2.270   2.092  13.921  0.1607  0.3035 -0.0853
    3TCq1    O614327   2.089   2.190  13.827 -0.2336  0.6358  0.8251
    3TCq1    H114328   2.588   2.477  13.906  0.8791 -0.1004  2.0352
    3TCq1    H214329   2.447   2.268  13.906 -1.2771  0.5695  0.3358
    3TCq1    H314330   2.154   2.252  13.611  0.5228 -1.5375  1.3625
    3TCq1    H414331   2.515   2.472  13.547 -0.3843 -0.0570 -0.5807
    1MPD2     C14332   0.922   3.538  15.010 -0.1128  0.2657 -0.1480
    1MPD2    C114333   0.807   3.495  14.945  0.0137  0.5462 -0.1577
    1MPD2    C214334   0.823   3.378  14.872  0.4276 -0.1905 -0.2860
    1MPD2    C314335   0.926   3.288  14.879 -0.4392  0.3690  0.8244
    1MPD2    C414336   1.036   3.331  14.949 -0.2023 -0.0907  0.1056
    1MPD2    C514337   1.036   3.459  15.007  0.1946  0.0593  0.3292
    1MPD2     H14338   0.733   3.354  14.817 -0.7410  1.9821  0.6536
    1MPD2    H114339   1.124   3.267  14.945 -0.8860 -0.8416 -2.8045
    1MPD2    H214340   0.921   3.628  15.071 -2.9744  1.8621 -2.5712
    1MPD2    H314341   1.123   3.492  15.063  1.9179 -1.4884 -1.4579
    1MPD2     N14342   0.935   3.160  14.811  0.5427 -0.4639 -0.0633
    1MPD2    H514343   1.022   3.108  14.813  0.5388 -0.4451  0.5041
    1MPD2    N114344   0.688   3.560  14.927  0.3888 -0.8585  0.1397
    1MPD2    H714345   0.628   3.507  14.865 -0.3994  0.1250  0.0647
    2TMC3    C114346   0.526   3.724  14.947 -0.1974 -0.2154 -1.1379
    2TMC3    C214347   0.429   3.630  14.966 -0.9957 -0.5749 -0.1133
    2TMC3    C314348   0.311   3.647  14.902 -0.5326 -0.7792  0.4363
    2TMC3    C414349   0.513   3.823  14.853  0.0569  0.1080 -0.6713
    2TMC3    C514350   0.397   3.831  14.786  0.3793  0.3868 -0.0528
    2TMC3    C614351   0.293   3.743  14.811  1.4803  0.4067 -0.1323
    2TMC3     C14352   0.661   3.685  14.982  0.6380  0.7190 -1.3238
    2TMC3     O14353   0.729   3.754  15.054 -0.5771 -0.2042 -0.1783
    2TMC3     H14354   0.453   3.555  15.041 -0.0193 -0.5655 -0.4098
    2TMC3    H114355   0.590   3.893  14.824  1.0871 -2.1875 -3.4579
    2TMC3    H214356   0.197   3.743  14.761  0.9786  0.7244  0.8144
    2TMC3    C714357   0.374   3.915  14.671  0.0339  0.0125  0.2839
    2TMC3    C814358   0.231   3.527  14.878  0.1204  0.0824 -0.0993
    2TMC3    O114359   0.254   3.933  14.642  0.0250  0.2393 -0.0797
    2TMC3    O214360   0.110   3.539  14.857  0.4346  1.0536 -0.2505
    3TCq1    O114361   1.227   4.531  13.989  0.0002 -0.2778 -0.1037
    3TCq1    C114362   1.149   4.432  13.945 -0.1431 -0.4803 -0.2511
    3TCq1    O214363   1.106   4.427  13.834  0.1976 -0.7445 -0.6431
    3TCq1    C214364   1.107   4.349  14.054  0.8483 -0.7977 -0.1074
    3TCq1    C314365   1.198   4.293  14.140  0.3660  0.0237 -0.1968
    3TCq1    C414366   1.158   4.195  14.229 -0.8242 -0.2936 -0.2672
    3TCq1    C514367   1.030   4.148  14.223  0.1289 -0.7622 -0.0454
    3TCq1    C614368   0.952   4.191  14.124  0.1252 -0.2796  0.0477
    3TCq1    C714369   0.983   4.292  14.039 -0.4255  0.4786  0.9024
    3TCq1    C814370   0.804   4.157  14.123 -0.2899 -0.7262 -0.0376
    3TCq1    O414371   0.757   4.145  14.012 -0.4575 -0.2116  0.3116
    3TCq1    C914372   1.251   4.131  14.319  0.0361  0.2523 -0.1082
    3TCq1    O514373   1.367   4.172  14.332 -0.0010 -0.0220 -0.6999
    3TCq1    O614374   1.204   4.028  14.383  0.6250  0.0535  0.1486
    3TCq1    H114375   1.272   4.521  14.075  0.3570 -1.6326 -0.4452
    3TCq1    H214376   1.298   4.335  14.139 -0.2760  1.5145 -3.2607
    3TCq1    H314377   1.017   4.057  14.281 -3.2334  0.0599  0.4928
    3TCq1    H414378   0.900   4.339  13.987  0.9091  2.3428  0.4621
    4MPD2     C14379   0.544   4.014  14.202  0.2857 -0.1953 -0.2300
    4MPD2    C114380   0.643   4.049  14.287 -0.6494 -0.2940  0.7011
    4MPD2    C214381   0.619   4.030  14.423  0.5170 -0.1808  0.1899
    4MPD2    C314382   0.499   3.984  14.472  0.5812  0.4923  0.3988
    4MPD2    C414383   0.394   3.972  14.383  0.5651 -0.3580 -0.4867
    4MPD2    C514384   0.417   3.991  14.251  0.0557  0.5662  0.5044
    4MPD2     H14385   0.708   4.047  14.483 -0.5283  1.2216  1.3340
    4MPD2    H114386   0.295   3.941  14.414 -0.2990  0.9865 -1.8806
    4MPD2    H214387   0.562   4.039  14.098  1.4460 -0.0772  0.0047
    4MPD2    H314388   0.333   3.962  14.188 -0.7150 -0.4331  1.9885
    4MPD2     N14389   0.491   3.944  14.604  0.0446  0.1503  0.4908
    4MPD2    H514390   0.578   3.910  14.644  0.9965  1.9919 -0.0425
    4MPD2    N114391   0.768   4.110  14.249 -0.3160 -0.1045 -0.4910
    4MPD2    H714392   0.846   4.124  14.312 -0.9971 -1.3490  0.6473
    5TMC2    C114393   0.636   2.850  14.641 -0.6772 -0.3085 -0.0584
    5TMC2    C214394   0.688   2.753  14.719 -0.0008 -0.0975  0.6297
    5TMC2    C314395   0.812   2.770  14.775  0.4409  0.2283 -0.4051
    5TMC2    C414396   0.719   2.955  14.608 -0.2655 -0.4442 -0.1296
    5TMC2    C514397   0.838   2.974  14.676 -0.6528  0.2002 -0.3263
    5TMC2    C614398   0.894   2.874  14.755  1.0309 -0.7642 -0.7024
    5TMC2     C14399   0.493   2.886  14.659 -0.0903 -0.2144 -0.2180
    5TMC2     O14400   0.404   2.805  14.630  0.2905  0.1579 -0.6005
    5TMC2     H14401   0.624   2.676  14.762 -0.6148 -0.2950 -0.6459
    5TMC2    H114402   0.681   3.036  14.547  2.9913  0.5720 -0.8365
    5TMC2    H214403   0.992   2.891  14.800 -0.5555  1.5808  1.9108
    5TMC2    C714404   0.830   3.106  14.744  0.4817  0.4543  1.0811
    5TMC2    C814405   0.859   2.659  14.853 -0.2438 -0.2574  0.0788
    5TMC2    O114406   0.715   3.141  14.750  0.4561 -0.0990 -0.3302
    5TMC2    O214407   0.810   2.549  14.840 -0.0431  0.1695  0.2784
    5TMC2    O514408   0.908   2.711  14.966  0.0266 -0.0985 -0.1070
    5TMC2    H514409   0.918   2.809  14.963 -1.6035  0.0171 -1.9864
    6MPD2     C14410   0.166   3.251  14.784  0.1875 -0.1764 -0.3263
    6MPD2    C114411   0.288   3.296  14.814  0.6044 -1.0474 -0.2255
    6MPD2    C214412   0.390   3.208  14.799  0.3930 -0.3968  0.3543
    6MPD2    C314413   0.377   3.085  14.735  0.3469  0.2516 -0.3329
    6MPD2    C414414   0.254   3.041  14.699 -0.2390 -0.2867  0.0046
    6MPD2    C514415   0.146   3.126  14.735 -0.6105 -0.4022  0.3186
    6MPD2     H14416   0.490   3.240  14.827 -0.2373  3.8804 -2.1899
    6MPD2    H114417   0.225   2.951  14.647  0.2377  0.0077 -0.7647
    6MPD2    H214418   0.073   3.306  14.786 -0.0008 -0.5405  0.9778
    6MPD2    H314419   0.046   3.095  14.708 -0.6274 -0.3929  0.3700
    6MPD2     N14420   0.492   3.016  14.701 -0.4590 -0.0452 -0.0653
    6MPD2    H514421   0.578   3.066  14.721  0.1348 -1.1507  0.1207
    6MPD2    N114422   0.318   3.426  14.859 -0.3180 -0.0574 -0.0876
    6MPD2    H714423   0.417   3.444  14.870 -0.1493 -1.5105  0.7020
  945NH3     N114424   2.285   3.727  15.307 -0.7418 -0.2598 -0.2633
  945NH3     H214425   2.321   3.737  15.212 -2.2452 -1.0069 -0.9148
  945NH3     H314426   2.370   3.692  15.349 -0.1256  1.1458 -0.3365
  945NH3     H414427   2.228   3.644  15.290  1.6248 -1.7803 -0.8543
  946SOD     NA14428   0.030   1.645  15.108  0.3881 -0.3621  0.6915
  947SOD     NA14429   3.446   0.395  14.315 -0.0911 -0.3590 -0.4547
  948SOD     NA14430   3.246   1.266  16.767 -0.2521  0.2308  0.4390
  949SOD     NA14431   1.542   4.283  12.301 -0.2305  0.3537  0.1158
  950SOD     NA14432   2.912   0.779  16.121  0.2315 -0.0798  0.1301
  951SOD     NA14433   0.791   3.707   1.596  0.2803  0.3410 -0.3008
  952SOD     NA14434   1.404   2.770  12.043  0.4821 -0.3047 -0.0312
  953SOD     NA14435   2.201   1.980   0.013  0.1624 -0.2874  0.4046
  954SOD     NA14436   0.444   2.971  11.172 -0.0209  0.1860  0.1280
  955SOD     NA14437   2.433   2.901  13.857 -0.0202 -0.0169 -0.3452
  956SOD     NA14438   3.295   1.342   1.042 -0.4174  0.3159 -0.2560
  957SOD     NA14439   4.122   0.430   0.588  0.1837  0.3401 -0.0030
  958SOD     NA14440   0.961   2.599  11.350 -0.1770  0.5979 -0.0106
  959SOD     NA14441   2.221   2.497  14.576 -0.0244 -0.0872  0.1297
  960SOD     NA14442   3.314   0.850  12.905 -0.2618  0.7017 -0.1066
  961SOD     NA14443   3.240   1.371   8.796 -0.0434  0.1782  0.3425
  962SOD     NA14444   0.704   2.115  10.738 -0.4876 -0.1041 -0.2754
  963SOD     NA14445   1.199   1.908   0.123  0.1256  0.3985  0.1022
  964SOD     NA14446   1.206   1.454  10.842  0.5396 -0.0368  0.2110
  965SOD     NA14447   1.076   1.271  10.638 -0.1244 -0.4085  0.0217
  966SOD     NA14448   1.171   3.807  14.912 -0.1110  0.0789 -0.5736
  967SOD     NA14449   3.103   0.416   2.249 -0.4896  0.3534  0.6365
  968SOD     NA14450   0.706   0.752   3.159 -0.1553  0.2733  0.0180
  969SOD     NA14451   4.375   3.210   6.108 -0.2799  0.0058  0.4375
  970SOD     NA14452   1.897   2.241  12.661 -0.0540 -0.2924  0.6169
  971SOD     NA14453   4.113   2.538  13.762 -0.1765 -0.0326  0.2114
  972SOD     NA14454   0.053   3.377  17.689  0.2316  0.3539  0.1297
  973SOD     NA14455   1.014   0.533  12.149  0.0934  0.2558 -0.0549
  974SOD     NA14456   2.810   1.565  12.397 -0.3362 -0.2236  0.3695
  975SOD     NA14457   4.049   3.615   8.361 -0.2831  0.5700  0.1252
  976SOD     NA14458   2.013   3.585  11.796 -0.1281  0.2267  0.1071
  977SOD     NA14459   1.980   1.705   0.112  0.2422 -0.2987  0.3106
  978SOD     NA14460   0.763   3.687   9.901  0.2612  0.0308  0.2372
  979SOD     NA14461   4.628   1.613  12.967  0.9444  0.1819  0.1233
  980SOD     NA14462   3.636   1.731  14.280 -0.2748 -0.3743 -0.0349
  981SOD     NA14463   1.831   3.552  11.560  0.4453  0.0270  0.2433
  982SOD     NA14464   1.955   1.211   6.689 -0.6226 -0.2335 -0.3115
  983SOD     NA14465   3.105   3.450  17.187 -0.8373 -0.0438  0.4932
  984SOD     NA14466   0.219   1.166   5.579 -0.7975 -0.0359  0.4402
  985SOD     NA14467   2.355   2.587  11.260  0.4330 -0.1997 -0.0403
  986SOD     NA14468   3.028   2.700  10.913 -0.4024 -0.1722  0.1391
  987SOD     NA14469   3.119   1.613   1.033  0.0489  0.3998 -0.5431
  988SOD     NA14470   2.611   4.090   2.989  0.0601  0.2075 -0.3535
  989SOD     NA14471   4.199   1.438  11.347 -0.2378  0.4483  0.3992
  990SOD     NA14472   4.276   0.755   3.472  0.1643 -0.2486 -0.3913
  991SOD     NA14473   2.568   2.922  14.152 -0.0497 -0.0565 -0.2617
  992SOD     NA14474   3.078   3.667  15.945  0.3760 -0.2275 -0.0451
  993SOD     NA14475   4.707   3.191   7.944  0.1302  0.2230 -0.0720
  994SOD     NA14476   0.609   1.562  10.949  0.0032  0.0136  0.1067
  995SOD     NA14477   3.758   1.478  13.586  0.0353 -0.2252 -0.7012
  996SOD     NA14478   2.879   0.174   0.524  0.0771 -0.0234 -0.2630
  997SOD     NA14479   0.592   1.792  10.711 -0.4137  0.0041 -0.6271
  998SOD     NA14480   3.540   3.990  17.219 -0.4977  0.0004  0.3379
  999SOD     NA14481   0.089   4.299   1.688 -0.0022 -0.2489 -0.1710
 1000SOD     NA14482   3.385   3.197  14.929 -0.3983  0.6940  0.1620
 1001SOD     NA14483   4.541   2.299  10.066  0.0512  0.2816  0.3131
 1002SOD     NA14484   3.114   3.588  12.927  0.1122 -0.0036 -0.1225
 1003SOD     NA14485   2.737   4.168  12.857 -0.2634  0.4230  0.3520
 1004SOD     NA14486   4.406   1.811  12.669  0.5501 -0.1997  0.1642
 1005SOD     NA14487   1.179   3.928  14.575  0.1920 -0.3254  0.2337
 1006SOD     NA14488   4.507   0.659   9.172 -0.3012  0.1824  0.8912
 1007SOD     NA14489   3.095   1.633  10.646  0.6226  0.0825  0.1368
 1008SOD     NA14490   1.456   3.714  14.365  0.5266 -0.0161  0.0491
 1009SOD     NA14491   1.083   1.822   9.766  0.2420  0.3806  0.5965
 1010SOD     NA14492   1.981   3.961   6.641  0.0885  0.1476  0.7879
 1011SOD     NA14493   3.431   3.089   2.545 -0.2347 -0.1129  0.0898
 1012SOL     OW14494   0.792   1.402  16.592 -0.2839  0.1682 -0.4055
 1012SOL    HW114495   0.702   1.435  16.604  1.1946  4.5620 -1.3441
 1012SOL    HW214496   0.832   1.478  16.635  0.1936 -1.2744  1.6804
 1013SOL     OW14497   0.546   1.721   9.799 -0.0584 -0.6725  0.4787
 1013SOL    HW114498   0.629   1.678   9.818  1.6498  2.1403 -0.5733
 1013SOL    HW214499   0.593   1.801   9.776  0.3410 -0.3821  2.2910
 1014SOL     OW14500   1.288   4.190   5.529 -0.0841  0.0582  0.1329
 1014SOL    HW114501   1.340   4.206   5.608 -0.7935  1.4182  0.3324
 1014SOL    HW214502   1.331   4.120   5.480 -0.8705 -0.3493  0.0243
 1015SOL     OW14503   0.245   4.154   2.400 -0.1246 -0.1806 -0.1642
 1015SOL    HW114504   0.206   4.068   2.416 -1.7911  0.9282  1.6298
 1015SOL    HW214505   0.298   4.154   2.480  2.0915  0.1787 -1.6305
 1016SOL     OW14506   3.036   3.900   6.519 -0.0463  0.1416  0.4278
 1016SOL    HW114507   3.066   3.845   6.447  0.4968 -0.1951  0.9113
 1016SOL    HW214508   3.109   3.962   6.516 -0.4208  0.4473 -2.0149
 1017SOL     OW14509   4.254   3.485   4.480 -0.0084  0.1131 -0.0777
 1017SOL    HW114510   4.331   3.542   4.489 -1.0508  1.5151 -0.0534
 1017SOL    HW214511   4.270   3.445   4.395  2.0397 -2.1190  1.3319
 1018SOL     OW14512   2.335   3.578   5.515  0.3138  0.4620 -0.6154
 1018SOL    HW114513   2.288   3.650   5.556 -0.5972  0.0449 -0.9278
 1018SOL    HW214514   2.309   3.512   5.579  2.1359  1.2315  0.9244
 1019SOL     OW14515   4.441   4.570  10.519 -0.4637  0.1032  0.3788
 1019SOL    HW114516   4.368   4.607  10.569  0.9197  1.9134  1.0372
 1019SOL    HW214517   4.397   4.525  10.447  0.4547 -0.0393 -0.0817
 1020SOL     OW14518   3.626   4.142   9.111  0.3620 -0.1020  0.7248
 1020SOL    HW114519   3.705   4.132   9.164  1.0293  1.2504 -0.0189
 1020SOL    HW214520   3.571   4.109   9.182 -3.2692  0.3527 -1.8764
 1021SOL     OW14521   1.281   0.218   4.330  0.1286 -0.0566  0.5774
 1021SOL    HW114522   1.186   0.207   4.323  0.2768 -0.6666 -0.5032
 1021SOL    HW214523   1.304   0.131   4.298 -1.4823 -0.5419  0.7502
 1022SOL     OW14524   4.294   2.608   9.003  0.4230 -0.2653  0.1985
 1022SOL    HW114525   4.313   2.625   9.095 -1.1594  2.2241  0.0737
 1022SOL    HW214526   4.321   2.517   8.992  0.6613 -0.2486  0.6718
 1023SOL     OW14527   4.144   3.194   2.858 -0.7235  0.5487 -0.0710
 1023SOL    HW114528   4.095   3.114   2.873  2.4560 -1.5109 -0.7070
 1023SOL    HW214529   4.204   3.210   2.931 -2.1132 -1.3973  1.4963
 1024SOL     OW14530   1.536   2.285   2.138 -0.3534  0.5398  0.4017
 1024SOL    HW114531   1.491   2.365   2.111  0.4575  0.9537  0.2507
 1024SOL    HW214532   1.551   2.247   2.051 -1.9555  1.8085 -0.4311
 1025SOL     OW14533   3.354   1.153   1.196 -0.1801 -0.1793  0.1813
 1025SOL    HW114534   3.285   1.187   1.253 -0.5120  1.8670 -1.4073
 1025SOL    HW214535   3.351   1.059   1.213 -2.1326 -0.1723 -0.0630
 1026SOL     OW14536   3.357   4.137   3.140  0.4121  0.1122  0.6358
 1026SOL    HW114537   3.359   4.049   3.178 -2.3766 -0.0554  0.3905
 1026SOL    HW214538   3.313   4.178   3.215 -0.5852 -0.7713  0.5251
 1027SOL     OW14539   4.366   2.983   6.173 -0.8375  0.4807 -0.3981
 1027SOL    HW114540   4.366   2.916   6.105  0.6939 -0.0010  0.0705
 1027SOL    HW214541   4.273   2.991   6.192 -1.1260 -0.8008 -1.2788
 1028SOL     OW14542   0.497   3.903   9.736  0.0114  0.2207  0.1769
 1028SOL    HW114543   0.472   3.849   9.661  0.3895  1.5964 -0.9274
 1028SOL    HW214544   0.532   3.836   9.795  0.0501  0.2171  0.1502
 1029SOL     OW14545   4.429   1.251   2.438  0.1209 -0.1445 -0.2340
 1029SOL    HW114546   4.492   1.179   2.435 -1.6308 -1.7493  1.9373
 1029SOL    HW214547   4.434   1.287   2.349 -0.1032  3.0068  1.0178
 1030SOL     OW14548   1.769   0.625   6.486 -0.2013 -0.5541 -0.8836
 1030SOL    HW114549   1.831   0.690   6.454  1.5529 -1.6158  0.3819
 1030SOL    HW214550   1.746   0.652   6.575  1.2836  1.1484 -1.0344
 1031SOL     OW14551   2.596   0.188   9.921 -0.4944 -0.4762  0.4005
 1031SOL    HW114552   2.670   0.145   9.878  1.3406  3.7827 -0.7455
 1031SOL    HW214553   2.648   0.261   9.954 -2.4918  0.8247  0.6694
 1032SOL     OW14554   1.103   0.834   8.465  0.1010  0.0794 -0.1671
 1032SOL    HW114555   1.061   0.838   8.551  2.0621 -2.3745  0.9038
 1032SOL    HW214556   1.173   0.770   8.478 -0.5996 -0.8166 -0.7337
 1033SOL     OW14557   0.436   2.977  15.857  0.0169  0.5322  0.0243
 1033SOL    HW114558   0.409   2.902  15.910 -1.0125  1.2340  0.4918
 1033SOL    HW214559   0.455   2.939  15.771  0.9729  0.1377  0.4108
 1034SOL     OW14560   4.174   2.780   1.560  0.5525  0.4880 -0.8601
 1034SOL    HW114561   4.264   2.768   1.590  0.9182  0.0583 -2.1081
 1034SOL    HW214562   4.123   2.771   1.640 -0.4629 -2.6840 -1.8623
 1035SOL     OW14563   4.647   0.305   4.571 -0.2303  1.0304 -0.0118
 1035SOL    HW114564   4.658   0.263   4.486  2.4186  2.0184 -0.1703
 1035SOL    HW214565   4.580   0.372   4.562  1.8529  3.2286  0.7367
 1036SOL     OW14566   1.610   0.835   8.040 -0.0087 -0.7776  0.2565
 1036SOL    HW114567   1.515   0.837   8.033 -0.0348 -1.3546  0.4185
 1036SOL    HW214568   1.625   0.777   8.115  1.5388 -0.5262  0.1431
 1037SOL     OW14569   2.882   0.723   2.168 -0.4429  0.1319  0.7809
 1037SOL    HW114570   2.869   0.700   2.076  1.5630  0.7897  0.3507
 1037SOL    HW214571   2.972   0.690   2.176 -0.7549 -1.4123 -1.9825
 1038SOL     OW14572   2.457   2.680  14.932 -0.1855  1.2209 -0.0468
 1038SOL    HW114573   2.526   2.666  14.867  0.3015  4.1104 -0.1223
 1038SOL    HW214574   2.441   2.774  14.938 -0.5321  1.2204 -0.9424
 1039SOL     OW14575   0.689   0.223   1.779 -0.0319 -0.3273  0.3570
 1039SOL    HW114576   0.762   0.219   1.718  2.5591 -1.4679  3.5615
 1039SOL    HW214577   0.662   0.315   1.772  1.2738 -0.0845 -1.3249
 1040SOL     OW14578   0.072   3.782  11.599  0.7128 -0.1406  0.7775
 1040SOL    HW114579   0.123   3.773  11.680  1.2030  1.1086  0.5980
 1040SOL    HW214580   0.057   3.876  11.600  0.6303 -0.1545  0.8744
 1041SOL     OW14581   0.655   0.223   0.869  0.0010 -0.9332  0.3356
 1041SOL    HW114582   0.594   0.198   0.799  0.6782 -1.8384  0.0607
 1041SOL    HW214583   0.740   0.222   0.826  1.3618 -1.3989  3.0132
 1042SOL     OW14584   0.404   2.640   3.240  0.3965  0.0849  0.0812
 1042SOL    HW114585   0.450   2.642   3.324  1.5011 -0.5677 -0.5120
 1042SOL    HW214586   0.354   2.722   3.245  0.3740  0.0258  0.9409
 1043SOL     OW14587   2.390   4.260   6.552  0.4925 -0.3225  0.3824
 1043SOL    HW114588   2.412   4.178   6.509  4.3857  1.4139 -1.0401
 1043SOL    HW214589   2.472   4.311   6.549  0.7129 -0.6605  0.7072
 1044SOL     OW14590   0.698   2.199   7.668  0.4777  0.2209  0.3860
 1044SOL    HW114591   0.759   2.239   7.606 -1.0476  0.1490 -1.1554
 1044SOL    HW214592   0.706   2.109   7.636  0.4614  0.3495  0.0179
 1045SOL     OW14593   4.717   0.115   4.393  0.2326  0.4380 -0.0150
 1045SOL    HW114594   4.700   0.144   4.304  0.8383  0.9111  0.0261
 1045SOL    HW214595   4.704   0.021   4.382 -0.9598  0.8065 -1.6955
 1046SOL     OW14596   1.716   2.498   7.608  0.0997  0.2066  0.5317
 1046SOL    HW114597   1.705   2.467   7.518 -0.4484  0.4061  0.5286
 1046SOL    HW214598   1.792   2.444   7.627  0.1975  1.5938  4.0077
 1047SOL     OW14599   1.684   3.746  10.561  0.2878  0.1089  0.2807
 1047SOL    HW114600   1.755   3.691  10.527 -1.5462 -1.7132 -0.5886
 1047SOL    HW214601   1.628   3.759  10.485 -0.6843 -1.1842  0.7595
 1048SOL     OW14602   1.234   2.812   6.619 -0.1453 -0.5740  0.7971
 1048SOL    HW114603   1.216   2.900   6.585  0.7841 -0.5200  0.4437
 1048SOL    HW214604   1.314   2.785   6.575 -0.9252 -1.4605 -0.0688
 1049SOL     OW14605   3.830   2.609  16.249  0.4944  0.4885 -0.0845
 1049SOL    HW114606   3.821   2.682  16.309 -0.5072  1.4186 -1.3754
 1049SOL    HW214607   3.849   2.659  16.170  3.3603  0.1220  0.3854
 1050SOL     OW14608   4.258   3.972   3.924 -0.3103 -0.1765 -0.7336
 1050SOL    HW114609   4.327   3.950   3.987 -1.6842 -0.2839  0.7115
 1050SOL    HW214610   4.234   4.058   3.956  0.8656  0.5648 -1.8384
 1051SOL     OW14611   2.597   0.329   3.488  0.5811 -0.3603 -0.2557
 1051SOL    HW114612   2.608   0.307   3.580  0.9540 -0.2702 -0.2764
 1051SOL    HW214613   2.537   0.403   3.492  0.5392 -0.4736  1.1145
 1052SOL     OW14614   3.069   0.205   0.279  0.5930  0.3154  0.2275
 1052SOL    HW114615   3.115   0.226   0.197  1.2641 -2.2820 -0.0550
 1052SOL    HW214616   2.989   0.162   0.247  1.6499 -0.8083 -0.8929
 1053SOL     OW14617   0.872   4.013   4.618 -0.5911  0.2876 -0.2064
 1053SOL    HW114618   0.838   4.024   4.530  2.0380 -1.3715 -1.4284
 1053SOL    HW214619   0.805   3.951   4.644  0.4842  0.0347  2.0051
 1054SOL     OW14620   4.286   3.798  10.005 -0.2197  0.5339  0.3647
 1054SOL    HW114621   4.312   3.859  10.073  0.6765 -0.0122  0.5113
 1054SOL    HW214622   4.251   3.865   9.947 -0.1993 -0.0920 -0.3741
 1055SOL     OW14623   0.397   4.061   5.663 -0.4819  0.1101  0.1201
 1055SOL    HW114624   0.330   4.043   5.597  0.3367 -1.0798 -0.3964
 1055SOL    HW214625   0.463   3.993   5.653  0.8005  1.1945  1.1994
 1056SOL     OW14626   1.786   0.202   2.244  0.1565  0.2034  0.1334
 1056SOL    HW114627   1.871   0.160   2.254 -0.8143 -0.6559  4.9095
 1056SOL    HW214628   1.738   0.170   2.322 -0.5104 -0.4140 -0.5244
 1057SOL     OW14629   3.095   1.533   0.112 -0.0447 -0.1497 -0.1745
 1057SOL    HW114630   3.143   1.458   0.078 -0.4081 -0.6290  0.3809
 1057SOL    HW214631   3.085   1.598   0.042 -1.9310 -0.5242 -0.2377
 1058SOL     OW14632   1.101   2.234   6.616  0.7719 -0.0989  0.0203
 1058SOL    HW114633   1.043   2.294   6.570 -0.8081  0.2051  2.4062
 1058SOL    HW214634   1.117   2.282   6.697 -0.7562  1.8663 -0.8616
 1059SOL     OW14635   3.092   1.875   6.697 -1.2150  0.5044  0.0381
 1059SOL    HW114636   3.110   1.899   6.607 -3.5009  2.4793  0.0921
 1059SOL    HW214637   3.182   1.869   6.730 -1.2818  3.8247  0.8602
 1060SOL     OW14638   2.215   2.938  13.304  0.1439  0.1340  0.2118
 1060SOL    HW114639   2.198   3.032  13.296 -1.6963 -0.2891 -0.8373
 1060SOL    HW214640   2.280   2.924  13.236  0.9422 -1.2160  1.2464
 1061SOL     OW14641   1.730   0.133   6.709  0.7127  0.3952 -0.5757
 1061SOL    HW114642   1.776   0.074   6.648  1.4667  0.3568  0.0358
 1061SOL    HW214643   1.711   0.209   6.654 -0.5540  0.6547  0.2195
 1062SOL     OW14644   0.032   3.833   4.205  0.0923  0.4098 -0.1889
 1062SOL    HW114645   0.037   3.791   4.119 -0.6190  0.7724 -0.4054
 1062SOL    HW214646   4.705   3.770   4.257  1.6793 -0.2835  0.4789
 1063SOL     OW14647   2.463   2.912   3.618 -0.9299  0.1065 -0.3399
 1063SOL    HW114648   2.421   2.952   3.695  1.5305 -0.1507  1.1456
 1063SOL    HW214649   2.406   2.952   3.552 -2.5630 -0.7158  0.5534
 1064SOL     OW14650   3.556   0.734   2.004  0.4453 -0.5428  0.4334
 1064SOL    HW114651   3.554   0.772   1.915 -1.1410 -0.4566  0.5111
 1064SOL    HW214652   3.615   0.659   1.993  0.6381 -0.5788  1.7412
 1065SOL     OW14653   1.033   1.449   5.772  0.2173 -0.1688 -0.0156
 1065SOL    HW114654   1.107   1.454   5.711  1.7542 -3.8676  1.5708
 1065SOL    HW214655   1.012   1.539   5.797 -2.8421 -0.1861 -2.5343
 1066SOL     OW14656   4.016   3.439   9.181  0.5399 -0.6655  0.2863
 1066SOL    HW114657   4.005   3.498   9.107 -1.4460 -1.0505  0.2653
 1066SOL    HW214658   3.925   3.411   9.191  0.3535  0.5631  1.9246
 1067SOL     OW14659   2.183   0.929   6.865 -0.6616  0.0107  0.4398
 1067SOL    HW114660   2.109   0.919   6.925 -2.4972  2.9921 -1.3056
 1067SOL    HW214661   2.161   1.013   6.825 -0.4479  1.0410  2.5403
 1068SOL     OW14662   4.312   2.894   1.224  0.4207 -0.1236 -0.5676
 1068SOL    HW114663   4.266   2.873   1.143 -0.2147 -2.0953  0.3117
 1068SOL    HW214664   4.243   2.871   1.286  2.5849 -1.6767  1.2904
 1069SOL     OW14665   2.795   2.870   7.461  0.2174 -0.1571  0.3082
 1069SOL    HW114666   2.785   2.791   7.407 -2.1150 -0.6171  1.4150
 1069SOL    HW214667   2.874   2.904   7.420  1.6278 -2.1168  1.4442
 1070SOL     OW14668   1.884   3.270   3.909 -0.0909 -0.6270 -0.2204
 1070SOL    HW114669   1.803   3.313   3.880  0.2166  0.3146  0.3316
 1070SOL    HW214670   1.934   3.350   3.918  0.9360 -1.1404 -1.4064
 1071SOL     OW14671   1.313   1.133   2.155  0.1901  0.0061 -0.3046
 1071SOL    HW114672   1.329   1.063   2.093  0.6822  1.2798 -1.6148
 1071SOL    HW214673   1.220   1.117   2.174  0.0541  1.0679 -0.0693
 1072SOL     OW14674   4.623   1.949  11.249 -0.1901  0.3511  0.2727
 1072SOL    HW114675   4.716   1.945  11.224 -0.5434  0.4346 -1.0726
 1072SOL    HW214676   4.609   2.037  11.282 -1.1665  0.0894  0.5367
 1073SOL     OW14677   1.997   0.701   8.447  0.0632 -0.0827 -0.4033
 1073SOL    HW114678   1.941   0.769   8.409 -1.1608 -0.5981  0.4714
 1073SOL    HW214679   1.939   0.654   8.506  2.3515 -2.1578  0.1892
 1074SOL     OW14680   2.733   1.119   8.633  0.2822  0.3266  0.1169
 1074SOL    HW114681   2.736   1.210   8.664  1.5326 -0.1088  1.2267
 1074SOL    HW214682   2.645   1.083   8.645  0.0101  2.4928  4.5981
 1075SOL     OW14683   4.044   0.929   2.421  0.0520  0.5389  0.4959
 1075SOL    HW114684   4.014   0.851   2.376  0.0376  1.3189 -0.8650
 1075SOL    HW214685   4.069   0.983   2.346 -0.6520  1.6277  1.0358
 1076SOL     OW14686   0.390   4.348   7.283  0.4387  0.4219 -0.1943
 1076SOL    HW114687   0.385   4.386   7.370 -0.3414 -1.1711  0.4492
 1076SOL    HW214688   0.316   4.288   7.276  0.4707  0.5482 -1.6729
 1077SOL     OW14689   0.258   4.226  13.067 -0.2662 -0.2355  0.2979
 1077SOL    HW114690   0.287   4.260  12.983 -0.1391  0.4724  0.6247
 1077SOL    HW214691   0.164   4.219  13.050  0.0182  3.3463 -2.6703
 1078SOL     OW14692   1.081   2.133  11.641 -0.1931 -0.2218  0.0167
 1078SOL    HW114693   1.107   2.215  11.685  0.3940 -0.3913 -0.0054
 1078SOL    HW214694   1.048   2.165  11.557 -0.0786 -0.5730 -0.1634
 1079SOL     OW14695   4.332   3.427   3.379 -0.0431 -0.1362  0.1760
 1079SOL    HW114696   4.264   3.433   3.312  0.3684 -0.8243 -0.3015
 1079SOL    HW214697   4.329   3.500   3.441  1.9117 -0.7048  0.9501
 1080SOL     OW14698   0.758   0.953   4.963 -0.3012  0.3283 -0.1201
 1080SOL    HW114699   0.836   0.952   4.908 -0.3783 -0.1868 -0.2183
 1080SOL    HW214700   0.732   0.862   4.952  2.2083 -0.3722 -0.4146
 1081SOL     OW14701   1.814   0.208  16.614  0.1944 -0.1424  0.0727
 1081SOL    HW114702   1.768   0.209  16.531  0.6036  1.9765 -0.1209
 1081SOL    HW214703   1.764   0.133  16.645  0.8420  1.0574  4.1023
 1082SOL     OW14704   2.289   1.410  15.255  0.1579 -0.2726  0.5224
 1082SOL    HW114705   2.203   1.397  15.294 -0.3158  0.1778 -0.3872
 1082SOL    HW214706   2.277   1.467  15.179  0.2063 -0.5329  0.3146
 1083SOL     OW14707   2.320   4.393   4.949  0.0736 -0.0602 -0.0147
 1083SOL    HW114708   2.225   4.396   4.963 -0.2820 -1.6417 -2.0495
 1083SOL    HW214709   2.356   4.381   5.037 -0.3691  1.2464  0.3444
 1084SOL     OW14710   4.521   2.926   6.491 -0.0841  0.8841 -0.0339
 1084SOL    HW114711   4.499   2.891   6.577 -0.2582  2.7295  0.6650
 1084SOL    HW214712   4.445   2.887   6.449  0.3427 -0.5195  0.4849
 1085SOL     OW14713   0.428   0.032   7.221 -0.0213  0.1241 -0.4805
 1085SOL    HW114714   0.433   4.714   7.134  1.8548 -2.4316  0.8124
 1085SOL    HW214715   0.385   4.683   7.268 -0.7105  0.9042  0.0658
 1086SOL     OW14716   1.225   2.149  10.140  0.6440  0.1029  0.3256
 1086SOL    HW114717   1.273   2.137  10.222 -1.5446 -2.0566  1.2822
 1086SOL    HW214718   1.296   2.156  10.076 -1.0425 -0.6793 -1.6207
 1087SOL     OW14719   2.158   2.918   7.421 -0.5280  0.1506 -0.8166
 1087SOL    HW114720   2.141   2.943   7.512 -0.5402  0.2108 -0.8350
 1087SOL    HW214721   2.131   3.002   7.383 -1.0410  0.5916  0.5272
 1088SOL     OW14722   0.846   3.004   7.202 -0.4142  0.2853 -0.4261
 1088SOL    HW114723   0.927   2.991   7.154 -0.2711 -2.1114  0.5047
 1088SOL    HW214724   0.793   3.046   7.134 -0.1201  0.9906 -0.2217
 1089SOL     OW14725   3.421   0.997   2.402 -0.5083 -0.4383 -0.2406
 1089SOL    HW114726   3.385   0.908   2.408 -0.9586 -0.2816 -0.6181
 1089SOL    HW214727   3.427   1.001   2.307 -3.0246 -0.6865 -0.4090
 1090SOL     OW14728   3.805   0.604   2.882  0.1818  0.2385 -0.5970
 1090SOL    HW114729   3.766   0.690   2.894 -0.0323  0.3966 -2.3751
 1090SOL    HW214730   3.890   0.630   2.846 -0.7170  2.3828 -1.1721
 1091SOL     OW14731   4.270   4.688   7.373  0.2652  0.3182  0.3303
 1091SOL    HW114732   4.327   4.693   7.450  0.1283  2.3777  0.2927
 1091SOL    HW214733   4.305   0.041   7.326 -0.7799  0.2242 -0.5874
 1092SOL     OW14734   0.746   3.184   1.679  0.2320 -0.4376  0.3826
 1092SOL    HW114735   0.804   3.259   1.671 -0.5380  0.2464  1.2131
 1092SOL    HW214736   0.705   3.193   1.765 -0.9371 -0.5492 -0.1613
 1093SOL     OW14737   0.037   3.108   3.775 -0.5503 -0.1917 -0.5379
 1093SOL    HW114738   4.710   3.186   3.748 -0.3610 -0.0625 -0.5191
 1093SOL    HW214739   0.067   3.080   3.689  2.5664  0.5444  0.3054
 1094SOL     OW14740   4.355   2.614   3.623 -0.4684 -0.0193 -0.3066
 1094SOL    HW114741   4.429   2.608   3.683 -1.5052  0.1166  0.9962
 1094SOL    HW214742   4.399   2.629   3.539  0.5751 -1.2104  0.0332
 1095SOL     OW14743   2.312   4.101   9.003  0.3674  0.1803 -0.0647
 1095SOL    HW114744   2.381   4.042   9.033  0.3936  1.2573  1.9874
 1095SOL    HW214745   2.309   4.088   8.909  0.6031 -3.5859  0.4135
 1096SOL     OW14746   4.367   0.066   4.413 -0.1304  0.2027  0.0090
 1096SOL    HW114747   4.286   0.099   4.453 -0.5501  0.8492 -1.3530
 1096SOL    HW214748   4.415   0.025   4.485  1.3652 -1.7558 -2.1008
 1097SOL     OW14749   3.077   0.283   1.776 -0.0421  0.5845 -0.3968
 1097SOL    HW114750   3.057   0.328   1.694  1.1852  0.2972 -0.8480
 1097SOL    HW214751   3.171   0.265   1.769 -0.1616 -0.8116  1.4978
 1098SOL     OW14752   3.600   1.247   1.642 -0.1005 -0.0835  0.3012
 1098SOL    HW114753   3.530   1.184   1.626 -0.3368  0.5041 -0.9843
 1098SOL    HW214754   3.553   1.313   1.692 -0.9759  0.2306 -0.9274
 1099SOL     OW14755   1.830   2.241  10.287 -0.3976 -0.5152 -0.1713
 1099SOL    HW114756   1.800   2.330  10.270  0.2116 -0.1641  0.5663
 1099SOL    HW214757   1.866   2.211  10.204 -0.1992 -2.4650  0.6113
 1100SOL     OW14758   0.427   0.282   2.488 -0.1469 -0.6970 -0.2574
 1100SOL    HW114759   0.512   0.239   2.479 -0.0945 -0.6122 -0.1634
 1100SOL    HW214760   0.423   0.295   2.582 -0.3381 -0.3874 -0.3091
 1101SOL     OW14761   2.924   0.205  15.063  0.1589  0.1705  0.1809
 1101SOL    HW114762   3.018   0.187  15.071 -0.1225 -2.3352 -2.1771
 1101SOL    HW214763   2.895   0.218  15.153 -1.4752 -2.8355  0.0933
 1102SOL     OW14764   1.091   3.236   5.308 -0.1294 -0.1555  0.2733
 1102SOL    HW114765   1.100   3.160   5.250  1.0298 -0.2547  0.5807
 1102SOL    HW214766   0.997   3.254   5.309 -0.2504 -0.7865  0.5105
 1103SOL     OW14767   2.392   3.776   8.057 -0.1259  0.0435 -0.5762
 1103SOL    HW114768   2.422   3.756   7.968 -0.7096 -0.9995 -0.5382
 1103SOL    HW214769   2.389   3.689   8.097  2.2645 -0.6582 -1.9305
 1104SOL     OW14770   2.148   0.875   3.211 -0.0566  0.3085  0.0494
 1104SOL    HW114771   2.136   0.782   3.191 -2.1750  0.2500  1.5865
 1104SOL    HW214772   2.103   0.924   3.143 -0.6292  0.3898  0.4883
 1105SOL     OW14773   4.541   2.567   6.779 -0.0281  0.3915 -0.0144
 1105SOL    HW114774   4.501   2.650   6.803  0.5385 -0.1666  2.8904
 1105SOL    HW214775   4.474   2.499   6.778  1.4471 -1.0703  0.4536
 1106SOL     OW14776   3.063   2.101   7.236  0.0790 -0.2169 -0.4960
 1106SOL    HW114777   3.025   2.043   7.170 -0.2216 -0.6971  0.0971
 1106SOL    HW214778   2.988   2.160   7.239  0.0705 -0.3050  1.3740
 1107SOL     OW14779   1.789   1.058   2.471  0.0423  0.3330 -0.0685
 1107SOL    HW114780   1.873   1.086   2.434  0.3153  2.2815  1.9516
 1107SOL    HW214781   1.826   1.013   2.547 -0.2046  1.7170  0.8857
 1108SOL     OW14782   4.494   3.815   3.248 -0.1344 -0.0114  0.0786
 1108SOL    HW114783   4.403   3.787   3.239 -0.2017  0.6459 -1.3372
 1108SOL    HW214784   4.515   3.765   3.327  1.9420  0.4847 -0.1701
 1109SOL     OW14785   1.706   2.638  16.921 -0.6150 -0.0415 -0.4939
 1109SOL    HW114786   1.654   2.632  17.001  0.1085 -1.1032 -0.0978
 1109SOL    HW214787   1.713   2.730  16.898 -2.0393  0.7812  2.3076
 1110SOL     OW14788   1.604   3.764   3.146 -0.2565 -0.2365 -0.3582
 1110SOL    HW114789   1.622   3.681   3.101 -0.9819  0.0882 -1.2485
 1110SOL    HW214790   1.607   3.822   3.070 -3.0456 -0.7264 -0.8286
 1111SOL     OW14791   2.419   1.135   7.966 -0.3279  0.3719  0.2865
 1111SOL    HW114792   2.502   1.119   7.922 -0.1252  1.9242  0.0997
 1111SOL    HW214793   2.447   1.157   8.055 -2.3596  1.9911  0.5635
 1112SOL     OW14794   0.094   1.224  13.763  0.4230 -0.3712  0.2562
 1112SOL    HW114795   0.134   1.305  13.732 -3.1044  1.5925  0.7823
 1112SOL    HW214796   0.060   1.265  13.842  1.9628  1.4132 -0.0202
 1113SOL     OW14797   2.779   0.730   4.117 -0.6303  0.2519 -0.2994
 1113SOL    HW114798   2.771   0.675   4.038 -0.2370  0.1043 -0.2356
 1113SOL    HW214799   2.829   0.800   4.076 -0.8500  0.3697 -0.3644
 1114SOL     OW14800   1.026   1.788   5.615 -0.9918  0.1148 -0.6536
 1114SOL    HW114801   1.013   1.737   5.695 -0.0993 -1.4018 -1.4577
 1114SOL    HW214802   0.936   1.817   5.607 -1.0703 -0.0148 -0.2431
 1115SOL     OW14803   2.954   1.702   4.669  0.5769 -0.5152  0.2235
 1115SOL    HW114804   2.884   1.763   4.648  1.3575 -0.1756 -1.4009
 1115SOL    HW214805   3.001   1.709   4.586  1.5517  0.7741  0.8740
 1116SOL     OW14806   2.818   2.305   5.049 -0.5461  0.8546 -0.4463
 1116SOL    HW114807   2.789   2.387   5.089  1.4114  0.6378  1.4528
 1116SOL    HW214808   2.849   2.345   4.968  0.3945 -2.8233 -1.9085
 1117SOL     OW14809   1.667   3.019  13.078 -0.1703  0.1434 -0.1649
 1117SOL    HW114810   1.731   3.004  13.009  0.1981  0.3473  0.1300
 1117SOL    HW214811   1.670   2.929  13.110 -0.3580  0.0546 -0.4025
 1118SOL     OW14812   0.109   1.587  12.866 -0.4218 -0.5519 -0.1461
 1118SOL    HW114813   0.188   1.572  12.917  0.8106  0.5064 -1.7354
 1118SOL    HW214814   0.141   1.554  12.782 -0.5625  2.1948 -1.2783
 1119SOL     OW14815   1.059   1.405  15.954 -0.0859  0.1364  0.2309
 1119SOL    HW114816   1.062   1.470  15.884 -0.5300 -1.1163 -0.9691
 1119SOL    HW214817   0.975   1.412  16.000  0.3610 -1.2167  1.2557
 1120SOL     OW14818   2.090   3.949   4.696  0.8658  0.1717  0.3797
 1120SOL    HW114819   2.168   3.894   4.710  0.1930 -1.0856 -0.8462
 1120SOL    HW214820   2.026   3.886   4.729 -0.1777  1.8754  1.6154
 1121SOL     OW14821   4.570   2.814   1.892 -0.2974 -0.3857 -0.3010
 1121SOL    HW114822   4.587   2.866   1.814 -3.8492  2.1900  0.6203
 1121SOL    HW214823   4.475   2.826   1.893  0.1644  2.9741  2.0418
 1122SOL     OW14824   1.872   3.659   2.075  0.1798 -0.0830  0.1216
 1122SOL    HW114825   1.932   3.585   2.076 -1.0325 -0.9815  3.3425
 1122SOL    HW214826   1.824   3.624   2.000 -0.8420 -0.7557  1.0903
 1123SOL     OW14827   1.457   4.044   5.940  0.3538 -0.2647 -0.8928
 1123SOL    HW114828   1.469   4.138   5.951  1.1593 -0.5039  0.2658
 1123SOL    HW214829   1.470   4.000   6.024 -1.0580  0.4033 -0.3280
 1124SOL     OW14830   2.003   1.239   4.117 -0.6953 -0.3354 -0.3200
 1124SOL    HW114831   1.988   1.293   4.195  0.0312 -0.0635 -0.3716
 1124SOL    HW214832   1.955   1.290   4.053  0.3638 -0.6020 -1.3199
 1125SOL     OW14833   2.595   0.213   3.778  0.5732  0.3114 -0.0711
 1125SOL    HW114834   2.584   0.119   3.767 -1.1806  0.3078  1.7468
 1125SOL    HW214835   2.551   0.240   3.858  1.0191 -0.5443  0.4608
 1126SOL     OW14836   1.779   1.433   4.550 -0.1632  0.4896 -0.2108
 1126SOL    HW114837   1.750   1.344   4.529  0.7615  0.6991 -2.3113
 1126SOL    HW214838   1.759   1.486   4.473  1.3232  1.9933  0.4349
 1127SOL     OW14839   0.759   0.708   8.364  0.1179  0.0451 -0.5610
 1127SOL    HW114840   0.736   0.758   8.285 -0.5206  0.7154  0.0385
 1127SOL    HW214841   0.851   0.729   8.374 -0.2764  0.7595  1.6210
 1128SOL     OW14842   2.898   3.410  17.028 -0.3189  0.6878 -0.0221
 1128SOL    HW114843   2.918   3.500  17.001 -1.6785  1.0335  0.1376
 1128SOL    HW214844   2.914   3.359  16.950  0.9529 -1.2435  1.5098
 1129SOL     OW14845   4.630   2.912   6.117 -0.1577  0.2057 -0.2229
 1129SOL    HW114846   4.540   2.884   6.136  0.0172  0.2848  0.7342
 1129SOL    HW214847   4.682   2.867   6.185 -1.1998  0.4073  0.7124
 1130SOL     OW14848   4.528   1.572  10.649  0.2199  0.2978 -0.1680
 1130SOL    HW114849   4.609   1.530  10.678  0.0656  0.2406  0.1792
 1130SOL    HW214850   4.560   1.599  10.563  0.0227  0.8706 -0.0603
 1131SOL     OW14851   4.274   2.311   5.372 -0.3877 -0.1374  0.3684
 1131SOL    HW114852   4.360   2.277   5.348 -1.0568 -0.4570 -1.5941
 1131SOL    HW214853   4.259   2.282   5.462 -0.6216 -0.0586  0.3559
 1132SOL     OW14854   1.250   3.304   7.532 -0.6810 -0.5871  0.2155
 1132SOL    HW114855   1.178   3.240   7.533 -0.6240 -0.6441  1.1044
 1132SOL    HW214856   1.196   3.382   7.541  0.2583 -0.0810  1.5090
 1133SOL     OW14857   0.108   0.271   3.366 -0.3011  0.4632 -0.8898
 1133SOL    HW114858   0.088   0.178   3.355  0.4298  0.2533 -0.4383
 1133SOL    HW214859   0.130   0.262   3.459  0.8701 -0.2847 -1.2325
 1134SOL     OW14860   3.856   4.591   4.476 -1.0188 -0.5224  0.1034
 1134SOL    HW114861   3.816   4.544   4.402 -1.4568  1.7173 -1.0735
 1134SOL    HW214862   3.792   4.662   4.482 -0.4618 -0.0567  0.5200
 1135SOL     OW14863   0.943   4.255   1.836 -0.7664  0.2490  0.1685
 1135SOL    HW114864   0.886   4.319   1.793 -1.3565  0.5982  1.4862
 1135SOL    HW214865   1.029   4.278   1.800 -0.7743 -0.1566 -0.1183
 1136SOL     OW14866   4.384   0.218   0.142 -1.0386 -0.6453 -0.3885
 1136SOL    HW114867   4.431   0.296   0.173 -0.3235 -1.1897 -0.0916
 1136SOL    HW214868   4.290   0.234   0.151 -0.7072  1.8722 -1.4683
 1137SOL     OW14869   3.071   0.960   5.848  0.0222 -0.0141 -0.0423
 1137SOL    HW114870   3.012   1.030   5.876 -1.0750 -0.9016 -0.1477
 1137SOL    HW214871   3.023   0.883   5.877  1.6957 -0.7876  0.7068
 1138SOL     OW14872   3.216   4.349   8.572  0.1903  0.1374  0.0878
 1138SOL    HW114873   3.174   4.348   8.486 -1.9717 -1.7734  1.1855
 1138SOL    HW214874   3.235   4.259   8.596 -0.5481 -0.2137 -0.6328
 1139SOL     OW14875   0.864   0.029   0.159  0.4923 -0.3864  0.4673
 1139SOL    HW114876   0.958   0.018   0.173  0.2794 -0.5110  1.8162
 1139SOL    HW214877   0.862   0.030   0.063 -0.1642 -0.7843  0.4802
 1140SOL     OW14878   3.214   4.710   7.382  0.8098 -0.2659 -0.1045
 1140SOL    HW114879   3.178   0.003   7.469  0.5043 -0.1568 -0.2499
 1140SOL    HW214880   3.136   0.018   7.335  0.2817 -2.0488 -0.3867
 1141SOL     OW14881   0.515   3.887   4.369 -0.4895 -0.0316  0.0969
 1141SOL    HW114882   0.509   3.869   4.275 -1.3714  1.2565 -0.0848
 1141SOL    HW214883   0.513   3.802   4.413  1.1367  0.3975  0.9885
 1142SOL     OW14884   0.833   2.109   0.623 -0.0171  0.0180  0.0274
 1142SOL    HW114885   0.831   2.171   0.550 -1.2710 -1.2928 -1.0494
 1142SOL    HW214886   0.908   2.131   0.679 -0.8327 -1.4357  1.6650
 1143SOL     OW14887   2.022   3.681   3.589 -0.3004 -0.1094 -0.3292
 1143SOL    HW114888   2.028   3.596   3.544 -0.5401  0.6268 -1.7724
 1143SOL    HW214889   2.113   3.678   3.618 -0.8782  0.3419  1.5073
 1144SOL     OW14890   1.019   0.060  16.155  0.1919 -0.2067 -0.1899
 1144SOL    HW114891   0.983   0.080  16.068  2.5286 -0.0253 -1.0945
 1144SOL    HW214892   1.055   0.148  16.164 -0.0663 -0.0714 -0.4743
 1145SOL     OW14893   0.637   3.973  12.164  0.0518 -0.6025  0.6175
 1145SOL    HW114894   0.685   3.895  12.192  2.8415  1.7141  2.2730
 1145SOL    HW214895   0.578   3.933  12.100  2.3299 -1.2205 -1.0956
 1146SOL     OW14896   3.132   0.146   2.262 -0.3274 -0.3607  0.0848
 1146SOL    HW114897   3.124   0.069   2.319  0.2080 -0.5560 -0.1060
 1146SOL    HW214898   3.132   0.100   2.178  2.5086 -1.7789  0.8576
 1147SOL     OW14899   2.502   0.400   6.890 -0.3341 -0.2893  0.1647
 1147SOL    HW114900   2.527   0.383   6.981 -0.3210  0.2652  0.2655
 1147SOL    HW214901   2.429   0.460   6.907  0.9003  1.4922 -0.8886
 1148SOL     OW14902   1.714   1.218   5.207  0.4151  1.1102 -0.3335
 1148SOL    HW114903   1.622   1.213   5.180  0.4696 -1.5846 -0.0423
 1148SOL    HW214904   1.754   1.135   5.181 -2.2011 -0.2342 -0.1871
 1149SOL     OW14905   4.443   2.628  15.625  0.4941  0.4359 -0.3559
 1149SOL    HW114906   4.456   2.699  15.688  0.6733  0.4149 -0.3707
 1149SOL    HW214907   4.535   2.618  15.601  0.8066 -2.9269  2.2310
 1150SOL     OW14908   0.274   1.816   9.858 -0.2303 -0.4982 -0.1054
 1150SOL    HW114909   0.341   1.754   9.827 -0.2875 -0.0874 -1.0568
 1150SOL    HW214910   0.304   1.900   9.823 -1.7133  0.4327  0.8842
 1151SOL     OW14911   2.085   1.175  12.345  0.1550  0.6067  0.7136
 1151SOL    HW114912   2.065   1.135  12.260 -0.7348  1.8499  0.3382
 1151SOL    HW214913   2.179   1.184  12.332  0.1720 -1.3742 -0.5155
 1152SOL     OW14914   4.529   3.092   5.659  0.2956  0.3639  0.6103
 1152SOL    HW114915   4.529   2.998   5.643  2.1709  0.3631  0.6533
 1152SOL    HW214916   4.597   3.119   5.597  0.2572 -0.5143  0.2000
 1153SOL     OW14917   2.244   3.866  12.990  0.5631 -0.2544 -0.6965
 1153SOL    HW114918   2.238   3.818  13.072 -0.9877  1.2289  0.0697
 1153SOL    HW214919   2.335   3.877  12.960  0.4583  1.5180 -0.3781
 1154SOL     OW14920   0.813   4.149  13.744  0.5105 -0.2084  0.0331
 1154SOL    HW114921   0.822   4.238  13.710 -0.0412  0.5491  1.9035
 1154SOL    HW214922   0.818   4.164  13.838  1.8032  1.6464 -0.3336
 1155SOL     OW14923   1.744   4.275   7.535 -0.2858 -0.0677 -0.2433
 1155SOL    HW114924   1.660   4.231   7.547  0.4036 -1.9436 -2.2657
 1155SOL    HW214925   1.796   4.198   7.512  1.5236  1.2119 -0.3931
 1156SOL     OW14926   0.723   1.187   3.504 -0.4456  0.1572 -0.3848
 1156SOL    HW114927   0.793   1.185   3.569 -1.1483 -0.5124  0.3482
 1156SOL    HW214928   0.646   1.176   3.560  0.6834 -0.1337  1.1148
 1157SOL     OW14929   0.755   1.820   5.672  0.1697  0.1853 -0.2293
 1157SOL    HW114930   0.675   1.873   5.677 -0.0748 -0.1796 -0.2409
 1157SOL    HW214931   0.748   1.769   5.591 -2.4589 -1.6970  1.1604
 1158SOL     OW14932   3.337   0.280   1.785 -0.3294  0.0191 -0.1094
 1158SOL    HW114933   3.387   0.361   1.796 -1.0652  0.7285 -2.0469
 1158SOL    HW214934   3.410   0.219   1.776 -1.3911 -1.4176  1.0649
 1159SOL     OW14935   1.831   0.510   2.906 -0.2811  0.7579  0.0955
 1159SOL    HW114936   1.872   0.463   2.833  2.7630 -0.1710  2.4006
 1159SOL    HW214937   1.740   0.482   2.894  0.8409 -2.3878 -1.2126
 1160SOL     OW14938   0.239   3.149   2.624 -0.2370  0.2998 -0.0231
 1160SOL    HW114939   0.249   3.221   2.563 -1.5239  1.1822  0.8091
 1160SOL    HW214940   0.160   3.108   2.590  0.8447 -0.6848 -1.3900
 1161SOL     OW14941   0.271   3.325   3.223  0.1962 -0.4215 -0.1046
 1161SOL    HW114942   0.251   3.297   3.134 -2.9590  1.1209  0.1125
 1161SOL    HW214943   0.191   3.369   3.251  0.7485  1.4413 -1.4329
 1162SOL     OW14944   1.433   2.245   5.200  0.5244 -0.1657 -0.1647
 1162SOL    HW114945   1.529   2.248   5.198  0.5452  0.5745  1.8474
 1162SOL    HW214946   1.416   2.237   5.294  0.2308  2.6982  0.0261
 1163SOL     OW14947   4.472   2.781  10.981 -0.2449 -0.6091 -0.0461
 1163SOL    HW114948   4.481   2.876  10.973 -1.2533 -0.5939 -0.9674
 1163SOL    HW214949   4.558   2.771  11.022  0.2222 -0.9670 -1.1243
 1164SOL     OW14950   0.393   3.478   3.718 -0.1647 -0.0737  0.2171
 1164SOL    HW114951   0.448   3.399   3.725 -0.8777 -0.5796  0.1262
 1164SOL    HW214952   0.381   3.494   3.812  0.2660  0.3482  0.2003
 1165SOL     OW14953   3.065   2.476   9.941  0.4272  0.2341  0.4610
 1165SOL    HW114954   3.156   2.482   9.971  0.5144 -0.0019  0.2422
 1165SOL    HW214955   3.026   2.548   9.990 -0.4292  0.9482 -1.2862
 1166SOL     OW14956   3.147   3.514   3.448  0.7222  0.4377  0.3504
 1166SOL    HW114957   3.205   3.439   3.440 -0.1934 -0.4138  1.8021
 1166SOL    HW214958   3.133   3.513   3.543 -2.9394  1.2109 -0.1783
 1167SOL     OW14959   2.128   3.262   2.610  0.0213 -0.5603  0.4399
 1167SOL    HW114960   2.055   3.237   2.553 -0.4347 -2.7602  1.9733
 1167SOL    HW214961   2.147   3.352   2.585 -1.1560 -0.5260 -0.3689
 1168SOL     OW14962   0.866   1.635  16.679 -0.2623  0.8098  0.2270
 1168SOL    HW114963   0.900   1.713  16.636 -1.2945  0.3853 -1.3308
 1168SOL    HW214964   0.935   1.612  16.742  1.7532 -1.5734 -2.9127
 1169SOL     OW14965   3.923   0.334   4.903  0.3066  0.3384  0.5106
 1169SOL    HW114966   3.851   0.345   4.841  0.2101 -0.1385  0.5315
 1169SOL    HW214967   3.991   0.399   4.885 -0.7393  0.5198 -2.7140
 1170SOL     OW14968   2.406   4.053   8.107 -0.2797  0.0556 -0.8131
 1170SOL    HW114969   2.415   4.057   8.202  3.1759 -1.2726 -1.0762
 1170SOL    HW214970   2.386   3.959   8.097  0.9744 -0.5571  2.6993
 1171SOL     OW14971   4.714   1.117   8.346 -0.4951 -0.5589  0.2014
 1171SOL    HW114972   0.019   1.026   8.335  0.7377 -0.0556 -0.8496
 1171SOL    HW214973   0.071   1.165   8.372  0.3691 -2.0120  0.2268
 1172SOL     OW14974   1.802   3.419   7.106  0.2570 -0.3483  0.4450
 1172SOL    HW114975   1.789   3.501   7.058 -1.1966 -0.3900  0.7776
 1172SOL    HW214976   1.726   3.371   7.076  0.8996 -1.9578  1.4124
 1173SOL     OW14977   3.453   0.946   4.385 -0.5308  0.0074 -0.5535
 1173SOL    HW114978   3.440   0.994   4.303 -0.3015  0.4616 -0.3173
 1173SOL    HW214979   3.518   0.882   4.355 -0.6147 -0.3021 -0.0765
 1174SOL     OW14980   0.054   4.340  10.138 -0.4253  0.2627 -0.0947
 1174SOL    HW114981   0.091   4.332  10.226  0.7193 -0.0703 -0.6057
 1174SOL    HW214982   0.006   4.258  10.131  0.5984 -0.3699  0.3236
 1175SOL     OW14983   2.511   4.105   2.290 -1.3288  0.0911 -0.5580
 1175SOL    HW114984   2.469   4.030   2.247 -1.6155  0.5042 -0.9984
 1175SOL    HW214985   2.480   4.083   2.378 -2.4619 -2.1450 -1.5095
 1176SOL     OW14986   1.013   1.750   6.572 -1.0847  0.4895  0.0931
 1176SOL    HW114987   1.066   1.695   6.514 -1.2305  0.5740 -0.1181
 1176SOL    HW214988   0.979   1.684   6.634 -1.8210  0.1239 -0.7095
 1177SOL     OW14989   1.730   1.681   2.302 -0.2047  0.2737  0.9460
 1177SOL    HW114990   1.808   1.627   2.316 -1.1838 -1.4699 -0.2029
 1177SOL    HW214991   1.696   1.686   2.391 -0.9210  0.1272  0.6780
 1178SOL     OW14992   3.372   1.817   8.347 -0.0504  0.1552 -0.0364
 1178SOL    HW114993   3.320   1.737   8.333  0.3367 -0.1060 -0.0048
 1178SOL    HW214994   3.418   1.789   8.426 -0.7140 -0.4505  0.1392
 1179SOL     OW14995   0.145   2.047   7.995  0.1922  0.5472 -0.3915
 1179SOL    HW114996   0.208   2.100   8.044  2.5151 -1.3230 -1.3375
 1179SOL    HW214997   0.163   1.963   8.038 -1.3580 -1.3772 -3.5223
 1180SOL     OW14998   3.659   1.690  14.831 -0.1603  0.4285 -0.0121
 1180SOL    HW114999   3.589   1.635  14.795  0.5472  0.4187 -1.3729
 1180SOL    HW215000   3.614   1.774  14.821  0.4807  1.0262  2.1944
 1181SOL     OW15001   4.655   2.090   7.855  0.3435  0.4252 -0.7036
 1181SOL    HW115002   4.587   2.114   7.918  0.8970 -1.8918  0.7952
 1181SOL    HW215003   0.002   2.060   7.913 -1.8779 -2.0998  0.6529
 1182SOL     OW15004   4.656   2.139   3.315  0.2998  0.0274  0.2342
 1182SOL    HW115005   4.595   2.178   3.378 -1.2186  0.9123 -1.7855
 1182SOL    HW215006   4.603   2.102   3.244 -1.8082  1.3078  1.1551
 1183SOL     OW15007   2.899   2.440   6.224 -0.9982  0.0363 -0.9963
 1183SOL    HW115008   2.930   2.383   6.294 -0.4746  0.7316 -0.6572
 1183SOL    HW215009   2.969   2.505   6.216  0.0249 -0.6617  2.3510
 1184SOL     OW15010   0.072   4.039   4.430 -0.5844 -0.3460  0.3270
 1184SOL    HW115011   0.067   4.123   4.385 -1.2927  0.7278  2.4159
 1184SOL    HW215012   4.718   3.993   4.396  0.7421 -1.3670 -1.2802
 1185SOL     OW15013   0.890   3.037  10.449  0.4514  0.0417 -0.5322
 1185SOL    HW115014   0.968   3.088  10.469  0.6073 -0.7869  0.9948
 1185SOL    HW215015   0.898   2.976  10.523 -0.1658 -1.6471 -1.8491
 1186SOL     OW15016   0.419   3.810   0.301  0.2660  0.1397 -0.2825
 1186SOL    HW115017   0.410   3.856   0.385  3.1877  0.8234 -0.3102
 1186SOL    HW215018   0.497   3.859   0.273 -0.0909  0.4159 -0.7806
 1187SOL     OW15019   4.367   2.867   2.685 -0.1898  0.1880 -0.0512
 1187SOL    HW115020   4.288   2.813   2.691 -2.1305  3.1914  1.1225
 1187SOL    HW215021   4.436   2.806   2.658 -1.0814 -0.2235 -1.4297
 1188SOL     OW15022   0.876   1.257   4.318  0.0879  0.9195  0.1004
 1188SOL    HW115023   0.867   1.318   4.244 -1.0862 -0.1009 -0.6008
 1188SOL    HW215024   0.969   1.263   4.338  0.0764  0.7543  0.2076
 1189SOL     OW15025   0.862   1.408   4.082 -0.2214  0.5122 -0.0293
 1189SOL    HW115026   0.820   1.494   4.086  1.0298  1.2168 -1.6686
 1189SOL    HW215027   0.954   1.429   4.067  0.0156 -0.0092  0.7104
 1190SOL     OW15028   4.379   3.567  10.130  0.4382  0.2149 -1.0268
 1190SOL    HW115029   4.343   3.648  10.094  3.1816  1.5304 -0.8533
 1190SOL    HW215030   4.320   3.548  10.203  0.4692 -1.9036 -1.5469
 1191SOL     OW15031   1.923   4.068   5.782  0.1304  0.7225 -0.0077
 1191SOL    HW115032   1.839   4.040   5.746  0.6589 -0.2814 -0.4466
 1191SOL    HW215033   1.979   3.993   5.761 -0.2964  0.2799  0.4605
 1192SOL     OW15034   1.373   1.203  13.114 -0.2489 -0.9255  0.2410
 1192SOL    HW115035   1.322   1.124  13.134  0.1206 -1.3572 -0.5067
 1192SOL    HW215036   1.435   1.201  13.187 -0.6261  2.2024  0.6218
 1193SOL     OW15037   0.358   1.383   8.814 -0.1532  0.2663  0.5316
 1193SOL    HW115038   0.343   1.290   8.800  1.5662 -0.0324  0.7325
 1193SOL    HW215039   0.268   1.414   8.830  0.1748  1.8300 -0.5699
 1194SOL     OW15040   4.225   3.287  16.181  0.0352 -0.2135 -0.4100
 1194SOL    HW115041   4.257   3.209  16.228 -2.3839 -1.1956 -0.4032
 1194SOL    HW215042   4.152   3.252  16.131 -0.4295  3.1057 -2.0228
 1195SOL     OW15043   4.666   4.237   7.801 -0.0217  0.0743  0.4342
 1195SOL    HW115044   4.672   4.245   7.706  1.0986  1.1876  0.5994
 1195SOL    HW215045   4.577   4.206   7.814  0.2991 -0.4690  1.3213
 1196SOL     OW15046   1.276   2.531   7.872  0.3075  0.4571 -0.4450
 1196SOL    HW115047   1.327   2.590   7.926 -1.2206  0.3693  1.0845
 1196SOL    HW215048   1.193   2.579   7.868  0.6192  1.0361  0.2098
 1197SOL     OW15049   0.284   1.381   5.032  0.0179 -0.1075 -0.6366
 1197SOL    HW115050   0.362   1.418   4.991 -0.9704  0.4253 -2.0440
 1197SOL    HW215051   0.234   1.345   4.959 -1.3768  1.4998 -0.4888
 1198SOL     OW15052   2.472   3.689  15.010  0.1759 -0.6678  0.0936
 1198SOL    HW115053   2.519   3.606  15.012  0.8846 -0.1897  2.9009
 1198SOL    HW215054   2.398   3.674  14.951 -0.3597 -0.9355  0.8320
 1199SOL     OW15055   4.071   1.481   1.298  0.0067 -0.0571 -0.3317
 1199SOL    HW115056   4.066   1.505   1.391 -0.2906  0.0388 -0.3729
 1199SOL    HW215057   4.004   1.538   1.262 -1.0246 -0.7172  0.5514
 1200SOL     OW15058   0.676   3.709   1.154 -0.1869 -0.1062 -0.3260
 1200SOL    HW115059   0.763   3.743   1.134  0.5749 -1.3364  0.9127
 1200SOL    HW215060   0.677   3.713   1.250  2.4430 -1.7122 -0.3067
 1201SOL     OW15061   4.053   0.972   1.141  0.5048 -0.4894  0.2420
 1201SOL    HW115062   3.963   0.962   1.111  1.8636 -0.6648 -3.8021
 1201SOL    HW215063   4.104   0.918   1.081 -1.7083 -1.1406 -1.0250
 1202SOL     OW15064   3.120   2.402   6.669  0.7365  0.6018 -0.2384
 1202SOL    HW115065   3.136   2.469   6.602 -1.0564  0.1863 -1.0987
 1202SOL    HW215066   3.201   2.412   6.719  1.0014 -2.2980 -0.0362
 1203SOL     OW15067   1.027   3.012   5.710 -0.2606 -0.2319 -0.6825
 1203SOL    HW115068   0.944   3.055   5.690  0.0262  0.3339 -0.6495
 1203SOL    HW215069   1.060   2.981   5.626 -0.5819  0.7019 -1.1497
 1204SOL     OW15070   0.821   3.630   2.355 -0.1626 -0.6169  0.2952
 1204SOL    HW115071   0.850   3.719   2.377 -0.7056 -0.2268 -0.5522
 1204SOL    HW215072   0.756   3.641   2.285  0.1706 -1.4873 -0.1478
 1205SOL     OW15073   2.796   0.063   9.784  1.3554  0.0225  0.0493
 1205SOL    HW115074   2.885   0.043   9.813  1.1435  0.1251  0.7836
 1205SOL    HW215075   2.794   4.705   9.732 -3.0080  0.3011 -0.2513
 1206SOL     OW15076   1.069   0.992  17.245 -0.3672 -0.3640  0.1241
 1206SOL    HW115077   1.047   1.083  17.222  2.0774  0.3781  0.6916
 1206SOL    HW215078   0.981   0.956  17.252  0.5996 -2.5002  1.0524
 1207SOL     OW15079   1.975   3.734   4.837  0.1614 -0.2637  0.3789
 1207SOL    HW115080   2.018   3.701   4.916 -0.9762  0.7674  1.4213
 1207SOL    HW215081   1.947   3.652   4.795 -0.8158  0.7821 -0.9992
 1208SOL     OW15082   4.432   0.982   6.573 -0.4522  0.5012  0.2519
 1208SOL    HW115083   4.487   0.913   6.611 -1.6497  0.1591  1.3550
 1208SOL    HW215084   4.387   0.932   6.504 -0.6813  2.6109 -1.1202
 1209SOL     OW15085   2.478   2.545  14.034 -0.0337 -0.1364  0.3547
 1209SOL    HW115086   2.492   2.627  13.987  1.4100 -0.1204  0.8156
 1209SOL    HW215087   2.397   2.574  14.076  0.5556  1.5516  0.3298
 1210SOL     OW15088   2.295   0.756   6.342  0.3905  0.2752 -0.8296
 1210SOL    HW115089   2.361   0.773   6.410 -1.9112 -1.0479  1.7178
 1210SOL    HW215090   2.333   0.787   6.259  1.5723  0.8467 -0.0803
 1211SOL     OW15091   2.064   2.847  13.754  0.6317 -0.8199  0.2756
 1211SOL    HW115092   2.019   2.890  13.681 -0.2067 -1.1952  0.5690
 1211SOL    HW215093   2.015   2.767  13.772 -0.8709  0.3963  1.5812
 1212SOL     OW15094   2.818   0.877   7.112  0.0576 -0.0162  0.8509
 1212SOL    HW115095   2.846   0.945   7.173 -1.1090  0.5672  0.7564
 1212SOL    HW215096   2.770   0.812   7.163 -1.6544  1.1031  0.6808
 1213SOL     OW15097   1.513   2.359  12.138 -0.1295 -0.2740 -0.2253
 1213SOL    HW115098   1.516   2.272  12.177 -0.2585 -0.3629 -0.4103
 1213SOL    HW215099   1.546   2.337  12.051  0.0558  1.4895 -0.5985
 1214SOL     OW15100   4.619   3.536  17.663 -0.4924 -0.3808 -0.6727
 1214SOL    HW115101   4.595   3.606   0.031 -1.2008  0.7236 -2.2326
 1214SOL    HW215102   4.534   3.491  17.664  0.1409 -1.5966 -1.1125
 1215SOL     OW15103   1.127   3.649  13.682 -0.2636  0.3979  0.0409
 1215SOL    HW115104   1.111   3.704  13.606  2.5194 -0.0617 -0.8835
 1215SOL    HW215105   1.198   3.703  13.718 -0.0749 -1.4996  2.5366
 1216SOL     OW15106   1.777   4.152   4.946  0.5778 -0.5659 -0.4699
 1216SOL    HW115107   1.827   4.233   4.960  1.3130 -0.8485 -1.5017
 1216SOL    HW215108   1.838   4.091   4.988 -0.0742  0.3435  1.8320
 1217SOL     OW15109   2.981   0.330   5.542  0.5900  0.2965  0.0984
 1217SOL    HW115110   2.947   0.344   5.454 -2.6493 -2.7153  0.8523
 1217SOL    HW215111   3.014   0.241   5.529  0.9832  0.5771 -0.7927
 1218SOL     OW15112   3.403   3.709   5.276 -0.9720  0.2239  0.2103
 1218SOL    HW115113   3.407   3.764   5.197  0.1233 -0.0643  0.0689
 1218SOL    HW215114   3.497   3.692   5.285 -1.2801 -1.7198 -0.2334
 1219SOL     OW15115   0.714   2.878   7.599  0.1574  0.1039 -0.4470
 1219SOL    HW115116   0.745   2.789   7.614  0.8541  0.1709 -1.4843
 1219SOL    HW215117   0.691   2.869   7.506 -0.2183  1.6819 -0.5161
 1220SOL     OW15118   1.178   0.874  13.987  0.2693 -0.0655 -0.4415
 1220SOL    HW115119   1.085   0.853  13.981 -0.0125  1.4366 -1.0798
 1220SOL    HW215120   1.213   0.786  13.968 -2.0918 -1.0508 -0.2727
 1221SOL     OW15121   3.156   2.926   6.151  0.2034  0.8817 -0.1306
 1221SOL    HW115122   3.251   2.919   6.151 -0.1889 -4.5096 -3.4459
 1221SOL    HW215123   3.143   2.979   6.073  0.4396 -0.2065 -0.9170
 1222SOL     OW15124   0.101   4.203   6.917 -0.3134 -0.0869  0.1221
 1222SOL    HW115125   0.086   4.284   6.867 -2.4630  0.2717  1.3733
 1222SOL    HW215126   0.036   4.206   6.986  0.3634 -0.6502  0.7736
 1223SOL     OW15127   1.946   4.663  15.233  0.2510  0.3899 -0.1118
 1223SOL    HW115128   1.865   4.703  15.265 -0.0587  0.0062 -0.4153
 1223SOL    HW215129   1.927   4.667  15.139  1.6172 -3.5998 -0.5299
 1224SOL     OW15130   1.302   4.699   9.764  0.1896  0.3625 -0.4077
 1224SOL    HW115131   1.293   0.056   9.818  1.8178  2.0450 -2.5990
 1224SOL    HW215132   1.398   4.694   9.769  0.1925  1.2587  0.5144
 1225SOL     OW15133   4.423   3.791   1.350 -0.8094  0.3313 -0.4171
 1225SOL    HW115134   4.464   3.705   1.352 -1.2716  0.1289  0.6413
 1225SOL    HW215135   4.382   3.778   1.264 -0.3309 -0.9920 -0.4545
 1226SOL     OW15136   2.500   1.004  15.363  0.3145 -0.4529 -0.4106
 1226SOL    HW115137   2.503   1.096  15.335  0.3305 -0.3048  0.0711
 1226SOL    HW215138   2.530   0.963  15.282 -1.4628 -0.3961 -1.0959
 1227SOL     OW15139   4.118   1.106   0.436  0.0717  0.0051 -0.6507
 1227SOL    HW115140   4.121   1.185   0.490 -0.7908  0.4650 -1.2639
 1227SOL    HW215141   4.200   1.114   0.387  1.5396 -0.2436  1.7808
 1228SOL     OW15142   4.010   0.911  14.581  0.6388  0.6013 -0.5256
 1228SOL    HW115143   4.094   0.954  14.596 -0.2053  1.4091  1.9272
 1228SOL    HW215144   3.963   0.929  14.663 -0.2321 -0.4004 -0.8066
 1229SOL     OW15145   3.240   4.408  15.370 -0.7449 -0.3271 -0.5462
 1229SOL    HW115146   3.166   4.354  15.398 -0.1706 -1.2082 -0.7448
 1229SOL    HW215147   3.219   4.417  15.277 -2.0358  2.4301 -0.0105
 1230SOL     OW15148   4.539   3.812   5.772 -0.4474  0.0881 -0.4065
 1230SOL    HW115149   4.539   3.830   5.678 -2.0614  2.4387  0.0616
 1230SOL    HW215150   4.630   3.835   5.789 -0.5107  1.4601 -1.9327
 1231SOL     OW15151   4.465   1.976   8.783  0.4286 -0.0582  0.2445
 1231SOL    HW115152   4.441   1.977   8.875  2.3862 -0.4879  0.7524
 1231SOL    HW215153   4.499   2.064   8.771  0.8226 -0.0545  1.4053
 1232SOL     OW15154   2.109   0.651  11.148 -0.3173 -0.2239 -0.1722
 1232SOL    HW115155   2.133   0.614  11.233  3.2802  3.6357  0.4900
 1232SOL    HW215156   2.029   0.693  11.181  0.4181  1.5560 -0.6866
 1233SOL     OW15157   0.975   0.098  17.556  0.1904  0.0904 -0.4794
 1233SOL    HW115158   1.039   0.052  17.501  0.1921  0.2202 -0.5840
 1233SOL    HW215159   0.963   0.180  17.509  0.4604 -0.3755 -1.3713
 1234SOL     OW15160   2.968   0.855  11.400  0.3397  0.0280 -0.5151
 1234SOL    HW115161   2.972   0.909  11.478 -0.0607  0.0516 -0.5103
 1234SOL    HW215162   2.927   0.775  11.432 -0.6149  0.8396  0.2695
 1235SOL     OW15163   1.011   4.186  10.659 -0.3732 -0.0744 -0.2994
 1235SOL    HW115164   1.017   4.160  10.566 -2.1180 -0.6381 -0.2694
 1235SOL    HW215165   1.060   4.111  10.693  1.1400  0.6504 -0.8760
 1236SOL     OW15166   1.106   4.206   4.432  0.1398 -0.2262 -0.8008
 1236SOL    HW115167   1.055   4.209   4.351 -1.8297 -2.9701  0.3342
 1236SOL    HW215168   1.039   4.235   4.494 -0.6195 -1.8768 -0.8506
 1237SOL     OW15169   1.802   2.292  17.293 -0.6791 -1.5622 -0.2156
 1237SOL    HW115170   1.841   2.205  17.289 -0.5101 -1.4602 -0.7381
 1237SOL    HW215171   1.811   2.315  17.386  0.1685 -0.4488 -0.5835
 1238SOL     OW15172   2.492   0.051   1.217 -0.0724  0.1304 -0.1369
 1238SOL    HW115173   2.568   0.097   1.183  0.5265  1.1174  2.5033
 1238SOL    HW215174   2.535   4.688   1.218 -0.5687 -0.0953  2.0985
 1239SOL     OW15175   3.481   4.383   7.616 -0.3915  0.2817 -0.5788
 1239SOL    HW115176   3.412   4.440   7.582  0.9480  0.8765 -2.2988
 1239SOL    HW215177   3.542   4.399   7.544  1.7658  0.8180  1.3736
 1240SOL     OW15178   2.324   1.282   7.204 -0.3602  0.1477  0.3993
 1240SOL    HW115179   2.306   1.366   7.245  1.3455  0.8679 -0.3087
 1240SOL    HW215180   2.407   1.255   7.243 -0.6999 -1.4541  0.0345
 1241SOL     OW15181   0.177   1.211   3.260 -0.1092  0.1224 -0.1264
 1241SOL    HW115182   0.139   1.141   3.312 -0.8704  0.3150 -0.4230
 1241SOL    HW215183   0.136   1.205   3.173 -0.3698  0.4334 -0.0254
 1242SOL     OW15184   2.936   4.021   4.400  0.2067  0.2287 -0.3927
 1242SOL    HW115185   2.999   3.957   4.433 -2.0401 -1.4916  0.5703
 1242SOL    HW215186   2.978   4.106   4.415  0.1871  0.2756 -0.5929
 1243SOL     OW15187   0.741   3.779   3.140 -0.7713  0.1276  0.0304
 1243SOL    HW115188   0.820   3.732   3.166 -1.5609  1.0905  4.1118
 1243SOL    HW215189   0.752   3.863   3.185 -0.4221 -0.0780  0.3321
 1244SOL     OW15190   4.717   3.683   9.189 -0.2576 -0.1950 -0.1027
 1244SOL    HW115191   0.028   3.627   9.119  1.9567 -0.0727  0.8803
 1244SOL    HW215192   4.722   3.768   9.146 -2.1442 -0.5966 -1.1103
 1245SOL     OW15193   2.910   1.561  12.971  0.6480 -0.3145 -0.2418
 1245SOL    HW115194   2.908   1.625  12.899  0.4934 -0.1726 -0.1088
 1245SOL    HW215195   2.822   1.529  12.952 -0.2879  2.6336 -0.9963
 1246SOL     OW15196   2.727   1.314   4.336  0.0570  0.4374 -0.5365
 1246SOL    HW115197   2.781   1.376   4.285  2.0081 -1.4531 -0.7917
 1246SOL    HW215198   2.654   1.297   4.277 -0.9269  3.1866 -0.0975
 1247SOL     OW15199   0.712   2.144   9.500 -0.3073  0.4735 -0.1572
 1247SOL    HW115200   0.715   2.231   9.541 -0.2974 -0.7873  2.4633
 1247SOL    HW215201   0.727   2.174   9.410 -0.8542  1.0095 -0.0702
 1248SOL     OW15202   0.555   4.479   1.088 -0.2743 -0.9610  0.3924
 1248SOL    HW115203   0.638   4.440   1.061  0.4401  0.8226 -0.0585
 1248SOL    HW215204   0.528   4.529   1.011  1.0816  0.9655  1.1371
 1249SOL     OW15205   0.585   4.415  15.122 -0.3341 -0.0335  0.1805
 1249SOL    HW115206   0.619   4.326  15.123  0.2835  0.2109  0.8433
 1249SOL    HW215207   0.668   4.455  15.099  0.3245 -0.6561  1.5092
 1250SOL     OW15208   3.955   4.416  10.732  0.0605  0.3468  0.2162
 1250SOL    HW115209   3.975   4.449  10.819  0.4312  1.7074 -0.3746
 1250SOL    HW215210   3.859   4.411  10.736  0.2021 -1.7216  0.8516
 1251SOL     OW15211   2.971   4.300   6.213  0.6415 -0.0785  0.5823
 1251SOL    HW115212   3.054   4.337   6.184  0.6116  0.5704  1.3291
 1251SOL    HW215213   2.915   4.375   6.196  0.9426  0.1409  0.5672
 1252SOL     OW15214   4.015   3.338   5.733  0.7152  0.8115 -0.0012
 1252SOL    HW115215   4.078   3.278   5.692 -0.1497  1.5320 -2.4134
 1252SOL    HW215216   4.050   3.425   5.714 -0.8797  1.3372 -0.5603
 1253SOL     OW15217   3.988   1.687   4.097  0.3318 -0.4312  0.0381
 1253SOL    HW115218   4.071   1.734   4.084 -0.1239  0.2338 -0.4441
 1253SOL    HW215219   4.001   1.643   4.181 -1.7249 -1.1743 -0.0416
 1254SOL     OW15220   0.462   1.253   6.067 -0.0917  0.1547 -0.3740
 1254SOL    HW115221   0.550   1.288   6.084  0.8219 -2.0853 -0.5783
 1254SOL    HW215222   0.451   1.192   6.140  0.6917  0.5274  0.0579
 1255SOL     OW15223   0.041   0.722   7.000  0.4507  0.1960 -0.6789
 1255SOL    HW115224   0.108   0.766   7.054  1.7686 -0.9396 -1.3924
 1255SOL    HW215225   0.068   0.631   7.007 -1.0557 -0.2645 -0.8588
 1256SOL     OW15226   1.032   2.441   5.349  0.3361 -0.5257 -0.4294
 1256SOL    HW115227   1.092   2.398   5.288  2.5288 -0.6996  1.8414
 1256SOL    HW215228   0.951   2.437   5.298  2.0512 -1.9097 -3.0485
 1257SOL     OW15229   3.286   3.697   5.931 -0.1202 -1.1425  0.0175
 1257SOL    HW115230   3.265   3.609   5.963  0.9751 -2.2373 -2.3231
 1257SOL    HW215231   3.227   3.745   5.989 -0.9726 -0.3725 -1.5161
 1258SOL     OW15232   0.109   4.349   2.601  0.2437  0.6546  0.2293
 1258SOL    HW115233   0.130   4.333   2.693 -0.2014  0.3827  0.2830
 1258SOL    HW215234   0.185   4.325   2.548  1.2043  2.8111  0.6546
 1259SOL     OW15235   2.405   3.331   3.807  0.4953 -0.1910 -0.1288
 1259SOL    HW115236   2.443   3.294   3.887 -1.6774  0.0355  1.0056
 1259SOL    HW215237   2.390   3.252   3.754 -0.3662  0.8349 -1.3907
 1260SOL     OW15238   2.611   1.765   6.568  0.2687 -0.3605 -0.0593
 1260SOL    HW115239   2.537   1.763   6.508  0.1684 -1.3756  0.0905
 1260SOL    HW215240   2.583   1.695   6.627 -1.8463 -0.4965 -1.2231
 1261SOL     OW15241   1.532   4.196   7.252  0.3047  0.3726  0.0245
 1261SOL    HW115242   1.523   4.209   7.158 -2.3415  2.0161  0.5019
 1261SOL    HW215243   1.626   4.192   7.271  0.6287  1.5860 -1.3356
 1262SOL     OW15244   4.116   1.252  11.460 -0.0576 -0.0443 -0.4933
 1262SOL    HW115245   4.057   1.210  11.398  0.6671 -1.9442  0.1088
 1262SOL    HW215246   4.095   1.216  11.546 -0.7825  1.0699 -0.2010
 1263SOL     OW15247   1.114   2.316   3.639  0.1479 -0.1570  0.4047
 1263SOL    HW115248   1.090   2.255   3.709  2.2828 -1.3473  0.0921
 1263SOL    HW215249   1.126   2.397   3.689 -0.5300 -0.0430  0.3762
 1264SOL     OW15250   0.502   2.418   8.065  0.6097  0.5462  0.2545
 1264SOL    HW115251   0.590   2.456   8.065 -0.3174  2.7506  0.0133
 1264SOL    HW215252   0.464   2.439   8.150 -2.0370  0.0913 -0.8165
 1265SOL     OW15253   3.173   1.124   3.690 -0.4003 -0.0801 -0.5461
 1265SOL    HW115254   3.138   1.076   3.765 -0.9141  0.5416 -0.3873
 1265SOL    HW215255   3.097   1.178   3.667 -1.3033  0.1764  3.1141
 1266SOL     OW15256   3.473   2.188   6.572 -0.0683  0.2156 -0.0443
 1266SOL    HW115257   3.483   2.094   6.584 -0.4784  0.3043  0.9931
 1266SOL    HW215258   3.432   2.193   6.486  2.9758 -1.0088 -1.5642
 1267SOL     OW15259   2.118   1.037   9.217  0.0617 -0.0018 -0.0249
 1267SOL    HW115260   2.039   1.031   9.271  0.2526 -1.7309  0.0815
 1267SOL    HW215261   2.177   1.081   9.278 -0.6815 -0.2795  0.9080
 1268SOL     OW15262   1.577   3.320   5.247  0.0199 -0.0343  0.1930
 1268SOL    HW115263   1.601   3.282   5.331  0.1839 -0.7857 -0.1924
 1268SOL    HW215264   1.483   3.330   5.261 -0.0957 -0.7517 -0.0458
 1269SOL     OW15265   3.931   4.521   3.940 -0.4918  0.7729 -0.0889
 1269SOL    HW115266   3.906   4.596   3.994 -2.1332 -0.2071  0.4837
 1269SOL    HW215267   3.840   4.500   3.918 -0.6097 -0.5100  1.6596
 1270SOL     OW15268   1.654   0.525   7.118  0.1585  0.3883  0.2620
 1270SOL    HW115269   1.733   0.474   7.100  0.6570  0.5155  2.1015
 1270SOL    HW215270   1.697   0.594   7.168  0.1783  1.0439 -0.6621
 1271SOL     OW15271   4.356   2.004  11.079 -0.4013 -0.1026 -0.4648
 1271SOL    HW115272   4.431   2.024  11.136 -0.8474 -1.0065  0.4334
 1271SOL    HW215273   4.331   1.916  11.105  0.6883 -0.3277 -0.1639
 1272SOL     OW15274   1.935   1.555  11.048 -0.5554  0.2906 -0.3322
 1272SOL    HW115275   1.893   1.548  10.962 -2.0829  3.9153  0.1209
 1272SOL    HW215276   1.873   1.605  11.100 -1.4819 -0.1894 -0.9907
 1273SOL     OW15277   3.878   2.552   6.999  0.0896 -0.5068  0.7636
 1273SOL    HW115278   3.850   2.461   6.993 -1.0724 -0.0777 -0.3342
 1273SOL    HW215279   3.838   2.574   7.083  0.9936 -0.2529  1.1225
 1274SOL     OW15280   1.790   2.082   3.407  0.3443  0.2816 -0.1040
 1274SOL    HW115281   1.713   2.025   3.400 -0.2836  1.3385 -1.7335
 1274SOL    HW215282   1.827   2.049   3.490  1.9160  0.0559 -0.8935
 1275SOL     OW15283   1.981   1.838   5.026 -0.1336 -0.0086 -0.0249
 1275SOL    HW115284   1.970   1.893   4.948  3.1130 -1.9774 -1.8440
 1275SOL    HW215285   1.981   1.905   5.094 -0.9464  0.8838 -0.8905
 1276SOL     OW15286   2.629   4.050   8.333 -0.2979 -0.3732 -0.5263
 1276SOL    HW115287   2.580   3.978   8.372 -0.6614 -1.1608 -2.4528
 1276SOL    HW215288   2.560   4.116   8.325  1.0220  0.9023 -1.5639
 1277SOL     OW15289   4.643   3.390  15.020 -0.3389 -0.0412  0.3415
 1277SOL    HW115290   4.665   3.345  15.102  1.5262  1.3504  0.5975
 1277SOL    HW215291   4.709   3.456  14.999  1.3779 -2.1339 -0.8195
 1278SOL     OW15292   4.014   0.712  13.143  0.1528 -0.6414 -0.0727
 1278SOL    HW115293   4.095   0.755  13.115 -0.0340  0.4627  1.1009
 1278SOL    HW215294   4.009   0.718  13.238  2.6781  0.3925 -0.0033
 1279SOL     OW15295   1.340   1.132  13.667 -0.1350 -0.1289  0.0136
 1279SOL    HW115296   1.320   1.059  13.608  1.5700 -0.1805 -0.5311
 1279SOL    HW215297   1.315   1.090  13.749  0.4136 -0.2589  0.1172
 1280SOL     OW15298   2.892   0.040  14.820  0.2374  0.0161  0.2489
 1280SOL    HW115299   2.880   0.135  14.824  1.5644  0.0826  3.0988
 1280SOL    HW215300   2.855   0.007  14.902 -0.8019  0.3050 -0.1097
 1281SOL     OW15301   1.419   3.774  14.582  0.2482 -0.8402 -0.0189
 1281SOL    HW115302   1.504   3.816  14.595 -0.8308  1.3493 -0.1163
 1281SOL    HW215303   1.386   3.770  14.672 -0.9834  0.2073 -0.4383
 1282SOL     OW15304   3.005   4.309  15.483 -0.2522  0.3944  0.6663
 1282SOL    HW115305   2.977   4.263  15.403  0.9177  1.8623 -0.5766
 1282SOL    HW215306   2.990   4.241  15.548 -0.8124  0.9536  1.1167
 1283SOL     OW15307   1.834   4.506  10.276  0.0224 -0.2875 -0.3497
 1283SOL    HW115308   1.778   4.431  10.298 -0.6912  0.1450 -0.6830
 1283SOL    HW215309   1.833   4.552  10.360 -1.8590 -0.0222 -0.5209
 1284SOL     OW15310   0.970   3.804   5.510 -0.1777 -0.5872  0.0283
 1284SOL    HW115311   1.031   3.838   5.444 -0.1357  1.1520  0.9697
 1284SOL    HW215312   1.022   3.810   5.590  1.4119  0.6280 -1.0844
 1285SOL     OW15313   4.684   1.046   3.734 -0.6027 -0.1643 -0.1364
 1285SOL    HW115314   4.627   1.082   3.667 -1.3872 -2.9324 -0.9433
 1285SOL    HW215315   0.018   0.990   3.680  2.4613  1.0120  1.7922
 1286SOL     OW15316   3.776   0.794  10.629 -0.5913 -0.3509 -0.4969
 1286SOL    HW115317   3.787   0.739  10.707 -0.4348 -1.8718 -1.5823
 1286SOL    HW215318   3.719   0.733  10.582  0.8927 -1.7085 -0.5572
 1287SOL     OW15319   3.658   2.901  13.374 -0.2632  0.2897  0.1792
 1287SOL    HW115320   3.571   2.870  13.348 -0.0532  0.4667 -0.7486
 1287SOL    HW215321   3.650   2.996  13.376  1.0977  0.4395 -1.1449
 1288SOL     OW15322   0.837   3.243   7.351  0.5801 -0.0088 -0.1980
 1288SOL    HW115323   0.855   3.164   7.299 -1.3790  0.1039 -1.0387
 1288SOL    HW215324   0.830   3.307   7.281  0.7108  1.7725  1.4312
 1289SOL     OW15325   0.498   3.133   2.566  0.4383  0.0854  0.0851
 1289SOL    HW115326   0.411   3.144   2.603  0.2432 -0.3197 -0.2566
 1289SOL    HW215327   0.558   3.183   2.622 -0.4270 -1.0667  2.0298
 1290SOL     OW15328   4.498   2.085   1.087  0.6934 -0.3996  0.2742
 1290SOL    HW115329   4.522   2.005   1.039  0.0438  0.0522 -0.8143
 1290SOL    HW215330   4.415   2.104   1.044  0.8623  2.4242  1.2327
 1291SOL     OW15331   0.352   3.989  16.395  0.3571  0.5119  0.0721
 1291SOL    HW115332   0.290   4.059  16.418  1.6313  0.8373  2.4570
 1291SOL    HW215333   0.361   3.993  16.300  2.0196 -2.2949  0.1124
 1292SOL     OW15334   2.895   2.357   0.388 -0.1505  0.1166 -0.7193
 1292SOL    HW115335   2.880   2.265   0.410 -0.4007  1.4724  4.6066
 1292SOL    HW215336   2.985   2.366   0.419 -1.3762 -0.4489  2.9349
 1293SOL     OW15337   3.842   1.843   4.271 -0.1654 -0.0188  0.1001
 1293SOL    HW115338   3.839   1.794   4.353  0.9769  1.3670  0.9937
 1293SOL    HW215339   3.821   1.784   4.199 -2.5635  0.7275  0.1981
 1294SOL     OW15340   2.884   1.237  13.618  0.2399  0.5402 -0.3489
 1294SOL    HW115341   2.917   1.149  13.634 -1.5305 -0.3460 -1.6566
 1294SOL    HW215342   2.951   1.264  13.555  0.0607 -0.4364 -0.9651
 1295SOL     OW15343   1.042   0.058   6.198 -0.2468  0.5150 -0.2136
 1295SOL    HW115344   1.110   0.119   6.227  1.2767 -0.5110 -1.5972
 1295SOL    HW215345   1.080   4.694   6.214 -3.2009 -0.7485 -0.0235
 1296SOL     OW15346   1.534   4.364   7.011 -0.3396  0.1899 -0.3410
 1296SOL    HW115347   1.448   4.406   7.000  0.7135  2.2719 -0.6467
 1296SOL    HW215348   1.577   4.424   7.072  0.7498 -1.2967  0.3510
 1297SOL     OW15349   0.426   0.413   7.588  0.1433  0.2040  0.2162
 1297SOL    HW115350   0.403   0.328   7.550 -2.9997  0.8976  0.5067
 1297SOL    HW215351   0.458   0.460   7.511  1.5527 -2.8184 -1.0294
 1298SOL     OW15352   2.734   4.675   3.779 -0.2339 -1.2856  0.2664
 1298SOL    HW115353   2.691   4.644   3.859 -2.8579  1.1703 -0.1889
 1298SOL    HW215354   2.718   4.602   3.720 -0.5174 -3.0970  2.5590
 1299SOL     OW15355   3.742   1.898  10.630  0.4102  0.4565  0.1151
 1299SOL    HW115356   3.744   1.973  10.570  1.5825  0.7912  0.5753
 1299SOL    HW215357   3.835   1.878  10.637  0.4043 -0.1950 -1.6200
 1300SOL     OW15358   2.724   0.220   1.718 -0.6393 -0.1631  0.5815
 1300SOL    HW115359   2.818   0.226   1.702 -1.0383 -0.1453 -1.6827
 1300SOL    HW215360   2.694   0.306   1.748  0.9672  0.2252  1.0883
 1301SOL     OW15361   3.574   1.424   5.457 -0.1596 -0.1719 -0.1463
 1301SOL    HW115362   3.644   1.487   5.440 -0.3229  0.2355  0.6882
 1301SOL    HW215363   3.620   1.341   5.470 -0.5792 -0.1091  1.7520
 1302SOL     OW15364   3.490   0.755   8.251 -0.3189  0.0880 -0.1410
 1302SOL    HW115365   3.438   0.833   8.270  1.1003  0.3914  2.5108
 1302SOL    HW215366   3.451   0.690   8.308 -1.7494  1.3014  0.2565
 1303SOL     OW15367   3.030   2.125   9.522  0.5537 -0.1874 -0.0487
 1303SOL    HW115368   2.935   2.128   9.530  0.4666 -0.3616 -0.9618
 1303SOL    HW215369   3.064   2.165   9.602 -1.1156 -0.1258  0.6305
 1304SOL     OW15370   4.174   1.746   5.101  0.2520  0.1166 -0.0002
 1304SOL    HW115371   4.192   1.839   5.117  1.0300 -0.1243  0.4883
 1304SOL    HW215372   4.247   1.704   5.146 -0.2382  0.1731  0.8573
 1305SOL     OW15373   3.952   2.133  10.918 -0.7778  0.4459  0.3021
 1305SOL    HW115374   4.043   2.150  10.942 -0.7547  0.3926  0.2539
 1305SOL    HW215375   3.913   2.216  10.891 -1.0648  0.4210  0.6593
 1306SOL     OW15376   3.568   1.949   5.047 -0.0148 -0.2733  0.0204
 1306SOL    HW115377   3.517   1.874   5.076  0.9522 -0.9933 -0.1366
 1306SOL    HW215378   3.508   2.006   4.999  1.2410 -0.0096 -1.2590
 1307SOL     OW15379   2.254   2.412  11.368  0.1774 -0.0269  0.0691
 1307SOL    HW115380   2.222   2.413  11.459 -1.5025 -0.3013 -0.5245
 1307SOL    HW215381   2.210   2.333  11.338  1.7447 -1.2688  1.0283
 1308SOL     OW15382   1.686   0.023   7.432 -0.2226  0.6175 -0.0107
 1308SOL    HW115383   1.700   4.677   7.497  1.8794  0.1791 -0.9038
 1308SOL    HW215384   1.677   0.099   7.490  0.9338 -0.1203  1.1379
 1309SOL     OW15385   1.911   3.916   7.104 -0.1296 -0.3955  0.6533
 1309SOL    HW115386   1.885   4.000   7.143  0.7611  0.5620 -0.8359
 1309SOL    HW215387   1.842   3.861   7.141  0.8681 -1.7018  0.5755
 1310SOL     OW15388   3.685   1.883   5.675 -0.8184 -0.6438  0.6920
 1310SOL    HW115389   3.618   1.837   5.725 -2.9891  1.6508 -0.1367
 1310SOL    HW215390   3.659   1.854   5.587 -0.2702 -0.0348  0.3252
 1311SOL     OW15391   3.245   2.534   8.056  0.1754  0.0946  0.0701
 1311SOL    HW115392   3.325   2.483   8.063  0.9164  1.1596 -0.6612
 1311SOL    HW215393   3.260   2.597   8.127 -0.4927  1.1547 -0.7131
 1312SOL     OW15394   4.163   0.823   0.666 -0.7198  0.2298  0.1025
 1312SOL    HW115395   4.206   0.796   0.585  0.6975  0.5684  0.7288
 1312SOL    HW215396   4.162   0.917   0.647 -1.7043  0.4137  1.0245
 1313SOL     OW15397   0.183   2.450   8.762 -0.8531 -0.2976 -0.0533
 1313SOL    HW115398   0.147   2.388   8.698 -3.6760 -0.3192  1.5407
 1313SOL    HW215399   0.126   2.438   8.838 -0.4223 -0.8185  0.1926
 1314SOL     OW15400   0.154   2.292   5.358 -0.1398 -0.2163  0.2037
 1314SOL    HW115401   0.231   2.346   5.374  0.0224 -1.3305  3.0699
 1314SOL    HW215402   0.084   2.345   5.396  1.3233  1.0246  1.1653
 1315SOL     OW15403   0.044   1.931   1.871  0.0168  0.0107 -0.9270
 1315SOL    HW115404   0.030   2.007   1.928 -1.2283 -1.9331  1.3599
 1315SOL    HW215405   4.675   1.908   1.855 -0.6605  0.6162  2.0118
 1316SOL     OW15406   0.716   2.414   9.531  0.5843 -0.2013  0.2893
 1316SOL    HW115407   0.658   2.467   9.478  0.7752 -0.7408 -0.4607
 1316SOL    HW215408   0.781   2.481   9.550  1.8469 -1.4239  0.3192
 1317SOL     OW15409   1.876   4.700   6.534  0.2356  0.1294  0.5001
 1317SOL    HW115410   1.916   4.695   6.448  1.9704 -0.8972  1.3853
 1317SOL    HW215411   1.950   4.682   6.592 -0.2647  0.1302  1.1341
 1318SOL     OW15412   1.469   3.657  11.996 -0.1511  0.0421 -0.3495
 1318SOL    HW115413   1.496   3.660  11.905  1.4158  0.7745  0.1405
 1318SOL    HW215414   1.379   3.689  11.997 -0.0647  0.2846 -0.9439
 1319SOL     OW15415   0.553   1.658   2.216 -0.0703  0.0089  0.2499
 1319SOL    HW115416   0.550   1.692   2.126 -0.2215  2.1591  1.0798
 1319SOL    HW215417   0.606   1.727   2.255  0.9670 -0.5137 -0.2399
 1320SOL     OW15418   1.925   2.297   5.057  0.0186 -0.1433  0.1097
 1320SOL    HW115419   1.966   2.379   5.031 -2.4961  0.5308 -1.7076
 1320SOL    HW215420   1.869   2.277   4.983  1.1911  0.9731 -1.0747
 1321SOL     OW15421   2.588   2.491  15.108  0.4120  0.6109  0.2618
 1321SOL    HW115422   2.540   2.533  15.036  3.1687  2.6312 -0.3995
 1321SOL    HW215423   2.677   2.524  15.096  0.3056  0.9286  0.3349
 1322SOL     OW15424   2.634   0.328  15.852  0.3955 -0.0488 -0.2597
 1322SOL    HW115425   2.687   0.405  15.832 -0.3569  1.0544  1.9653
 1322SOL    HW215426   2.547   0.364  15.870 -0.7063 -2.6021 -0.4783
 1323SOL     OW15427   1.168   1.309   3.805 -0.0085  0.2583 -0.1069
 1323SOL    HW115428   1.130   1.393   3.779 -1.0847  0.2980  1.6007
 1323SOL    HW215429   1.150   1.254   3.728 -0.7149  1.1974 -0.6000
 1324SOL     OW15430   3.213   2.450   9.570 -0.7536  0.2991 -0.0383
 1324SOL    HW115431   3.132   2.424   9.612 -1.4955  2.3182 -0.2494
 1324SOL    HW215432   3.181   2.528   9.525 -0.8023 -0.8029 -1.9294
 1325SOL     OW15433   2.984   0.935  11.655  0.0492 -0.2648 -0.5946
 1325SOL    HW115434   3.030   0.855  11.680 -2.6023 -0.9260  2.2910
 1325SOL    HW215435   2.985   0.983  11.738  0.8783 -0.2205 -0.6314
 1326SOL     OW15436   0.413   1.802   3.037  0.0829  0.6074 -0.0382
 1326SOL    HW115437   0.323   1.769   3.038 -0.2394  1.2713 -4.1202
 1326SOL    HW215438   0.420   1.846   2.952 -1.0573  1.2355  0.1873
 1327SOL     OW15439   4.354   1.093   4.559 -0.2128  0.1789  0.2698
 1327SOL    HW115440   4.387   1.019   4.507  1.2859  0.7208  0.4289
 1327SOL    HW215441   4.430   1.104   4.617  1.4113  1.5658 -2.1281
 1328SOL     OW15442   2.959   3.585   7.751 -0.1358 -0.3766 -0.5476
 1328SOL    HW115443   3.040   3.611   7.707  0.3398 -0.7185  0.1244
 1328SOL    HW215444   2.893   3.593   7.682  0.6876  2.1708 -1.0216
 1329SOL     OW15445   0.261   0.872  15.752  0.0764 -0.1518 -0.4400
 1329SOL    HW115446   0.223   0.786  15.767 -0.1365 -0.0440 -0.3568
 1329SOL    HW215447   0.345   0.875  15.798 -1.4094  0.4181  2.2621
 1330SOL     OW15448   0.903   0.879  14.554  0.2738  0.4172 -0.4859
 1330SOL    HW115449   0.938   0.818  14.619  0.2899  1.5326  0.5545
 1330SOL    HW215450   0.811   0.852  14.561  1.1999 -2.2997  1.0971
 1331SOL     OW15451   1.877   1.883   7.566  0.0549  0.5668  0.3550
 1331SOL    HW115452   1.874   1.892   7.661 -0.5515 -1.5574  0.5412
 1331SOL    HW215453   1.864   1.973   7.537 -2.0872  0.2677  0.3505
 1332SOL     OW15454   0.468   3.902   8.904  0.2276  0.0067 -0.1878
 1332SOL    HW115455   0.562   3.919   8.897 -0.2374  3.1084  1.0436
 1332SOL    HW215456   0.449   3.889   8.811  0.4531 -0.3152 -0.1863
 1333SOL     OW15457   3.695   3.765   5.694  0.1740  0.2893  0.1173
 1333SOL    HW115458   3.630   3.711   5.650  0.9696 -0.4272 -0.1890
 1333SOL    HW215459   3.652   3.846   5.668  0.4971  0.7770  1.0882
 1334SOL     OW15460   3.555   2.211  13.710 -0.6209  0.3121 -0.4396
 1334SOL    HW115461   3.461   2.197  13.702 -0.6016 -0.9394  1.5173
 1334SOL    HW215462   3.549   2.304  13.731 -1.8481 -0.0183  0.6609
 1335SOL     OW15463   1.789   0.406   0.607  0.7528 -0.2598 -0.6177
 1335SOL    HW115464   1.827   0.411   0.694 -0.7805  0.1197  0.0235
 1335SOL    HW215465   1.705   0.451   0.612 -1.0868 -3.4105 -2.9344
 1336SOL     OW15466   1.264   1.027   6.885 -0.2972 -0.0337  0.0260
 1336SOL    HW115467   1.257   0.932   6.870 -2.8868 -0.1956  2.1115
 1336SOL    HW215468   1.175   1.055   6.863 -0.1317  0.0439 -0.5449
 1337SOL     OW15469   1.252   0.838  11.394  0.3912  0.3756 -0.3856
 1337SOL    HW115470   1.331   0.858  11.344  0.6446 -1.3145 -0.6854
 1337SOL    HW215471   1.293   0.774  11.453  0.8324  2.5096  1.6117
 1338SOL     OW15472   0.742   2.720  13.921 -0.0652 -0.2895 -0.1313
 1338SOL    HW115473   0.690   2.703  13.999 -0.6287  3.0496  0.2553
 1338SOL    HW215474   0.704   2.658  13.859  1.4329 -2.0828  0.7532
 1339SOL     OW15475   2.065   2.515  11.744  0.5592 -0.6580 -0.2891
 1339SOL    HW115476   2.121   2.578  11.698  0.5383 -1.0596 -0.8579
 1339SOL    HW215477   2.124   2.466  11.802  0.4215  2.2829  2.3573
 1340SOL     OW15478   0.315   1.053   5.390 -0.8038 -0.9949  0.5595
 1340SOL    HW115479   0.356   1.115   5.329 -2.0562 -0.7017  0.0106
 1340SOL    HW215480   0.287   0.988   5.326  2.2678  0.9180 -2.6959
 1341SOL     OW15481   2.512   3.089   6.793  0.3705  0.0667 -0.0730
 1341SOL    HW115482   2.605   3.108   6.786  0.2093  1.1741  0.7500
 1341SOL    HW215483   2.499   3.151   6.866 -0.7530  0.8343 -0.9091
 1342SOL     OW15484   1.477   3.467   5.578 -0.0539  0.2856 -0.1188
 1342SOL    HW115485   1.381   3.469   5.574 -0.0282  1.2866 -0.1392
 1342SOL    HW215486   1.499   3.502   5.664 -0.7623  0.2951  0.0635
 1343SOL     OW15487   4.042   1.472   0.246 -0.1118 -0.1822  0.1063
 1343SOL    HW115488   3.972   1.457   0.309  1.1786 -1.9966  1.1189
 1343SOL    HW215489   4.044   1.568   0.245 -0.9943 -0.1698 -1.0509
 1344SOL     OW15490   4.167   3.830  17.658 -0.0363 -0.2658  0.2426
 1344SOL    HW115491   4.152   3.876  17.576 -0.4749  0.0696  0.5112
 1344SOL    HW215492   4.227   3.884   0.018 -2.8463  0.6545  2.5241
 1345SOL     OW15493   0.839   0.146  12.263 -0.3031  0.3768 -0.1215
 1345SOL    HW115494   0.823   0.220  12.205 -1.5998  0.5121  0.4091
 1345SOL    HW215495   0.826   0.193  12.346 -1.9791 -1.7166  0.8068
 1346SOL     OW15496   4.090   2.988   8.202  0.6419  0.1560  0.2482
 1346SOL    HW115497   4.020   2.936   8.163 -0.4469  2.5046 -0.9009
 1346SOL    HW215498   4.081   3.069   8.153 -0.2004  0.3399  0.7143
 1347SOL     OW15499   1.840   1.178  17.335  0.0960  0.4941  0.3895
 1347SOL    HW115500   1.858   1.204  17.245  1.3651  0.1670  0.5519
 1347SOL    HW215501   1.782   1.106  17.310  1.1897 -0.0303 -0.6571
 1348SOL     OW15502   2.930   2.498   9.714 -0.5349 -0.2299 -0.4089
 1348SOL    HW115503   2.983   2.483   9.793 -1.5445  1.0572  0.5186
 1348SOL    HW215504   2.858   2.435   9.717 -1.0398  0.3786  0.2165
 1349SOL     OW15505   0.131   3.797   0.242  0.5836 -0.2816  0.3973
 1349SOL    HW115506   0.094   3.780   0.328 -1.0571 -0.6551 -0.3886
 1349SOL    HW215507   0.224   3.777   0.255  0.6534  0.0305  0.3783
 1350SOL     OW15508   3.837   2.812  13.193 -0.1405  0.4147 -0.3628
 1350SOL    HW115509   3.782   2.735  13.207  0.2353 -0.2105 -2.3079
 1350SOL    HW215510   3.799   2.868  13.260  1.7836  0.7280  0.4763
 1351SOL     OW15511   1.376   3.217   0.780 -0.0890 -0.2940 -0.7919
 1351SOL    HW115512   1.413   3.130   0.764  1.2503 -0.1731  1.5377
 1351SOL    HW215513   1.299   3.213   0.724 -0.6876 -0.4937  0.0517
 1352SOL     OW15514   1.798   1.890   4.047 -0.1877 -0.8451  0.1636
 1352SOL    HW115515   1.747   1.902   4.127  2.3430  0.2892  1.6106
 1352SOL    HW215516   1.735   1.914   3.979 -0.2107  0.3391  0.5987
 1353SOL     OW15517   2.165   1.497   7.866 -0.0598 -0.1806 -0.0790
 1353SOL    HW115518   2.160   1.515   7.772  2.8507  2.7187  0.3013
 1353SOL    HW215519   2.225   1.568   7.889  1.7137 -1.4142 -0.9012
 1354SOL     OW15520   1.682   4.427   2.333 -0.5628  0.0438  0.2781
 1354SOL    HW115521   1.671   4.376   2.414  1.5382 -2.2013 -0.8322
 1354SOL    HW215522   1.617   4.378   2.284  0.3015  0.3934 -1.2140
 1355SOL     OW15523   1.712   1.044  11.474 -0.6745  0.0451  0.4114
 1355SOL    HW115524   1.649   1.003  11.533 -0.2328 -0.8883  0.2327
 1355SOL    HW215525   1.701   0.994  11.392 -0.1990  1.6144 -0.6140
 1356SOL     OW15526   4.045   2.022   4.304  0.1317 -0.4721  0.6584
 1356SOL    HW115527   3.975   1.958   4.319 -0.2956  0.1512  1.3633
 1356SOL    HW215528   4.047   2.021   4.209  5.2390 -1.9598  0.7797
 1357SOL     OW15529   2.977   1.602   5.607 -1.0075 -0.1415 -0.0745
 1357SOL    HW115530   2.911   1.653   5.559  0.6648  1.7940 -0.3266
 1357SOL    HW215531   2.983   1.524   5.552  2.3189 -0.3713  0.6514
 1358SOL     OW15532   0.658   3.045  10.109 -0.4239  0.4464 -0.0264
 1358SOL    HW115533   0.706   3.126  10.124 -1.2275  0.5918  1.7621
 1358SOL    HW215534   0.631   3.032  10.200 -0.3867  0.2927 -0.0362
 1359SOL     OW15535   1.691   1.318   7.389  0.0414  0.2125  0.1463
 1359SOL    HW115536   1.624   1.276   7.443 -0.0386 -0.0072 -0.1259
 1359SOL    HW215537   1.763   1.308   7.452  1.6674 -0.1130 -1.7696
 1360SOL     OW15538   3.657   1.379  16.233 -0.2150  1.0741  0.2795
 1360SOL    HW115539   3.696   1.294  16.212  3.8583  2.5406  1.9040
 1360SOL    HW215540   3.722   1.439  16.198 -1.0381  1.2246 -0.9904
 1361SOL     OW15541   2.715   2.364   1.769 -0.4207 -0.2296 -0.0455
 1361SOL    HW115542   2.758   2.301   1.712  1.7961  1.7365 -0.5330
 1361SOL    HW215543   2.713   2.438   1.708 -0.9537  1.1396  1.6358
 1362SOL     OW15544   0.652   3.775   3.759 -0.2852  0.4891  0.1785
 1362SOL    HW115545   0.622   3.732   3.839 -0.8377 -0.6098 -0.6104
 1362SOL    HW215546   0.621   3.722   3.685 -1.5097  1.8042 -0.2550
 1363SOL     OW15547   1.560   2.068   0.615 -0.6107  0.0111 -0.0478
 1363SOL    HW115548   1.640   2.029   0.650 -0.4200 -0.0968 -0.6142
 1363SOL    HW215549   1.563   2.144   0.673 -0.8731 -0.2533  0.3160
 1364SOL     OW15550   2.309   0.100   6.422  0.4198  0.1033 -0.2518
 1364SOL    HW115551   2.361   0.137   6.351  2.6081  0.3124  1.4373
 1364SOL    HW215552   2.372   0.031   6.445 -0.4480  0.0930  2.1531
 1365SOL     OW15553   0.635   2.740  12.825 -0.5384 -0.4203  0.1193
 1365SOL    HW115554   0.568   2.789  12.873 -1.4704 -1.1277 -0.4599
 1365SOL    HW215555   0.674   2.699  12.902  2.2365  3.3770  0.7554
 1366SOL     OW15556   1.998   3.137   6.790  0.3982 -0.5094 -0.3707
 1366SOL    HW115557   1.999   3.196   6.866  1.5435  0.0507 -0.8177
 1366SOL    HW215558   2.072   3.166   6.736  0.6806 -0.2443  0.1466
 1367SOL     OW15559   2.774   2.386  15.571  0.2184 -0.0501 -0.3636
 1367SOL    HW115560   2.712   2.389  15.644  0.7305  1.6214  0.0083
 1367SOL    HW215561   2.849   2.345  15.614  0.7152  0.5153 -0.6950
 1368SOL     OW15562   1.328   4.241   5.156 -0.1903 -0.2635 -0.3788
 1368SOL    HW115563   1.381   4.200   5.088  1.8818  1.6496  0.0804
 1368SOL    HW215564   1.240   4.248   5.120 -0.2638  0.5372 -0.0489
 1369SOL     OW15565   2.094   1.153   7.493 -0.2396  0.2598  0.0612
 1369SOL    HW115566   2.001   1.165   7.512 -0.5156  0.3000 -1.3038
 1369SOL    HW215567   2.134   1.212   7.557  1.3817 -0.5494 -0.2134
 1370SOL     OW15568   0.237   1.731   3.440  0.2316  0.1357  0.0536
 1370SOL    HW115569   0.221   1.819   3.406 -0.3931 -0.9686 -2.4851
 1370SOL    HW215570   0.250   1.679   3.361 -0.6549  1.2034 -0.7930
 1371SOL     OW15571   0.832   0.240   6.259  0.0673  0.0232 -0.0948
 1371SOL    HW115572   0.891   0.312   6.283 -0.8063  0.7259 -0.0685
 1371SOL    HW215573   0.883   0.181   6.204  1.7687 -1.2680  2.8938
 1372SOL     OW15574   2.837   3.711  12.022  0.0053 -0.3315 -0.4003
 1372SOL    HW115575   2.760   3.768  12.011 -1.5340 -1.8364  2.5643
 1372SOL    HW215576   2.822   3.680  12.111 -1.3540  3.1439  0.5807
 1373SOL     OW15577   2.075   3.059  11.996 -0.3839 -0.1992  0.4604
 1373SOL    HW115578   2.005   3.080  12.057  0.7080  0.4893  1.4827
 1373SOL    HW215579   2.071   3.138  11.942  0.5571  0.0993  0.8205
 1374SOL     OW15580   3.081   4.304   3.092 -0.7364 -0.0427  0.4334
 1374SOL    HW115581   3.071   4.371   3.024  0.3077  0.0436  0.3660
 1374SOL    HW215582   3.085   4.223   3.040 -2.6698  0.7680 -0.9603
 1375SOL     OW15583   2.510   2.703  17.675  0.1666 -0.3221  0.3036
 1375SOL    HW115584   2.585   2.763  17.680 -0.7896  1.1325 -3.0620
 1375SOL    HW215585   2.548   2.631   0.033 -0.2661 -0.1643  0.8494
 1376SOL     OW15586   2.677   0.599   3.877 -0.2258  0.1342  0.5960
 1376SOL    HW115587   2.679   0.553   3.793 -0.4863  0.3997  0.4449
 1376SOL    HW215588   2.618   0.546   3.930  1.4789 -1.1380  1.2153
 1377SOL     OW15589   3.050   2.933  15.371  0.2773 -0.1296 -0.1258
 1377SOL    HW115590   3.010   2.854  15.334 -0.0045  0.5267 -1.2292
 1377SOL    HW215591   3.118   2.965  15.311  0.8335  2.3262  1.7956
 1378SOL     OW15592   3.288   3.339   0.022  0.0728  0.5456  0.0294
 1378SOL    HW115593   3.345   3.279   0.068 -0.0182  0.2541 -0.2407
 1378SOL    HW215594   3.290   3.289  17.633 -1.7106 -0.4898  0.6318
 1379SOL     OW15595   1.656   2.783   3.864  0.3013 -0.2198  0.4145
 1379SOL    HW115596   1.654   2.746   3.776  0.7725 -1.5384  0.9615
 1379SOL    HW215597   1.576   2.836   3.867  0.9254  0.7006  0.7243
 1380SOL     OW15598   3.988   3.437   0.079  0.7196 -0.0678  0.2333
 1380SOL    HW115599   4.036   3.355   0.096  1.4185 -0.0657 -1.7319
 1380SOL    HW215600   3.902   3.409   0.048 -0.6210  1.1317  2.8733
 1381SOL     OW15601   0.096   3.751   3.959  0.3195 -0.0324 -0.5873
 1381SOL    HW115602   0.158   3.678   3.952  0.9842  0.4490  0.3052
 1381SOL    HW215603   0.145   3.824   3.919  1.3635 -0.6628 -0.4577
 1382SOL     OW15604   4.166   2.913  15.203 -0.2901  0.2570 -0.1953
 1382SOL    HW115605   4.136   2.822  15.203 -1.2372  0.5799 -4.1958
 1382SOL    HW215606   4.249   2.890  15.246 -0.2770 -0.5092 -0.6308
 1383SOL     OW15607   2.431   3.525   3.578 -0.3728  0.1741  0.1088
 1383SOL    HW115608   2.505   3.465   3.585  0.4785  1.5495  2.5267
 1383SOL    HW215609   2.361   3.461   3.592 -0.7336  0.2720 -1.2045
 1384SOL     OW15610   2.433   4.671  10.492  0.1621 -0.3640 -0.2711
 1384SOL    HW115611   2.439   4.629  10.406 -0.4794 -0.1673 -0.4095
 1384SOL    HW215612   2.389   4.605  10.544  1.0097 -2.0142 -1.6482
 1385SOL     OW15613   3.057   3.752   4.219  0.4806  0.4081  0.2328
 1385SOL    HW115614   2.980   3.703   4.190  2.0382 -2.1197  0.4450
 1385SOL    HW215615   3.080   3.714   4.304 -0.9868 -0.4800  0.2351
 1386SOL     OW15616   0.983   3.710  15.767  0.4269  0.5015  0.2116
 1386SOL    HW115617   0.933   3.671  15.696  0.4809 -0.0921  0.4947
 1386SOL    HW215618   1.070   3.722  15.729  0.5223  0.9862  0.5796
 1387SOL     OW15619   1.638   3.123  17.311 -0.0722 -0.2529 -0.1558
 1387SOL    HW115620   1.727   3.088  17.304  0.3133  0.3685  1.4200
 1387SOL    HW215621   1.627   3.158  17.223  0.5166  0.7889  0.1800
 1388SOL     OW15622   2.049   3.007  13.079  0.0167  0.8910 -0.0054
 1388SOL    HW115623   2.035   3.003  13.173 -0.5143  0.5102 -0.0950
 1388SOL    HW215624   2.108   2.932  13.071  2.0232  2.5546 -0.5648
 1389SOL     OW15625   0.281   3.179  15.475  0.9341  0.2849  0.6299
 1389SOL    HW115626   0.257   3.151  15.564  0.7641  1.3167  0.9078
 1389SOL    HW215627   0.375   3.189  15.488  1.1942 -2.2891  0.7433
 1390SOL     OW15628   4.028   3.647   8.977  0.4977 -1.0152 -0.0009
 1390SOL    HW115629   3.947   3.688   8.946  0.4911 -0.8440  0.2439
 1390SOL    HW215630   4.088   3.652   8.902 -1.2665 -1.4686 -1.4506
 1391SOL     OW15631   1.690   3.900   4.838 -0.0193  0.2280 -0.4760
 1391SOL    HW115632   1.759   3.857   4.788  0.4323 -0.4891  0.7598
 1391SOL    HW215633   1.724   3.989   4.844  0.4867  0.0621 -0.9582
 1392SOL     OW15634   0.017   1.732   6.693 -0.2891  0.4849  0.2479
 1392SOL    HW115635   0.032   1.789   6.769  0.3353  2.2860 -1.2313
 1392SOL    HW215636   0.104   1.706   6.664  0.0807  0.7438  1.1272
 1393SOL     OW15637   0.934   2.139  15.537 -0.0022  0.5743 -0.8481
 1393SOL    HW115638   0.929   2.234  15.523 -0.0825  0.7296  0.2259
 1393SOL    HW215639   0.936   2.120  15.443 -0.9253  0.1646 -0.7825
 1394SOL     OW15640   1.481   2.094   4.546  0.1760 -0.0866 -0.8056
 1394SOL    HW115641   1.414   2.052   4.492 -3.3100  0.8535  2.8045
 1394SOL    HW215642   1.430   2.121   4.622  0.5862  1.7492 -1.1826
 1395SOL     OW15643   1.022   0.170   5.403 -0.1656  0.1961  0.0045
 1395SOL    HW115644   1.055   0.083   5.380  1.9449  1.3937 -1.4563
 1395SOL    HW215645   0.995   0.139   5.489 -0.0880  1.2758  0.4051
 1396SOL     OW15646   3.573   0.329   2.100 -0.1177 -0.1113 -0.0783
 1396SOL    HW115647   3.597   0.247   2.057 -1.4271 -1.0871  1.0549
 1396SOL    HW215648   3.547   0.394   2.034 -0.5863  0.7164  0.9229
 1397SOL     OW15649   1.275   2.822  10.685  0.3681  0.6084 -0.2697
 1397SOL    HW115650   1.263   2.837  10.779 -1.3511  0.1685 -0.4175
 1397SOL    HW215651   1.359   2.867  10.677  1.1914 -0.7881  0.5566
 1398SOL     OW15652   4.007   1.673   7.394 -0.0108 -0.5525  0.2191
 1398SOL    HW115653   4.068   1.648   7.463  1.7252 -1.1136 -1.5366
 1398SOL    HW215654   4.066   1.697   7.323 -0.5202 -0.0797 -0.0425
 1399SOL     OW15655   0.005   0.861   4.759  0.5357  0.2093  0.1025
 1399SOL    HW115656   4.709   0.770   4.781 -0.4310  0.1864 -0.7852
 1399SOL    HW215657   0.080   0.848   4.701  1.3170  3.1529  0.4827
 1400SOL     OW15658   3.332   2.421  10.617 -0.3307 -0.4278  0.6471
 1400SOL    HW115659   3.300   2.391  10.702 -2.5388  1.6020  0.5237
 1400SOL    HW215660   3.314   2.344  10.564 -2.4978  1.3378 -1.1815
 1401SOL     OW15661   2.416   2.637   3.696 -0.3115 -0.6518  0.4521
 1401SOL    HW115662   2.468   2.601   3.624 -1.8029  1.1764 -1.5486
 1401SOL    HW215663   2.437   2.730   3.681  0.2226 -1.1123 -1.6677
 1402SOL     OW15664   0.270   1.461   7.809  0.4454  0.1626  0.5119
 1402SOL    HW115665   0.211   1.537   7.807 -0.3473 -0.4058  2.1660
 1402SOL    HW215666   0.237   1.422   7.728  1.0950  1.7864 -0.5436
 1403SOL     OW15667   2.623   2.146   6.067 -0.1492  0.3478 -0.3572
 1403SOL    HW115668   2.651   2.237   6.058  1.3775 -0.0980 -0.2005
 1403SOL    HW215669   2.596   2.150   6.158  2.2079  1.6485  0.2961
 1404SOL     OW15670   1.972   3.597   4.426  0.4210  0.2950 -0.5640
 1404SOL    HW115671   1.905   3.658   4.457  0.0362  0.1181 -1.0439
 1404SOL    HW215672   1.935   3.514   4.453  0.8539  0.6796  1.1926
 1405SOL     OW15673   0.446   4.688  12.353  0.0836 -0.5320  0.4198
 1405SOL    HW115674   0.425   0.039  12.410 -1.2384  1.2536 -2.4063
 1405SOL    HW215675   0.515   4.660  12.413  0.2964 -0.1337  0.3584
 1406SOL     OW15676   2.952   0.927   4.017 -0.4647 -0.2465  0.2137
 1406SOL    HW115677   3.011   1.003   4.011 -0.1828 -0.4842  0.0260
 1406SOL    HW215678   2.882   0.950   3.956  0.4527 -0.9384 -1.1004
 1407SOL     OW15679   0.375   4.051   8.167  0.2892  0.0786  0.4148
 1407SOL    HW115680   0.383   4.146   8.157 -0.5731  0.0606 -0.4173
 1407SOL    HW215681   0.437   4.039   8.239 -0.8763  0.5840  1.5040
 1408SOL     OW15682   3.311   2.927  17.059  0.0453  0.0014 -1.0947
 1408SOL    HW115683   3.354   2.865  17.001 -0.8249 -0.3523 -1.3671
 1408SOL    HW215684   3.270   2.980  16.990 -0.1316  0.5450 -0.5797
 1409SOL     OW15685   2.365   0.950   2.541  0.3401 -0.0979  0.0592
 1409SOL    HW115686   2.459   0.964   2.534  0.4704 -0.3198  1.3557
 1409SOL    HW215687   2.349   0.903   2.459  0.6747 -1.3170  0.6999
 1410SOL     OW15688   3.667   1.378   6.342 -0.5609 -0.3148 -0.6376
 1410SOL    HW115689   3.734   1.340   6.399 -2.4782 -2.6456  0.0550
 1410SOL    HW215690   3.596   1.354   6.402  0.3096  2.4968  1.4943
 1411SOL     OW15691   4.418   3.352  17.683  0.2876  0.3695  0.1234
 1411SOL    HW115692   4.342   3.303   0.025 -1.1215  0.4522 -2.8944
 1411SOL    HW215693   4.402   3.351  17.589 -1.6920  2.6480  0.4114
 1412SOL     OW15694   2.208   2.707  10.593  0.7657  0.3923 -0.4428
 1412SOL    HW115695   2.183   2.780  10.536 -1.4494  1.1823  1.5507
 1412SOL    HW215696   2.271   2.674  10.529  0.5584 -0.6377 -0.1123
 1413SOL     OW15697   2.737   2.850   5.226 -0.1332 -0.1486 -0.2179
 1413SOL    HW115698   2.675   2.921   5.242 -2.2725 -2.3502  1.2661
 1413SOL    HW215699   2.809   2.901   5.189  0.0995  0.6890  1.3916
 1414SOL     OW15700   3.065   4.490   5.767  0.2381 -0.9544  0.0216
 1414SOL    HW115701   3.159   4.502   5.780 -0.0598  1.2893  0.0967
 1414SOL    HW215702   3.047   4.532   5.683 -0.5868 -1.6541 -0.1505
 1415SOL     OW15703   3.557   4.358   4.426  0.3993 -0.7081 -0.0805
 1415SOL    HW115704   3.573   4.425   4.492  1.7327 -2.9446  1.8710
 1415SOL    HW215705   3.571   4.272   4.465 -2.0589 -0.8757  0.4424
 1416SOL     OW15706   1.100   3.880   3.198 -0.1887 -0.0916 -0.2867
 1416SOL    HW115707   1.186   3.856   3.234 -0.7446 -2.0331 -0.2659
 1416SOL    HW215708   1.069   3.931   3.273 -2.8422  0.2398 -1.6084
 1417SOL     OW15709   1.236   3.028  14.786 -0.6406  0.3653 -0.1158
 1417SOL    HW115710   1.255   2.968  14.859 -1.1714 -0.6732 -0.8356
 1417SOL    HW215711   1.277   3.107  14.819 -1.1120  0.4253  0.3283
 1418SOL     OW15712   0.165   3.958  10.107  0.3508 -0.1383  0.1525
 1418SOL    HW115713   0.176   3.936  10.015 -0.1586 -1.9651  0.5299
 1418SOL    HW215714   0.076   3.992  10.107  0.6743  0.7217  2.6391
 1419SOL     OW15715   3.208   3.445   6.326 -0.1216  0.2811  0.0994
 1419SOL    HW115716   3.120   3.409   6.334  0.6661 -1.7845 -0.5209
 1419SOL    HW215717   3.255   3.403   6.398 -1.1414  1.5908  1.5145
 1420SOL     OW15718   2.160   2.294  17.273 -0.2555  0.0803 -0.0900
 1420SOL    HW115719   2.076   2.251  17.262  0.3022 -1.4603  1.6154
 1420SOL    HW215720   2.218   2.222  17.247  0.1704  1.1888 -2.1839
 1421SOL     OW15721   1.869   0.987   7.634  0.2111  0.1842 -0.0232
 1421SOL    HW115722   1.964   0.977   7.630  0.2935  1.3486 -0.8532
 1421SOL    HW215723   1.845   0.931   7.708  2.5226 -1.0970 -0.2254
 1422SOL     OW15724   1.558   1.547   8.088 -0.2298 -0.4731 -0.0943
 1422SOL    HW115725   1.485   1.495   8.121 -1.7108 -0.1142 -2.7413
 1422SOL    HW215726   1.551   1.626   8.141 -0.2198 -0.7927  0.3840
 1423SOL     OW15727   2.779   2.564   8.797  0.1253 -0.7611  0.4682
 1423SOL    HW115728   2.817   2.582   8.712 -0.1774  0.1581  0.5322
 1423SOL    HW215729   2.686   2.566   8.772  0.3025 -1.2965 -0.2561
 1424SOL     OW15730   1.171   3.973  13.065  0.1841 -0.7265  0.1922
 1424SOL    HW115731   1.206   3.898  13.017  0.9244  0.8927 -1.8041
 1424SOL    HW215732   1.164   3.944  13.156  0.7248 -0.3824  0.3452
 1425SOL     OW15733   0.077   0.853   0.897 -0.1693  0.1425 -0.0333
 1425SOL    HW115734   0.082   0.913   0.972  1.8216 -0.1369  0.0437
 1425SOL    HW215735   0.170   0.832   0.892 -1.3415 -4.4345 -1.9585
 1426SOL     OW15736   2.304   3.844  16.790 -0.0566 -0.2902 -0.1073
 1426SOL    HW115737   2.239   3.891  16.739 -0.0776  0.8665  0.9821
 1426SOL    HW215738   2.389   3.878  16.760 -1.1650  0.5293 -2.2916
 1427SOL     OW15739   4.001   1.094   8.175 -0.0836  0.1807 -0.5147
 1427SOL    HW115740   4.096   1.094   8.166  0.0488  2.7760  0.8077
 1427SOL    HW215741   3.984   1.184   8.148  0.7558 -0.0670 -1.8670
 1428SOL     OW15742   2.301   2.647   8.008 -0.4017  0.0621  0.5936
 1428SOL    HW115743   2.354   2.724   7.991 -0.5476 -0.1227 -0.7321
 1428SOL    HW215744   2.340   2.574   7.960  0.1141  0.3875  0.5173
 1429SOL     OW15745   4.237   1.314   5.253 -0.1860  0.1634 -0.1187
 1429SOL    HW115746   4.189   1.241   5.292 -1.3282  0.9825 -0.0090
 1429SOL    HW215747   4.176   1.339   5.184 -0.3831 -1.2515 -0.4612
 1430SOL     OW15748   0.936   3.767   1.041 -0.0126 -0.0383  0.0263
 1430SOL    HW115749   0.949   3.843   1.097  3.9018 -0.4918 -0.2066
 1430SOL    HW215750   1.021   3.723   1.050  0.1128 -0.1694 -1.8042
 1431SOL     OW15751   1.943   3.339   3.414  0.0946 -0.0567  0.4877
 1431SOL    HW115752   1.895   3.397   3.354 -1.5292  1.8321  3.6042
 1431SOL    HW215753   1.864   3.299   3.451  0.3112  0.4588  1.5088
 1432SOL     OW15754   1.965   1.718   8.102  0.0937  0.5425 -0.1780
 1432SOL    HW115755   1.954   1.762   8.018  0.8625 -1.5297 -1.3515
 1432SOL    HW215756   1.911   1.769   8.162 -1.5590  0.1714 -1.3449
 1433SOL     OW15757   4.261   4.004   3.593 -0.5799 -0.0273 -0.3090
 1433SOL    HW115758   4.351   4.000   3.558  0.0916 -0.4291  1.4519
 1433SOL    HW215759   4.272   4.038   3.682 -0.5945 -0.9566  0.0554
 1434SOL     OW15760   1.914   1.816   2.578  0.0742  0.1479  0.4330
 1434SOL    HW115761   2.006   1.833   2.558 -0.3989  0.8125 -1.1895
 1434SOL    HW215762   1.881   1.904   2.557 -2.6488 -1.2555 -1.0841
 1435SOL     OW15763   3.066   0.188   5.987  0.1829 -0.1606 -0.0014
 1435SOL    HW115764   3.107   0.186   6.073 -0.6915  1.4216  0.4516
 1435SOL    HW215765   3.128   0.128   5.944  2.2259  1.4634  0.6775
 1436SOL     OW15766   2.034   0.139   8.044 -0.1205  0.4616  0.2494
 1436SOL    HW115767   1.951   0.096   8.027 -0.9261  0.9675  2.8257
 1436SOL    HW215768   2.079   0.121   7.962 -1.1736 -1.0546  0.0146
 1437SOL     OW15769   0.803   2.442   5.623 -0.1347 -0.5816 -0.5338
 1437SOL    HW115770   0.887   2.485   5.639  0.2684 -1.5554  0.0064
 1437SOL    HW215771   0.811   2.370   5.687 -5.4343 -1.8493 -1.3251
 1438SOL     OW15772   2.139   4.315   3.468  0.7062  0.5736 -0.1544
 1438SOL    HW115773   2.210   4.335   3.407  2.7453  1.7359  2.6111
 1438SOL    HW215774   2.063   4.315   3.409 -0.7104 -1.3954  1.6902
 1439SOL     OW15775   0.313   1.228   2.828  0.1495  0.0658 -0.1506
 1439SOL    HW115776   0.327   1.279   2.908  0.7165 -0.9619  0.4045
 1439SOL    HW215777   0.335   1.291   2.760 -0.1725 -2.3987 -2.4955
 1440SOL     OW15778   2.805   3.037  13.705 -0.1730 -0.6160  0.1073
 1440SOL    HW115779   2.757   3.030  13.788  0.4900 -1.2762  0.4413
 1440SOL    HW215780   2.895   3.031  13.737 -0.1630 -1.9150 -0.1683
 1441SOL     OW15781   2.034   2.296   6.696  0.3168  0.0903 -0.5307
 1441SOL    HW115782   2.061   2.236   6.766 -0.7566 -1.5162 -1.5004
 1441SOL    HW215783   2.001   2.235   6.630 -1.5832  0.1198  0.3829
 1442SOL     OW15784   2.160   2.120  15.295 -0.4987  0.3425  0.3290
 1442SOL    HW115785   2.146   2.082  15.382  2.5792  1.0578  1.1569
 1442SOL    HW215786   2.113   2.202  15.311 -0.0445  0.7677 -0.5204
 1443SOL     OW15787   2.542   1.931  12.081  0.3253 -0.0466 -0.3037
 1443SOL    HW115788   2.611   1.993  12.104 -1.0527  2.2405 -2.2594
 1443SOL    HW215789   2.506   1.978  12.005  1.6637  1.5486  0.0442
 1444SOL     OW15790   1.392   0.181  13.603 -0.0864 -0.4045 -0.5218
 1444SOL    HW115791   1.358   0.115  13.663  2.6077  0.1344  1.5608
 1444SOL    HW215792   1.319   0.187  13.541 -0.5481  0.0407  0.0703
 1445SOL     OW15793   1.158   4.572  10.868  0.2282 -0.6264 -0.1609
 1445SOL    HW115794   1.104   4.525  10.805  0.1812  0.5596 -1.0008
 1445SOL    HW215795   1.108   4.652  10.883  1.7009  0.8361 -3.0847
 1446SOL     OW15796   2.349   3.393   8.610  0.3408  0.2470  0.3445
 1446SOL    HW115797   2.356   3.487   8.590 -3.6553  0.5410  0.3714
 1446SOL    HW215798   2.290   3.362   8.541 -0.9464 -0.5939  1.8460
 1447SOL     OW15799   4.412   1.903   6.618 -0.1935 -0.1234  0.0398
 1447SOL    HW115800   4.405   1.891   6.523 -0.1974 -2.2888  0.3246
 1447SOL    HW215801   4.486   1.963   6.613 -0.3348  0.0362 -0.1678
 1448SOL     OW15802   2.360   4.443   5.252  0.8436  0.3879 -0.0844
 1448SOL    HW115803   2.300   4.518   5.248  0.5986  0.1384 -0.9841
 1448SOL    HW215804   2.311   4.372   5.294  0.7299  0.5749  0.1041
 1449SOL     OW15805   4.278   3.298   5.386  0.1950 -0.0556  0.1941
 1449SOL    HW115806   4.226   3.248   5.448 -0.5284  0.4700  0.0064
 1449SOL    HW215807   4.328   3.229   5.341  0.3911 -0.2711  0.7449
 1450SOL     OW15808   0.134   4.290   3.846 -0.0909 -0.0647  0.3484
 1450SOL    HW115809   0.226   4.310   3.866 -0.0049 -0.4402  0.3145
 1450SOL    HW215810   0.078   4.356   3.887 -3.1145 -0.3639 -3.2850
 1451SOL     OW15811   2.662   3.022   7.816  0.6440  0.1346 -0.0909
 1451SOL    HW115812   2.684   3.087   7.749 -2.1913 -0.0671 -1.2224
 1451SOL    HW215813   2.723   2.954   7.786 -1.9733 -0.8033 -3.3279
 1452SOL     OW15814   1.737   3.605  11.076  0.0914  0.2608 -0.5999
 1452SOL    HW115815   1.716   3.601  10.982  1.2928  0.3029 -0.8661
 1452SOL    HW215816   1.694   3.683  11.110  2.3593  1.8150 -1.2882
 1453SOL     OW15817   1.769   2.987   6.923  0.0299  0.2408 -0.4476
 1453SOL    HW115818   1.828   3.050   6.882 -1.7240  1.8558 -0.4830
 1453SOL    HW215819   1.681   3.022   6.907 -0.7215 -0.5242  2.1327
 1454SOL     OW15820   0.853   0.542   3.677  0.2928  0.0472 -1.1150
 1454SOL    HW115821   0.933   0.593   3.674  0.2152  0.2851  1.0971
 1454SOL    HW215822   0.796   0.611   3.643 -0.9406 -0.6537 -0.4720
 1455SOL     OW15823   0.319   2.365   9.574  0.0548  0.0382  0.2296
 1455SOL    HW115824   0.266   2.435   9.612  0.9968  1.3197 -0.8179
 1455SOL    HW215825   0.272   2.355   9.492 -0.5505 -1.1798  0.7178
 1456SOL     OW15826   1.799   3.073  15.605  0.0443  0.4315 -0.2045
 1456SOL    HW115827   1.711   3.108  15.596 -0.3726 -0.4880  0.3116
 1456SOL    HW215828   1.789   3.031  15.690 -3.4264 -0.5212 -1.1094
 1457SOL     OW15829   0.289   4.549   8.877  0.4370 -0.1025 -0.0704
 1457SOL    HW115830   0.215   4.511   8.829  0.2664 -0.7323  0.6954
 1457SOL    HW215831   0.257   4.558   8.966  3.0137 -2.0053  1.0583
 1458SOL     OW15832   2.090   0.802   1.226  0.1526 -0.1675 -0.2126
 1458SOL    HW115833   2.032   0.863   1.271  1.6358  1.4721 -0.5353
 1458SOL    HW215834   2.160   0.792   1.291 -1.8101  0.8877  2.0815
 1459SOL     OW15835   3.902   4.324   1.440 -0.1303 -0.4002  0.0512
 1459SOL    HW115836   3.867   4.255   1.384 -2.6183  0.7807  0.1337
 1459SOL    HW215837   3.907   4.266   1.515 -1.2424 -1.1186 -0.4196
 1460SOL     OW15838   3.777   0.394   7.513  0.1548  0.0002 -0.0870
 1460SOL    HW115839   3.858   0.427   7.552 -0.8863  2.5299 -0.0319
 1460SOL    HW215840   3.757   0.334   7.585  0.2547  0.8625  0.6609
 1461SOL     OW15841   1.700   0.310   8.858  0.1335 -0.3313  0.9640
 1461SOL    HW115842   1.653   0.321   8.775 -0.5039  2.3217  1.6563
 1461SOL    HW215843   1.641   0.251   8.904  0.5916 -0.4879  1.3549
 1462SOL     OW15844   2.820   3.736  10.834  0.4305 -0.7300 -0.8725
 1462SOL    HW115845   2.849   3.668  10.774  3.2097 -0.0454 -0.2944
 1462SOL    HW215846   2.752   3.689  10.883  0.7323  0.2277  0.4457
 1463SOL     OW15847   1.144   3.915   7.701 -0.4717  0.2751  0.5505
 1463SOL    HW115848   1.121   3.959   7.619 -0.6543  0.0184  0.4640
 1463SOL    HW215849   1.075   3.849   7.702 -1.6187  1.4663 -1.1409
 1464SOL     OW15850   4.106   3.063   0.838  0.1303  0.6325 -0.1991
 1464SOL    HW115851   4.164   3.135   0.811  1.0128  0.0382  0.1105
 1464SOL    HW215852   4.159   3.010   0.898 -0.0157  2.2960  1.3993
 1465SOL     OW15853   1.179   1.724  12.040 -0.7216 -0.4982 -0.2212
 1465SOL    HW115854   1.119   1.649  12.033  0.0178 -1.3661  2.7743
 1465SOL    HW215855   1.192   1.758  11.951 -0.6654  3.5597  1.3565
 1466SOL     OW15856   2.383   2.940  15.020  0.1859  0.0181 -0.6589
 1466SOL    HW115857   2.437   2.979  15.089 -1.1407 -0.9642  0.9169
 1466SOL    HW215858   2.306   2.919  15.071  1.3293 -0.8372  0.7158
 1467SOL     OW15859   1.056   0.424   7.135  0.1047  0.1342  0.5209
 1467SOL    HW115860   1.000   0.351   7.162  0.9361 -0.3265  0.9807
 1467SOL    HW215861   1.085   0.383   7.053 -1.7614 -1.3374  0.5977
 1468SOL     OW15862   1.261   3.830   9.207 -0.4598  0.1167  0.1207
 1468SOL    HW115863   1.216   3.760   9.255 -0.0564  0.9684  1.7349
 1468SOL    HW215864   1.303   3.877   9.280  0.0933 -0.9755  0.5109
 1469SOL     OW15865   4.464   3.907  17.392 -0.0505 -0.0821  0.0122
 1469SOL    HW115866   4.511   3.986  17.419 -0.7031 -0.3000  1.7594
 1469SOL    HW215867   4.439   3.873  17.478  0.8314 -1.5117 -0.2975
 1470SOL     OW15868   3.734   4.343   9.849  0.6342  0.2705 -0.0455
 1470SOL    HW115869   3.733   4.297   9.933 -0.2823  1.8717  0.8055
 1470SOL    HW215870   3.718   4.269   9.790  0.7442 -0.2512  0.5676
 1471SOL     OW15871   3.030   4.252   1.739  0.2628  0.0019 -1.1993
 1471SOL    HW115872   3.070   4.338   1.752  1.3030 -1.0745  2.7288
 1471SOL    HW215873   3.092   4.218   1.674 -0.2453 -1.1985 -1.0606
 1472SOL     OW15874   3.733   2.355   5.959 -0.2377  0.0070 -0.1965
 1472SOL    HW115875   3.663   2.406   5.918  1.1801  2.0964  0.0014
 1472SOL    HW215876   3.679   2.279   5.978 -1.6110  1.2863  1.0285
 1473SOL     OW15877   4.583   2.588   3.777  0.2487 -0.0087  0.0611
 1473SOL    HW115878   4.649   2.551   3.719 -0.6944  0.9844 -1.6681
 1473SOL    HW215879   4.616   2.557   3.861  0.9157  0.0351 -0.1848
 1474SOL     OW15880   0.973   2.888   4.340  0.0642 -0.2309 -0.1226
 1474SOL    HW115881   0.952   2.829   4.268 -0.3326 -1.4860  1.0159
 1474SOL    HW215882   0.883   2.908   4.364  0.0668  0.8289 -0.9802
 1475SOL     OW15883   2.790   2.899  13.057  0.0102 -0.1408  0.1129
 1475SOL    HW115884   2.726   2.891  13.127  0.3077 -2.7787  0.0548
 1475SOL    HW215885   2.878   2.893  13.095 -0.8091 -0.8322  1.8984
 1476SOL     OW15886   2.334   0.832   1.397 -0.4884  0.4623  0.0719
 1476SOL    HW115887   2.375   0.918   1.387  0.2707  0.1770  0.7228
 1476SOL    HW215888   2.373   0.799   1.316  1.8978  0.6812  1.1163
 1477SOL     OW15889   0.059   2.042   3.915  0.3163 -0.1528  0.2044
 1477SOL    HW115890   0.154   2.054   3.921  0.1202  1.7622 -0.4333
 1477SOL    HW215891   0.047   1.951   3.888  0.7197 -0.7125  1.9123
 1478SOL     OW15892   2.889   2.285   7.804  0.3717 -0.3365 -0.4316
 1478SOL    HW115893   2.954   2.292   7.874  0.7904  1.0753 -0.9534
 1478SOL    HW215894   2.952   2.251   7.740  0.0460 -0.8576 -0.4667
 1479SOL     OW15895   4.591   4.161   7.037  0.0488  0.5584 -0.5829
 1479SOL    HW115896   4.528   4.124   7.099 -0.7243  0.7166 -1.2847
 1479SOL    HW215897   4.538   4.174   6.959 -0.6472  1.5329  0.0422
 1480SOL     OW15898   0.110   3.396   3.640 -0.3940  0.3402 -0.1305
 1480SOL    HW115899   0.179   3.357   3.586 -0.2212 -0.6140  0.7786
 1480SOL    HW215900   0.157   3.446   3.706 -1.5785  1.9346 -0.4887
 1481SOL     OW15901   2.246   0.887   5.096  0.6411 -0.0196 -0.6109
 1481SOL    HW115902   2.265   0.895   5.003  1.2704  1.1519 -0.3836
 1481SOL    HW215903   2.314   0.939   5.139  0.9342  0.6757 -1.9263
 1482SOL     OW15904   1.669   2.903  17.529 -0.1177 -0.2023 -0.1918
 1482SOL    HW115905   1.600   2.840  17.507  0.1694  0.1190 -1.9925
 1482SOL    HW215906   1.715   2.905  17.445  0.0157 -0.6692 -0.1317
 1483SOL     OW15907   0.658   0.700   4.937  0.0321  0.0021  0.8621
 1483SOL    HW115908   0.738   0.648   4.931 -2.2986 -3.0682 -3.1087
 1483SOL    HW215909   0.594   0.644   4.894 -1.5836  1.2471  1.6104
 1484SOL     OW15910   2.993   0.844   8.454 -0.4623  0.1942 -0.5726
 1484SOL    HW115911   3.088   0.831   8.464 -0.9839 -3.0165  0.3328
 1484SOL    HW215912   2.984   0.923   8.506 -0.7303  0.1410 -0.5420
 1485SOL     OW15913   0.779   1.493   7.352  0.2138  0.2568 -0.1139
 1485SOL    HW115914   0.689   1.525   7.354  0.2427  0.3583 -0.5427
 1485SOL    HW215915   0.830   1.571   7.331 -1.5860  1.7102  0.9665
 1486SOL     OW15916   2.544   2.084   2.703  0.1998  0.2832  0.2372
 1486SOL    HW115917   2.493   2.030   2.762 -1.2138  1.6919  0.2982
 1486SOL    HW215918   2.512   2.057   2.617  2.3629 -0.4760 -0.3312
 1487SOL     OW15919   3.097   4.275   1.999 -0.0052 -0.4272 -0.2629
 1487SOL    HW115920   3.065   4.275   1.909 -0.5816  3.9625 -0.0665
 1487SOL    HW215921   3.122   4.183   1.990 -0.2498 -0.4908 -0.2901
 1488SOL     OW15922   1.379   1.255   6.627  0.1415  0.4644 -0.0325
 1488SOL    HW115923   1.400   1.292   6.541  0.8634 -0.4885 -0.2730
 1488SOL    HW215924   1.418   1.168   6.621 -0.4677  0.2874 -1.5784
 1489SOL     OW15925   1.642   2.043  10.405 -0.6105 -0.2228  0.2703
 1489SOL    HW115926   1.699   2.119  10.394 -1.1312  0.0582 -0.5125
 1489SOL    HW215927   1.701   1.968  10.397 -1.3663 -0.6984 -0.8398
 1490SOL     OW15928   1.410   0.278   7.164  0.6750  0.3777 -0.0438
 1490SOL    HW115929   1.415   0.360   7.213 -0.3387  0.2195  0.3267
 1490SOL    HW215930   1.428   0.220   7.238  0.7860 -0.0003 -0.3640
 1491SOL     OW15931   1.065   3.116   4.485  0.1039 -0.1889 -0.4426
 1491SOL    HW115932   1.044   3.047   4.423  2.5210 -1.1704 -0.1754
 1491SOL    HW215933   0.985   3.126   4.537  2.2751 -0.9229  3.0718
 1492SOL     OW15934   4.237   3.772  12.927 -0.0371 -0.0006 -0.7347
 1492SOL    HW115935   4.331   3.755  12.920  0.3900  1.5024  1.7446
 1492SOL    HW215936   4.239   3.863  12.955 -2.0317  0.4686 -2.0992
 1493SOL     OW15937   2.326   1.325   1.967 -0.2561 -0.0799 -1.2197
 1493SOL    HW115938   2.286   1.352   1.884  0.1474 -0.6526 -1.5948
 1493SOL    HW215939   2.299   1.234   1.975  1.7313 -0.5645 -0.0727
 1494SOL     OW15940   3.275   4.433   2.325 -0.7209  0.6930 -0.3451
 1494SOL    HW115941   3.209   4.388   2.378 -1.1942 -0.0113 -1.5430
 1494SOL    HW215942   3.316   4.363   2.276  0.1627 -1.9251  4.1149
 1495SOL     OW15943   1.493   1.829   1.572  0.2458 -0.2090  0.2925
 1495SOL    HW115944   1.473   1.737   1.587  1.1859 -0.9808 -3.1312
 1495SOL    HW215945   1.432   1.875   1.629 -0.5106 -2.2560  1.0985
 1496SOL     OW15946   3.457   1.802   5.790  0.6399  0.4647  0.1892
 1496SOL    HW115947   3.381   1.751   5.761  1.4308  0.5354 -2.0505
 1496SOL    HW215948   3.416   1.888   5.791 -0.9273 -0.3105  2.1617
 1497SOL     OW15949   0.254   3.619   2.593 -0.3284 -0.1638  0.3463
 1497SOL    HW115950   0.284   3.598   2.681 -1.9031 -0.3074  0.8646
 1497SOL    HW215951   0.295   3.704   2.577 -2.6046  0.7907 -0.4205
 1498SOL     OW15952   4.144   4.307   8.952 -0.1640 -0.4715 -0.8047
 1498SOL    HW115953   4.237   4.326   8.965 -1.0368  1.4340  2.4501
 1498SOL    HW215954   4.098   4.370   9.007  2.2469  0.0114  0.6947
 1499SOL     OW15955   3.892   0.101  10.410  0.3302 -0.6465 -0.3523
 1499SOL    HW115956   3.825   0.151  10.456  0.2240  0.1570 -1.3644
 1499SOL    HW215957   3.929   0.044  10.477 -0.0289  0.2208  0.5786
 1500SOL     OW15958   2.384   4.674  10.819 -0.2485  0.0523  0.4844
 1500SOL    HW115959   2.293   4.670  10.788 -0.2796 -0.2062  0.6089
 1500SOL    HW215960   2.387   4.656  10.913 -1.2593 -0.1008  0.4907
 1501SOL     OW15961   1.514   0.734   2.767  0.4091  0.1507  0.1687
 1501SOL    HW115962   1.541   0.825   2.778  1.0780 -0.2685  1.9340
 1501SOL    HW215963   1.448   0.756   2.701  0.1361  1.3222  0.8343
 1502SOL     OW15964   2.416   4.687   7.871 -0.2133 -0.2102  0.0407
 1502SOL    HW115965   2.374   4.664   7.954  0.4994  0.1967  0.5221
 1502SOL    HW215966   2.392   4.613   7.815 -0.8914 -0.3460  0.5150
 1503SOL     OW15967   3.683   0.503   3.784  0.1851  0.0106 -0.1934
 1503SOL    HW115968   3.710   0.566   3.717  0.7724 -1.2117 -1.0924
 1503SOL    HW215969   3.640   0.440   3.726 -0.1174  0.6224 -0.6282
 1504SOL     OW15970   2.311   3.039   3.793 -0.3962 -0.6308  0.1085
 1504SOL    HW115971   2.273   3.023   3.879  1.5744 -0.6109  0.9628
 1504SOL    HW215972   2.229   3.027   3.745 -1.7219 -0.4951  2.3267
 1505SOL     OW15973   3.911   0.365   3.946 -0.7769  0.0528  0.4223
 1505SOL    HW115974   3.863   0.299   3.997 -1.1715  1.7791  2.2586
 1505SOL    HW215975   3.838   0.414   3.908  1.1510  1.9684 -0.7396
 1506SOL     OW15976   1.383   4.075   3.398  0.0908 -0.3773 -0.9462
 1506SOL    HW115977   1.353   3.995   3.355  1.7600 -1.6096  0.1771
 1506SOL    HW215978   1.474   4.046   3.403  0.6337  1.3466 -1.0477
 1507SOL     OW15979   4.367   3.293   6.317 -0.4056 -0.0197  0.4005
 1507SOL    HW115980   4.434   3.348   6.359 -1.7567  2.5874 -0.8143
 1507SOL    HW215981   4.294   3.313   6.375 -0.1138  1.5223  0.2606
 1508SOL     OW15982   1.223   2.487   2.637 -0.2226  0.0702  0.3228
 1508SOL    HW115983   1.181   2.415   2.590  0.6171 -1.5449  2.0730
 1508SOL    HW215984   1.229   2.543   2.558 -1.1343 -0.0734  0.1521
 1509SOL     OW15985   2.999   3.481  13.121 -0.7965  0.1310 -0.1067
 1509SOL    HW115986   3.027   3.408  13.176 -1.9219 -0.6636 -0.5995
 1509SOL    HW215987   3.061   3.547  13.153  1.4912 -1.6814 -0.8075
 1510SOL     OW15988   4.324   3.609   6.278 -0.2927 -0.0990  0.1802
 1510SOL    HW115989   4.283   3.532   6.239 -2.6189  1.4091 -0.4019
 1510SOL    HW215990   4.269   3.631   6.353 -0.9758 -1.7025  0.1447
 1511SOL     OW15991   3.130   4.030   8.520 -0.4126  0.0596  0.2598
 1511SOL    HW115992   3.107   4.021   8.612  0.4228 -0.2325  0.4384
 1511SOL    HW215993   3.045   4.020   8.476 -0.6001 -1.4159  0.9712
 1512SOL     OW15994   2.141   0.409  15.215  0.4173 -0.2420 -0.2501
 1512SOL    HW115995   2.134   0.445  15.303 -0.1514  0.5655 -0.6295
 1512SOL    HW215996   2.085   0.473  15.170  1.2209  1.5140  1.2946
 1513SOL     OW15997   0.890   1.866  13.163  0.1496  0.2779  0.2672
 1513SOL    HW115998   0.975   1.897  13.134  0.2638  1.9006  2.3653
 1513SOL    HW215999   0.828   1.923  13.118 -0.3896 -0.7333 -0.2918
 1514SOL     OW16000   2.173   2.551   1.094 -0.7832 -0.2982 -0.1235
 1514SOL    HW116001   2.125   2.620   1.050  2.6658  2.1060 -0.1293
 1514SOL    HW216002   2.220   2.498   1.030  1.2548 -0.2258  1.3006
 1515SOL     OW16003   0.950   3.437   8.243 -0.1399  0.4267 -0.1735
 1515SOL    HW116004   0.901   3.355   8.252 -0.7496  0.8550  0.5039
 1515SOL    HW216005   1.023   3.405   8.191 -1.2050 -0.3538 -1.1952
 1516SOL     OW16006   4.650   3.720   2.980  0.4385 -0.2000 -0.1730
 1516SOL    HW116007   4.720   3.701   3.043 -0.2710  0.1329  0.7142
 1516SOL    HW216008   4.673   3.811   2.960  2.6801 -0.5007  0.9585
 1517SOL     OW16009   0.057   1.181   7.394 -0.7962  0.1026  0.0240
 1517SOL    HW116010   4.688   1.166   7.367 -0.5830  0.8616 -1.1232
 1517SOL    HW216011   0.067   1.112   7.459 -0.3456  0.3952  0.2652
 1518SOL     OW16012   1.864   4.569   9.083  0.8112 -0.3816  0.2363
 1518SOL    HW116013   1.841   4.483   9.048 -1.6641  0.2164  0.3669
 1518SOL    HW216014   1.959   4.573   9.078  0.8940 -2.4332  0.4103
 1519SOL     OW16015   1.100   1.979   6.986  0.8330  0.3819  0.1885
 1519SOL    HW116016   1.020   1.932   6.963  1.8976 -0.7369 -1.1796
 1519SOL    HW216017   1.078   2.067   6.954  4.1484  0.1418 -2.7641
 1520SOL     OW16018   0.294   0.660   8.512  0.2327  0.5073 -0.6633
 1520SOL    HW116019   0.341   0.581   8.486  1.5773  1.9876 -2.7267
 1520SOL    HW216020   0.301   0.715   8.434  0.3130 -0.8971 -1.6541
 1521SOL     OW16021   4.190   3.588  13.984  0.3396 -0.8319 -0.7780
 1521SOL    HW116022   4.217   3.641  14.058 -2.2035  0.7486 -0.9661
 1521SOL    HW216023   4.260   3.598  13.919  0.3925 -1.1081 -0.7654
 1522SOL     OW16024   3.632   0.889   3.427 -0.3095  0.3399 -0.1969
 1522SOL    HW116025   3.682   0.823   3.378  0.0950 -0.5512  1.4161
 1522SOL    HW216026   3.658   0.964   3.374 -0.3322 -0.0815 -0.8102
 1523SOL     OW16027   4.629   0.971   6.943  0.5502  0.1604 -0.1440
 1523SOL    HW116028   4.640   0.935   6.855 -0.1691  1.2695 -0.6840
 1523SOL    HW216029   4.663   0.902   7.000  1.9538  0.9456 -0.0279
 1524SOL     OW16030   3.135   4.407   7.352  0.0419  0.2324 -0.0267
 1524SOL    HW116031   3.179   4.490   7.331  1.1147 -0.2818  0.1982
 1524SOL    HW216032   3.043   4.432   7.342 -0.3032 -0.7719  0.6606
 1525SOL     OW16033   0.381   4.207   2.624 -0.0287 -0.2413 -0.2255
 1525SOL    HW116034   0.392   4.279   2.686  2.3439 -0.8497  0.0675
 1525SOL    HW216035   0.463   4.160   2.639  0.0459 -0.2643 -0.7234
 1526SOL     OW16036   1.747   0.109   3.792  0.1162 -0.0093 -0.3577
 1526SOL    HW116037   1.731   0.106   3.886 -0.8495 -1.8616 -0.5690
 1526SOL    HW216038   1.831   0.062   3.788 -1.4433 -2.8160 -0.4426
 1527SOL     OW16039   4.320   1.730   3.649 -0.3161 -0.0619 -0.3113
 1527SOL    HW116040   4.255   1.795   3.674 -1.2782 -2.1413  2.6485
 1527SOL    HW216041   4.391   1.788   3.674 -0.5643  0.1903 -0.1954
 1528SOL     OW16042   2.668   1.100  13.793  0.9552 -0.1592  0.1708
 1528SOL    HW116043   2.666   1.184  13.746 -0.5848  0.8192  2.0085
 1528SOL    HW216044   2.731   1.057  13.735 -1.4083 -2.3225 -0.7396
 1529SOL     OW16045   1.290   3.073  14.299 -0.0140 -0.2819 -0.2839
 1529SOL    HW116046   1.312   3.163  14.276  2.1352 -0.6839  0.1417
 1529SOL    HW216047   1.204   3.084  14.340  0.1265 -1.7281  0.4162
 1530SOL     OW16048   4.302   3.589   0.728  0.6038  0.6379 -0.2209
 1530SOL    HW116049   4.244   3.559   0.658 -1.9402  5.4057 -0.1889
 1530SOL    HW216050   4.358   3.515   0.752 -0.5969 -0.6576 -1.3827
 1531SOL     OW16051   4.004   3.869   7.956 -0.5872  0.1365 -0.4474
 1531SOL    HW116052   4.014   3.782   7.993 -0.3343 -1.1412 -3.5342
 1531SOL    HW216053   4.012   3.852   7.862 -3.3874 -1.5487 -0.3676
 1532SOL     OW16054   4.234   0.086   3.866  0.2912 -0.0577  0.0045
 1532SOL    HW116055   4.233   0.048   3.954  0.2444 -2.5835 -1.1026
 1532SOL    HW216056   4.207   0.011   3.813  0.4106 -0.4303  0.4727
 1533SOL     OW16057   3.020   2.222   4.702  0.4537 -0.2672  1.0818
 1533SOL    HW116058   3.006   2.304   4.750  1.0411  0.0492  0.7213
 1533SOL    HW216059   2.945   2.218   4.642  0.7387 -2.6746  0.8888
 1534SOL     OW16060   1.897   3.140   1.800  0.0287  0.3998  0.1241
 1534SOL    HW116061   1.958   3.071   1.828 -0.9452 -0.2908  0.5184
 1534SOL    HW216062   1.818   3.115   1.847  1.3509  0.7726  2.5585
 1535SOL     OW16063   0.271   1.701   8.868  0.3383 -0.6911 -0.1865
 1535SOL    HW116064   0.195   1.730   8.918  1.1794 -1.7577  1.7402
 1535SOL    HW216065   0.318   1.647   8.932  1.8200  0.0596 -0.6294
 1536SOL     OW16066   0.659   0.854  14.151  0.3043  0.2043  0.0847
 1536SOL    HW116067   0.603   0.792  14.103 -0.0112 -0.6388  1.5375
 1536SOL    HW216068   0.626   0.930  14.104  1.4040 -1.4935 -3.5049
 1537SOL     OW16069   4.076   4.711   8.510 -0.2024  0.3310  0.0651
 1537SOL    HW116070   4.095   0.050   8.581 -2.0975 -1.8894  2.5181
 1537SOL    HW216071   3.987   4.688   8.538 -0.0846 -0.2274 -0.0207
 1538SOL     OW16072   3.089   3.988   7.516 -0.3362 -0.0344  0.5997
 1538SOL    HW116073   3.124   4.066   7.559 -0.7232  1.2901 -1.4778
 1538SOL    HW216074   3.066   4.028   7.431 -1.2011  0.3073  0.9954
 1539SOL     OW16075   2.354   1.237   9.679 -0.2403 -0.1524  0.2327
 1539SOL    HW116076   2.361   1.180   9.755 -0.7209  0.2896  0.6032
 1539SOL    HW216077   2.334   1.317   9.728  0.1553 -1.0882  1.8888
 1540SOL     OW16078   3.659   0.912   0.657 -0.8679  0.3151  0.4853
 1540SOL    HW116079   3.628   0.999   0.681 -1.5780  0.2602 -0.2222
 1540SOL    HW216080   3.688   0.925   0.567  0.8092 -0.5674  0.9065
 1541SOL     OW16081   2.961   1.188   9.159  0.2374  0.5740  0.3850
 1541SOL    HW116082   2.984   1.263   9.213  0.0125 -0.7314  2.2833
 1541SOL    HW216083   3.042   1.142   9.136 -0.7721 -1.4374  0.8197
 1542SOL     OW16084   1.607   4.298  13.020  0.2153 -0.4533 -0.5441
 1542SOL    HW116085   1.565   4.217  13.048  1.5065 -0.0150  2.6337
 1542SOL    HW216086   1.535   4.340  12.972  2.5168  2.4194 -1.4946
 1543SOL     OW16087   2.359   0.089  12.110  0.3870  0.8704 -0.1800
 1543SOL    HW116088   2.376   0.001  12.144 -1.4197  1.1260  1.3813
 1543SOL    HW216089   2.442   0.131  12.132 -0.2951  2.6078 -0.9627
 1544SOL     OW16090   1.412   2.374   0.123  0.1313 -0.3470  0.4139
 1544SOL    HW116091   1.342   2.417   0.072  1.6378  0.8961 -0.6053
 1544SOL    HW216092   1.484   2.433   0.102 -0.1757  0.4106  1.4757
 1545SOL     OW16093   1.800   3.381   2.708 -0.0188  0.0003 -0.5982
 1545SOL    HW116094   1.847   3.436   2.645 -0.1834  0.4724 -0.3087
 1545SOL    HW216095   1.738   3.338   2.649 -1.2498 -0.1232  0.7832
 1546SOL     OW16096   2.356   1.584   5.255  0.2336 -0.3149 -0.2151
 1546SOL    HW116097   2.334   1.629   5.173  1.6916  0.8980  0.0608
 1546SOL    HW216098   2.285   1.519   5.258  0.2749 -0.2884  1.4136
 1547SOL     OW16099   0.265   2.436   7.911  0.0171 -0.3230 -0.2046
 1547SOL    HW116100   0.222   2.518   7.935  2.2553  0.4469  1.1736
 1547SOL    HW216101   0.357   2.444   7.936 -0.2463 -2.4704  1.3400
 1548SOL     OW16102   2.718   2.105   7.870 -0.2909 -0.2697 -0.2272
 1548SOL    HW116103   2.783   2.174   7.857 -1.3524  1.1088  1.6563
 1548SOL    HW216104   2.727   2.099   7.965 -0.4386  1.0482 -0.1235
 1549SOL     OW16105   3.417   0.571   9.277  0.3830  0.2662  0.7074
 1549SOL    HW116106   3.398   0.478   9.283  2.8080 -0.4306 -2.1019
 1549SOL    HW216107   3.374   0.604   9.356 -0.3376 -0.2827  0.5420
 1550SOL     OW16108   1.779   1.058   1.669 -0.0360  0.2466  0.3268
 1550SOL    HW116109   1.773   0.969   1.704 -1.9444  0.2649  0.0392
 1550SOL    HW216110   1.725   1.049   1.590  1.7096 -1.2744 -0.6930
 1551SOL     OW16111   4.115   2.395   7.025 -1.3725 -0.6189  0.0371
 1551SOL    HW116112   4.084   2.483   7.045 -1.9424 -0.4139 -1.7703
 1551SOL    HW216113   4.055   2.366   6.957 -2.9352  0.8825  0.7905
 1552SOL     OW16114   4.042   2.634  12.367 -0.3979  0.1321  0.1814
 1552SOL    HW116115   4.032   2.717  12.321  2.6115 -0.6274 -1.8727
 1552SOL    HW216116   4.068   2.570  12.301  1.4816  3.9613 -2.8437
 1553SOL     OW16117   4.561   1.754   8.135  0.1756  0.1100  0.1322
 1553SOL    HW116118   4.543   1.741   8.042  0.9130  1.8882 -0.2507
 1553SOL    HW216119   4.578   1.665   8.166  0.3234 -0.0854 -0.5037
 1554SOL     OW16120   2.820   3.965  16.156 -0.0747  0.4672 -0.1993
 1554SOL    HW116121   2.799   4.028  16.225 -1.2949 -0.3492  0.1707
 1554SOL    HW216122   2.744   3.908  16.156  1.8152 -2.0368 -2.1260
 1555SOL     OW16123   3.686   2.902   6.133 -0.1896 -0.0256  0.4070
 1555SOL    HW116124   3.722   2.923   6.047  0.5958  0.6189  0.8889
 1555SOL    HW216125   3.706   2.985   6.176  1.0488  0.4997 -1.1916
 1556SOL     OW16126   0.579   3.252   4.847 -1.0570  0.0463 -0.2504
 1556SOL    HW116127   0.618   3.200   4.917 -1.4500  3.3390  2.4437
 1556SOL    HW216128   0.573   3.181   4.783 -0.6336 -0.6216  0.4637
 1557SOL     OW16129   4.569   2.719  15.265 -0.1775 -0.4626 -0.1175
 1557SOL    HW116130   4.647   2.768  15.291 -0.7326  0.3748 -0.0334
 1557SOL    HW216131   4.504   2.768  15.316  1.0034  0.6480  0.3268
 1558SOL     OW16132   0.714   1.140   8.856 -0.3737 -0.4677 -0.1236
 1558SOL    HW116133   0.730   1.108   8.945  1.0041 -0.1414 -0.2454
 1558SOL    HW216134   0.677   1.226   8.879  1.3561 -0.1431  1.5331
 1559SOL     OW16135   1.824   2.031   8.517  0.9348 -0.4270 -0.0791
 1559SOL    HW116136   1.783   1.976   8.583 -0.3238  1.3554  0.6184
 1559SOL    HW216137   1.758   2.097   8.496  4.8014  3.1442 -1.0205
 1560SOL     OW16138   0.983   3.557   3.526  0.8558 -0.1170  0.5565
 1560SOL    HW116139   1.019   3.486   3.473 -0.5460 -0.4019 -0.0230
 1560SOL    HW216140   0.888   3.545   3.526  0.7960  0.3916 -2.0270
 1561SOL     OW16141   3.266   0.794  10.901  0.0246  0.5346  0.1013
 1561SOL    HW116142   3.266   0.879  10.858  0.3794  0.3668 -0.2296
 1561SOL    HW216143   3.214   0.746  10.836 -1.4008 -0.1113  1.7252
 1562SOL     OW16144   1.197   1.933   6.220 -0.0592  0.6082 -0.0516
 1562SOL    HW116145   1.229   1.942   6.130 -0.2380 -1.6866 -0.3535
 1562SOL    HW216146   1.282   1.923   6.264  0.1219 -1.0871 -0.7793
 1563SOL     OW16147   2.078   3.428   5.899 -0.5140  0.6192 -0.1528
 1563SOL    HW116148   2.075   3.345   5.947 -1.4680  0.3083 -0.7546
 1563SOL    HW216149   2.010   3.476   5.946 -0.9741 -0.9183  0.7625
 1564SOL     OW16150   1.797   4.608   4.228  0.4652 -0.2483  0.3021
 1564SOL    HW116151   1.827   4.679   4.172 -1.8144  0.1149 -0.4453
 1564SOL    HW216152   1.885   4.596   4.265  0.7785 -1.4552 -0.8652
 1565SOL     OW16153   1.936   1.523  11.444 -0.1729 -0.9614 -0.3977
 1565SOL    HW116154   1.867   1.461  11.467 -2.4416  1.4114 -0.7591
 1565SOL    HW216155   1.999   1.511  11.516 -2.0021  1.1649  1.5561
 1566SOL     OW16156   0.345   1.138   8.735  0.0004  0.1039 -0.3970
 1566SOL    HW116157   0.276   1.071   8.728 -0.6277  0.4827  2.3938
 1566SOL    HW216158   0.404   1.091   8.676  1.2573 -0.0570  0.9819
 1567SOL     OW16159   4.138   2.392   0.606  0.0935  0.3625 -1.1253
 1567SOL    HW116160   4.055   2.385   0.653  0.4496  2.3842 -0.2176
 1567SOL    HW216161   4.167   2.459   0.668 -0.6648 -1.5095  1.2832
 1568SOL     OW16162   0.596   0.459   1.222 -0.0844  0.1930 -0.2296
 1568SOL    HW116163   0.527   0.420   1.277  0.4312  1.0083  0.9923
 1568SOL    HW216164   0.535   0.494   1.157  2.2476  0.1996 -2.3993
 1569SOL     OW16165   1.153   2.176   1.797  0.7190  0.7622 -0.3622
 1569SOL    HW116166   1.185   2.266   1.804  0.0872  1.0141 -0.7313
 1569SOL    HW216167   1.070   2.204   1.759 -0.8452  1.3966  3.5053
 1570SOL     OW16168   0.756   2.148  17.482 -0.0135  0.2019 -0.3251
 1570SOL    HW116169   0.684   2.092  17.511  0.2876 -0.1484 -0.2579
 1570SOL    HW216170   0.820   2.114  17.545  0.8954  1.8347 -0.3768
 1571SOL     OW16171   1.898   0.253  13.985 -0.3600 -0.2072  0.2354
 1571SOL    HW116172   1.987   0.239  14.018 -0.6621 -0.1854  1.0607
 1571SOL    HW216173   1.879   0.189  13.918  1.1428 -3.3097  2.7576
 1572SOL     OW16174   1.525   1.715   0.179  0.2827  0.0981 -0.2263
 1572SOL    HW116175   1.439   1.756   0.168  0.5267  0.8649  0.6682
 1572SOL    HW216176   1.508   1.662   0.257 -1.4592 -0.2679 -0.8584
 1573SOL     OW16177   1.825   4.049   6.490  0.0208  0.2545  0.1058
 1573SOL    HW116178   1.803   4.031   6.398 -2.4800  0.8126  0.6029
 1573SOL    HW216179   1.755   4.112   6.508 -1.3756 -0.8277 -1.5659
 1574SOL     OW16180   1.743   0.665   8.551  0.4048 -0.1068 -0.7528
 1574SOL    HW116181   1.751   0.626   8.638  0.4333  0.0618 -0.6808
 1574SOL    HW216182   1.732   0.756   8.577 -2.0863 -0.1044 -1.8402
 1575SOL     OW16183   0.191   0.177   6.956 -0.1531  0.6596  0.7252
 1575SOL    HW116184   0.156   0.166   7.045 -2.4775  1.9187 -0.0481
 1575SOL    HW216185   0.217   0.088   6.932 -1.4452  0.2120  1.0248
 1576SOL     OW16186   0.635   1.720   7.607  0.8869 -0.2205 -0.1759
 1576SOL    HW116187   0.551   1.748   7.642 -0.5813 -0.2284 -3.6988
 1576SOL    HW216188   0.605   1.684   7.524 -1.2062 -2.0025  1.3411
 1577SOL     OW16189   0.578   2.637   8.270  0.0075 -0.4028  0.0570
 1577SOL    HW116190   0.611   2.721   8.301  1.1522 -1.1092  0.7521
 1577SOL    HW216191   0.648   2.572   8.285 -0.6720 -1.3643 -0.9611
 1578SOL     OW16192   4.648   4.312   9.640 -0.4208 -0.4274  0.2573
 1578SOL    HW116193   0.008   4.269   9.618  1.0548  2.3477  0.3172
 1578SOL    HW216194   4.628   4.283   9.729  1.8735 -0.7696  0.6620
 1579SOL     OW16195   4.628   4.172   9.878  0.0129 -0.3765 -0.1914
 1579SOL    HW116196   4.635   4.110   9.950 -0.0639 -0.8352 -0.5814
 1579SOL    HW216197   4.562   4.127   9.825  2.2939 -4.0303  0.0645
 1580SOL     OW16198   3.620   0.602   9.089  0.3423 -0.2418 -0.2436
 1580SOL    HW116199   3.671   0.539   9.141  1.1260 -0.6029 -1.4624
 1580SOL    HW216200   3.549   0.613   9.152 -1.5881  0.8144 -2.6049
 1581SOL     OW16201   4.336   3.958  10.218 -0.1650  0.4579 -0.0133
 1581SOL    HW116202   4.421   3.980  10.181  0.4861 -3.0185 -0.5820
 1581SOL    HW216203   4.363   3.922  10.302  0.6197  1.2138  0.0543
 1582SOL     OW16204   4.199   2.149   4.494 -0.8653  0.2888  0.6009
 1582SOL    HW116205   4.249   2.218   4.451  0.9230 -0.5195  1.3760
 1582SOL    HW216206   4.135   2.123   4.428 -1.5859 -0.7359  1.6858
 1583SOL     OW16207   0.744   4.702   7.279  0.0702  0.4578 -0.1192
 1583SOL    HW116208   0.815   4.695   7.342 -1.0933 -1.5740  0.9392
 1583SOL    HW216209   0.786   4.668   7.200  1.4947 -2.2127  1.8370
 1584SOL     OW16210   1.126   3.857   4.370 -0.2468  0.4221 -0.3919
 1584SOL    HW116211   1.034   3.882   4.363 -1.5505 -3.4883  2.2882
 1584SOL    HW216212   1.124   3.841   4.465  0.9673 -0.9506 -0.5965
 1585SOL     OW16213   0.922   0.117   1.222  0.1386 -0.1476  0.1820
 1585SOL    HW116214   0.828   0.099   1.216  0.2350 -0.9754  1.1132
 1585SOL    HW216215   0.926   0.210   1.199 -0.0071 -0.1866  0.0038
 1586SOL     OW16216   1.249   4.354   0.083  0.0132  0.0873  0.3149
 1586SOL    HW116217   1.259   4.441   0.123  0.8187  1.6041 -3.2182
 1586SOL    HW216218   1.255   4.294   0.158  2.5777 -0.8866 -0.6752
 1587SOL     OW16219   2.683   3.439   5.856 -0.2073 -0.2075  0.1414
 1587SOL    HW116220   2.681   3.488   5.774  4.1216 -0.5094 -0.1791
 1587SOL    HW216221   2.605   3.383   5.853  0.4319 -1.1115  0.1832
 1588SOL     OW16222   1.768   0.364   1.639 -0.0994 -0.5567 -0.1131
 1588SOL    HW116223   1.792   0.337   1.728 -1.9004  2.1059  1.1879
 1588SOL    HW216224   1.815   0.446   1.628 -2.2074  0.5436 -0.8793
 1589SOL     OW16225   2.825   4.062   2.069  0.1206 -0.3832  0.4451
 1589SOL    HW116226   2.741   4.102   2.047 -1.0529 -4.1945 -2.0678
 1589SOL    HW216227   2.876   4.061   1.988  0.9181 -1.9169  0.9671
 1590SOL     OW16228   2.879   0.401   4.512 -0.1378  0.0202  0.2168
 1590SOL    HW116229   2.838   0.347   4.444  0.8191  0.1846 -0.4993
 1590SOL    HW216230   2.903   0.483   4.468 -0.4060 -1.1214 -2.0820
 1591SOL     OW16231   3.848   3.038   0.728 -0.4029  0.5833  0.7631
 1591SOL    HW116232   3.805   2.969   0.779  1.1100 -1.2224 -0.4229
 1591SOL    HW216233   3.931   3.045   0.775  1.0471  0.2904 -1.7535
 1592SOL     OW16234   3.909   4.545   8.872  0.3109  0.2301 -0.1498
 1592SOL    HW116235   3.953   4.614   8.922  0.8810  0.5542 -1.0972
 1592SOL    HW216236   3.861   4.508   8.946  0.5190  2.5424  1.1656
 1593SOL     OW16237   0.858   3.676   6.771 -0.2699  0.0824  0.6248
 1593SOL    HW116238   0.769   3.687   6.736  1.0305  1.5593 -2.2093
 1593SOL    HW216239   0.871   3.587   6.740 -0.3107 -0.4848  2.2120
 1594SOL     OW16240   1.596   4.223  12.521  0.0200  0.1186  0.4660
 1594SOL    HW116241   1.535   4.188  12.586  2.1747  0.6159  2.7875
 1594SOL    HW216242   1.675   4.245  12.572 -0.4912 -0.8577  1.6781
 1595SOL     OW16243   1.896   2.385   3.600  0.1601 -0.3473  0.2767
 1595SOL    HW116244   1.977   2.336   3.614  0.6829  0.0733 -1.2278
 1595SOL    HW216245   1.926   2.418   3.515  0.7597 -2.1723 -0.2302
 1596SOL     OW16246   2.916   3.479  14.258  0.1902  0.4939 -0.0479
 1596SOL    HW116247   2.917   3.384  14.262 -1.9761  0.4472 -0.5993
 1596SOL    HW216248   2.920   3.495  14.164  0.7305 -1.1082 -0.2895
 1597SOL     OW16249   3.641   1.317   6.055 -0.1520  0.4462 -0.2857
 1597SOL    HW116250   3.668   1.394   6.005 -2.4684  0.7783 -1.0298
 1597SOL    HW216251   3.643   1.348   6.145 -1.2510  0.6949 -0.3530
 1598SOL     OW16252   1.928   2.592  17.342 -0.5374  0.3131 -0.7559
 1598SOL    HW116253   1.857   2.603  17.279 -0.7746  0.5407 -0.4490
 1598SOL    HW216254   1.876   2.544  17.407 -0.3028 -0.2417 -0.9732
 1599SOL     OW16255   1.586   2.474  11.321  0.1353  0.1463  0.4588
 1599SOL    HW116256   1.641   2.463  11.398  1.2531  1.0701 -0.1905
 1599SOL    HW216257   1.640   2.544  11.284  0.2033  0.0751  0.4210
 1600SOL     OW16258   1.562   4.607   4.339 -0.3544  0.3560 -0.6248
 1600SOL    HW116259   1.526   4.690   4.306 -0.8680  0.7667  0.9558
 1600SOL    HW216260   1.650   4.608   4.302  0.3728 -0.3305  1.0812
 1601SOL     OW16261   4.628   4.203  10.542  0.3266  0.5429  0.2787
 1601SOL    HW116262   4.672   4.200  10.457 -0.9120  2.7902 -0.4517
 1601SOL    HW216263   4.698   4.190  10.606  0.1005 -0.8061  0.2405
 1602SOL     OW16264   1.877   3.713  17.629  0.4108 -0.4990  0.3096
 1602SOL    HW116265   1.913   3.793  17.668 -0.6773  0.8398 -1.4329
 1602SOL    HW216266   1.953   3.697  17.574 -0.5336 -0.4676 -0.9914
 1603SOL     OW16267   3.413   4.159   4.167  0.5531 -0.0700  0.2532
 1603SOL    HW116268   3.429   4.251   4.190 -0.0880  0.1574 -0.2286
 1603SOL    HW216269   3.318   4.149   4.177  0.5020 -2.4932 -2.7653
 1604SOL     OW16270   3.483   3.311   7.174 -0.2956  0.2842  0.2010
 1604SOL    HW116271   3.527   3.252   7.236 -0.7635  0.4991  0.7406
 1604SOL    HW216272   3.408   3.332   7.230 -1.3070 -0.3531 -0.9199
 1605SOL     OW16273   4.027   0.962  13.692 -0.0560 -0.0824 -0.3814
 1605SOL    HW116274   3.959   1.026  13.710  1.2082  0.3859  2.6495
 1605SOL    HW216275   4.026   0.947  13.597  0.5100 -0.8006 -0.2740
 1606SOL     OW16276   0.766   0.944   0.648 -0.2082 -0.5988  0.0677
 1606SOL    HW116277   0.744   0.961   0.739 -1.1731 -0.1828 -0.2400
 1606SOL    HW216278   0.691   0.887   0.627 -2.2975  1.3934  2.1156
 1607SOL     OW16279   3.676   0.013   7.922 -0.0124 -0.1595 -0.6401
 1607SOL    HW116280   3.660   4.649   7.884 -2.9642 -0.2698  0.8377
 1607SOL    HW216281   3.612   0.008   7.993  0.6873 -0.3827 -0.0281
 1608SOL     OW16282   2.444   4.005   4.059 -0.0180  0.0018  0.2463
 1608SOL    HW116283   2.359   4.049   4.066 -0.5006 -0.7395 -0.9293
 1608SOL    HW216284   2.415   3.925   4.104 -0.1392  0.5615  1.1602
 1609SOL     OW16285   0.180   1.254   8.466 -0.0243 -0.7543 -0.1079
 1609SOL    HW116286   0.144   1.339   8.492  0.1834 -0.5344 -0.5306
 1609SOL    HW216287   0.171   1.203   8.546  2.2619  1.7663  1.7324
 1610SOL     OW16288   0.060   3.685   5.402 -0.7934  0.0417  0.0772
 1610SOL    HW116289   0.006   3.614   5.439 -1.1566  0.0261 -0.4804
 1610SOL    HW216290   0.055   3.751   5.472 -1.3895 -0.8722  0.9096
 1611SOL     OW16291   4.497   2.851  12.734  0.2485 -0.1894 -0.2965
 1611SOL    HW116292   4.425   2.894  12.780  1.5579  0.3285  1.2887
 1611SOL    HW216293   4.484   2.877  12.643  0.7742  2.6233  0.4331
 1612SOL     OW16294   1.797   0.273   1.239  0.2898  0.1583  0.2433
 1612SOL    HW116295   1.703   0.277   1.258  0.1887 -0.0214 -0.2239
 1612SOL    HW216296   1.796   0.245   1.147  0.9780 -0.4924  0.4352
 1613SOL     OW16297   4.438   3.613   4.134  0.4752  0.1320  0.5705
 1613SOL    HW116298   4.391   3.692   4.160 -2.1799 -0.5936 -2.0621
 1613SOL    HW216299   4.488   3.597   4.214  1.3542  1.1293  0.2270
 1614SOL     OW16300   3.619   0.506  14.221  0.4742 -0.4948 -0.4264
 1614SOL    HW116301   3.678   0.579  14.206 -0.7841  0.8811  1.2992
 1614SOL    HW216302   3.607   0.478  14.131  1.5410 -2.1398 -0.0538
 1615SOL     OW16303   4.115   1.496  14.203  0.3083 -0.2742  0.0502
 1615SOL    HW116304   4.144   1.587  14.198  0.5166 -0.3731 -0.4865
 1615SOL    HW216305   4.068   1.501  14.287 -0.5729  1.8641 -0.5951
 1616SOL     OW16306   3.390   4.443   1.599  0.0777 -0.1171  0.1149
 1616SOL    HW116307   3.415   4.357   1.565  1.2697  0.2484  0.0560
 1616SOL    HW216308   3.358   4.415   1.685  1.7310  2.0172  1.4327
 1617SOL     OW16309   0.746   1.130   2.511 -0.0133  0.0120 -0.0194
 1617SOL    HW116310   0.659   1.092   2.524  0.6907 -1.4058  0.5337
 1617SOL    HW216311   0.710   1.219   2.507  0.1337  0.1131  1.0224
 1618SOL     OW16312   0.381   3.181   9.077 -0.1733 -0.3870 -0.1219
 1618SOL    HW116313   0.331   3.153   9.001  0.3673  0.7047 -0.8843
 1618SOL    HW216314   0.320   3.244   9.114 -0.5727 -0.7966 -0.0915
 1619SOL     OW16315   2.901   4.603   1.598  0.3036  0.1930 -0.3181
 1619SOL    HW116316   2.874   4.569   1.683  0.0793 -0.9757 -0.8433
 1619SOL    HW216317   2.845   4.545   1.545 -0.9711  0.5609  0.6377
 1620SOL     OW16318   0.401   1.920   4.987  0.1189 -0.1631  0.1808
 1620SOL    HW116319   0.311   1.887   4.983 -1.2837  3.9129 -1.7564
 1620SOL    HW216320   0.396   1.964   4.902  0.5067  2.1064  1.3354
 1621SOL     OW16321   4.149   0.105   5.189  0.4792 -0.1553 -0.3130
 1621SOL    HW116322   4.166   0.141   5.276 -0.0755 -2.0487  0.5750
 1621SOL    HW216323   4.226   0.052   5.168  1.0650  1.5802 -2.5425
 1622SOL     OW16324   4.000   4.442  12.673  0.1221  0.2356  0.0022
 1622SOL    HW116325   4.015   4.353  12.641 -0.1995  0.2298 -0.1308
 1622SOL    HW216326   3.999   4.443  12.769 -1.5272  0.1138 -0.0091
 1623SOL     OW16327   0.956   3.620   3.791 -0.3580  0.3520 -0.3346
 1623SOL    HW116328   0.897   3.551   3.819  0.7855  0.0269  1.2866
 1623SOL    HW216329   0.971   3.602   3.699  0.5667  0.2052 -0.1569
 1624SOL     OW16330   4.034   2.701   7.700 -0.0443  0.0374  0.0830
 1624SOL    HW116331   4.026   2.695   7.796 -0.3899 -0.2614  0.0389
 1624SOL    HW216332   4.029   2.610   7.670  0.6935  1.0023 -2.9580
 1625SOL     OW16333   3.336   3.983   7.791 -0.0031 -0.3811  0.2916
 1625SOL    HW116334   3.389   3.911   7.757  0.7810 -0.0817  0.8832
 1625SOL    HW216335   3.325   4.038   7.714  1.5706 -1.6403 -0.8269
 1626SOL     OW16336   1.892   1.096  16.810  0.1948  0.4626 -0.2949
 1626SOL    HW116337   1.839   1.082  16.888 -0.5391 -1.1055 -1.0680
 1626SOL    HW216338   1.916   1.004  16.801 -2.1103 -0.0763 -1.1053
 1627SOL     OW16339   2.925   3.382   5.618  0.5194 -0.0943  0.7100
 1627SOL    HW116340   2.983   3.309   5.640  0.2028 -1.0554 -1.6611
 1627SOL    HW216341   2.926   3.431   5.701  0.8745  1.1372 -0.0244
 1628SOL     OW16342   1.163   0.402  13.330 -0.0324  0.5025 -0.3820
 1628SOL    HW116343   1.068   0.407  13.341  0.1909  1.3510  1.1452
 1628SOL    HW216344   1.188   0.362  13.413 -0.8878  2.2036  0.6947
 1629SOL     OW16345   2.893   1.624  17.475  0.3615 -0.7060 -0.2510
 1629SOL    HW116346   2.817   1.633  17.532 -1.1894 -0.8171 -2.3085
 1629SOL    HW216347   2.969   1.662  17.518 -1.4973  0.9728  1.5242
 1630SOL     OW16348   0.337   3.147  16.521  0.2033 -0.3092  0.0969
 1630SOL    HW116349   0.261   3.107  16.563 -0.7328  0.0909 -1.1943
 1630SOL    HW216350   0.299   3.214  16.463  1.4393 -0.2576 -0.6543
 1631SOL     OW16351   0.290   4.369  17.431 -0.2321  0.4415 -1.0109
 1631SOL    HW116352   0.326   4.281  17.416  0.4603  0.7125 -0.9442
 1631SOL    HW216353   0.355   4.415  17.379 -2.5091  2.1989 -2.2822
 1632SOL     OW16354   0.838   0.516   4.843 -0.2221 -0.1215  0.3608
 1632SOL    HW116355   0.918   0.539   4.797 -1.2195  3.1364  0.2327
 1632SOL    HW216356   0.788   0.491   4.764 -0.2219 -1.7572  0.8810
 1633SOL     OW16357   1.707   2.966   6.364 -0.6920 -0.4555 -0.0327
 1633SOL    HW116358   1.638   2.951   6.299  0.2013  0.1250 -1.1092
 1633SOL    HW216359   1.671   2.948   6.450 -0.6322  0.3770  0.1699
 1634SOL     OW16360   4.373   1.650   0.074  0.1616 -0.3288  0.3149
 1634SOL    HW116361   4.378   1.616   0.163  0.4870  2.1231  1.2230
 1634SOL    HW216362   4.425   1.596   0.014 -0.9395  1.2108 -2.0665
 1635SOL     OW16363   0.180   0.472   1.767 -0.4823  0.1525 -0.3308
 1635SOL    HW116364   0.243   0.410   1.805 -0.5252  0.2762 -0.0624
 1635SOL    HW216365   0.137   0.505   1.845  2.6692  1.7454  0.7161
 1636SOL     OW16366   4.179   0.426   2.775  0.1638  0.0916  0.3303
 1636SOL    HW116367   4.168   0.512   2.817 -1.7112 -0.0668  0.1859
 1636SOL    HW216368   4.262   0.403   2.815  0.6346 -0.6178 -1.0715
 1637SOL     OW16369   3.590   1.592  14.110  0.7268  0.0992  0.9125
 1637SOL    HW116370   3.633   1.616  14.028  2.7019 -0.8869  1.6540
 1637SOL    HW216371   3.627   1.505  14.126 -0.2852  0.1189  3.3528
 1638SOL     OW16372   0.356   1.733  12.494  0.1059  0.5177 -0.7172
 1638SOL    HW116373   0.322   1.784  12.567 -0.0301  0.6667 -0.8856
 1638SOL    HW216374   0.441   1.772  12.474 -0.4574  2.2383  0.2604
 1639SOL     OW16375   0.674   4.052   7.117  0.4207 -0.0082 -0.1530
 1639SOL    HW116376   0.599   4.111   7.106 -1.4331 -2.4763 -0.7212
 1639SOL    HW216377   0.614   3.982   7.145 -0.1322  1.5042  2.4362
 1640SOL     OW16378   2.569   3.424   7.898 -0.2650 -0.0373 -0.1326
 1640SOL    HW116379   2.607   3.442   7.812 -0.1989  1.3968  0.1965
 1640SOL    HW216380   2.581   3.512   7.933  0.8691 -0.0964 -0.3677
 1641SOL     OW16381   3.318   0.563   2.671 -0.2395  0.0825  0.0514
 1641SOL    HW116382   3.292   0.578   2.762 -0.5333 -1.3799  0.1975
 1641SOL    HW216383   3.405   0.524   2.677 -0.3453 -0.3297 -1.2255
 1642SOL     OW16384   2.935   2.229   5.286 -0.2544  0.0773 -0.3308
 1642SOL    HW116385   3.027   2.201   5.287 -0.0233  0.7743 -2.0887
 1642SOL    HW216386   2.924   2.250   5.193  0.3629 -1.7300 -0.8150
 1643SOL     OW16387   2.056   4.027  12.706 -0.5433  0.0278  0.1931
 1643SOL    HW116388   2.035   4.110  12.748  1.6228  0.0544  1.2385
 1643SOL    HW216389   1.970   3.985  12.703 -0.6915  0.2786  0.9136
 1644SOL     OW16390   4.083   4.412   8.715  0.1316  0.2749  0.5022
 1644SOL    HW116391   4.119   4.366   8.791 -1.3077  1.0601  1.6292
 1644SOL    HW216392   3.999   4.442   8.749 -0.2636 -0.8278  0.4989
 1645SOL     OW16393   3.035   2.408  13.408 -0.1292  0.6597  0.1222
 1645SOL    HW116394   3.058   2.453  13.327  1.8789  0.6717  0.7145
 1645SOL    HW216395   2.947   2.445  13.415  0.3250  1.9528 -1.2855
 1646SOL     OW16396   2.538   0.239   9.216 -0.4751 -0.4482  0.4707
 1646SOL    HW116397   2.510   0.171   9.277 -1.9804 -1.5440 -1.4325
 1646SOL    HW216398   2.455   0.287   9.212  1.3471  2.5927 -0.5217
 1647SOL     OW16399   4.020   3.933   7.486  0.1135 -0.0603 -0.3036
 1647SOL    HW116400   3.926   3.942   7.500  0.3014  0.6324  0.5505
 1647SOL    HW216401   4.031   3.862   7.548 -0.4614  0.3946  0.3212
 1648SOL     OW16402   2.647   3.404   8.597 -0.1743 -0.2068  0.4220
 1648SOL    HW116403   2.612   3.370   8.679  2.5322  1.4909  2.2945
 1648SOL    HW216404   2.728   3.353   8.595  0.1134  0.4040 -2.7697
 1649SOL     OW16405   3.529   4.097   6.789 -0.4516  0.2823 -0.1734
 1649SOL    HW116406   3.561   4.053   6.868 -2.1831 -0.5314  0.0837
 1649SOL    HW216407   3.439   4.106   6.822 -0.7676  1.4607 -1.3520
 1650SOL     OW16408   1.198   4.299   7.476 -0.2313  0.1111 -0.0835
 1650SOL    HW116409   1.284   4.294   7.518 -0.5777  0.6129  0.6846
 1650SOL    HW216410   1.143   4.342   7.541  1.3912  0.7352  0.8742
 1651SOL     OW16411   2.105   0.318  10.363 -0.3449  0.1021  0.3121
 1651SOL    HW116412   2.162   0.325  10.440  0.4140  0.2986 -0.2717
 1651SOL    HW216413   2.038   0.255  10.390 -0.0022 -1.7639 -3.2685
 1652SOL     OW16414   0.069   2.959  15.405  0.4766 -0.1531 -0.6045
 1652SOL    HW116415   0.085   2.998  15.491 -2.7618 -0.6102  0.2083
 1652SOL    HW216416   0.144   2.902  15.389  1.2918  0.3379  1.4758
 1653SOL     OW16417   3.782   0.001   3.170 -0.0897  0.2137  0.9303
 1653SOL    HW116418   3.731   0.011   3.090  1.2555  2.9281  0.4372
 1653SOL    HW216419   3.759   4.639   3.210  3.1071 -0.1726  1.9135
 1654SOL     OW16420   1.592   1.569  15.332  0.1773 -0.5526 -0.0205
 1654SOL    HW116421   1.636   1.487  15.351 -1.7673 -1.0182  2.3513
 1654SOL    HW216422   1.577   1.563  15.238  0.7537  0.3976 -0.1836
 1655SOL     OW16423   2.746   2.715   2.085 -0.0178 -0.4509  0.0175
 1655SOL    HW116424   2.671   2.774   2.076 -0.2427 -0.7232  0.1137
 1655SOL    HW216425   2.821   2.768   2.057  1.1815 -1.7217  0.8168
 1656SOL     OW16426   3.756   4.214   4.263 -0.0251  0.0695  0.0547
 1656SOL    HW116427   3.762   4.121   4.282  0.0174 -0.0764 -0.6673
 1656SOL    HW216428   3.668   4.240   4.291 -0.1793  1.4120 -1.6202
 1657SOL     OW16429   1.719   0.735   4.840  0.3183  0.1842  0.1561
 1657SOL    HW116430   1.752   0.779   4.761  1.2852  0.4324  0.7101
 1657SOL    HW216431   1.790   0.679   4.871  1.6171  2.6470  1.6464
 1658SOL     OW16432   4.102   4.445   6.817  0.0681  0.0447  0.3013
 1658SOL    HW116433   4.102   4.503   6.894 -2.7899  0.1791  0.2133
 1658SOL    HW216434   4.013   4.467   6.791  0.3442  1.1710  0.3200
 1659SOL     OW16435   0.050   4.394   8.770 -0.1420 -0.0100 -0.1281
 1659SOL    HW116436   0.074   4.319   8.717  1.3740  0.0543  0.4632
 1659SOL    HW216437   4.684   4.407   8.733 -0.3545  0.5809  0.5881
 1660SOL     OW16438   0.240   2.257   6.216  0.1688  0.5916  0.1774
 1660SOL    HW116439   0.288   2.236   6.296 -0.3877  3.4687  1.2945
 1660SOL    HW216440   0.223   2.350   6.233 -1.2559  0.0977  1.5051
 1661SOL     OW16441   4.372   3.448   8.633  0.3426  0.0228 -0.6241
 1661SOL    HW116442   4.330   3.363   8.647 -0.5020  0.3644 -1.1058
 1661SOL    HW216443   4.421   3.467   8.712 -0.2062 -1.6287  0.1236
 1662SOL     OW16444   0.139   1.572  13.415  0.1546 -0.3869  0.1892
 1662SOL    HW116445   0.190   1.649  13.439 -0.4300  0.3090 -0.7583
 1662SOL    HW216446   0.066   1.578  13.476 -0.4123  0.5500 -0.5780
 1663SOL     OW16447   0.307   4.056   3.334  0.0992 -0.4062  0.2789
 1663SOL    HW116448   0.235   3.993   3.333  0.1781 -0.5112  1.2458
 1663SOL    HW216449   0.258   4.136   3.354 -0.0605 -0.2727 -0.6757
 1664SOL     OW16450   3.228   4.605   3.775  0.4460  0.1495  0.4416
 1664SOL    HW116451   3.144   4.558   3.776  0.1796  0.6429  1.3054
 1664SOL    HW216452   3.219   4.649   3.690  2.2709  0.5133  0.4433
 1665SOL     OW16453   4.128   3.792   3.045 -0.1302  0.4129 -0.7724
 1665SOL    HW116454   4.208   3.769   2.997 -1.5415 -0.3199 -2.8055
 1665SOL    HW216455   4.095   3.864   2.992 -1.4042  0.7781  0.5303
 1666SOL     OW16456   0.796   3.414   3.859 -0.2908  0.2609 -0.3243
 1666SOL    HW116457   0.837   3.389   3.942  0.5229 -1.3201 -1.2213
 1666SOL    HW216458   0.806   3.332   3.812  2.8367  0.3886  0.1190
 1667SOL     OW16459   3.135   1.010  13.326  0.7302 -0.2136 -0.3248
 1667SOL    HW116460   3.117   1.005  13.419 -4.9820  1.3020 -1.3556
 1667SOL    HW216461   3.217   1.059  13.326  1.0872 -0.8180  0.8411
 1668SOL     OW16462   3.840   3.761   4.801  0.1517 -0.2129  0.4570
 1668SOL    HW116463   3.860   3.836   4.857 -2.1596  0.2688  0.6297
 1668SOL    HW216464   3.782   3.709   4.857 -0.2008 -1.2865 -0.9181
 1669SOL     OW16465   1.651   3.018   4.937  0.8493  0.1818 -0.1054
 1669SOL    HW116466   1.684   3.079   5.003  1.0126  2.5417 -2.3444
 1669SOL    HW216467   1.588   3.067   4.885  0.7115 -0.5677 -0.6354
 1670SOL     OW16468   3.427   1.087   4.181 -0.0608  0.7769 -0.5090
 1670SOL    HW116469   3.415   1.067   4.088  1.8355  1.7797 -0.9690
 1670SOL    HW216470   3.449   1.180   4.186 -1.8822  1.1647  0.3616
 1671SOL     OW16471   1.554   2.347  16.842 -0.0235  0.5216 -0.5781
 1671SOL    HW116472   1.540   2.352  16.937  0.3103 -0.3802 -0.4765
 1671SOL    HW216473   1.496   2.416  16.812 -0.1671  0.8164  0.3686
 1672SOL     OW16474   4.429   3.716  17.196  0.0171  0.3310  0.3174
 1672SOL    HW116475   4.452   3.781  17.261  0.0685 -1.7369  2.3686
 1672SOL    HW216476   4.452   3.637  17.246 -1.3175 -0.6407 -0.6095
 1673SOL     OW16477   4.109   0.454   9.845 -0.0725  0.3482  0.0694
 1673SOL    HW116478   4.148   0.374   9.880 -1.2754 -0.6676 -0.8965
 1673SOL    HW216479   4.093   0.427   9.755  1.7762 -1.0669  0.1826
 1674SOL     OW16480   1.314   1.435  11.738 -0.3276 -0.2495 -0.0161
 1674SOL    HW116481   1.336   1.427  11.645 -2.9174 -1.0508 -0.5659
 1674SOL    HW216482   1.381   1.371  11.765  2.1683  2.7615  0.8551
 1675SOL     OW16483   2.800   2.300   2.262  0.5911 -0.2223 -0.1139
 1675SOL    HW116484   2.748   2.322   2.184  0.7849  0.9073  0.0709
 1675SOL    HW216485   2.773   2.213   2.292  0.5082 -0.3208 -0.4757
 1676SOL     OW16486   1.260   2.683   7.354 -0.0309 -0.2765 -0.3688
 1676SOL    HW116487   1.215   2.661   7.272 -1.0826  0.5740 -0.0163
 1676SOL    HW216488   1.265   2.599   7.400  0.2491 -0.2044 -0.2696
 1677SOL     OW16489   3.260   0.144  10.266  0.0044  0.5797 -0.0734
 1677SOL    HW116490   3.262   0.192  10.183 -0.1590  2.3252  0.9370
 1677SOL    HW216491   3.337   0.090  10.253 -0.3288 -0.0786  0.7240
 1678SOL     OW16492   1.569   2.434  17.439  0.4079 -0.4687  0.8368
 1678SOL    HW116493   1.515   2.359  17.465  1.9240 -1.8572  0.0203
 1678SOL    HW216494   1.636   2.434  17.507  0.5708  2.4169  0.6845
 1679SOL     OW16495   1.289   1.269  10.154  0.4963  0.2927 -0.0595
 1679SOL    HW116496   1.225   1.224  10.098  2.8049 -0.7514 -1.8400
 1679SOL    HW216497   1.359   1.208  10.133  1.9710  2.3075 -1.0323
 1680SOL     OW16498   3.864   0.772   0.551 -0.0440  0.4653 -0.1858
 1680SOL    HW116499   3.810   0.695   0.535 -0.6685  0.8198  0.1910
 1680SOL    HW216500   3.813   0.826   0.612 -0.8664 -0.6553  0.1097
 1681SOL     OW16501   1.237   3.069   1.524 -0.3609  0.2575 -0.1813
 1681SOL    HW116502   1.200   3.136   1.581 -1.3808  1.6784 -2.5213
 1681SOL    HW216503   1.283   3.123   1.461  0.1992  1.1639  1.0082
 1682SOL     OW16504   2.774   2.470   5.737 -0.2051 -0.1632 -0.1101
 1682SOL    HW116505   2.866   2.494   5.752  0.3447 -2.0056 -0.5623
 1682SOL    HW216506   2.790   2.412   5.663 -1.8887 -0.9323  0.1212
 1683SOL     OW16507   4.570   2.431  16.923  0.4899 -0.0367 -0.2059
 1683SOL    HW116508   4.571   2.336  16.915 -3.1391 -0.1729  0.9379
 1683SOL    HW216509   4.590   2.449  17.015 -2.1153 -1.0804  0.5498
 1684SOL     OW16510   3.550   1.395   5.029  0.0621 -0.3423 -0.8148
 1684SOL    HW116511   3.521   1.340   4.957  0.5544 -1.0303 -0.4843
 1684SOL    HW216512   3.613   1.338   5.073 -1.1674 -1.8471 -1.0216
 1685SOL     OW16513   3.335   1.399   9.253 -0.5874 -0.5142 -0.2004
 1685SOL    HW116514   3.376   1.318   9.283  0.9283  0.4242  0.2667
 1685SOL    HW216515   3.322   1.447   9.334  3.0871  0.0023  0.0906
 1686SOL     OW16516   2.453   3.836   8.401 -0.4591 -0.6138 -0.0777
 1686SOL    HW116517   2.371   3.788   8.390  0.7912 -2.9734  0.8879
 1686SOL    HW216518   2.429   3.881   8.482  0.6521 -0.5567  0.2247
 1687SOL     OW16519   4.325   0.325   6.125 -0.3739 -0.0428 -0.3890
 1687SOL    HW116520   4.406   0.359   6.163 -1.4587 -0.5476  2.4153
 1687SOL    HW216521   4.350   0.334   6.033  0.1007 -1.0352 -0.3535
 1688SOL     OW16522   2.727   0.963   5.211  0.4425  0.1320 -0.1575
 1688SOL    HW116523   2.703   1.049   5.174  1.3305  0.7272  0.6475
 1688SOL    HW216524   2.791   0.926   5.150 -1.2659 -0.1004 -1.8158
 1689SOL     OW16525   1.626   2.019   7.845 -0.4672 -0.3248 -0.2563
 1689SOL    HW116526   1.546   1.994   7.799 -2.0024  1.9272  1.2071
 1689SOL    HW216527   1.631   2.109   7.814  0.9604 -1.0370 -2.0890
 1690SOL     OW16528   4.284   0.658   5.319  0.3073 -0.8349 -0.5517
 1690SOL    HW116529   4.377   0.647   5.300  0.4877  2.2030 -1.3480
 1690SOL    HW216530   4.242   0.577   5.288  0.9474 -1.2762 -0.2759
 1691SOL     OW16531   2.665   3.692   8.338  0.5517 -0.6895 -0.0048
 1691SOL    HW116532   2.592   3.750   8.361  2.2624  1.3161  0.3294
 1691SOL    HW216533   2.623   3.609   8.359 -2.1417  1.1972  1.9588
 1692SOL     OW16534   2.817   2.877   0.897  0.1625 -0.0642  0.1216
 1692SOL    HW116535   2.796   2.963   0.860  3.5492  0.5037 -0.4636
 1692SOL    HW216536   2.864   2.839   0.823  1.0122 -2.3713  1.8504
 1693SOL     OW16537   3.039   3.552  16.558  0.0574  0.6209 -0.1235
 1693SOL    HW116538   3.043   3.615  16.486 -0.8933  0.1524 -0.5716
 1693SOL    HW216539   3.125   3.563  16.599  0.5688  2.8109 -1.7903
 1694SOL     OW16540   1.852   4.721   8.851  0.1357  0.8605 -1.0850
 1694SOL    HW116541   1.813   4.675   8.925 -2.0621  2.7843 -1.0633
 1694SOL    HW216542   1.940   0.021   8.881 -0.2884 -0.0310  0.8196
 1695SOL     OW16543   1.174   2.265  14.045  0.3696  0.1751  0.1915
 1695SOL    HW116544   1.182   2.290  13.953  0.3929  2.1014  0.7357
 1695SOL    HW216545   1.082   2.286  14.065 -0.0797 -2.0490  0.5307
 1696SOL     OW16546   3.343   0.323   6.026 -0.1626  0.1352 -0.7389
 1696SOL    HW116547   3.364   0.244   6.075 -3.7174  0.2210  0.9695
 1696SOL    HW216548   3.359   0.394   6.088  2.1077  0.5016 -1.7669
 1697SOL     OW16549   2.598   2.904   2.648 -0.4147  0.2776 -0.4376
 1697SOL    HW116550   2.556   2.937   2.728 -2.8687  1.8125 -2.3541
 1697SOL    HW216551   2.635   2.983   2.608 -0.5741 -0.0512 -1.2424
 1698SOL     OW16552   2.613   4.256   3.127  0.1642 -0.7099  0.3718
 1698SOL    HW116553   2.570   4.338   3.103  0.2619 -0.3530  1.4196
 1698SOL    HW216554   2.696   4.281   3.166 -0.4580  0.9480  0.6165
 1699SOL     OW16555   2.806   0.074   2.322 -0.3200  0.5734 -0.3175
 1699SOL    HW116556   2.732   0.016   2.307 -0.2065 -0.0955  1.7448
 1699SOL    HW216557   2.788   0.133   2.395  1.8743 -1.1455  1.6069
 1700SOL     OW16558   3.497   3.394  17.080  0.4316 -0.1924  0.0330
 1700SOL    HW116559   3.500   3.308  17.039  0.6072 -0.0378 -0.2801
 1700SOL    HW216560   3.407   3.402  17.110  0.6912 -2.0590  1.3533
 1701SOL     OW16561   3.014   3.658  17.220  0.0520 -0.2928 -0.0798
 1701SOL    HW116562   2.922   3.684  17.214  0.1763  0.9221  3.1390
 1701SOL    HW216563   3.055   3.724  17.163 -2.8029  2.1860  0.7448
 1702SOL     OW16564   0.535   0.294  13.200  0.1248  0.7451 -0.0007
 1702SOL    HW116565   0.532   0.307  13.106  1.6493  2.5213  0.1914
 1702SOL    HW216566   0.460   0.240  13.224  0.6552 -0.4638 -1.0616
 1703SOL     OW16567   4.262   2.316   8.480 -0.0538 -0.2538  0.2147
 1703SOL    HW116568   4.266   2.236   8.532 -0.4372  1.1467  2.4012
 1703SOL    HW216569   4.179   2.296   8.436  0.1167  0.7046 -0.5378
 1704SOL     OW16570   2.772   2.442   2.011  0.1616  0.2052 -0.4479
 1704SOL    HW116571   2.748   2.531   2.037  1.3249  0.8852 -1.6200
 1704SOL    HW216572   2.764   2.441   1.915  0.1447 -1.2490 -0.4298
 1705SOL     OW16573   3.684   3.567   6.396 -0.9309 -0.0739  0.7334
 1705SOL    HW116574   3.643   3.556   6.482 -2.2926  1.5922  0.2926
 1705SOL    HW216575   3.632   3.641   6.367 -0.5549 -0.5603 -1.2041
 1706SOL     OW16576   1.102   1.940  11.841  0.0550 -0.1686 -0.2568
 1706SOL    HW116577   1.118   1.860  11.791  2.5839  1.0040 -1.2970
 1706SOL    HW216578   1.074   2.000  11.772 -1.2902  0.1655  0.5861
 1707SOL     OW16579   2.916   1.253   3.253 -0.4503  0.2184 -0.5463
 1707SOL    HW116580   2.957   1.287   3.174 -1.7911 -0.0571 -1.3631
 1707SOL    HW216581   2.864   1.184   3.211 -1.2768  1.1485 -1.0466
 1708SOL     OW16582   1.437   2.855   0.068 -0.0891 -0.0051  0.2176
 1708SOL    HW116583   1.496   2.916   0.113 -0.6647  1.0055 -0.4051
 1708SOL    HW216584   1.483   2.837  17.678  0.5370  0.1293  0.5409
 1709SOL     OW16585   1.892   1.787  17.601  0.6654 -0.0947  0.5928
 1709SOL    HW116586   1.871   1.704  17.558 -0.3434  0.4926 -0.0209
 1709SOL    HW216587   1.929   1.836  17.528 -0.9869  0.0846 -0.1162
 1710SOL     OW16588   4.420   2.569  10.792 -0.4341  0.6106 -0.7268
 1710SOL    HW116589   4.447   2.633  10.858  1.3353 -0.7386 -0.1440
 1710SOL    HW216590   4.471   2.613  10.724  0.0002 -2.1132 -2.1396
 1711SOL     OW16591   2.561   3.726   2.929 -0.1392 -0.1428  0.4265
 1711SOL    HW116592   2.595   3.786   2.996  1.0519  0.0881 -0.3782
 1711SOL    HW216593   2.510   3.662   2.978 -0.2947  1.1463  1.9506
 1712SOL     OW16594   2.943   1.469   5.374  0.2419  0.0861  0.1927
 1712SOL    HW116595   2.904   1.543   5.326  0.9633  0.8953  0.8556
 1712SOL    HW216596   3.027   1.464   5.327 -0.5890 -2.0217 -1.0658
 1713SOL     OW16597   0.829   1.570   3.540  0.5269 -0.1147  0.6247
 1713SOL    HW116598   0.797   1.560   3.450 -3.4145  0.5399  1.9456
 1713SOL    HW216599   0.760   1.525   3.589 -1.4018  0.6411 -1.3911
 1714SOL     OW16600   1.292   4.177  12.561 -0.2648 -0.1956  0.3826
 1714SOL    HW116601   1.218   4.196  12.619 -2.0455  0.1568 -2.0200
 1714SOL    HW216602   1.292   4.250  12.500  0.8498  0.6529  1.4021
 1715SOL     OW16603   1.680   2.631   2.201 -0.3070  0.1065 -0.1381
 1715SOL    HW116604   1.612   2.564   2.194 -2.0127  1.7539  0.6733
 1715SOL    HW216605   1.744   2.585   2.256  0.7939  0.6849 -0.9427
 1716SOL     OW16606   3.413   4.602   8.934 -0.3458  0.2592 -0.2169
 1716SOL    HW116607   3.431   4.514   8.967 -0.3118  1.4372  2.8919
 1716SOL    HW216608   3.317   4.609   8.925 -0.0554  3.1303 -0.9994
 1717SOL     OW16609   1.549   3.635   5.358  0.3476  0.1085  0.2655
 1717SOL    HW116610   1.520   3.559   5.408  1.0804 -0.0032  0.5169
 1717SOL    HW216611   1.487   3.697   5.398  0.8114 -0.0319  1.1974
 1718SOL     OW16612   3.349   4.567   5.433 -0.5307 -0.4763  0.0345
 1718SOL    HW116613   3.347   4.471   5.433  1.5158 -0.5353 -0.1735
 1718SOL    HW216614   3.408   4.588   5.505  0.1177  0.1133 -0.6594
 1719SOL     OW16615   4.419   4.333   9.474 -0.4287  0.0063  0.1394
 1719SOL    HW116616   4.438   4.370   9.388  2.7821 -0.6769  0.5549
 1719SOL    HW216617   4.501   4.343   9.524 -0.7021  0.7197  0.4444
 1720SOL     OW16618   1.982   1.868  12.763  0.2236 -0.0940 -0.9260
 1720SOL    HW116619   2.064   1.828  12.736 -0.0045 -1.2992  0.1557
 1720SOL    HW216620   1.937   1.791  12.797 -0.0469  0.9486  1.0621
 1721SOL     OW16621   4.629   1.744   2.589 -0.3471  0.0053 -0.0764
 1721SOL    HW116622   4.554   1.687   2.604 -0.3380  0.0347  0.0869
 1721SOL    HW216623   4.695   1.678   2.571  0.1298  0.9807 -1.8613
 1722SOL     OW16624   2.176   0.308   7.048 -0.6042 -0.3628 -0.1288
 1722SOL    HW116625   2.080   0.312   7.050 -0.6261 -1.1587  0.8445
 1722SOL    HW216626   2.192   0.378   6.985  0.6228  0.0344  0.6322
 1723SOL     OW16627   4.054   4.361   0.502 -0.3738 -0.4311 -0.4378
 1723SOL    HW116628   4.149   4.370   0.494 -0.4707  0.4254 -0.6621
 1723SOL    HW216629   4.032   4.454   0.490 -0.6060 -0.2548  1.3957
 1724SOL     OW16630   4.412   0.848   6.063  0.0526  0.1604 -0.5480
 1724SOL    HW116631   4.353   0.892   6.002 -0.5051 -0.3615 -0.3890
 1724SOL    HW216632   4.364   0.770   6.090 -1.6811  1.6547  0.6787
 1725SOL     OW16633   1.143   2.383  13.809 -0.6217  0.6681 -0.0993
 1725SOL    HW116634   1.072   2.446  13.815 -2.0753 -0.8734 -1.1431
 1725SOL    HW216635   1.196   2.423  13.740  0.6030 -0.6794  0.0444
 1726SOL     OW16636   1.726   1.813   5.244 -0.0501 -0.7106 -0.4151
 1726SOL    HW116637   1.638   1.827   5.209 -0.4296 -0.0834  0.7729
 1726SOL    HW216638   1.755   1.757   5.172  0.8260  2.7083 -2.7041
 1727SOL     OW16639   1.520   0.895   6.756 -0.1602 -0.1160  0.5967
 1727SOL    HW116640   1.463   0.820   6.739 -0.5689  0.7069 -1.7031
 1727SOL    HW216641   1.483   0.919   6.841  2.5021  2.4666  1.0346
 1728SOL     OW16642   3.504   3.830   7.254 -0.6689 -0.7359 -0.3049
 1728SOL    HW116643   3.542   3.749   7.290  0.4727  0.4130  1.0782
 1728SOL    HW216644   3.495   3.875   7.338 -0.6986  1.6743 -1.5878
 1729SOL     OW16645   0.952   2.186   6.255  0.2364 -0.0619 -0.8901
 1729SOL    HW116646   1.011   2.111   6.252  1.3462  0.7975 -0.5025
 1729SOL    HW216647   0.868   2.142   6.240 -1.1998  1.2671  3.1739
 1730SOL     OW16648   2.515   1.970   4.831 -0.3863 -0.3477 -0.5508
 1730SOL    HW116649   2.583   2.007   4.888  0.5441  0.0730 -1.9325
 1730SOL    HW216650   2.475   2.047   4.791  0.0051 -1.0827 -2.3467
 1731SOL     OW16651   4.524   3.652   3.486 -0.0240 -0.2867  0.1284
 1731SOL    HW116652   4.435   3.682   3.501  0.1056  0.7602 -1.2068
 1731SOL    HW216653   4.563   3.692   3.564 -0.2051  1.6260 -0.7620
 1732SOL     OW16654   3.738   0.116   8.827 -0.4524  0.3155  0.5916
 1732SOL    HW116655   3.786   0.034   8.814 -0.6086 -0.0313  2.2836
 1732SOL    HW216656   3.648   0.086   8.820  1.2451 -4.2168 -2.1125
 1733SOL     OW16657   3.199   2.294   1.785  0.3983 -0.3682 -0.2136
 1733SOL    HW116658   3.119   2.267   1.741  1.1255 -1.0130 -1.1504
 1733SOL    HW216659   3.193   2.246   1.868  0.0850 -1.4568 -0.8639
 1734SOL     OW16660   0.805   3.668   6.162 -0.0045 -0.4539  0.4806
 1734SOL    HW116661   0.822   3.738   6.225 -0.2334 -0.0288  0.0684
 1734SOL    HW216662   0.787   3.720   6.084  1.3673  0.9739  1.1206
 1735SOL     OW16663   3.233   4.612  15.650  0.3126 -0.2251  0.2459
 1735SOL    HW116664   3.230   4.702  15.681 -0.0091  0.2961 -1.3286
 1735SOL    HW216665   3.315   4.607  15.601  0.8081  0.0352  1.0472
 1736SOL     OW16666   3.370   1.537   9.498  0.1431  0.2857  0.2399
 1736SOL    HW116667   3.380   1.518   9.592 -1.8382  0.2219  0.4439
 1736SOL    HW216668   3.442   1.599   9.491  1.8582 -1.6664  0.7426
 1737SOL     OW16669   2.507   4.439   8.176  0.0686  0.1065 -0.0834
 1737SOL    HW116670   2.473   4.390   8.100  1.2936  0.7224 -1.0311
 1737SOL    HW216671   2.449   4.514   8.187  0.6897  0.4846  0.5584
 1738SOL     OW16672   0.983   3.617   3.153 -0.0380  0.4041  0.1043
 1738SOL    HW116673   1.017   3.700   3.119 -0.3045  0.2309 -0.5752
 1738SOL    HW216674   1.061   3.563   3.164 -0.6424 -0.3862  0.5255
 1739SOL     OW16675   1.041   4.722  14.748  0.2040 -0.0438 -0.2784
 1739SOL    HW116676   1.050   4.715  14.653  3.9135 -0.2754  0.0804
 1739SOL    HW216677   1.114   4.665  14.774  0.4325 -0.0864 -1.0075
 1740SOL     OW16678   3.619   3.953   4.813 -0.6430  0.0442 -0.2307
 1740SOL    HW116679   3.590   3.900   4.887  0.0156 -1.3554 -0.9870
 1740SOL    HW216680   3.634   4.034   4.863 -0.2926 -0.9509  1.2880
 1741SOL     OW16681   3.754   0.096  14.108 -0.2345 -0.6435 -0.2550
 1741SOL    HW116682   3.804   0.119  14.186  1.8424  0.9991 -2.0617
 1741SOL    HW216683   3.820   0.056  14.051 -0.7479 -0.2584 -1.1099
 1742SOL     OW16684   1.898   4.471   4.770  0.0050 -0.2138  0.0437
 1742SOL    HW116685   1.907   4.377   4.757 -2.4933 -0.5949  1.1026
 1742SOL    HW216686   1.940   4.508   4.692 -1.1565 -0.0362 -0.5029
 1743SOL     OW16687   4.631   3.176   8.590 -0.1106 -0.2713  0.5239
 1743SOL    HW116688   4.656   3.084   8.602  0.0434 -0.1835  0.8666
 1743SOL    HW216689   4.599   3.192   8.679 -0.3678 -1.8704  0.7215
 1744SOL     OW16690   4.347   2.573   5.619  0.1260 -0.3691  0.3506
 1744SOL    HW116691   4.252   2.571   5.634 -0.1898 -1.9592 -1.7949
 1744SOL    HW216692   4.384   2.487   5.638  1.5083 -0.0753 -1.0314
 1745SOL     OW16693   3.204   0.208   8.755  0.4184 -0.1713  0.1886
 1745SOL    HW116694   3.123   0.257   8.740  0.9419  0.6146 -0.0561
 1745SOL    HW216695   3.253   0.268   8.811  1.2656 -0.0898 -0.6417
 1746SOL     OW16696   3.736   3.119   2.080  0.1964  0.3826  0.3305
 1746SOL    HW116697   3.672   3.190   2.080  0.0059  0.2081  3.4802
 1746SOL    HW216698   3.694   3.049   2.130  1.3588  1.0750  2.2928
 1747SOL     OW16699   2.375   3.329  14.706  0.2319  0.4443 -0.2571
 1747SOL    HW116700   2.410   3.282  14.630 -2.2240 -2.1038  0.1989
 1747SOL    HW216701   2.417   3.414  14.696  1.1911 -0.0608 -0.5122
 1748SOL     OW16702   3.360   1.768  11.530  0.0380 -0.1089  0.2301
 1748SOL    HW116703   3.301   1.843  11.519  0.4196  0.3795  1.5608
 1748SOL    HW216704   3.387   1.771  11.622 -2.4747  1.5096  0.9379
 1749SOL     OW16705   3.826   2.657  10.963  0.1180 -0.2740  0.6073
 1749SOL    HW116706   3.857   2.604  10.889  1.3161  1.1441  0.1038
 1749SOL    HW216707   3.861   2.743  10.938  2.7935 -1.7050 -0.5680
 1750SOL     OW16708   3.403   1.029   4.973 -0.1636  0.5836 -0.5371
 1750SOL    HW116709   3.361   1.095   4.918 -2.5027 -1.1962 -0.8737
 1750SOL    HW216710   3.402   1.077   5.056  0.6605  1.0848 -0.8179
 1751SOL     OW16711   1.165   2.289   4.111  0.1442 -0.2031 -0.7454
 1751SOL    HW116712   1.126   2.377   4.119 -0.5674 -0.6338  0.5035
 1751SOL    HW216713   1.123   2.258   4.030  0.0718 -0.4093 -0.6282
 1752SOL     OW16714   0.002   3.052  16.830 -0.0954  0.3520  0.5287
 1752SOL    HW116715   4.650   3.044  16.770  0.0451  2.4397  0.0857
 1752SOL    HW216716   4.706   3.134  16.876 -0.5390  1.7152 -2.0370
 1753SOL     OW16717   4.125   2.739   2.674  0.1642 -0.1414 -0.4645
 1753SOL    HW116718   4.035   2.731   2.706 -1.1072  0.6402 -3.8219
 1753SOL    HW216719   4.123   2.816   2.618 -0.2555 -0.0108 -0.2640
 1754SOL     OW16720   0.612   4.680   5.499  0.1870 -0.4186 -0.0144
 1754SOL    HW116721   0.664   4.601   5.513  0.0559 -0.4582  0.2645
 1754SOL    HW216722   0.618   4.711   5.409  0.9558 -0.4492  0.0316
 1755SOL     OW16723   0.772   4.371   8.713  0.3534 -0.5344  0.1611
 1755SOL    HW116724   0.838   4.343   8.776  0.6267 -3.0636 -1.2361
 1755SOL    HW216725   0.796   4.312   8.641  1.3723  0.9028 -0.6819
 1756SOL     OW16726   3.773   0.189   6.555 -0.0127  0.5483  0.1563
 1756SOL    HW116727   3.755   0.128   6.626  0.2197  0.1502 -0.1278
 1756SOL    HW216728   3.863   0.203   6.583 -0.0071 -0.6109  0.7004
 1757SOL     OW16729   0.640   2.085   1.764  0.3300 -0.2729 -0.7385
 1757SOL    HW116730   0.640   2.025   1.690  3.1731 -1.3055  0.1030
 1757SOL    HW216731   0.584   2.156   1.731  0.3179 -1.4913 -3.2988
 1758SOL     OW16732   3.718   3.472   2.507  0.2460  0.2000  0.1279
 1758SOL    HW116733   3.657   3.509   2.444 -0.6901  1.2130  1.6326
 1758SOL    HW216734   3.778   3.544   2.522  1.8231 -1.1283  0.2810
 1759SOL     OW16735   1.286   0.332   1.440  0.1138  0.1193  0.4776
 1759SOL    HW116736   1.280   0.265   1.372 -1.0288  0.1979  0.5002
 1759SOL    HW216737   1.349   0.393   1.403  0.4163  0.9601  2.3560
 1760SOL     OW16738   3.469   0.747   3.002  0.7871 -0.2478  0.0099
 1760SOL    HW116739   3.387   0.795   3.005  1.9241  1.6478  0.6759
 1760SOL    HW216740   3.529   0.815   2.973  0.7469 -0.2705 -0.1222
 1761SOL     OW16741   0.282   1.070   6.882  0.3903 -0.2322  0.0407
 1761SOL    HW116742   0.238   1.029   6.808  1.6601 -1.6648  0.0625
 1761SOL    HW216743   0.294   0.991   6.936 -0.5233 -0.3298  0.1016
 1762SOL     OW16744   2.670   1.141   6.185 -0.4568  0.4945 -0.8130
 1762SOL    HW116745   2.731   1.166   6.254 -2.7951 -0.9477  1.7826
 1762SOL    HW216746   2.595   1.195   6.206 -0.9554 -0.7492  0.6052
 1763SOL     OW16747   3.665   2.869   7.415 -0.3161  0.2960  0.6477
 1763SOL    HW116748   3.583   2.827   7.439 -1.4118  0.4000 -2.8162
 1763SOL    HW216749   3.714   2.787   7.414 -0.6945  0.0772 -2.1017
 1764SOL     OW16750   0.539   1.596   7.345 -0.6899 -0.0866  0.2492
 1764SOL    HW116751   0.459   1.553   7.315  1.1320 -0.8599 -3.4373
 1764SOL    HW216752   0.518   1.684   7.314 -1.2263 -0.9398 -1.8451
 1765SOL     OW16753   0.774   1.443  17.540 -0.1987 -0.7210 -0.0743
 1765SOL    HW116754   0.789   1.501  17.614  0.3007 -0.5953 -0.2771
 1765SOL    HW216755   0.702   1.388  17.572 -0.6541  0.4480  0.9091
 1766SOL     OW16756   0.155   0.584   2.740 -0.0995 -0.5366  0.9984
 1766SOL    HW116757   0.079   0.642   2.736  0.6328  0.3853  0.1747
 1766SOL    HW216758   0.216   0.628   2.681  0.2654 -0.1653  1.6595
 1767SOL     OW16759   3.517   3.919   5.531 -0.7558 -0.2949  0.1704
 1767SOL    HW116760   3.454   3.862   5.575 -0.4042 -1.5714 -0.9790
 1767SOL    HW216761   3.459   3.951   5.463 -1.1730 -0.3680  0.4887
 1768SOL     OW16762   2.671   1.390   8.734 -0.3606  0.1528  0.0573
 1768SOL    HW116763   2.601   1.348   8.784  0.2505  1.1182  1.7374
 1768SOL    HW216764   2.690   1.460   8.797  1.8219  1.3811 -1.9773
 1769SOL     OW16765   0.643   3.898   8.069 -0.4009 -0.4466  0.9056
 1769SOL    HW116766   0.722   3.847   8.083  0.7580  1.8223  2.6681
 1769SOL    HW216767   0.624   3.911   7.976  1.2732 -2.3546  0.3109
 1770SOL     OW16768   0.019   2.474  15.136 -0.6338 -0.4238  0.0852
 1770SOL    HW116769   4.676   2.544  15.141 -1.0701 -0.9267  1.5197
 1770SOL    HW216770   0.048   2.467  15.045 -0.5691  2.6293 -0.1244
 1771SOL     OW16771   2.146   3.602   4.208  0.3247  0.8035  0.0261
 1771SOL    HW116772   2.176   3.516   4.238  1.1178  0.9486 -0.3671
 1771SOL    HW216773   2.080   3.610   4.277  0.2605  0.5148  0.0003
 1772SOL     OW16774   4.196   0.289   3.573 -0.5428  0.1540  0.1007
 1772SOL    HW116775   4.163   0.210   3.531 -2.0160 -0.1229  1.7391
 1772SOL    HW216776   4.174   0.285   3.666  2.0929 -0.6013  0.6785
 1773SOL     OW16777   0.202   3.980   8.677  0.1020  0.4912  0.2401
 1773SOL    HW116778   0.209   3.893   8.714 -2.1394  0.2110  0.0277
 1773SOL    HW216779   0.264   3.974   8.604 -0.4762 -0.2968 -0.1836
 1774SOL     OW16780   1.772   4.056   4.035 -0.5640 -0.1307  0.3740
 1774SOL    HW116781   1.697   4.081   3.980 -1.9709 -1.8582  1.4941
 1774SOL    HW216782   1.813   4.142   4.031 -0.8631 -0.1350 -3.2191
 1775SOL     OW16783   0.298   3.598   5.808  0.5950 -0.4357 -0.0931
 1775SOL    HW116784   0.371   3.619   5.749 -1.1385 -0.6478 -2.3238
 1775SOL    HW216785   0.262   3.525   5.758  1.5848 -0.8049 -0.2695
 1776SOL     OW16786   0.415   2.491   2.801 -0.4996 -0.2752  0.2919
 1776SOL    HW116787   0.423   2.583   2.827  0.4393  0.4127 -2.4532
 1776SOL    HW216788   0.342   2.493   2.739  0.4496  0.7480 -0.8095
 1777SOL     OW16789   0.527   1.704   3.895  0.3300  0.0964  0.3769
 1777SOL    HW116790   0.542   1.792   3.861 -0.3290  0.3168  0.6510
 1777SOL    HW216791   0.458   1.677   3.834  0.3317  0.6067  0.1560
 1778SOL     OW16792   0.143   1.431   5.250 -0.3743  0.1569 -0.4739
 1778SOL    HW116793   0.209   1.434   5.181 -0.8542 -0.2640 -0.9547
 1778SOL    HW216794   0.118   1.523   5.241 -0.7261  0.2834  1.8300
 1779SOL     OW16795   1.977   2.599   0.704 -0.4051  0.1501 -0.1653
 1779SOL    HW116796   1.995   2.659   0.777  1.5966 -1.5757  0.7694
 1779SOL    HW216797   2.031   2.526   0.734 -1.4678 -0.3718  0.4946
 1780SOL     OW16798   1.303   4.580   4.759  0.0899 -0.1066  0.0033
 1780SOL    HW116799   1.367   4.551   4.694 -0.8971 -0.2899 -0.8832
 1780SOL    HW216800   1.260   4.495   4.768 -1.2856  0.6550  0.5976
 1781SOL     OW16801   2.486   3.685  17.349 -0.0072  0.3659  0.2090
 1781SOL    HW116802   2.488   3.758  17.287  1.6032 -1.5745 -2.0369
 1781SOL    HW216803   2.407   3.634  17.334  0.5057 -0.4135  0.1207
 1782SOL     OW16804   3.134   3.880   1.670  0.0810 -0.1887  0.1765
 1782SOL    HW116805   3.066   3.838   1.619  0.2677 -1.3089  0.8541
 1782SOL    HW216806   3.202   3.882   1.603  0.5656 -0.9885  0.6404
 1783SOL     OW16807   3.558   3.625   4.634  0.9712  0.1478  0.5604
 1783SOL    HW116808   3.472   3.665   4.642  1.3699  1.2320 -0.5537
 1783SOL    HW216809   3.604   3.706   4.611  2.4002 -1.1265 -1.1387
 1784SOL     OW16810   1.658   0.218   2.507  0.1474  0.1040  0.6137
 1784SOL    HW116811   1.615   0.133   2.496  0.0965 -0.2270  3.5271
 1784SOL    HW216812   1.606   0.270   2.568  2.5907  1.1621  1.7896
 1785SOL     OW16813   1.117   0.384   5.857  0.0819 -0.0706  0.4122
 1785SOL    HW116814   1.044   0.373   5.918 -0.8337  1.1298 -0.4811
 1785SOL    HW216815   1.168   0.456   5.895  0.1641  1.3662 -2.3781
 1786SOL     OW16816   2.069   0.720  15.176  0.5651  0.2932  0.5642
 1786SOL    HW116817   1.999   0.694  15.236 -2.3946  1.1847 -2.5343
 1786SOL    HW216818   2.138   0.672  15.223  0.4366 -1.6437 -1.1945
 1787SOL     OW16819   1.019   0.499   2.902  0.2137 -0.2096 -0.5708
 1787SOL    HW116820   1.056   0.544   2.978 -0.0177 -1.4304  0.2632
 1787SOL    HW216821   1.058   0.554   2.834  0.6904  0.8256  0.5264
 1788SOL     OW16822   3.390   2.971   8.305  0.3946 -0.7728 -0.2913
 1788SOL    HW116823   3.446   3.029   8.254  0.2361  1.0463  1.5873
 1788SOL    HW216824   3.316   3.027   8.327 -0.5011 -1.4890 -1.5165
 1789SOL     OW16825   3.122   4.222  15.809  0.0669  1.0123 -0.0028
 1789SOL    HW116826   3.078   4.206  15.893 -0.1710  0.1414 -0.2889
 1789SOL    HW216827   3.057   4.187  15.747  1.0060  0.5675 -0.7230
 1790SOL     OW16828   3.042   0.801  14.890 -0.3035 -0.6580  0.2175
 1790SOL    HW116829   3.119   0.793  14.833  0.8071  0.1820  1.6268
 1790SOL    HW216830   2.971   0.773  14.833 -0.7109  0.9312 -0.0662
 1791SOL     OW16831   2.759   1.447  16.171  0.2097 -0.6655 -0.1051
 1791SOL    HW116832   2.815   1.378  16.137  1.0656  0.5543 -1.2151
 1791SOL    HW216833   2.752   1.414  16.260  1.6825  0.3060  0.3688
 1792SOL     OW16834   2.806   2.279   3.209  0.4704 -0.0317  0.2353
 1792SOL    HW116835   2.899   2.287   3.187  0.1795 -0.1794 -1.0920
 1792SOL    HW216836   2.764   2.315   3.131 -0.7442  1.1616  1.4426
 1793SOL     OW16837   4.319   3.428   9.065  0.4714  0.2443  0.0771
 1793SOL    HW116838   4.239   3.408   9.114 -0.9095  2.2727 -1.3342
 1793SOL    HW216839   4.374   3.465   9.135 -1.9854  2.6581  0.7408
 1794SOL     OW16840   3.031   2.840   1.408 -0.1179 -0.1642 -0.0664
 1794SOL    HW116841   2.944   2.826   1.446  0.2291  1.0740  1.1747
 1794SOL    HW216842   2.994   2.844   1.320 -1.4888  0.2015  0.5241
 1795SOL     OW16843   3.339   3.933   2.420  0.7255 -0.0844 -0.1300
 1795SOL    HW116844   3.276   3.978   2.364  0.6117 -1.1112 -0.8165
 1795SOL    HW216845   3.425   3.964   2.391  1.2565 -0.2996  1.1896
 1796SOL     OW16846   1.735   4.319   5.541 -0.2707  0.3519 -0.2430
 1796SOL    HW116847   1.698   4.367   5.467 -1.8862 -0.2050  0.2096
 1796SOL    HW216848   1.657   4.289   5.586 -0.9531  1.4223 -0.7066
 1797SOL     OW16849   4.462   3.966  12.681 -0.0208  0.0329 -0.2027
 1797SOL    HW116850   4.426   3.908  12.613 -3.1804  0.7882  0.8473
 1797SOL    HW216851   4.484   3.905  12.752  0.9156 -0.7730 -1.1761
 1798SOL     OW16852   0.801   0.853   6.255  0.1700 -0.0183 -0.0519
 1798SOL    HW116853   0.773   0.901   6.177  1.2821 -2.2708 -1.8062
 1798SOL    HW216854   0.783   0.767   6.217  0.7036 -0.4876  0.7604
 1799SOL     OW16855   0.090   0.569  12.168  0.0112  0.3673  0.0540
 1799SOL    HW116856   0.100   0.663  12.153 -1.3997  0.7664  1.6668
 1799SOL    HW216857   0.159   0.534  12.111  1.7095  2.0919  1.0512
 1800SOL     OW16858   3.365   0.351   3.342  0.8463  0.0101 -0.4174
 1800SOL    HW116859   3.385   0.366   3.249  0.6594  2.0648 -0.1459
 1800SOL    HW216860   3.448   0.374   3.384  0.5450  0.0724  0.1442
 1801SOL     OW16861   4.136   1.565   3.237  0.1590  0.3775  0.0913
 1801SOL    HW116862   4.120   1.476   3.206  1.4019  0.3219 -0.3979
 1801SOL    HW216863   4.223   1.564   3.278  0.7172  4.3849 -0.9742
 1802SOL     OW16864   0.334   0.956   7.568 -0.3015 -0.1780 -0.3277
 1802SOL    HW116865   0.263   1.018   7.587 -0.0816  0.0662 -0.2929
 1802SOL    HW216866   0.362   0.932   7.656  0.4038 -2.0016 -1.0459
 1803SOL     OW16867   2.592   0.133  10.736 -0.2358  0.4508  0.2514
 1803SOL    HW116868   2.521   0.069  10.742 -0.2445  0.4503  0.1264
 1803SOL    HW216869   2.542   0.212  10.755 -1.4484 -0.6452  1.5984
 1804SOL     OW16870   1.888   3.624   7.942  0.4409 -0.1814 -0.0134
 1804SOL    HW116871   1.939   3.558   7.989 -0.4095  1.6623  3.5100
 1804SOL    HW216872   1.955   3.687   7.915  0.3289  0.3920  1.0598
 1805SOL     OW16873   3.291   3.405  17.295  0.2312 -0.4378  0.3194
 1805SOL    HW116874   3.308   3.349  17.371 -0.4509  0.4835  1.1489
 1805SOL    HW216875   3.349   3.474  17.328  0.7409 -0.4207 -0.6047
 1806SOL     OW16876   1.768   1.095   8.416 -0.1261  0.9783 -0.7185
 1806SOL    HW116877   1.815   1.033   8.359  2.5144  1.0072  1.4054
 1806SOL    HW216878   1.829   1.168   8.430  0.4367  0.3471  0.1085
 1807SOL     OW16879   1.130   2.056   8.493 -0.0528 -0.2241 -0.5070
 1807SOL    HW116880   1.039   2.029   8.504 -0.5921  1.9507  0.3111
 1807SOL    HW216881   1.149   2.021   8.405 -0.2830 -0.8049 -0.3283
 1808SOL     OW16882   0.005   3.807   1.299  0.0382 -0.1106 -0.4364
 1808SOL    HW116883   0.096   3.800   1.328  0.4098 -0.0023 -1.5727
 1808SOL    HW216884   4.707   3.718   1.268  0.5231 -0.9445  1.6148
 1809SOL     OW16885   2.148   4.458  10.470 -0.0755  0.0802  0.1505
 1809SOL    HW116886   2.184   4.479  10.383 -0.2474  1.1126  0.3341
 1809SOL    HW216887   2.215   4.394  10.495 -0.0764 -0.1324 -0.3778
 1810SOL     OW16888   1.386   2.328   3.166 -0.0445  0.4726  0.0615
 1810SOL    HW116889   1.339   2.318   3.083 -0.1448  0.5065  0.1131
 1810SOL    HW216890   1.321   2.302   3.232  1.6944 -0.5546  1.3774
 1811SOL     OW16891   2.663   2.086   5.018  0.0321 -0.3326  0.3706
 1811SOL    HW116892   2.728   2.154   5.037 -2.5744  2.4256 -0.5225
 1811SOL    HW216893   2.591   2.120   5.071 -1.1571 -1.1459 -0.7456
 1812SOL     OW16894   2.598   1.073   4.106 -0.2165 -0.1159  0.2517
 1812SOL    HW116895   2.624   0.982   4.094  1.1455  0.4009 -0.7645
 1812SOL    HW216896   2.569   1.114   4.025 -1.5880 -1.8958 -0.1465
 1813SOL     OW16897   2.916   0.833  11.118 -0.1055  0.5549 -0.5166
 1813SOL    HW116898   2.860   0.910  11.104 -1.0209  0.2158  1.3532
 1813SOL    HW216899   2.937   0.845  11.210 -1.9193 -1.3731  0.1525
 1814SOL     OW16900   2.168   3.153   7.954  0.4797 -0.1783  0.0921
 1814SOL    HW116901   2.209   3.239   7.947  1.7149 -0.7429  0.3185
 1814SOL    HW216902   2.245   3.106   7.987  1.3510  1.0111 -0.2505
 1815SOL     OW16903   2.694   0.962   5.709  0.0222  0.1300  0.5462
 1815SOL    HW116904   2.721   1.018   5.782 -1.6978 -0.0740  1.3592
 1815SOL    HW216905   2.770   0.955   5.652  1.8070 -1.2013  3.1059
 1816SOL     OW16906   4.348   2.798   5.776  1.0261 -0.3499 -0.1469
 1816SOL    HW116907   4.384   2.765   5.858  2.3672 -1.5758 -1.2173
 1816SOL    HW216908   4.355   2.719   5.722  0.0149 -1.4281  1.3323
 1817SOL     OW16909   2.830   0.457   7.645  0.2736  0.8186 -0.3278
 1817SOL    HW116910   2.779   0.376   7.650  0.6791  0.6098  0.4291
 1817SOL    HW216911   2.921   0.429   7.651 -0.6394 -2.0758 -0.0679
 1818SOL     OW16912   4.659   3.683   9.681 -0.0842 -0.5385 -0.3002
 1818SOL    HW116913   4.579   3.647   9.720  1.3293 -2.9415  0.3899
 1818SOL    HW216914   4.671   3.610   9.620 -0.9737 -2.0690  1.3462
 1819SOL     OW16915   0.430   0.105  15.599 -0.0520  0.0129 -0.2470
 1819SOL    HW116916   0.447   0.111  15.505 -0.2915 -0.6928 -0.3386
 1819SOL    HW216917   0.473   0.022  15.621  0.0922  0.1288 -0.0932
 1820SOL     OW16918   3.982   2.973  17.644  0.4888  0.0497  0.5203
 1820SOL    HW116919   3.993   2.882  17.617 -0.5945 -0.1689  0.8407
 1820SOL    HW216920   3.887   2.978  17.644  0.4559 -0.5551  1.5023
 1821SOL     OW16921   1.596   4.696  17.448  0.2216 -0.0662  0.0563
 1821SOL    HW116922   1.617   4.640  17.373  1.6747  1.3600 -0.5916
 1821SOL    HW216923   1.652   0.049  17.431  1.5261 -1.0639 -0.0926
 1822SOL     OW16924   0.702   3.511   5.154 -0.3086  0.5746  0.1302
 1822SOL    HW116925   0.734   3.467   5.233 -0.7007  0.1133  0.0290
 1822SOL    HW216926   0.771   3.483   5.094 -1.2190  0.4835 -0.8702
 1823SOL     OW16927   1.091   1.410   3.367 -0.3534  0.3400  0.0490
 1823SOL    HW116928   1.182   1.406   3.336 -0.4068  0.8530 -0.1714
 1823SOL    HW216929   1.076   1.497   3.402  2.8361  0.6155  0.7588
 1824SOL     OW16930   3.222   0.558  13.388  0.0523  0.2065  0.0121
 1824SOL    HW116931   3.279   0.544  13.312 -1.9679  1.5753 -1.7667
 1824SOL    HW216932   3.155   0.619  13.355  0.1442  1.0442  1.3936
 1825SOL     OW16933   1.241   2.752   5.687  0.2257  0.0359 -0.2895
 1825SOL    HW116934   1.239   2.833   5.636 -0.7099  0.8435  1.0088
 1825SOL    HW216935   1.256   2.788   5.775 -0.4825  0.4624 -0.3374
 1826SOL     OW16936   2.121   2.538   2.862 -0.1818 -0.2290 -0.1930
 1826SOL    HW116937   2.156   2.485   2.791 -0.3855 -2.4943  1.4087
 1826SOL    HW216938   2.125   2.474   2.933  0.0767  0.1265  0.1120
 1827SOL     OW16939   2.086   3.303   4.959 -0.2826 -0.2859  0.2316
 1827SOL    HW116940   2.177   3.283   4.934 -0.3680  1.2012 -1.2417
 1827SOL    HW216941   2.027   3.266   4.893 -1.4133 -0.1332  1.1783
 1828SOL     OW16942   3.871   0.416   9.319 -0.2516  0.4434  0.7104
 1828SOL    HW116943   3.867   0.406   9.414 -1.4855  0.6774  0.6793
 1828SOL    HW216944   3.888   0.509   9.306  1.5549  0.2186  1.4473
 1829SOL     OW16945   0.800   4.674  12.874  0.0555  0.2458 -0.4996
 1829SOL    HW116946   0.829   0.039  12.897  0.5160  0.2226 -0.9802
 1829SOL    HW216947   0.822   4.664  12.781  3.4655  1.4632  0.1615
 1830SOL     OW16948   2.011   1.438   8.107 -0.2358 -0.1777  0.6067
 1830SOL    HW116949   2.079   1.458   8.042 -2.0145  0.0045 -1.2224
 1830SOL    HW216950   2.005   1.528   8.140 -0.4730 -0.2924  0.8729
 1831SOL     OW16951   2.503   0.074   3.169 -0.4442  0.3538  0.2043
 1831SOL    HW116952   2.414   0.087   3.201 -0.2761 -3.0060  1.9219
 1831SOL    HW216953   2.487   0.034   3.084  1.3863  2.2890 -1.0818
 1832SOL     OW16954   0.385   0.330   1.349 -0.3458  0.0154 -0.4043
 1832SOL    HW116955   0.417   0.269   1.416  1.1747 -0.0737 -1.1994
 1832SOL    HW216956   0.324   0.286   1.290 -1.6537 -0.1397  1.0697
 1833SOL     OW16957   1.672   3.390   3.786 -0.5054 -0.1578 -0.4746
 1833SOL    HW116958   1.692   3.483   3.770  1.2789 -0.7241 -1.4376
 1833SOL    HW216959   1.584   3.403   3.824  0.6096  2.1900  1.3288
 1834SOL     OW16960   0.220   1.621   8.343  0.7129  0.2790 -0.0716
 1834SOL    HW116961   0.143   1.570   8.317  1.4841 -0.7543 -0.3465
 1834SOL    HW216962   0.213   1.622   8.439  0.9968  0.6271 -0.0534
 1835SOL     OW16963   1.036   4.474  16.845  0.4799  0.3082 -0.0361
 1835SOL    HW116964   1.023   4.450  16.753  2.4076 -1.9948  0.2903
 1835SOL    HW216965   1.078   4.399  16.886  1.3235  0.0848 -1.3089
 1836SOL     OW16966   3.126   0.255   5.225  0.2839 -0.1251  0.2303
 1836SOL    HW116967   3.211   0.240   5.266 -0.2346  1.1790  1.7916
 1836SOL    HW216968   3.122   0.350   5.233 -2.6237 -0.0625 -2.1422
 1837SOL     OW16969   4.554   0.464   8.548 -0.3122  0.1829 -0.2211
 1837SOL    HW116970   4.542   0.525   8.621  2.6974  0.1237  0.3506
 1837SOL    HW216971   4.649   0.458   8.539 -0.3352  1.7971 -1.5074
 1838SOL     OW16972   1.929   0.448  14.505 -0.4853  0.2616 -0.3419
 1838SOL    HW116973   1.932   0.473  14.597 -0.3657  0.7509 -0.4810
 1838SOL    HW216974   1.844   0.476  14.472 -0.5311 -0.8635 -1.1890
 1839SOL     OW16975   3.392   4.473   5.714 -0.6005 -0.3650 -0.1815
 1839SOL    HW116976   3.487   4.457   5.705 -0.4538 -0.0272  0.8414
 1839SOL    HW216977   3.384   4.533   5.787  0.4996  0.9682 -1.1499
 1840SOL     OW16978   3.234   1.651   5.994  0.2106 -0.0040 -0.5035
 1840SOL    HW116979   3.274   1.633   5.908  2.2798  1.1742  0.1948
 1840SOL    HW216980   3.258   1.570   6.039 -3.1605 -0.1384  1.0413
 1841SOL     OW16981   3.074   0.488   9.896 -0.0283  0.1270  0.2973
 1841SOL    HW116982   3.017   0.479   9.819 -1.8546 -1.2745  1.8192
 1841SOL    HW216983   3.085   0.396   9.919 -3.0443 -0.4962 -0.6706
 1842SOL     OW16984   3.433   1.538  15.425  0.0190 -0.3745 -0.2694
 1842SOL    HW116985   3.342   1.509  15.417  0.1892 -0.8004 -0.7052
 1842SOL    HW216986   3.478   1.473  15.370 -1.0074 -3.3013  2.3182
 1843SOL     OW16987   0.278   4.624   8.001  0.1370 -0.6864  0.2035
 1843SOL    HW116988   0.187   4.594   7.997 -1.1054  2.9958  0.6505
 1843SOL    HW216989   0.299   4.609   8.093  0.1458  1.8540  0.6019
 1844SOL     OW16990   3.011   0.482   6.627 -0.2432 -0.1720  0.2185
 1844SOL    HW116991   2.968   0.555   6.672 -0.9079 -1.3662  1.5360
 1844SOL    HW216992   3.096   0.488   6.671 -0.4142  0.2776  0.4825
 1845SOL     OW16993   3.098   2.622   9.382 -0.1959 -0.2016 -0.2230
 1845SOL    HW116994   3.050   2.546   9.349 -0.0856  1.4947 -4.4167
 1845SOL    HW216995   3.106   2.662   9.295  0.3343 -0.6834 -0.3940
 1846SOL     OW16996   3.090   2.154   4.982 -0.3126 -0.4410 -0.3201
 1846SOL    HW116997   3.005   2.150   4.937 -0.9969 -0.6263  0.9835
 1846SOL    HW216998   3.126   2.240   4.961 -1.5473  0.1199 -0.1708
 1847SOL     OW16999   0.357   3.689   4.218 -0.2759  0.0449 -0.4554
 1847SOL    HW117000   0.335   3.596   4.226 -0.9735  0.3542  1.1518
 1847SOL    HW217001   0.279   3.743   4.223  0.9341  1.6083  1.6388
 1848SOL     OW17002   4.590   3.954   2.305 -0.6344  0.3629 -0.2998
 1848SOL    HW117003   4.556   4.035   2.343  2.4065  0.4831  2.1503
 1848SOL    HW217004   4.511   3.903   2.288 -1.3973  1.2415  0.6064
 1849SOL     OW17005   0.424   4.437   2.434  0.4193  0.3078  0.1426
 1849SOL    HW117006   0.449   4.346   2.449 -0.9650  0.3512  2.7905
 1849SOL    HW217007   0.456   4.454   2.346 -1.1499  0.5930 -0.3687
 1850SOL     OW17008   3.897   4.236   2.984 -0.1197 -0.5110  0.0348
 1850SOL    HW117009   3.976   4.267   2.939 -0.2848 -0.8295 -0.4792
 1850SOL    HW217010   3.828   4.278   2.934  1.9373  1.6601 -1.0174
 1851SOL     OW17011   3.194   1.534   4.923  0.6016 -0.1326  0.0806
 1851SOL    HW117012   3.246   1.561   4.999  0.5858 -0.1600  0.1013
 1851SOL    HW217013   3.107   1.550   4.958  1.0031  0.4602  0.7947
 1852SOL     OW17014   4.245   1.473   6.147 -0.0523 -0.0528 -0.1933
 1852SOL    HW117015   4.305   1.491   6.074 -0.8489 -0.0600 -0.8507
 1852SOL    HW217016   4.159   1.491   6.109  0.5737  2.4941 -0.3716
 1853SOL     OW17017   0.914   3.451   7.798  0.1140 -0.2395 -0.4763
 1853SOL    HW117018   0.857   3.420   7.869  0.9457  0.7314  0.6140
 1853SOL    HW217019   0.865   3.402   7.732 -0.7046  1.0397 -0.8246
 1854SOL     OW17020   1.299   3.037   8.614 -0.0475 -0.3914 -0.0724
 1854SOL    HW117021   1.283   3.085   8.695  0.4631 -1.2959  0.5621
 1854SOL    HW217022   1.381   3.074   8.582  0.9376 -1.6714  0.9625
 1855SOL     OW17023   3.056   4.535   9.191  0.3240 -0.3312 -0.0703
 1855SOL    HW117024   3.068   4.614   9.244  0.1670 -1.3555  1.5214
 1855SOL    HW217025   3.094   4.559   9.107 -0.4279  0.5912 -0.1394
 1856SOL     OW17026   2.088   2.295  16.932  0.3439 -0.0331  0.2013
 1856SOL    HW117027   2.155   2.227  16.936 -1.4439 -1.7750  0.3138
 1856SOL    HW217028   2.043   2.272  16.852 -1.7798  2.9452  0.5428
 1857SOL     OW17029   1.310   1.701   5.082 -0.3015 -0.0967 -0.5819
 1857SOL    HW117030   1.380   1.766   5.076  0.2144 -0.5032  1.1564
 1857SOL    HW217031   1.357   1.618   5.092  1.7778  1.2685  0.9927
 1858SOL     OW17032   4.117   4.362  11.131  0.3646 -0.1024  0.2146
 1858SOL    HW117033   4.141   4.287  11.185  0.6318 -0.4100 -0.3207
 1858SOL    HW217034   4.145   4.336  11.043 -1.4147  1.0505 -0.6830
 1859SOL     OW17035   2.638   0.319   6.679  0.3147 -0.1922  0.0913
 1859SOL    HW117036   2.647   0.225   6.691 -1.5909 -0.2698  0.8217
 1859SOL    HW217037   2.604   0.346   6.764 -0.9850  1.8771 -1.0911
 1860SOL     OW17038   2.293   1.514   7.329  0.4589 -0.2529 -0.7000
 1860SOL    HW117039   2.265   1.599   7.293  0.2027  0.2691  0.7402
 1860SOL    HW217040   2.312   1.534   7.420 -0.5719  2.3284 -1.0454
 1861SOL     OW17041   1.507   1.943   6.482 -0.2973  0.0580 -0.2504
 1861SOL    HW117042   1.439   1.922   6.545  3.1761 -2.0067  2.8489
 1861SOL    HW217043   1.478   1.882   6.414 -2.1136 -1.4190  1.8596
 1862SOL     OW17044   0.925   2.715  10.380  0.7547  0.1442  0.6026
 1862SOL    HW117045   0.896   2.731  10.290  1.1495  2.6201  0.9132
 1862SOL    HW217046   0.857   2.661  10.420 -0.3053  1.3966  0.5059
 1863SOL     OW17047   2.194   1.887  17.486  0.3206  0.1045  0.1650
 1863SOL    HW117048   2.191   1.885  17.390  1.9943 -1.1774  0.1395
 1863SOL    HW217049   2.204   1.795  17.510  1.3965  0.4599  1.0642
 1864SOL     OW17050   4.462   3.424   9.909  0.1454  0.0243 -0.8774
 1864SOL    HW117051   4.448   3.432  10.003 -2.3984 -0.8220 -1.2025
 1864SOL    HW217052   4.430   3.508   9.875 -3.7657 -0.6005  1.2548
 1865SOL     OW17053   1.568   2.396   4.385  0.5594 -0.1636 -0.3223
 1865SOL    HW117054   1.570   2.307   4.420  1.8558  0.2514  0.6796
 1865SOL    HW217055   1.504   2.381   4.315 -0.7205  0.4390  0.7166
 1866SOL     OW17056   4.000   3.551   0.435 -0.4553  0.0952  0.0737
 1866SOL    HW117057   3.939   3.621   0.457 -0.6361 -0.1452  0.3398
 1866SOL    HW217058   3.955   3.474   0.469  1.3212 -1.2517 -0.6329
 1867SOL     OW17059   3.321   2.151   6.341  0.0871  0.3871  0.5263
 1867SOL    HW117060   3.320   2.116   6.252  0.6690  1.4867  0.0905
 1867SOL    HW217061   3.259   2.222   6.327  0.5314  1.0791  2.0482
 1868SOL     OW17062   4.494   3.812   6.155  0.0789  0.3234  0.2495
 1868SOL    HW117063   4.449   3.741   6.201  0.2528 -0.6490 -1.0915
 1868SOL    HW217064   4.557   3.772   6.095 -1.2502  0.2424 -1.1044
 1869SOL     OW17065   4.185   1.283   3.107  0.3362  0.8696 -0.0653
 1869SOL    HW117066   4.147   1.263   3.021  4.4646 -0.4933 -1.5979
 1869SOL    HW217067   4.272   1.243   3.108 -0.8005 -1.6410 -0.4236
 1870SOL     OW17068   0.877   0.997   4.368 -0.1071  0.2872 -0.2487
 1870SOL    HW117069   0.880   1.087   4.337  1.7419  0.1627 -0.4285
 1870SOL    HW217070   0.800   0.968   4.319 -2.1424 -1.1882  3.7728
 1871SOL     OW17071   4.194   1.128   4.940  0.3964 -0.1589  0.7998
 1871SOL    HW117072   4.203   1.033   4.942  0.3671 -0.1795  0.0944
 1871SOL    HW217073   4.284   1.150   4.962  1.2103 -1.4425 -1.3314
 1872SOL     OW17074   3.963   3.651   4.366 -0.1950 -0.4111  0.0971
 1872SOL    HW117075   3.933   3.566   4.398 -2.0642 -0.5084 -1.9188
 1872SOL    HW217076   3.983   3.621   4.277  0.5614 -1.1339  0.5075
 1873SOL     OW17077   1.420   0.951   1.912 -0.1563  0.0037  0.4001
 1873SOL    HW117078   1.429   0.863   1.950  1.1559 -0.1169 -0.1980
 1873SOL    HW217079   1.505   0.962   1.871  0.1852 -0.3912  0.9964
 1874SOL     OW17080   4.710   1.592  13.691  0.0487  0.1346 -0.5007
 1874SOL    HW117081   4.706   1.685  13.714  0.1255 -0.1095  0.5095
 1874SOL    HW217082   0.066   1.567  13.739 -1.0734 -1.6812  0.4049
 1875SOL     OW17083   2.943   2.592   8.359  0.2761 -0.2935 -0.1483
 1875SOL    HW117084   3.025   2.554   8.391 -0.2470  0.0212  1.5591
 1875SOL    HW217085   2.897   2.518   8.320 -1.7967  1.0163 -0.1779
 1876SOL     OW17086   0.916   0.829  14.047 -0.1057  0.0249  0.4986
 1876SOL    HW117087   0.823   0.841  14.068 -0.6195 -2.5790 -0.2969
 1876SOL    HW217088   0.949   0.813  14.136 -0.1661  1.9361  0.8754
 1877SOL     OW17089   4.289   2.223  17.190  0.1752 -0.0117  0.3095
 1877SOL    HW117090   4.345   2.258  17.259  0.4760 -0.2232  0.1695
 1877SOL    HW217091   4.207   2.272  17.200 -0.4446 -1.1424  0.8255
 1878SOL     OW17092   2.140   2.904   2.997 -0.0495  0.3225  0.3365
 1878SOL    HW117093   2.178   2.983   2.959  0.7129 -0.7752 -1.1860
 1878SOL    HW217094   2.097   2.871   2.918 -1.6835 -0.3851  1.5127
 1879SOL     OW17095   1.316   2.164   2.531  0.0283 -0.1507 -0.2099
 1879SOL    HW117096   1.341   2.124   2.448  0.2212  2.2190 -1.2991
 1879SOL    HW217097   1.232   2.203   2.509  1.0596  1.3182 -1.5780
 1880SOL     OW17098   0.577   3.961   8.366  0.0402  0.2005  0.0301
 1880SOL    HW117099   0.637   3.954   8.440  0.7722  2.7301 -0.3298
 1880SOL    HW217100   0.621   3.928   8.288 -1.5421 -2.6416  0.3468
 1881SOL     OW17101   1.206   0.631  14.165 -0.1375  0.2559  0.0373
 1881SOL    HW117102   1.177   0.716  14.197 -0.8234  0.0815 -0.1243
 1881SOL    HW217103   1.125   0.581  14.171 -0.1686  0.1825 -0.9592
 1882SOL     OW17104   1.718   0.483   3.201  0.6289  0.5080 -0.0622
 1882SOL    HW117105   1.629   0.490   3.236  1.3847 -1.2459  2.2221
 1882SOL    HW217106   1.707   0.509   3.110  0.0940 -1.9404 -0.7014
 1883SOL     OW17107   0.567   3.870   7.392  0.0137 -0.6975  0.0918
 1883SOL    HW117108   0.605   3.947   7.349 -0.1138 -0.0983  1.0449
 1883SOL    HW217109   0.530   3.829   7.314  1.1830 -0.4119 -0.6240
 1884SOL     OW17110   4.480   2.292  14.988  0.2249  0.4303  0.0064
 1884SOL    HW117111   4.414   2.330  14.931 -0.0771 -0.4259 -0.2219
 1884SOL    HW217112   4.545   2.362  14.989 -1.6155  2.1472  0.2399
 1885SOL     OW17113   3.837   2.830   2.001  0.8900  0.6602 -0.5727
 1885SOL    HW117114   3.770   2.887   2.038  1.5523  0.1481  1.4467
 1885SOL    HW217115   3.800   2.818   1.914  0.3263  1.7007 -0.4680
 1886SOL     OW17116   3.735   0.699  15.185  0.6091 -0.4465  0.6716
 1886SOL    HW117117   3.714   0.636  15.116  0.7068  0.0311  0.2053
 1886SOL    HW217118   3.711   0.653  15.265 -3.6044  0.1204 -0.2528
 1887SOL     OW17119   1.241   2.652  13.063 -0.1496  0.0955 -0.1143
 1887SOL    HW117120   1.328   2.612  13.061  0.7323  1.9011  2.4580
 1887SOL    HW217121   1.267   2.741  13.040  1.1227  0.1245  1.3927
 1888SOL     OW17122   4.327   2.855  16.091 -0.5525  0.2833  0.4326
 1888SOL    HW117123   4.280   2.930  16.057 -2.1264 -0.8020  0.1838
 1888SOL    HW217124   4.255   2.815  16.140  0.4833 -1.3652  0.6108
 1889SOL     OW17125   3.392   2.763  15.388  0.0560 -0.3092 -0.1244
 1889SOL    HW117126   3.473   2.766  15.438  0.3667  0.6779 -0.6845
 1889SOL    HW217127   3.418   2.821  15.316  0.8171 -0.1871  0.2566
 1890SOL     OW17128   3.332   3.486   4.221 -0.1105 -0.1484 -0.4122
 1890SOL    HW117129   3.398   3.424   4.252 -0.8725 -1.0344 -0.5652
 1890SOL    HW217130   3.262   3.425   4.245 -2.2211  2.2794 -0.4077
 1891SOL     OW17131   4.096   0.829   4.520 -0.1078  0.2613  0.0538
 1891SOL    HW117132   4.100   0.885   4.597  1.1435  1.0215 -0.5525
 1891SOL    HW217133   4.003   0.845   4.506  0.5556  2.8378 -1.5047
 1892SOL     OW17134   1.137   4.676   0.133 -0.0736  0.0412  0.1188
 1892SOL    HW117135   1.194   0.030   0.145 -1.4289  1.1246 -0.3550
 1892SOL    HW217136   1.169   4.612   0.197  1.4876  0.5954 -0.1028
 1893SOL     OW17137   0.013   0.876   8.021 -0.8814  0.1213  0.6529
 1893SOL    HW117138   4.686   0.825   7.958 -0.0843  0.4371 -0.2247
 1893SOL    HW217139   0.084   0.812   8.021 -0.4574  0.5956 -2.0878
 1894SOL     OW17140   0.294   0.228   3.163  0.3263 -0.3981 -0.2294
 1894SOL    HW117141   0.242   0.175   3.104  0.3227  0.8910 -1.3901
 1894SOL    HW217142   0.219   0.251   3.218 -1.5587 -1.8666 -2.2169
 1895SOL     OW17143   2.530   0.411   4.040  0.2407 -0.5041  0.0463
 1895SOL    HW117144   2.621   0.399   4.069  0.5108 -0.9114 -0.9744
 1895SOL    HW217145   2.490   0.328   4.065  1.9239 -1.4518 -0.4288
 1896SOL     OW17146   2.147   1.505  16.756 -0.2621 -0.0370 -0.4861
 1896SOL    HW117147   2.060   1.524  16.789 -0.8049  0.2490 -2.1125
 1896SOL    HW217148   2.155   1.421  16.801  0.1674  0.3314  0.1474
 1897SOL     OW17149   1.696   4.325   6.571 -0.3200  0.2647 -0.0511
 1897SOL    HW117150   1.711   4.404   6.623  2.5747  2.0473 -3.5843
 1897SOL    HW217151   1.776   4.314   6.520 -0.5588  1.3749 -0.6675
 1898SOL     OW17152   2.101   2.188   2.056  0.1982  0.2892 -0.3985
 1898SOL    HW117153   2.069   2.155   2.140 -0.8079  0.9613 -0.5175
 1898SOL    HW217154   2.189   2.217   2.079  0.5835 -0.4111 -1.0151
 1899SOL     OW17155   2.704   3.715   5.404  0.5414 -0.3671 -0.0963
 1899SOL    HW117156   2.689   3.671   5.320 -2.0290  0.8469 -0.2464
 1899SOL    HW217157   2.641   3.786   5.395  1.2432  0.2066 -0.4725
 1900SOL     OW17158   3.489   2.766   0.648 -0.2682  0.3785 -0.0566
 1900SOL    HW117159   3.487   2.726   0.561 -0.8191 -0.2276  0.2391
 1900SOL    HW217160   3.531   2.697   0.699 -0.8789 -0.9843 -1.4201
 1901SOL     OW17161   0.776   3.168   2.770  0.4891 -0.5697  0.2236
 1901SOL    HW117162   0.692   3.210   2.786  0.6093 -0.7219  1.2417
 1901SOL    HW217163   0.823   3.232   2.716 -2.6502  1.5974  0.0350
 1902SOL     OW17164   2.726   3.242  17.159  0.2883 -0.2897  0.1959
 1902SOL    HW117165   2.766   3.323  17.126  0.2619 -0.8800 -1.2658
 1902SOL    HW217166   2.791   3.227  17.228 -1.2262  0.0883  1.6998
 1903SOL     OW17167   2.081   2.122  12.746 -0.5803  0.1280 -0.1720
 1903SOL    HW117168   2.176   2.116  12.758 -0.7007 -1.5826 -0.0462
 1903SOL    HW217169   2.058   2.036  12.781 -0.3382 -1.5324 -4.0073
 1904SOL     OW17170   2.367   0.360  11.093  0.3876  0.2598  0.7416
 1904SOL    HW117171   2.393   0.321  11.177 -2.2185  0.3741  1.6025
 1904SOL    HW217172   2.439   0.331  11.037 -1.8427  0.0218 -1.9857
 1905SOL     OW17173   1.080   0.848   3.387 -0.1077  0.3343  0.0089
 1905SOL    HW117174   1.061   0.782   3.320  1.7621 -0.4735  0.2862
 1905SOL    HW217175   1.000   0.901   3.381 -0.3359 -0.2662 -2.1809
 1906SOL     OW17176   1.259   2.388   5.812 -0.3507 -0.0167  0.6401
 1906SOL    HW117177   1.353   2.405   5.815 -0.1688 -1.2742  2.4952
 1906SOL    HW217178   1.246   2.400   5.906  1.6327 -0.5900  0.9841
 1907SOL     OW17179   1.788   1.746   1.006  0.3670  0.9990  0.1201
 1907SOL    HW117180   1.782   1.695   1.087 -3.3674  1.2532 -0.0175
 1907SOL    HW217181   1.826   1.827   1.040  2.8539  0.0539 -0.3721
 1908SOL     OW17182   0.569   1.212   7.619 -0.0015  0.2940 -0.1877
 1908SOL    HW117183   0.649   1.263   7.623 -1.1763  2.4806 -4.1958
 1908SOL    HW217184   0.578   1.158   7.540 -1.0222 -0.3625  0.1430
 1909SOL     OW17185   1.505   3.614   4.708 -0.3412 -0.1356 -0.2788
 1909SOL    HW117186   1.427   3.626   4.655 -0.7884  1.4617  0.7398
 1909SOL    HW217187   1.548   3.697   4.687  1.7069 -0.8927  0.8228
 1910SOL     OW17188   4.671   3.670   8.045  0.2214  0.7213 -0.0048
 1910SOL    HW117189   4.652   3.763   8.060  2.5722  1.0100  1.2586
 1910SOL    HW217190   0.037   3.660   8.009  0.7223 -3.5547  2.4101
 1911SOL     OW17191   4.338   0.029   2.502 -0.0061 -0.3599  0.2148
 1911SOL    HW117192   4.413   0.007   2.557  0.2220 -1.0303 -0.3657
 1911SOL    HW217193   4.341   0.125   2.505 -0.2168 -0.3760  1.0361
 1912SOL     OW17194   2.963   3.355   7.008 -0.0633 -0.0435  0.2466
 1912SOL    HW117195   2.999   3.422   7.065  1.6948 -1.1804  0.4740
 1912SOL    HW217196   2.868   3.370   7.014 -0.1233  0.1391 -1.0816
 1913SOL     OW17197   4.366   2.521  13.310  0.1237 -0.1332  0.6914
 1913SOL    HW117198   4.335   2.437  13.277  0.3039  0.1250 -0.1191
 1913SOL    HW217199   4.422   2.545  13.236 -2.0166  0.1928 -0.8152
 1914SOL     OW17200   3.226   3.123   5.564 -0.2166 -0.1898 -0.6066
 1914SOL    HW117201   3.165   3.141   5.492 -0.3830 -2.3955 -1.0414
 1914SOL    HW217202   3.194   3.039   5.599  0.7995 -0.7181 -0.9350
 1915SOL     OW17203   1.007   1.138   2.421 -0.3688  0.1704 -0.4746
 1915SOL    HW117204   1.003   1.233   2.410 -0.3650 -0.1127 -3.0939
 1915SOL    HW217205   0.917   1.112   2.441 -0.8051  1.1655 -1.0851
 1916SOL     OW17206   1.961   1.866  11.377  0.2293  0.2174 -0.0788
 1916SOL    HW117207   1.962   1.856  11.472  0.4422  2.0644  0.1238
 1916SOL    HW217208   1.995   1.780  11.354 -1.1300 -0.0514 -1.0917
 1917SOL     OW17209   2.053   2.884   9.398 -0.2714  0.0453  0.3288
 1917SOL    HW117210   2.074   2.869   9.490  0.3837  0.7691  0.3042
 1917SOL    HW217211   2.116   2.954   9.381  0.1353 -1.0198 -2.5615
 1918SOL     OW17212   1.331   0.016   8.915  0.1278  0.3298  0.0205
 1918SOL    HW117213   1.376   4.682   8.852  1.2776  0.1556  1.0011
 1918SOL    HW217214   1.262   4.683   8.951  1.7702 -1.0897  0.9837
 1919SOL     OW17215   3.724   4.649   9.880  0.3022  0.1872  0.0062
 1919SOL    HW117216   3.663   4.588   9.922  0.9750 -1.2934 -1.1864
 1919SOL    HW217217   3.729   4.597   9.800 -2.0521 -0.7380  0.4422
 1920SOL     OW17218   0.081   1.068   7.700  0.3648 -0.0829  0.5005
 1920SOL    HW117219   0.162   1.119   7.705  0.5267 -0.4812  2.1866
 1920SOL    HW217220   0.032   1.078   7.782  0.1575  0.5746  0.2926
 1921SOL     OW17221   3.522   1.804   7.834  0.0372  0.2000 -0.0221
 1921SOL    HW117222   3.477   1.790   7.917  0.2564  2.2033  0.4167
 1921SOL    HW217223   3.489   1.731   7.781  2.0513  1.1082 -2.4808
 1922SOL     OW17224   1.376   3.485  15.954  0.1331 -0.1122  0.1684
 1922SOL    HW117225   1.402   3.577  15.962  1.9675 -0.6010 -0.1482
 1922SOL    HW217226   1.437   3.451  16.019  0.4533  2.4051  1.1993
 1923SOL     OW17227   0.303   3.356   2.474 -0.6397 -0.1985  0.0734
 1923SOL    HW117228   0.276   3.443   2.505  0.1543 -0.0584  0.3788
 1923SOL    HW217229   0.370   3.374   2.408 -0.9217 -0.8558 -0.3898
 1924SOL     OW17230   2.671   3.299  14.322 -0.0356  0.3333 -0.8200
 1924SOL    HW117231   2.766   3.292  14.316  0.0329  0.0970  0.5566
 1924SOL    HW217232   2.645   3.243  14.248 -1.2862 -2.4378  1.7059
 1925SOL     OW17233   0.446   4.580   3.020 -0.2706  0.1793 -0.3060
 1925SOL    HW117234   0.541   4.590   3.011 -0.0723 -1.3260  0.0986
 1925SOL    HW217235   0.421   4.664   2.983 -0.8903 -0.1537 -0.6363
 1926SOL     OW17236   1.930   3.936   3.527 -0.3617  0.2293  0.1048
 1926SOL    HW117237   1.938   3.854   3.577 -0.8241 -0.4350 -0.8969
 1926SOL    HW217238   2.022   3.960   3.534 -0.5905  1.0873  0.1669
 1927SOL     OW17239   3.531   1.318   2.327  0.4237  0.2401  0.6447
 1927SOL    HW117240   3.493   1.326   2.415  1.4001 -0.8095  1.1566
 1927SOL    HW217241   3.452   1.321   2.274  1.0234 -2.6395 -0.3991
 1928SOL     OW17242   0.588   0.638  17.332 -0.2988  0.0733 -0.7336
 1928SOL    HW117243   0.505   0.671  17.297 -0.5216  0.2029 -0.0916
 1928SOL    HW217244   0.559   0.643  17.424 -0.4640 -0.1792 -0.7702
 1929SOL     OW17245   0.714   2.381   7.290  0.3474  0.1808 -0.1871
 1929SOL    HW117246   0.667   2.436   7.353  0.1339  3.0992 -2.8854
 1929SOL    HW217247   0.772   2.449   7.256  0.4033  1.2576  2.0495
 1930SOL     OW17248   3.686   1.524  15.571  0.3567 -0.3933 -0.0235
 1930SOL    HW117249   3.728   1.566  15.496  0.6531  1.3116  1.0861
 1930SOL    HW217250   3.612   1.486  15.525  1.2878 -2.3812  0.1007
 1931SOL     OW17251   1.665   2.259  11.921 -0.2815  0.0254 -0.9197
 1931SOL    HW117252   1.707   2.194  11.978 -1.1143  0.9907  0.7850
 1931SOL    HW217253   1.738   2.279  11.862 -1.3142  0.1044 -2.1738
 1932SOL     OW17254   1.133   4.458   0.302  0.7291  0.5158  0.2962
 1932SOL    HW117255   1.079   4.506   0.366  0.1588  0.8551 -0.4411
 1932SOL    HW217256   1.074   4.388   0.275  0.5985 -0.1172  2.1813
 1933SOL     OW17257   1.336   4.168  12.284 -0.3850  0.1543  0.1580
 1933SOL    HW117258   1.297   4.134  12.203 -0.6233 -1.4218  0.9373
 1933SOL    HW217259   1.295   4.115  12.352  0.9979  1.0389  1.6636
 1934SOL     OW17260   1.326   3.287   3.120  0.3211 -0.6052  0.1893
 1934SOL    HW117261   1.277   3.208   3.145 -0.9392  0.3887  0.8772
 1934SOL    HW217262   1.331   3.267   3.027  1.9175  0.9913 -0.0478
 1935SOL     OW17263   3.988   2.572  10.361  0.4525 -0.2708  0.5803
 1935SOL    HW117264   4.015   2.645  10.417 -1.7223  0.8554  0.1686
 1935SOL    HW217265   3.937   2.624  10.298  1.9370  0.0898 -0.3360
 1936SOL     OW17266   1.703   0.847   4.359  0.1559 -0.0054 -0.6019
 1936SOL    HW117267   1.767   0.916   4.374 -1.1842  1.6815 -2.6400
 1936SOL    HW217268   1.740   0.767   4.397  0.9821  0.4217 -0.5016
 1937SOL     OW17269   2.334   1.165   3.403  0.0002 -0.3161  0.6100
 1937SOL    HW117270   2.387   1.097   3.445  0.9335 -0.0312 -0.1309
 1937SOL    HW217271   2.286   1.205   3.476 -2.8145  2.9253 -3.0439
 1938SOL     OW17272   3.106   1.380   3.424 -0.4180  0.0381  0.3503
 1938SOL    HW117273   3.174   1.313   3.419 -0.8177 -0.2219 -1.6418
 1938SOL    HW217274   3.033   1.330   3.389  1.0873 -3.8381  2.7816
 1939SOL     OW17275   4.296   2.390   1.198  0.0335  0.4745  0.2257
 1939SOL    HW117276   4.209   2.430   1.196 -0.3997 -0.3782  2.2014
 1939SOL    HW217277   4.293   2.352   1.110 -0.9301  1.3951 -0.1330
 1940SOL     OW17278   2.307   1.632  10.373  0.1499 -0.2605 -0.2605
 1940SOL    HW117279   2.317   1.589  10.288  2.3024  1.8530 -1.0852
 1940SOL    HW217280   2.323   1.558  10.432 -1.5568 -2.3210 -2.4056
 1941SOL     OW17281   2.595   1.481  12.324  0.3127 -0.2828 -0.2253
 1941SOL    HW117282   2.618   1.412  12.263 -0.9033 -0.8252 -0.0526
 1941SOL    HW217283   2.505   1.453  12.341 -0.1506  0.3919 -1.5880
 1942SOL     OW17284   2.666   3.010   8.666  0.3172  0.5779  0.6587
 1942SOL    HW117285   2.697   3.090   8.709 -1.0051  0.4149  1.8761
 1942SOL    HW217286   2.581   3.043   8.639  1.2168 -0.2155 -3.1234
 1943SOL     OW17287   2.615   2.861   2.372  0.2379 -1.0760  0.2412
 1943SOL    HW117288   2.547   2.805   2.335 -0.6272  0.6171 -0.7820
 1943SOL    HW217289   2.582   2.875   2.461 -0.5469  0.0329 -0.2199
 1944SOL     OW17290   0.061   1.366   1.109  0.1566 -0.0980 -0.8833
 1944SOL    HW117291   0.122   1.388   1.179 -0.7023 -0.4490 -0.0206
 1944SOL    HW217292   0.014   1.299   1.158 -0.4155  0.9336 -0.0106
 1945SOL     OW17293   2.384   1.331   4.547  0.4355  0.0518  0.2590
 1945SOL    HW117294   2.441   1.377   4.609 -0.0596 -1.1266  1.5964
 1945SOL    HW217295   2.380   1.399   4.481 -1.0066  1.5150  1.8553
 1946SOL     OW17296   2.345   2.427   7.863  0.2554  0.0959 -0.3238
 1946SOL    HW117297   2.372   2.452   7.775  0.9467  0.3127 -0.0513
 1946SOL    HW217298   2.253   2.405   7.847 -0.3291  2.8148 -0.6490
 1947SOL     OW17299   0.810   0.535   2.468  0.0708  0.4668 -0.5880
 1947SOL    HW117300   0.718   0.551   2.444 -0.4307 -1.9071 -0.2454
 1947SOL    HW217301   0.861   0.609   2.435 -0.0526  0.2484 -1.2754
 1948SOL     OW17302   4.444   0.273   0.708 -0.8330 -0.3390  0.5656
 1948SOL    HW117303   4.454   0.364   0.678  3.1390 -0.2753  2.0766
 1948SOL    HW217304   4.380   0.238   0.645  0.1515 -0.1494 -0.5373
 1949SOL     OW17305   3.424   0.733   7.687  0.1042  0.3697  0.4093
 1949SOL    HW117306   3.331   0.722   7.669 -0.0587  2.5932 -0.1508
 1949SOL    HW217307   3.446   0.671   7.756 -0.5019  1.7103  1.8014
 1950SOL     OW17308   2.789   2.788   9.952  0.2663 -0.4748 -0.4230
 1950SOL    HW117309   2.861   2.787   9.888  1.0939  3.4258  0.4843
 1950SOL    HW217310   2.762   2.880   9.957 -2.8921 -1.3931 -0.6025
 1951SOL     OW17311   1.200   0.770  17.414  0.1249 -0.0288 -0.3990
 1951SOL    HW117312   1.169   0.857  17.388  0.3925 -0.2396 -1.4434
 1951SOL    HW217313   1.121   0.727  17.382  0.0758  0.1919 -0.5772
 1952SOL     OW17314   2.256   3.597   8.413 -0.0446  0.4381 -0.1492
 1952SOL    HW117315   2.296   3.550   8.340 -2.2138  1.2087 -1.8570
 1952SOL    HW217316   2.201   3.654   8.359  2.3366 -0.1601 -3.2031
 1953SOL     OW17317   0.850   3.500   1.936  0.4625  0.5373 -0.5047
 1953SOL    HW117318   0.770   3.552   1.935  0.6602  0.8768  1.7432
 1953SOL    HW217319   0.878   3.477   1.847 -2.4398 -0.4910 -1.1401
 1954SOL     OW17320   3.565   1.965   2.866 -0.3061 -0.1061  0.1139
 1954SOL    HW117321   3.551   1.956   2.960 -1.0296  1.1010  0.1164
 1954SOL    HW217322   3.637   1.903   2.851  2.1232  2.5889  0.7644
 1955SOL     OW17323   2.299   1.575  11.470 -0.5487  0.1662  0.2487
 1955SOL    HW117324   2.222   1.548  11.520  1.2140  0.4904  3.1262
 1955SOL    HW217325   2.266   1.611  11.388 -1.7119 -2.5454 -0.4940
 1956SOL     OW17326   0.671   1.694   3.139 -0.5979  0.6727 -0.0721
 1956SOL    HW117327   0.579   1.712   3.122 -1.2421 -1.0132  1.5644
 1956SOL    HW217328   0.665   1.614   3.192 -0.3195  0.5448 -0.2339
 1957SOL     OW17329   2.519   3.695  12.089 -0.4258 -0.1073  0.5038
 1957SOL    HW117330   2.472   3.667  12.011  1.1222  0.2643 -0.5612
 1957SOL    HW217331   2.498   3.621  12.146 -4.8192 -0.2873 -1.3369
 1958SOL     OW17332   4.191   2.881   8.450 -0.0415  0.0681  0.1691
 1958SOL    HW117333   4.287   2.873   8.451  0.1840  2.7448 -0.8865
 1958SOL    HW217334   4.177   2.937   8.374  0.1136  0.7405  0.6333
 1959SOL     OW17335   0.405   3.359   8.090 -0.3474  0.1100 -0.1490
 1959SOL    HW117336   0.433   3.367   8.182 -1.8544  0.3574  0.2750
 1959SOL    HW217337   0.382   3.448   8.065  3.0665  1.5647  1.9257
 1960SOL     OW17338   0.068   1.999  13.483  0.4272  0.4658  0.0593
 1960SOL    HW117339   0.105   1.946  13.412  2.4020  1.2610  0.4913
 1960SOL    HW217340   4.708   2.026  13.443 -0.5500 -2.1167  0.3521
 1961SOL     OW17341   0.951   2.114   4.693 -0.7087 -0.2133 -0.0385
 1961SOL    HW117342   0.874   2.171   4.685 -2.3624 -2.5233 -0.5833
 1961SOL    HW217343   0.938   2.075   4.779 -1.2403 -0.7703 -0.3763
 1962SOL     OW17344   1.130   1.947  12.220  0.2504 -0.6785 -0.0593
 1962SOL    HW117345   1.155   2.026  12.172 -0.3008 -1.6600 -1.9670
 1962SOL    HW217346   1.134   1.875  12.157 -0.1617 -1.6142  0.9883
 1963SOL     OW17347   2.821   3.105  16.952 -0.3088  0.2832 -0.8188
 1963SOL    HW117348   2.850   3.177  16.897 -1.1103 -0.8078 -2.6497
 1963SOL    HW217349   2.750   3.147  17.000 -0.9429 -1.8815  0.1340
 1964SOL     OW17350   2.645   3.139  12.979  0.1022 -0.3100  0.9594
 1964SOL    HW117351   2.671   3.212  13.035 -0.7812 -0.3265  1.4093
 1964SOL    HW217352   2.713   3.082  13.015  0.7714  0.9753  1.7100
 1965SOL     OW17353   2.830   2.249   8.501 -0.0473  0.3396 -0.4050
 1965SOL    HW117354   2.871   2.271   8.417  2.2051 -0.4247  0.5048
 1965SOL    HW217355   2.742   2.245   8.464 -0.3634 -0.9838  0.4833
 1966SOL     OW17356   2.175   4.489   2.402  0.0671  0.1187  0.5207
 1966SOL    HW117357   2.097   4.475   2.349  1.5559  3.2357 -2.4923
 1966SOL    HW217358   2.205   4.400   2.386 -2.6255 -0.4362 -1.4537
 1967SOL     OW17359   0.454   4.126   1.950  0.5176  0.0237  0.1334
 1967SOL    HW117360   0.490   4.082   2.027 -1.7117  0.6427  1.5099
 1967SOL    HW217361   0.522   4.086   1.894 -0.5094 -1.7758  0.1593
 1968SOL     OW17362   3.140   4.075  12.704  0.2600  0.2520  0.3189
 1968SOL    HW117363   3.091   4.098  12.626 -0.1237 -1.6691 -0.0058
 1968SOL    HW217364   3.183   4.158  12.727 -0.2961  1.4843 -3.2286
 1969SOL     OW17365   4.114   2.801   4.187 -0.1440 -0.2960  0.2825
 1969SOL    HW117366   4.019   2.806   4.186 -0.0225  1.9555  0.9032
 1969SOL    HW217367   4.138   2.834   4.273  0.4495  0.3699 -0.1405
 1970SOL     OW17368   1.150   3.281   8.485 -0.1618  0.2050 -0.1006
 1970SOL    HW117369   1.059   3.279   8.516  0.0152  2.4545  0.5900
 1970SOL    HW217370   1.188   3.204   8.527 -1.2665 -0.2786  0.0161
 1971SOL     OW17371   1.959   3.186  12.885 -0.0713 -0.2263 -0.1229
 1971SOL    HW117372   1.988   3.121  12.949 -0.6681 -0.0300  0.3441
 1971SOL    HW217373   2.012   3.262  12.906 -1.2545  0.3613  0.7484
 1972SOL     OW17374   3.655   2.473   6.281  0.6482 -0.7649  0.4120
 1972SOL    HW117375   3.730   2.532   6.287 -0.4198  0.6782 -0.5325
 1972SOL    HW217376   3.674   2.408   6.349  0.5623  1.6024  2.6861
 1973SOL     OW17377   2.895   1.832  15.286  0.4815  0.2950 -0.4069
 1973SOL    HW117378   2.951   1.776  15.233 -0.0205 -0.9680  0.3963
 1973SOL    HW217379   2.823   1.860  15.230 -0.8352  0.5171  1.3661
 1974SOL     OW17380   3.214   3.839   8.230  0.3874  0.2878 -0.5586
 1974SOL    HW117381   3.211   3.880   8.144  1.5224  1.1280 -0.1892
 1974SOL    HW217382   3.126   3.803   8.238  0.9701 -1.1021 -0.3958
 1975SOL     OW17383   4.558   2.593   2.329  0.1942 -0.4141  0.1058
 1975SOL    HW117384   4.557   2.687   2.347 -1.8184 -0.5642  0.7813
 1975SOL    HW217385   4.513   2.578   2.246 -1.9035 -2.3806  1.6099
 1976SOL     OW17386   1.244   3.789  17.254  0.1540  0.3696  0.2518
 1976SOL    HW117387   1.243   3.855  17.324 -2.3998  1.0955 -0.4730
 1976SOL    HW217388   1.333   3.757  17.270 -0.0928 -0.4407 -0.0283
 1977SOL     OW17389   2.657   1.927   5.869 -0.4859  0.0112  0.2298
 1977SOL    HW117390   2.638   1.999   5.929 -1.6240 -2.4696  2.8471
 1977SOL    HW217391   2.700   1.981   5.803 -2.1260  1.7089  0.5579
 1978SOL     OW17392   1.906   3.276   7.775 -0.2909 -0.4790 -0.0160
 1978SOL    HW117393   1.989   3.301   7.814 -0.4219  0.6027 -0.4317
 1978SOL    HW217394   1.930   3.242   7.689 -2.8438 -2.1419 -0.0789
 1979SOL     OW17395   4.534   2.138  10.232  0.1024  0.1641  0.7541
 1979SOL    HW117396   4.603   2.115  10.294 -0.9226 -2.5565  0.8797
 1979SOL    HW217397   4.472   2.066  10.238 -0.0212  0.0821 -1.3547
 1980SOL     OW17398   1.223   1.530   1.884  0.0040  0.7383 -0.8884
 1980SOL    HW117399   1.307   1.493   1.858 -0.7955 -2.6773  1.3934
 1980SOL    HW217400   1.182   1.444   1.890  3.2451 -0.8969 -2.0499
 1981SOL     OW17401   0.958   2.183   3.056  0.1155 -0.0505 -0.4643
 1981SOL    HW117402   0.909   2.239   3.117  0.8035 -0.2577  0.2857
 1981SOL    HW217403   0.894   2.180   2.985  0.0038  0.0228 -0.3684
 1982SOL     OW17404   0.874   1.397   6.375 -0.1047  0.2871  0.9650
 1982SOL    HW117405   0.893   1.303   6.369  0.3631  0.5068 -1.0747
 1982SOL    HW217406   0.843   1.407   6.465  0.1603 -0.6572  1.1693
 1983SOL     OW17407   0.957   2.768   5.079 -0.0867  0.6472 -0.0512
 1983SOL    HW117408   0.978   2.680   5.047  4.0340  0.7012  2.4686
 1983SOL    HW217409   1.036   2.810   5.046 -1.2063  0.5157 -2.9094
 1984SOL     OW17410   3.767   3.220   5.636  0.1837  0.2759 -0.0904
 1984SOL    HW117411   3.730   3.305   5.661  3.2489  1.6737 -0.1913
 1984SOL    HW217412   3.858   3.250   5.646  0.3565  0.1815 -1.3160
 1985SOL     OW17413   3.664   0.078  14.753 -0.4553 -0.1703  0.2778
 1985SOL    HW117414   3.702   0.159  14.717 -1.3482 -0.4167 -1.2288
 1985SOL    HW217415   3.669   0.024  14.674 -0.9092  2.1662 -1.3610
 1986SOL     OW17416   1.914   2.086   9.388  0.2613  0.4642  0.0774
 1986SOL    HW117417   1.873   2.171   9.401 -1.5536 -0.2986 -0.5303
 1986SOL    HW217418   1.839   2.036   9.356  0.7705 -0.9999  1.1545
 1987SOL     OW17419   2.835   1.155   7.198 -0.4946  0.3530  0.1346
 1987SOL    HW117420   2.911   1.210   7.218  0.7599 -1.1504 -0.4474
 1987SOL    HW217421   2.798   1.202   7.123 -2.4963  1.9972  2.1814
 1988SOL     OW17422   4.710   3.384  16.258  0.2878  0.2844  0.3936
 1988SOL    HW117423   4.632   3.432  16.230  0.6699  0.0209 -1.1451
 1988SOL    HW217424   4.685   3.294  16.234 -2.0535  1.0581 -0.0508
 1989SOL     OW17425   4.613   2.344  15.380 -0.3522  1.1417  0.3633
 1989SOL    HW117426   4.645   2.388  15.302  0.1619 -1.5867 -0.9716
 1989SOL    HW217427   4.631   2.411  15.446  1.1746 -0.3247  1.4446
 1990SOL     OW17428   1.405   3.096   4.322  0.3192  0.4909  0.9127
 1990SOL    HW117429   1.323   3.083   4.275  0.5934  0.1519  0.5296
 1990SOL    HW217430   1.461   3.129   4.252 -0.5200 -0.1836 -0.0677
 1991SOL     OW17431   1.566   1.235  11.707 -0.1754  0.4840  0.1659
 1991SOL    HW117432   1.567   1.164  11.771 -0.8382 -0.5706 -0.9858
 1991SOL    HW217433   1.517   1.189  11.639  1.4815 -0.4173 -0.4198
 1992SOL     OW17434   2.641   1.625   2.885  0.0795 -0.1637  0.3024
 1992SOL    HW117435   2.673   1.699   2.937 -0.6470 -0.1706  0.7452
 1992SOL    HW217436   2.707   1.614   2.816 -0.6242 -0.9453 -0.2411
 1993SOL     OW17437   2.345   2.391  15.065 -0.4600 -0.0001  0.3166
 1993SOL    HW117438   2.329   2.322  15.129  0.0533 -0.4273 -0.0198
 1993SOL    HW217439   2.418   2.429  15.114 -0.3742  1.8042 -1.2123
 1994SOL     OW17440   4.119   2.407  11.180 -0.0318  1.0585 -0.2792
 1994SOL    HW117441   4.140   2.328  11.131 -2.5186  1.4783 -2.0261
 1994SOL    HW217442   4.099   2.466  11.107 -1.5771 -0.2718 -0.9412
 1995SOL     OW17443   4.180   3.096  10.846 -0.1875  0.2651  0.0312
 1995SOL    HW117444   4.140   3.160  10.905  0.3154  0.3077  0.3269
 1995SOL    HW217445   4.268   3.131  10.860  0.4262 -0.1024 -2.9582
 1996SOL     OW17446   2.175   4.501   1.650  0.1202 -0.2027 -0.1605
 1996SOL    HW117447   2.137   4.417   1.675 -0.5146  0.1981  0.2149
 1996SOL    HW217448   2.098   4.556   1.661 -1.9012 -2.7272 -1.8021
 1997SOL     OW17449   3.732   4.323   6.991 -0.6638 -0.6935  0.1427
 1997SOL    HW117450   3.769   4.243   7.027 -0.5009 -0.4073  0.6083
 1997SOL    HW217451   3.791   4.393   7.022 -0.3717 -1.7072  1.8653
 1998SOL     OW17452   0.518   2.204  13.061 -0.2469  0.2603  0.6322
 1998SOL    HW117453   0.463   2.142  13.012  1.6165  0.0725 -1.2019
 1998SOL    HW217454   0.458   2.278  13.074  0.3082  0.2645  3.0248
 1999SOL     OW17455   1.915   2.205   4.108  0.3937  0.7219 -0.4146
 1999SOL    HW117456   1.921   2.268   4.180  1.3470  0.5827 -0.3747
 1999SOL    HW217457   1.823   2.210   4.083 -0.1268 -1.6480  0.9859
 2000SOL     OW17458   1.729   2.000  12.006 -0.2890 -0.1397  0.7969
 2000SOL    HW117459   1.724   1.940  11.932  0.9629 -1.9073  2.1180
 2000SOL    HW217460   1.682   1.959  12.079 -0.1464 -2.0636 -0.1846
 2001SOL     OW17461   3.071   0.987   1.853 -0.1802  0.3468 -0.1384
 2001SOL    HW117462   2.996   0.971   1.796 -0.8177 -0.2841  0.8684
 2001SOL    HW217463   3.027   1.016   1.933 -0.9591  2.0354 -1.1883
 2002SOL     OW17464   1.004   2.918   1.454 -0.4395  0.3427 -0.0993
 2002SOL    HW117465   0.957   2.872   1.524 -1.4693  3.3275  1.1739
 2002SOL    HW217466   1.071   2.961   1.507 -0.0051 -0.8946  0.3516
 2003SOL     OW17467   0.270   0.600   7.689 -0.7507  0.2415  0.3444
 2003SOL    HW117468   0.318   0.525   7.655 -0.6656  0.3144  0.3024
 2003SOL    HW217469   0.343   0.646   7.731  1.0738 -1.3932 -0.9947
 2004SOL     OW17470   3.801   4.480   9.299 -0.0700  0.2242 -0.1905
 2004SOL    HW117471   3.803   4.572   9.327 -0.3152  0.7365 -1.8654
 2004SOL    HW217472   3.810   4.443   9.386  0.8675  0.2356 -0.2805
 2005SOL     OW17473   1.019   1.275   0.634  0.1386 -0.4742 -0.4298
 2005SOL    HW117474   1.079   1.305   0.703  0.2706  2.0213 -1.5992
 2005SOL    HW217475   0.992   1.364   0.609 -2.4050 -1.2904 -0.5472
 2006SOL     OW17476   3.311   4.197  10.335  0.2924 -0.1608 -1.0766
 2006SOL    HW117477   3.244   4.256  10.370  0.7100 -0.4393  0.1948
 2006SOL    HW217478   3.375   4.258  10.297  1.6761 -0.9916 -0.0815
 2007SOL     OW17479   1.888   3.111   8.038 -0.1037 -0.5742 -0.8426
 2007SOL    HW117480   1.822   3.180   8.037  0.9028  0.3685 -2.8602
 2007SOL    HW217481   1.963   3.159   8.002 -0.4619  0.1612 -0.6256
 2008SOL     OW17482   4.420   2.138   2.056  0.3778  0.3038  0.0496
 2008SOL    HW117483   4.506   2.096   2.068 -0.5569 -0.9995  2.2822
 2008SOL    HW217484   4.439   2.195   1.982  0.0543  1.7430  1.0932
 2009SOL     OW17485   1.456   2.175  10.744  0.2525  0.2474  0.0288
 2009SOL    HW117486   1.484   2.256  10.700  0.4043  0.6168  0.8136
 2009SOL    HW217487   1.482   2.192  10.834 -1.2055  1.7406  0.1647
 2010SOL     OW17488   1.713   4.152   6.896 -0.0645 -0.2501  0.1769
 2010SOL    HW117489   1.777   4.175   6.829  0.3700 -2.5827 -0.2052
 2010SOL    HW217490   1.704   4.230   6.951  0.7926  0.3230 -0.4950
 2011SOL     OW17491   2.062   2.647  10.196 -0.1205 -0.3583  0.2273
 2011SOL    HW117492   2.020   2.645  10.282 -0.3406 -1.1100  0.0991
 2011SOL    HW217493   2.020   2.567  10.163 -2.6320 -0.2233  3.0790
 2012SOL     OW17494   0.866   3.490   7.121  0.0808  0.0535  0.1405
 2012SOL    HW117495   0.953   3.467   7.153  0.4664 -0.3739 -1.2172
 2012SOL    HW217496   0.870   3.585   7.127 -0.6771  0.1035 -0.1810
 2013SOL     OW17497   3.119   3.147   7.138  0.6027 -0.3214 -0.1122
 2013SOL    HW117498   3.085   3.058   7.152 -2.3622  1.0026  1.1540
 2013SOL    HW217499   3.051   3.191   7.086  1.5736 -0.4372 -1.4842
 2014SOL     OW17500   2.295   3.225  12.559 -0.5221  0.5456  0.1420
 2014SOL    HW117501   2.206   3.220  12.522  0.8696  0.4087 -3.2355
 2014SOL    HW217502   2.281   3.184  12.644  0.8775 -0.5876 -0.1821
 2015SOL     OW17503   3.065   3.829  14.429  0.3718 -0.1479  0.1921
 2015SOL    HW117504   3.054   3.917  14.466  0.9299  0.2691 -0.6201
 2015SOL    HW217505   3.097   3.855  14.342 -0.3134 -0.6086 -0.2009
 2016SOL     OW17506   1.268   3.440   6.257  0.2806 -0.1726 -0.4527
 2016SOL    HW117507   1.261   3.428   6.163  0.7097  0.2811 -0.5376
 2016SOL    HW217508   1.362   3.430   6.272  0.5646  1.5438 -1.1276
 2017SOL     OW17509   3.146   3.025   3.585 -0.1397  0.6256  0.0210
 2017SOL    HW117510   3.163   3.087   3.655 -1.1285 -0.1069  0.9137
 2017SOL    HW217511   3.233   2.986   3.593 -0.3973  0.4661  1.9953
 2018SOL     OW17512   1.714   4.029  10.263  0.9801 -0.0494 -0.3870
 2018SOL    HW117513   1.711   3.934  10.250 -0.9877 -0.1490  0.7799
 2018SOL    HW217514   1.799   4.054  10.228  0.7371 -0.2170 -1.1107
 2019SOL     OW17515   2.990   1.221  10.876  0.3454 -0.2484  0.2625
 2019SOL    HW117516   2.945   1.139  10.853  0.5631 -0.4872  0.6904
 2019SOL    HW217517   3.072   1.176  10.898  1.3807  1.5383  0.0125
 2020SOL     OW17518   4.544   3.686   6.506 -0.1907 -0.2710 -0.1660
 2020SOL    HW117519   4.585   3.716   6.587  0.0402 -0.9593 -0.0285
 2020SOL    HW217520   4.520   3.772   6.472  0.5532  0.5948  1.4997
 2021SOL     OW17521   0.702   2.706   8.608 -0.8505  0.7685  0.3577
 2021SOL    HW117522   0.723   2.644   8.678  2.2339  1.1251 -0.2544
 2021SOL    HW217523   0.609   2.686   8.596 -0.7304  2.3045 -2.9852
 2022SOL     OW17524   1.582   3.338   4.663  0.0667 -0.0242 -0.1251
 2022SOL    HW117525   1.538   3.268   4.712  0.4920  0.7761  1.4096
 2022SOL    HW217526   1.532   3.417   4.686 -0.5295  0.1806 -2.1118
 2023SOL     OW17527   4.252   4.079   0.320  0.6499  0.3347 -0.2669
 2023SOL    HW117528   4.297   4.144   0.373 -0.1980 -0.4194  1.3818
 2023SOL    HW217529   4.204   4.133   0.257 -2.2502 -0.1141  1.5416
 2024SOL     OW17530   4.114   0.950   7.938 -0.5071  0.0431 -0.7855
 2024SOL    HW117531   4.165   0.896   7.999 -1.2353 -0.6393 -0.7784
 2024SOL    HW217532   4.047   0.989   7.994  0.3092 -2.8993  2.2400
 2025SOL     OW17533   1.929   1.294   3.823  0.2165  0.5663  0.3979
 2025SOL    HW117534   1.868   1.220   3.819 -0.2396  0.9495  0.2736
 2025SOL    HW217535   1.911   1.333   3.737  0.2804 -0.7345 -0.2112
 2026SOL     OW17536   1.603   3.344  10.943 -0.2410 -0.1337 -0.3044
 2026SOL    HW117537   1.690   3.305  10.946 -0.3963 -0.4214  0.4241
 2026SOL    HW217538   1.599   3.396  10.863  1.8709  1.6377  0.7226
 2027SOL     OW17539   0.152   3.586   6.466 -0.0796 -0.1034  0.3285
 2027SOL    HW117540   0.105   3.625   6.540  0.4318 -0.1699  0.6887
 2027SOL    HW217541   0.089   3.516   6.449  1.1198 -1.2444  0.5732
 2028SOL     OW17542   4.219   2.344   7.475 -0.6080 -0.0159  0.3776
 2028SOL    HW117543   4.216   2.249   7.460 -0.2654  0.1401 -0.6676
 2028SOL    HW217544   4.315   2.348   7.475 -0.4689 -3.0505 -0.7564
 2029SOL     OW17545   4.665   4.396   1.834 -0.0328  0.1936  0.0850
 2029SOL    HW117546   4.610   4.474   1.828  0.1882  0.3471  0.0330
 2029SOL    HW217547   4.708   4.404   1.919  1.3630 -2.1838 -0.4099
 2030SOL     OW17548   2.943   0.989   5.589  0.2013 -0.1779  0.4614
 2030SOL    HW117549   2.988   1.056   5.538 -1.3707  0.3532 -0.2365
 2030SOL    HW217550   3.008   0.988   5.659  0.2141 -1.9922  0.4197
 2031SOL     OW17551   2.165   4.331   5.418 -0.1639  0.3401 -0.0549
 2031SOL    HW117552   2.077   4.301   5.395 -1.0679  2.5336  0.5464
 2031SOL    HW217553   2.145   4.388   5.492 -0.4219 -0.6038  0.6094
 2032SOL     OW17554   2.499   4.149   7.854  0.4391  0.3252  0.3281
 2032SOL    HW117555   2.592   4.125   7.860  1.0082  2.7812  1.1571
 2032SOL    HW217556   2.461   4.105   7.930  0.5358  0.3749  0.4057
 2033SOL     OW17557   4.722   0.263  11.110 -0.5672  0.2822  0.2506
 2033SOL    HW117558   0.063   0.316  11.158 -1.0306 -2.3243  3.6927
 2033SOL    HW217559   4.648   0.299  11.159 -0.7165  0.7137 -0.2826
 2034SOL     OW17560   2.728   2.966   4.001  0.1517  0.3290 -0.3793
 2034SOL    HW117561   2.655   2.904   4.000  1.0094 -0.6936  0.1472
 2034SOL    HW217562   2.793   2.934   3.939 -1.6013  1.0301 -2.5568
 2035SOL     OW17563   1.254   3.779  14.297  0.5331  0.0401 -0.4451
 2035SOL    HW117564   1.169   3.745  14.271 -0.6108  0.5678  2.5449
 2035SOL    HW217565   1.233   3.870  14.318 -0.1247  0.3773 -2.6401
 2036SOL     OW17566   4.036   0.034   1.047  0.5030  0.3771  0.3314
 2036SOL    HW117567   4.042   4.662   1.031 -0.0593  0.1734  1.3063
 2036SOL    HW217568   4.109   0.067   0.995  0.8605  1.8380  1.7657
 2037SOL     OW17569   1.505   3.956   9.731 -0.3938  0.1139  0.0833
 2037SOL    HW117570   1.464   4.041   9.718  1.8153  1.2203  0.4140
 2037SOL    HW217571   1.527   3.963   9.824 -2.4643  3.0592  0.3343
 2038SOL     OW17572   0.868   4.080   5.865  0.0460  0.4443 -0.4476
 2038SOL    HW117573   0.945   4.135   5.874  1.0604 -1.1492  0.6816
 2038SOL    HW217574   0.811   4.105   5.939  0.1244 -1.0465  0.1155
 2039SOL     OW17575   4.367   1.270  17.489 -0.0712 -0.4780  0.3646
 2039SOL    HW117576   4.282   1.286  17.447  0.0195 -1.2753 -0.1207
 2039SOL    HW217577   4.405   1.358  17.491  0.3543 -0.6457 -0.4878
 2040SOL     OW17578   1.480   3.449   2.511 -0.4831 -0.2212 -0.3327
 2040SOL    HW117579   1.394   3.421   2.542  0.2582 -0.9697  1.0831
 2040SOL    HW217580   1.526   3.460   2.595 -1.6922 -1.4735  0.4813
 2041SOL     OW17581   4.622   1.057  10.807  0.2537 -0.0035 -0.2766
 2041SOL    HW117582   4.633   1.144  10.846  3.1602 -1.0192  1.1572
 2041SOL    HW217583   4.622   1.007  10.888  0.3630  0.3501 -0.0559
 2042SOL     OW17584   0.735   1.018   6.047  0.7800  0.1552  0.6153
 2042SOL    HW117585   0.700   1.107   6.039  1.8891  0.4429 -0.9905
 2042SOL    HW217586   0.652   0.976   6.026  1.8541 -2.1458  0.9622
 2043SOL     OW17587   3.638   3.353   7.662  0.3413 -0.0995 -0.0272
 2043SOL    HW117588   3.558   3.348   7.609 -1.0635  0.1729  2.0957
 2043SOL    HW217589   3.669   3.263   7.661  0.8140  0.0762 -1.4038
 2044SOL     OW17590   3.068   4.216   9.553 -0.0721 -0.1571  0.5889
 2044SOL    HW117591   3.045   4.181   9.467 -0.4484  0.3080  0.4991
 2044SOL    HW217592   3.155   4.181   9.570  0.9446  0.9345 -2.4402
 2045SOL     OW17593   1.631   4.556   7.246  0.1779  0.4605 -0.3249
 2045SOL    HW117594   1.586   4.496   7.305 -0.7232  3.1323  1.7084
 2045SOL    HW217595   1.637   4.630   7.306  0.2161  1.2768 -1.3275
 2046SOL     OW17596   3.167   3.254  17.084 -0.0831  0.0689  0.0193
 2046SOL    HW117597   3.196   3.224  16.998 -0.4291 -0.4585  0.0829
 2046SOL    HW217598   3.210   3.195  17.147 -1.4477 -1.4145 -0.4362
 2047SOL     OW17599   0.913   1.339  10.291 -0.2263  0.2473 -0.4460
 2047SOL    HW117600   0.914   1.372  10.381  2.6648 -1.3841  0.1302
 2047SOL    HW217601   0.998   1.371  10.260 -1.9556  1.3855 -4.0631
 2048SOL     OW17602   1.271   4.235   2.858  0.0150 -0.0722 -0.5004
 2048SOL    HW117603   1.347   4.282   2.891  0.2634 -1.4492  0.8909
 2048SOL    HW217604   1.204   4.286   2.902  0.0519  0.6786 -1.3170
 2049SOL     OW17605   1.149   4.283   6.194 -0.2330  0.0936  0.0150
 2049SOL    HW117606   1.077   4.226   6.219 -1.4464  2.5039  1.9752
 2049SOL    HW217607   1.223   4.222   6.188 -0.1233  0.1573  0.8022
 2050SOL     OW17608   0.009   0.653   5.100 -0.7761 -0.2651 -0.2310
 2050SOL    HW117609   0.103   0.665   5.091 -0.6460 -0.5604  0.7893
 2050SOL    HW217610   0.002   0.643   5.005  0.5287  0.1803 -0.3656
 2051SOL     OW17611   1.537   4.107  14.110  0.0992  0.4213  0.6148
 2051SOL    HW117612   1.599   4.055  14.162 -0.7100 -1.8080 -0.6256
 2051SOL    HW217613   1.485   4.139  14.184 -1.5807  0.7252 -0.7119
 2052SOL     OW17614   2.507   1.261  12.024 -0.2870  0.1898 -0.1277
 2052SOL    HW117615   2.416   1.289  12.035  0.2776  1.0925  2.3098
 2052SOL    HW217616   2.513   1.258  11.929 -0.8298 -3.5091 -0.0463
 2053SOL     OW17617   4.706   3.120   6.372  0.4851 -0.0456  0.1148
 2053SOL    HW117618   0.005   3.028   6.360  1.9779  0.1743  1.0638
 2053SOL    HW217619   4.611   3.113   6.384  0.2421  0.5972 -1.4668
 2054SOL     OW17620   4.083   4.053   6.738 -0.0553  0.3412  0.5571
 2054SOL    HW117621   4.004   4.009   6.709 -0.8547  1.0046  1.7202
 2054SOL    HW217622   4.053   4.142   6.720 -1.7501 -0.2186  0.6956
 2055SOL     OW17623   1.493   3.674  17.199  0.5741  0.2899  0.2040
 2055SOL    HW117624   1.573   3.678  17.146  0.8751  0.8636  0.7028
 2055SOL    HW217625   1.530   3.656  17.285 -0.9309  0.0775  0.8037
 2056SOL     OW17626   4.530   3.785   7.215 -0.1911 -0.3949  0.2179
 2056SOL    HW117627   4.485   3.865   7.189  0.1412  0.5328  2.5209
 2056SOL    HW217628   4.537   3.736   7.133  0.0682 -1.1842  0.7024
 2057SOL     OW17629   1.528   4.455   3.911  0.0740  0.2281 -0.3520
 2057SOL    HW117630   1.538   4.394   3.839 -2.0693  0.2910 -0.6899
 2057SOL    HW217631   1.615   4.496   3.913  1.2792 -2.3135 -0.0369
 2058SOL     OW17632   3.829   1.687   3.829  0.3156 -0.4674  0.6929
 2058SOL    HW117633   3.813   1.594   3.848 -2.2919  0.0060  0.8454
 2058SOL    HW217634   3.856   1.711   3.917  0.0351 -0.6452  0.8300
 2059SOL     OW17635   2.996   3.194  11.337 -0.3164  0.4855  0.1126
 2059SOL    HW117636   2.933   3.156  11.397  0.8590 -0.6995  0.5976
 2059SOL    HW217637   2.968   3.285  11.326 -1.5186  0.2476  1.1811
 2060SOL     OW17638   1.276   0.554   2.241 -0.2714  0.1178 -0.0290
 2060SOL    HW117639   1.370   0.547   2.255 -0.0711  1.5287 -0.5981
 2060SOL    HW217640   1.255   0.644   2.216  2.3071  0.0479 -2.4721
 2061SOL     OW17641   2.319   2.938   8.339 -0.4984  0.4701 -0.2477
 2061SOL    HW117642   2.278   2.894   8.413 -0.1165 -0.6504 -0.7005
 2061SOL    HW217643   2.276   3.023   8.345 -1.1266  0.2065 -0.9203
 2062SOL     OW17644   1.039   0.656  11.146 -0.1358  0.5854  0.5216
 2062SOL    HW117645   1.077   0.728  11.096  2.2212 -0.8166  0.2693
 2062SOL    HW217646   1.009   0.604  11.072  1.1076  0.8959 -0.2060
 2063SOL     OW17647   1.155   0.982   9.264  0.1301  0.3285  0.3006
 2063SOL    HW117648   1.177   1.073   9.285 -1.6590  1.0295 -0.8802
 2063SOL    HW217649   1.116   0.990   9.177 -0.3349 -1.1382  0.3709
 2064SOL     OW17650   1.533   0.356   5.777 -0.2797  0.4064  0.4303
 2064SOL    HW117651   1.594   0.285   5.758  0.2813  0.6652  1.2789
 2064SOL    HW217652   1.516   0.325   5.866 -1.8178  1.4305  0.5087
 2065SOL     OW17653   3.474   4.583   5.175 -0.1837 -0.0556 -0.1782
 2065SOL    HW117654   3.492   4.652   5.239  0.6731  1.4055 -1.9917
 2065SOL    HW217655   3.481   4.499   5.219  0.1236 -0.6460 -1.3520
 2066SOL     OW17656   3.309   1.339   2.207 -0.2221  0.1126 -0.3145
 2066SOL    HW117657   3.224   1.300   2.230 -0.5008  0.5487 -0.6063
 2066SOL    HW217658   3.273   1.409   2.153 -0.2821 -0.2296 -0.7177
 2067SOL     OW17659   2.088   3.126   1.154 -0.0396 -0.2775  0.1504
 2067SOL    HW117660   2.148   3.099   1.223 -0.6839  1.1903  1.3005
 2067SOL    HW217661   2.008   3.147   1.203  0.4243  0.2020  0.6977
 2068SOL     OW17662   3.630   4.473   2.546  0.3934  0.3416  0.0735
 2068SOL    HW117663   3.683   4.437   2.617  0.1962  0.7509  0.4256
 2068SOL    HW217664   3.650   4.566   2.545 -0.1642  0.4500 -1.2812
 2069SOL     OW17665   1.755   1.538   3.008  0.2372  0.7152  0.0428
 2069SOL    HW117666   1.809   1.535   2.929 -3.5429 -0.6313 -2.5009
 2069SOL    HW217667   1.814   1.496   3.069 -0.2090 -2.7369 -1.9171
 2070SOL     OW17668   4.120   2.885  17.192  0.2760 -0.3385  0.2199
 2070SOL    HW117669   4.183   2.930  17.136 -1.3141 -2.0204 -2.9339
 2070SOL    HW217670   4.159   2.900  17.278  0.8115  0.4486 -0.1595
 2071SOL     OW17671   1.850   0.252   5.398  0.3703  0.2502  0.0021
 2071SOL    HW117672   1.789   0.183   5.428 -2.1981  1.6734 -1.9519
 2071SOL    HW217673   1.920   0.196   5.363 -0.9384 -1.0229 -0.6187
 2072SOL     OW17674   1.231   2.881   1.294 -0.2616 -0.6594  0.2170
 2072SOL    HW117675   1.146   2.870   1.338  0.5593  1.1289  2.2391
 2072SOL    HW217676   1.293   2.900   1.364 -0.7467  1.2977  0.1269
 2073SOL     OW17677   1.367   1.430  17.536 -0.2868  0.7765 -0.5016
 2073SOL    HW117678   1.450   1.383  17.535 -1.2531 -0.8803 -1.4517
 2073SOL    HW217679   1.366   1.465  17.626  1.3200  1.4128 -0.7335
 2074SOL     OW17680   1.292   0.879   8.004  0.5756  0.0306 -0.0410
 2074SOL    HW117681   1.205   0.920   8.005  1.3068  1.5522  2.2205
 2074SOL    HW217682   1.285   0.808   8.068  1.3818 -1.0874 -1.2189
 2075SOL     OW17683   2.210   0.054  13.316 -0.2063 -0.5398  0.0397
 2075SOL    HW117684   2.235   0.079  13.405  1.7045  1.8619 -1.1734
 2075SOL    HW217685   2.215   4.681  13.317 -0.1501 -0.5513 -1.7319
 2076SOL     OW17686   4.408   1.226   3.942 -0.4450  0.5744 -0.1712
 2076SOL    HW117687   4.348   1.185   3.879  1.8328 -0.0151 -1.9595
 2076SOL    HW217688   4.377   1.167   4.010 -0.4363 -0.3401 -0.9574
 2077SOL     OW17689   4.284   2.170  16.794 -0.8039  0.3519  0.3270
 2077SOL    HW117690   4.231   2.144  16.718  0.2319 -0.5414 -0.0870
 2077SOL    HW217691   4.268   2.265  16.792  2.7734  0.9905  2.1226
 2078SOL     OW17692   4.095   1.136   4.430  0.3437  0.2632 -0.6888
 2078SOL    HW117693   4.117   1.117   4.338 -3.4759 -0.4745 -1.4459
 2078SOL    HW217694   4.185   1.130   4.462 -0.7044 -1.9691  1.7836
 2079SOL     OW17695   0.216   0.836   6.734  0.0183  0.0481  0.2695
 2079SOL    HW117696   0.217   0.752   6.688 -0.0674  0.5307 -0.6185
 2079SOL    HW217697   0.308   0.846   6.759 -0.6341 -0.2072  2.7449
 2080SOL     OW17698   4.206   0.143   6.280 -0.7934  0.1154 -0.0797
 2080SOL    HW117699   4.231   0.226   6.241 -1.3729 -0.3519 -1.4706
 2080SOL    HW217700   4.155   0.101   6.211 -0.7408 -0.2621  0.1108
 2081SOL     OW17701   2.541   3.992   3.671 -0.2189  0.2632  0.3083
 2081SOL    HW117702   2.599   4.053   3.716 -0.8918  1.2349 -0.1455
 2081SOL    HW217703   2.551   4.023   3.581  1.8226  0.5888  0.6412
 2082SOL     OW17704   0.332   2.409   3.131 -0.3038  0.3426 -0.1261
 2082SOL    HW117705   0.236   2.408   3.141 -0.4523 -0.6100 -1.7023
 2082SOL    HW217706   0.345   2.500   3.157 -3.1124  0.5491  0.6295
 2083SOL     OW17707   2.109   1.966   7.787 -0.0814 -0.0465 -0.3629
 2083SOL    HW117708   2.117   1.876   7.755 -1.0226 -0.5590  0.8434
 2083SOL    HW217709   2.021   1.958   7.824  0.2490 -2.0343 -0.0105
 2084SOL     OW17710   2.853   3.777   6.662  0.6543 -0.4258  0.0917
 2084SOL    HW117711   2.770   3.778   6.614  0.4349  0.8611  0.4866
 2084SOL    HW217712   2.917   3.811   6.600 -0.4655 -1.9835 -1.8971
 2085SOL     OW17713   2.691   2.947  15.976  0.1147  0.2425  0.2388
 2085SOL    HW117714   2.613   2.895  15.993 -1.0281  2.5015  1.7974
 2085SOL    HW217715   2.690   2.952  15.880  1.9328  2.6107  0.3325
 2086SOL     OW17716   2.387   0.586   5.749 -0.4436 -0.1907 -0.2887
 2086SOL    HW117717   2.417   0.652   5.811 -0.3481 -0.3091 -0.2091
 2086SOL    HW217718   2.415   0.639   5.674  0.2310 -1.7884 -1.1852
 2087SOL     OW17719   1.959   1.321   2.667  0.1936 -0.4677 -0.1706
 2087SOL    HW117720   2.024   1.311   2.737 -1.5249  0.6942  1.6250
 2087SOL    HW217721   1.990   1.261   2.600 -0.8499  0.7650 -1.7605
 2088SOL     OW17722   1.801   0.602   5.120 -0.9063 -0.2856  0.3997
 2088SOL    HW117723   1.759   0.523   5.154  0.0008  0.2054  2.6719
 2088SOL    HW217724   1.841   0.634   5.201  2.5852  2.7293 -2.5329
 2089SOL     OW17725   4.522   4.480   8.059 -0.1443  0.2504 -0.5385
 2089SOL    HW117726   4.589   4.445   8.119 -1.4240 -0.2369  0.6004
 2089SOL    HW217727   4.448   4.484   8.120 -0.6410 -1.5856 -1.0369
 2090SOL     OW17728   3.903   3.302   3.023  0.0805  0.2467  0.3780
 2090SOL    HW117729   3.939   3.280   2.937  2.0432  0.3399  1.1768
 2090SOL    HW217730   3.835   3.236   3.032  1.0674 -0.7301  0.7085
 2091SOL     OW17731   4.097   0.755   8.924 -0.0073 -0.2591  0.2101
 2091SOL    HW117732   4.108   0.762   9.019 -2.5043  2.6176  0.2972
 2091SOL    HW217733   4.088   0.850   8.912 -0.1738 -0.1910  0.8561
 2092SOL     OW17734   1.897   0.636   2.244 -0.1114 -0.3337 -0.5696
 2092SOL    HW117735   1.822   0.689   2.218  0.1634 -0.7930 -2.2479
 2092SOL    HW217736   1.956   0.711   2.254  2.9736 -3.1598  2.4714
 2093SOL     OW17737   0.709   4.419  11.789 -0.3790 -0.0405  0.0167
 2093SOL    HW117738   0.670   4.350  11.843  0.1410  0.5726  1.1815
 2093SOL    HW217739   0.736   4.483  11.855 -1.0962 -0.4146  0.6779
 2094SOL     OW17740   0.031   4.077   8.887  0.2657  0.5764  0.6329
 2094SOL    HW117741   0.118   4.109   8.864  0.2286 -0.7467 -1.3283
 2094SOL    HW217742   4.704   4.106   8.810 -0.3262  0.8819  1.1275
 2095SOL     OW17743   4.681   2.557  15.538 -0.3985  0.4128  0.5576
 2095SOL    HW117744   0.035   2.593  15.494 -0.6532  0.5539  0.2314
 2095SOL    HW217745   4.708   2.551  15.630  1.1036 -1.9206 -0.0368
 2096SOL     OW17746   3.249   4.432   9.655 -0.5976 -0.4391  0.3175
 2096SOL    HW117747   3.210   4.345   9.667  1.3392 -1.1193  1.6208
 2096SOL    HW217748   3.262   4.427   9.560  2.7892  0.2398  0.7625
 2097SOL     OW17749   0.389   2.535   8.885 -0.1730  0.1214  0.2720
 2097SOL    HW117750   0.319   2.505   8.827  0.6433 -0.4673 -0.4081
 2097SOL    HW217751   0.348   2.543   8.971 -3.2128 -1.0338 -1.0891
 2098SOL     OW17752   0.425   2.903   8.316  0.8125 -0.3784  0.3563
 2098SOL    HW117753   0.462   2.828   8.363  0.5632 -2.3259 -2.5472
 2098SOL    HW217754   0.336   2.905   8.351  1.3158  2.1000  1.4531
 2099SOL     OW17755   1.808   0.415  14.187 -0.0683  0.3521  0.2115
 2099SOL    HW117756   1.784   0.337  14.238  0.7700  2.3081  3.5693
 2099SOL    HW217757   1.846   0.377  14.108 -0.9409  0.8011 -0.4295
 2100SOL     OW17758   4.137   3.913  14.647  0.4240 -0.3212  0.0953
 2100SOL    HW117759   4.120   3.903  14.740 -0.3515  2.2948  0.2513
 2100SOL    HW217760   4.181   3.998  14.647  0.1977 -0.2065  0.3155
 2101SOL     OW17761   3.604   1.339   7.818  0.0345 -0.6667 -0.0675
 2101SOL    HW117762   3.611   1.388   7.736  1.4610  0.3979  0.6880
 2101SOL    HW217763   3.512   1.316   7.811  0.5043 -2.8096  0.5180
 2102SOL     OW17764   1.664   3.674  10.840  0.6079 -0.1514 -0.3986
 2102SOL    HW117765   1.569   3.664  10.835  0.5522  0.2052 -0.0882
 2102SOL    HW217766   1.677   3.698  10.748  0.5139 -1.1442 -0.6733
 2103SOL     OW17767   2.783   1.006   3.829 -0.1178 -0.1417  0.4185
 2103SOL    HW117768   2.806   1.084   3.778 -2.8890  0.0286 -0.5463
 2103SOL    HW217769   2.705   0.971   3.786 -0.5128  1.6967 -0.3875
 2104SOL     OW17770   1.223   2.073   0.591 -0.2784 -0.3916 -0.3302
 2104SOL    HW117771   1.172   2.152   0.607  1.9613  0.9746  0.1064
 2104SOL    HW217772   1.308   2.114   0.572 -1.2801  1.4908 -0.7268
 2105SOL     OW17773   4.551   0.390   2.746 -0.3730 -0.2963 -0.0566
 2105SOL    HW117774   4.508   0.355   2.824  0.1841 -1.9651 -0.5039
 2105SOL    HW217775   4.574   0.314   2.693 -0.7082  0.8775 -1.9031
 2106SOL     OW17776   3.032   1.756   2.967  0.7138  0.5006  0.0137
 2106SOL    HW117777   3.121   1.782   2.988  0.8381 -0.8333  1.1430
 2106SOL    HW217778   3.046   1.701   2.891 -2.3836 -0.0551 -0.1558
 2107SOL     OW17779   4.616   2.229   2.981 -0.4272 -0.2345  0.7106
 2107SOL    HW117780   4.525   2.215   3.009 -0.1946 -1.3151  0.9526
 2107SOL    HW217781   4.626   2.169   2.907 -1.7787  0.1375  0.2219
 2108SOL     OW17782   1.710   2.167   5.482 -0.3423 -0.3168  0.8192
 2108SOL    HW117783   1.798   2.149   5.518 -0.6621 -1.0524  1.2254
 2108SOL    HW217784   1.674   2.085   5.516 -1.2340  0.0421  0.7379
 2109SOL     OW17785   0.403   2.788  11.588  0.0862  0.3652  0.3145
 2109SOL    HW117786   0.461   2.713  11.588 -1.2614 -0.6790  0.4278
 2109SOL    HW217787   0.326   2.738  11.615 -1.1913  1.9586 -0.3772
 2110SOL     OW17788   3.053   1.132   6.696 -0.1286 -0.0318  0.4390
 2110SOL    HW117789   2.998   1.072   6.646 -1.1820 -0.2414  1.8335
 2110SOL    HW217790   3.138   1.135   6.652  0.7077 -0.0601  2.0416
 2111SOL     OW17791   1.478   0.970  16.446 -0.0877 -0.3506 -0.4690
 2111SOL    HW117792   1.414   0.961  16.376 -0.5624  1.1772 -0.2282
 2111SOL    HW217793   1.454   0.902  16.509  0.3469 -0.4132 -0.3668
 2112SOL     OW17794   2.441   3.977   6.520 -0.3312  0.5416  0.1257
 2112SOL    HW117795   2.405   3.889   6.507  1.2762 -0.1460  0.3535
 2112SOL    HW217796   2.489   3.995   6.439  1.9875  0.1896  1.4165
 2113SOL     OW17797   4.631   1.237   2.778  0.1274  0.4463 -0.0205
 2113SOL    HW117798   4.688   1.219   2.704  1.0740  1.0599  0.5625
 2113SOL    HW217799   4.572   1.161   2.778 -0.7913  1.1647 -2.6282
 2114SOL     OW17800   3.413   1.038   1.648  0.0366 -0.2241 -0.6542
 2114SOL    HW117801   3.438   0.966   1.590  2.3348  0.4566 -0.5064
 2114SOL    HW217802   3.383   0.989   1.725  3.7428 -0.0915  0.8565
 2115SOL     OW17803   4.526   2.203  11.276  0.0172 -0.3568  0.1692
 2115SOL    HW117804   4.471   2.255  11.335  1.6885 -0.7661  2.1153
 2115SOL    HW217805   4.566   2.277  11.231 -1.0859  0.0522 -0.1287
 2116SOL     OW17806   3.815   0.955   8.358 -0.1540 -0.4808  0.8016
 2116SOL    HW117807   3.893   1.003   8.333 -1.4181  0.7825 -0.7023
 2116SOL    HW217808   3.852   0.868   8.374  0.4581 -1.1670 -4.3687
 2117SOL     OW17809   3.514   2.939  15.149 -1.0941 -0.0864  0.4315
 2117SOL    HW117810   3.497   2.861  15.095  1.6143 -0.3783 -0.0054
 2117SOL    HW217811   3.430   2.971  15.181 -1.3008  1.0278 -1.2629
 2118SOL     OW17812   1.997   3.432   2.101 -0.1732 -0.3413  0.1315
 2118SOL    HW117813   1.923   3.380   2.133 -0.2491 -0.6339 -0.5079
 2118SOL    HW217814   2.010   3.408   2.009 -0.3738 -0.8142  0.2276
 2119SOL     OW17815   2.939   3.294  16.780  0.1691 -0.1425  0.0417
 2119SOL    HW117816   2.908   3.316  16.692  1.2002 -3.1105 -1.0818
 2119SOL    HW217817   3.034   3.303  16.774 -0.2585  2.7200 -2.0625
 2120SOL     OW17818   3.887   0.718   1.759  0.0096 -0.0402 -0.2530
 2120SOL    HW117819   3.867   0.675   1.677 -1.1469  2.3985 -1.2440
 2120SOL    HW217820   3.830   0.666   1.816  1.5032 -2.6789 -1.1788
 2121SOL     OW17821   2.085   0.617  14.000  0.5008 -0.1177  0.1493
 2121SOL    HW117822   2.082   0.678  13.927 -1.8233  0.9711  1.1565
 2121SOL    HW217823   2.076   0.672  14.078  0.0993 -0.2484  0.1967
 2122SOL     OW17824   0.967   3.551   8.535 -0.3651 -0.2060  0.1024
 2122SOL    HW117825   0.887   3.531   8.583 -0.5450  1.0509  0.3291
 2122SOL    HW217826   0.982   3.466   8.494 -2.7496  0.4754 -2.1372
 2123SOL     OW17827   2.376   1.773   6.110  0.1517  0.6050 -0.5287
 2123SOL    HW117828   2.465   1.753   6.138  0.0984  2.9810  1.2807
 2123SOL    HW217829   2.391   1.781   6.015 -0.7438  2.8356 -0.4803
 2124SOL     OW17830   2.702   0.606   3.105 -0.7032  0.1730  0.3643
 2124SOL    HW117831   2.715   0.601   3.011 -0.9811 -0.7817  0.3836
 2124SOL    HW217832   2.717   0.517   3.136 -2.3622  0.1994  1.2649
 2125SOL     OW17833   1.399   3.290  11.145 -0.1959  0.0738 -0.3336
 2125SOL    HW117834   1.338   3.216  11.143  0.8372 -0.8011  0.9468
 2125SOL    HW217835   1.455   3.287  11.067  1.3728  0.5263  0.7998
 2126SOL     OW17836   2.694   2.426   9.106  0.6436  0.2760 -0.2460
 2126SOL    HW117837   2.624   2.463   9.052  0.3796 -0.2992 -0.2937
 2126SOL    HW217838   2.679   2.341   9.065 -0.8288  0.6496 -0.4693
 2127SOL     OW17839   3.511   0.004   9.475  0.1113 -0.3213  0.4147
 2127SOL    HW117840   3.603   4.701   9.471  0.1600 -0.0941  0.0801
 2127SOL    HW217841   3.515   0.096   9.502 -1.4343 -0.2016  0.2911
 2128SOL     OW17842   4.694   4.717   9.893  0.0386 -0.2371  0.5555
 2128SOL    HW117843   0.046   0.049   9.868 -1.3399  1.9369  1.1758
 2128SOL    HW217844   4.621   0.055   9.907 -1.5094 -1.7148 -1.1127
 2129SOL     OW17845   0.685   1.587   5.926 -0.4468  0.1273 -0.2681
 2129SOL    HW117846   0.651   1.505   5.889  1.0413 -0.1954 -0.9415
 2129SOL    HW217847   0.686   1.637   5.844 -2.6122  0.2652 -0.2091
 2130SOL     OW17848   1.545   1.050   4.690  0.8126 -0.7797  0.2699
 2130SOL    HW117849   1.613   1.085   4.748 -1.7700  2.4205  1.3417
 2130SOL    HW217850   1.545   1.103   4.611  1.3347  1.0889  1.5248
 2131SOL     OW17851   3.710   3.892   8.086  0.2726 -0.0312  0.2608
 2131SOL    HW117852   3.676   3.857   8.003  1.0197  2.2203 -0.9768
 2131SOL    HW217853   3.803   3.894   8.066 -0.7026 -1.2551 -4.3918
 2132SOL     OW17854   4.533   2.856   3.548  1.0733 -0.1139  0.2745
 2132SOL    HW117855   4.537   2.869   3.642 -0.4089 -2.4368  0.6668
 2132SOL    HW217856   4.551   2.936   3.498 -3.6839  0.5805 -0.3737
 2133SOL     OW17857   3.324   3.622   6.946 -0.1114 -0.1775  0.4709
 2133SOL    HW117858   3.248   3.602   6.890  0.7185  1.0574 -1.1034
 2133SOL    HW217859   3.386   3.552   6.925  1.0900  0.4090  2.1700
 2134SOL     OW17860   2.539   1.420  11.398 -0.3087 -0.3320 -0.1512
 2134SOL    HW117861   2.456   1.439  11.441  0.6709  1.0354  1.1510
 2134SOL    HW217862   2.561   1.508  11.366 -1.7581 -0.7048 -2.1889
 2135SOL     OW17863   2.339   0.625  15.233 -0.0328  0.3742 -0.0058
 2135SOL    HW117864   2.363   0.688  15.164 -1.0386  1.4008  0.5782
 2135SOL    HW217865   2.404   0.556  15.218 -0.6000 -0.3594  0.9513
 2136SOL     OW17866   3.240   1.467  16.707 -0.0251  0.1859 -0.0626
 2136SOL    HW117867   3.227   1.524  16.631 -0.3364 -0.4137 -0.4651
 2136SOL    HW217868   3.261   1.531  16.774  1.0334 -0.7793  0.5136
 2137SOL     OW17869   0.199   2.042   7.090 -0.6010 -0.1700 -0.1572
 2137SOL    HW117870   0.256   1.965   7.084 -1.1823 -0.8847  3.6096
 2137SOL    HW217871   0.139   2.037   7.016 -2.0467  0.0506  0.9951
 2138SOL     OW17872   1.453   1.047   2.942  0.3857  0.2997 -0.5691
 2138SOL    HW117873   1.509   1.072   3.016  1.0220 -1.2914 -0.5156
 2138SOL    HW217874   1.461   1.123   2.884 -0.5354 -0.6389 -1.8921
 2139SOL     OW17875   0.720   2.189  13.252 -0.0267  0.0260  0.3776
 2139SOL    HW117876   0.808   2.225  13.251 -0.7692  1.7782 -3.1680
 2139SOL    HW217877   0.659   2.224  13.187 -1.3207  1.0004  2.1320
 2140SOL     OW17878   2.882   0.341   3.792 -0.5511  0.2262 -0.4974
 2140SOL    HW117879   2.818   0.275   3.767  0.2493 -0.4695 -0.7314
 2140SOL    HW217880   2.966   0.315   3.753  0.2466 -0.5467  1.6982
 2141SOL     OW17881   4.358   4.287  10.677 -0.1840  0.0606 -0.0121
 2141SOL    HW117882   4.442   4.253  10.644 -0.7623 -1.1416 -0.2701
 2141SOL    HW217883   4.310   4.311  10.598 -0.1225 -0.8501 -0.3348
 2142SOL     OW17884   1.295   1.930   4.796 -0.5808 -0.3922  1.0856
 2142SOL    HW117885   1.343   1.997   4.845 -1.7360  1.6063 -0.4950
 2142SOL    HW217886   1.352   1.854   4.795 -0.1493 -0.0672  0.6967
 2143SOL     OW17887   3.504   1.272   4.788  0.4680  0.5638  0.1195
 2143SOL    HW117888   3.542   1.198   4.740 -1.2958 -0.6040  0.5121
 2143SOL    HW217889   3.518   1.351   4.736 -0.0010  0.3774 -0.2898
 2144SOL     OW17890   3.504   1.371   0.961  0.1019  0.6731  0.9896
 2144SOL    HW117891   3.451   1.343   0.886  3.0774  1.1217 -1.2997
 2144SOL    HW217892   3.550   1.294   0.994 -1.1580 -1.1413 -1.5105
 2145SOL     OW17893   0.275   1.234   8.034 -0.1007  0.4655 -0.2767
 2145SOL    HW117894   0.323   1.255   8.114  1.9300 -2.2733 -0.7685
 2145SOL    HW217895   0.244   1.321   8.010 -1.4630  0.1163  0.2353
 2146SOL     OW17896   4.150   0.078   8.131  0.0712 -0.4432 -0.0508
 2146SOL    HW117897   4.138   0.172   8.116 -1.8732 -0.4944  1.0850
 2146SOL    HW217898   4.074   0.040   8.086  0.4858 -0.1903 -0.9544
 2147SOL     OW17899   2.513   2.269   4.218  0.1202 -0.3725  0.4309
 2147SOL    HW117900   2.491   2.285   4.309  0.0807 -2.5223  0.8015
 2147SOL    HW217901   2.506   2.357   4.180 -1.5161 -0.6774  0.0495
 2148SOL     OW17902   2.899   1.878  11.910  0.0904 -0.0160  0.3104
 2148SOL    HW117903   2.918   1.941  11.840  0.7021 -0.0020  0.4896
 2148SOL    HW217904   2.930   1.925  11.988  3.3708 -1.8134  0.0659
 2149SOL     OW17905   1.316   4.149   6.561  0.0312  0.3349  0.4331
 2149SOL    HW117906   1.352   4.062   6.576  0.2082  0.4799  0.8398
 2149SOL    HW217907   1.348   4.197   6.637 -0.4332  0.5055  0.5212
 2150SOL     OW17908   0.398   2.451  17.218 -0.0626 -0.3735  0.3573
 2150SOL    HW117909   0.399   2.434  17.312  1.2928  1.8068  0.7381
 2150SOL    HW217910   0.489   2.430  17.199  0.0336 -1.0763  1.5405
 2151SOL     OW17911   3.010   2.712  10.694 -0.3439 -0.0576 -0.4273
 2151SOL    HW117912   3.053   2.655  10.630 -0.7993  2.6045 -3.0933
 2151SOL    HW217913   2.932   2.733  10.643  0.0393 -1.5643 -1.6634
 2152SOL     OW17914   4.693   2.456   5.470 -0.5201 -0.0360  0.5307
 2152SOL    HW117915   4.604   2.421   5.479  0.9186 -3.8340 -0.3531
 2152SOL    HW217916   4.716   2.466   5.563  0.8341  0.6132  0.1251
 2153SOL     OW17917   1.254   1.656   3.979 -0.2591 -0.4080  0.4718
 2153SOL    HW117918   1.291   1.736   4.016 -1.6177 -1.0323  3.2158
 2153SOL    HW217919   1.288   1.663   3.890 -0.0758 -1.6755  0.4343
 2154SOL     OW17920   1.350   1.363   5.852  0.0515 -0.7883  0.1430
 2154SOL    HW117921   1.422   1.345   5.792 -0.1510  0.0115 -0.3418
 2154SOL    HW217922   1.308   1.278   5.852  2.4345 -1.9866  2.1187
 2155SOL     OW17923   2.303   4.572   4.349  0.0132 -0.6070 -0.2398
 2155SOL    HW117924   2.381   4.595   4.298  1.3415 -0.7716  1.7398
 2155SOL    HW217925   2.329   4.587   4.439  1.9338 -1.8314 -0.5817
 2156SOL     OW17926   3.835   1.297  14.652  0.3531  0.2550  0.1712
 2156SOL    HW117927   3.870   1.249  14.727 -2.1163 -1.0293  0.5175
 2156SOL    HW217928   3.753   1.249  14.637  0.2282  0.3038  0.7267
 2157SOL     OW17929   4.228   3.644  10.354  0.2393 -0.1783  0.6872
 2157SOL    HW117930   4.164   3.703  10.315  2.9948  3.0855  1.0847
 2157SOL    HW217931   4.271   3.709  10.409 -2.4293  0.6371  1.8100
 2158SOL     OW17932   0.706   0.487   8.176 -0.2270  0.3799 -0.1007
 2158SOL    HW117933   0.718   0.545   8.251  3.9293 -0.5096 -0.1059
 2158SOL    HW217934   0.703   0.551   8.104  3.2220 -1.3219 -1.7526
 2159SOL     OW17935   1.431   2.759   0.573  0.0588  0.6764 -0.0905
 2159SOL    HW117936   1.362   2.700   0.604 -0.7218  0.6604 -1.8753
 2159SOL    HW217937   1.426   2.740   0.480  2.8884  0.1989 -0.1560
 2160SOL     OW17938   2.585   0.359   6.389  0.2588  0.4760  0.4848
 2160SOL    HW117939   2.521   0.306   6.341  0.6293 -1.3949  2.0474
 2160SOL    HW217940   2.607   0.303   6.464 -0.8392 -0.4630  0.1065
 2161SOL     OW17941   3.520   2.472   5.814  0.0038 -0.8936  0.4479
 2161SOL    HW117942   3.483   2.556   5.843  0.4774 -0.3971 -0.3596
 2161SOL    HW217943   3.442   2.431   5.775 -0.0033 -0.2316 -0.2385
 2162SOL     OW17944   1.528   2.693   5.977  1.1237 -0.0225  0.4018
 2162SOL    HW117945   1.524   2.629   6.048 -1.6457 -0.8661 -0.5055
 2162SOL    HW217946   1.620   2.699   5.952  1.0047 -0.4871 -0.1464
 2163SOL     OW17947   1.755   1.253   7.124 -0.0675  0.0680  0.1588
 2163SOL    HW117948   1.719   1.261   7.212  1.1303  0.2332  0.6426
 2163SOL    HW217949   1.711   1.325   7.079  0.6802  0.8610  0.7017
 2164SOL     OW17950   3.663   1.730  15.250 -0.2500 -0.2789 -0.1899
 2164SOL    HW117951   3.592   1.671  15.278 -1.2156  0.2935 -1.4313
 2164SOL    HW217952   3.737   1.683  15.288 -1.2390 -2.5982 -1.0781
 2165SOL     OW17953   2.000   4.619  10.098 -0.3683 -0.3701 -0.0296
 2165SOL    HW117954   1.955   4.582  10.174  1.1281 -1.9894  0.0746
 2165SOL    HW217955   2.057   4.669  10.157  0.8721  0.6130 -2.0336
 2166SOL     OW17956   2.868   2.888  17.331  0.4430  0.2443  0.1050
 2166SOL    HW117957   2.848   2.860  17.241 -0.0135  0.0514  0.2630
 2166SOL    HW217958   2.867   2.983  17.331 -1.6157  0.2351 -0.7720
 2167SOL     OW17959   0.994   1.571   1.519  0.2151 -0.5830 -0.0197
 2167SOL    HW117960   0.913   1.570   1.571 -0.0173 -1.1274 -0.4042
 2167SOL    HW217961   1.047   1.622   1.581  0.1141 -0.5422  0.0347
 2168SOL     OW17962   4.088   2.768   1.805 -0.0655 -0.2050  0.2696
 2168SOL    HW117963   4.092   2.697   1.868 -0.3615 -1.3049 -0.9514
 2168SOL    HW217964   3.993   2.774   1.795  0.1576  2.8742 -0.0682
 2169SOL     OW17965   3.137   4.209   4.491 -0.3965 -0.6966 -0.5693
 2169SOL    HW117966   3.157   4.289   4.442 -0.5170 -0.6488 -0.5391
 2169SOL    HW217967   3.162   4.236   4.579 -1.1581 -0.0550 -0.5566
 2170SOL     OW17968   0.143   2.743   3.471 -0.1741 -0.7765  0.4643
 2170SOL    HW117969   0.085   2.811   3.506  0.1518 -0.2602 -0.0001
 2170SOL    HW217970   0.161   2.775   3.383  0.9033  0.0887  0.9963
 2171SOL     OW17971   3.272   2.973   7.927  0.1920 -0.0261 -0.4959
 2171SOL    HW117972   3.190   3.023   7.938 -0.2203 -0.0038 -3.5918
 2171SOL    HW217973   3.229   2.898   7.886 -2.0396  1.5824 -1.1168
 2172SOL     OW17974   2.773   0.547  13.191  0.4274  0.2617 -0.1015
 2172SOL    HW117975   2.823   0.536  13.110  0.8103  1.0665  0.0260
 2172SOL    HW217976   2.692   0.566  13.143 -1.1357 -1.0111  2.0528
 2173SOL     OW17977   1.608   4.026   8.468 -0.2973 -0.8563  0.3424
 2173SOL    HW117978   1.573   4.040   8.380 -1.2669  0.1068  0.8764
 2173SOL    HW217979   1.521   4.034   8.509 -0.5026 -2.8803  0.3103
 2174SOL     OW17980   2.881   2.915   2.347  0.8582  0.1363 -0.8907
 2174SOL    HW117981   2.787   2.904   2.335  0.5425 -0.0375  1.7101
 2174SOL    HW217982   2.876   3.008   2.371  1.7118  0.6985 -2.9379
 2175SOL     OW17983   0.014   0.747  10.501 -0.2361 -0.6094  0.1434
 2175SOL    HW117984   4.710   0.750  10.593 -1.5693  0.1847 -0.2657
 2175SOL    HW217985   4.715   0.657  10.476 -0.3890 -0.3344 -0.7086
 2176SOL     OW17986   1.976   4.304   2.015 -0.2300  0.4363 -0.0284
 2176SOL    HW117987   2.070   4.301   2.031 -0.0980 -1.7597 -1.2191
 2176SOL    HW217988   1.966   4.222   1.966 -0.0194 -0.1125  0.8357
 2177SOL     OW17989   1.394   3.678   1.831 -0.0850  0.2050 -0.4580
 2177SOL    HW117990   1.472   3.730   1.850  0.0944 -0.4439  0.5935
 2177SOL    HW217991   1.351   3.666   1.916  0.5512 -1.3615 -0.3589
 2178SOL     OW17992   3.203   0.080   5.767 -0.2112  0.7232  0.5287
 2178SOL    HW117993   3.289   0.084   5.723 -0.7296  0.7065 -0.4870
 2178SOL    HW217994   3.140   0.041   5.707 -0.9540  0.5644  1.4249
 2179SOL     OW17995   2.693   3.401   7.640  0.6236  0.1094 -0.3914
 2179SOL    HW117996   2.724   3.474   7.588  0.8400  1.4158  1.5968
 2179SOL    HW217997   2.773   3.351   7.626  0.9317  0.6274 -0.4451
 2180SOL     OW17998   0.529   2.651  14.051  0.0246 -0.9809  0.0007
 2180SOL    HW117999   0.478   2.602  13.986  0.9958 -0.7876 -0.9029
 2180SOL    HW218000   0.461   2.662  14.118 -1.6963 -2.5997 -1.4630
 2181SOL     OW18001   1.875   2.196  15.766 -0.6353 -0.5400 -0.4422
 2181SOL    HW118002   1.857   2.261  15.698 -0.1002  0.8845  0.7725
 2181SOL    HW218003   1.807   2.130  15.759 -0.6534 -0.5919  0.1884
 2182SOL     OW18004   4.120   1.230   2.848  0.1331  0.4040 -0.3984
 2182SOL    HW118005   4.055   1.297   2.872 -0.2800 -0.7797  1.8432
 2182SOL    HW218006   4.184   1.281   2.799 -0.3657 -0.5723 -2.0894
 2183SOL     OW18007   3.006   1.142   8.226 -0.5118  0.0876  0.3524
 2183SOL    HW118008   3.096   1.151   8.258 -0.9186  1.4094  1.1140
 2183SOL    HW218009   2.965   1.081   8.287  0.5400 -0.6292  0.3421
 2184SOL     OW18010   1.170   2.030   4.126 -0.2794 -0.1181 -0.3427
 2184SOL    HW118011   1.174   2.004   4.034 -2.1749  0.0376 -0.4811
 2184SOL    HW218012   1.186   2.124   4.117 -0.1403 -0.1723 -0.6849
 2185SOL     OW18013   1.042   4.659   2.436  0.3778  0.2120  0.6653
 2185SOL    HW118014   1.036   0.011   2.496 -0.2688  0.3141  0.4740
 2185SOL    HW218015   1.019   4.699   2.352  1.1281  0.6641  0.6785
 2186SOL     OW18016   0.976   2.009   7.283 -0.1706 -0.2992 -0.0467
 2186SOL    HW118017   1.046   2.004   7.218  0.2338 -2.0172  0.5174
 2186SOL    HW218018   0.911   2.007   7.213  0.0731  0.3064 -0.2941
 2187SOL     OW18019   2.076   2.159  17.632  0.2857 -0.4534 -0.3316
 2187SOL    HW118020   2.093   2.230  17.570  0.2146 -0.7564 -0.6916
 2187SOL    HW218021   1.985   2.131  17.619  0.8769 -2.4657 -0.1103
 2188SOL     OW18022   1.308   1.017   7.794 -0.1674  0.0012 -0.1855
 2188SOL    HW118023   1.217   0.991   7.777 -0.8221  3.6034 -2.2791
 2188SOL    HW218024   1.321   1.005   7.888  1.1411 -0.0400 -0.3737
 2189SOL     OW18025   2.867   3.763   3.160 -0.0162 -0.2961 -0.6508
 2189SOL    HW118026   2.950   3.788   3.119 -0.0565 -0.7715 -1.0250
 2189SOL    HW218027   2.850   3.679   3.117  0.3410 -0.0611 -1.2620
 2190SOL     OW18028   3.712   1.285  13.696  0.4810 -0.1161  0.4105
 2190SOL    HW118029   3.729   1.265  13.787 -1.3376 -0.5204  0.6596
 2190SOL    HW218030   3.649   1.219  13.668  0.3904 -0.3076  1.0651
 2191SOL     OW18031   2.470   1.106   5.683 -0.4275 -0.1892  0.0675
 2191SOL    HW118032   2.449   1.109   5.589 -2.4405  0.2235  0.5238
 2191SOL    HW218033   2.531   1.034   5.696 -0.8377 -0.1543  2.2302
 2192SOL     OW18034   3.790   1.088   5.757 -0.1579  0.2485  0.3030
 2192SOL    HW118035   3.844   1.086   5.836  1.1725 -3.6335 -0.7141
 2192SOL    HW218036   3.852   1.070   5.687 -1.5615 -0.5875 -0.7403
 2193SOL     OW18037   2.844   3.032   7.001  0.2417  0.5894  0.6103
 2193SOL    HW118038   2.870   2.940   7.002  1.5254  0.9517 -0.0081
 2193SOL    HW218039   2.817   3.033   7.093  1.7355  2.1454  1.0336
 2194SOL     OW18040   1.756   1.370  12.812  0.4697  0.2702 -0.4147
 2194SOL    HW118041   1.685   1.345  12.871 -0.0337  0.4113 -0.9625
 2194SOL    HW218042   1.822   1.301  12.824 -1.3107 -1.4096 -0.2685
 2195SOL     OW18043   2.005   3.261   7.028  0.1828  0.7505 -0.2221
 2195SOL    HW118044   2.078   3.323   7.021 -0.5421  1.6725  0.3542
 2195SOL    HW218045   1.934   3.315   7.062  0.8653  2.1062 -0.9180
 2196SOL     OW18046   2.977   0.056   7.259 -0.2509 -0.2252 -0.3966
 2196SOL    HW118047   2.896   0.105   7.272  0.1308 -0.2191  1.9907
 2196SOL    HW218048   2.949   4.689   7.279  0.3111 -0.3335 -0.0784
 2197SOL     OW18049   1.418   3.765   5.133 -0.2624  0.2532  0.6178
 2197SOL    HW118050   1.478   3.831   5.101 -0.7679  0.4862  0.1621
 2197SOL    HW218051   1.465   3.726   5.207 -0.5944 -0.1130  0.6409
 2198SOL     OW18052   2.803   4.045   2.887 -0.5947  0.1914  0.2257
 2198SOL    HW118053   2.827   4.061   2.796 -1.9221 -0.9660 -0.3352
 2198SOL    HW218054   2.891   4.057   2.922 -0.1189 -2.5895 -0.0016
 2199SOL     OW18055   2.179   0.373  14.759 -0.3254  0.0733 -0.4999
 2199SOL    HW118056   2.140   0.453  14.726 -1.6739  0.2706  1.5925
 2199SOL    HW218057   2.106   0.311  14.750  0.2717 -0.9093  1.2034
 2200SOL     OW18058   0.475   0.976   8.952 -0.2962 -0.0071 -0.4258
 2200SOL    HW118059   0.388   1.005   8.927  0.0324  1.8661  0.5396
 2200SOL    HW218060   0.530   1.010   8.882  0.6312  1.0002  0.7713
 2201SOL     OW18061   0.444   4.004   2.945  0.2429 -0.6083 -0.5897
 2201SOL    HW118062   0.478   4.033   2.860  1.7106  3.8335  1.5596
 2201SOL    HW218063   0.488   4.069   2.998 -0.1252  0.5693 -1.7349
 2202SOL     OW18064   2.166   1.177   6.779  0.4909  0.1644  0.0260
 2202SOL    HW118065   2.243   1.158   6.725  0.4775 -1.2968  0.5256
 2202SOL    HW218066   2.211   1.239   6.836 -0.1586  0.4320  0.2564
 2203SOL     OW18067   0.517   3.324   7.008 -0.1897 -0.1814 -0.1511
 2203SOL    HW118068   0.536   3.387   6.939  1.5221 -2.0061 -1.3550
 2203SOL    HW218069   0.426   3.300   6.990 -0.2668  0.7545 -0.9912
 2204SOL     OW18070   1.269   4.566   3.903 -0.0798  0.1096 -0.3665
 2204SOL    HW118071   1.357   4.529   3.896  0.0872  0.6438 -1.0476
 2204SOL    HW218072   1.248   4.556   3.811 -0.0975 -0.6242 -0.2879
 2205SOL     OW18073   4.221   1.204   3.719 -0.6785 -0.1266 -0.0754
 2205SOL    HW118074   4.149   1.261   3.746  0.6403  0.9786  1.0571
 2205SOL    HW218075   4.256   1.237   3.637 -3.8239 -1.7684 -2.0797
 2206SOL     OW18076   0.765   2.891   8.791 -0.1037  0.4277  0.2356
 2206SOL    HW118077   0.799   2.821   8.735  1.3530  0.5279  0.9741
 2206SOL    HW218078   0.671   2.875   8.785 -0.3483  1.1559  2.0562
 2207SOL     OW18079   4.612   1.880  12.607 -0.0740 -0.5978  0.4707
 2207SOL    HW118080   4.665   1.800  12.608 -0.1548 -0.6492  0.5561
 2207SOL    HW218081   4.662   1.933  12.669  0.7976  1.0624 -1.6387
 2208SOL     OW18082   2.556   3.842   7.503  0.1165  0.0631 -0.2597
 2208SOL    HW118083   2.637   3.893   7.507 -0.6977  1.3714 -0.2763
 2208SOL    HW218084   2.496   3.916   7.492  0.2559  0.1054 -0.7093
 2209SOL     OW18085   0.750   4.377   6.636  0.3482  0.2665  0.0681
 2209SOL    HW118086   0.777   4.459   6.594  1.1634 -1.2862 -2.4622
 2209SOL    HW218087   0.752   4.309   6.569 -1.2225  2.7523 -2.5325
 2210SOL     OW18088   1.353   1.422   8.932 -0.5902  0.0396  0.5402
 2210SOL    HW118089   1.353   1.471   9.014 -0.4130  0.1398  0.4811
 2210SOL    HW218090   1.270   1.453   8.896 -0.4750 -1.0011 -0.6139
 2211SOL     OW18091   4.059   1.578   1.563  0.0461  0.4489 -0.0344
 2211SOL    HW118092   4.115   1.599   1.637  1.5698 -0.1461 -1.0192
 2211SOL    HW218093   3.969   1.597   1.591 -1.0561 -1.5001 -2.2446
 2212SOL     OW18094   3.417   1.769   4.815  0.5855 -0.2553 -0.5296
 2212SOL    HW118095   3.458   1.765   4.729 -0.1801 -1.1642 -0.8588
 2212SOL    HW218096   3.330   1.808   4.810  0.7401  0.2869  0.9131
 2213SOL     OW18097   1.149   1.340   6.971  0.2080 -0.7536 -0.5425
 2213SOL    HW118098   1.219   1.282   7.001  0.1739 -0.3886  0.2382
 2213SOL    HW218099   1.101   1.358   7.052 -2.2069  1.0449 -2.3710
 2214SOL     OW18100   0.186   0.245   5.244 -0.4339  0.0082 -0.0570
 2214SOL    HW118101   0.247   0.224   5.173  0.9287 -1.5325  1.5518
 2214SOL    HW218102   0.169   0.154   5.269 -3.1649  1.6139  4.0820
 2215SOL     OW18103   3.431   4.666  12.457 -0.8870 -0.2779 -0.0552
 2215SOL    HW118104   3.408   4.594  12.515 -0.4212  0.5173  1.1268
 2215SOL    HW218105   3.378   4.650  12.378 -1.0459 -0.1231  0.0189
 2216SOL     OW18106   3.768   1.998   4.836 -0.8387  0.5451  0.1244
 2216SOL    HW118107   3.718   1.931   4.883  1.9322 -3.6474 -3.0034
 2216SOL    HW218108   3.854   1.969   4.867 -0.1614 -2.2618 -4.4263
 2217SOL     OW18109   1.796   4.636   5.608 -0.2177  0.1125  0.0669
 2217SOL    HW118110   1.753   4.557   5.641 -1.3325  0.3492 -0.8321
 2217SOL    HW218111   1.745   4.658   5.530 -0.7937  0.0375  0.4176
 2218SOL     OW18112   3.364   2.674   4.713 -0.8039  0.0516  0.0317
 2218SOL    HW118113   3.277   2.638   4.700  0.1440 -1.5779 -1.8601
 2218SOL    HW218114   3.410   2.596   4.743 -0.7741 -0.1843 -0.6393
 2219SOL     OW18115   4.267   4.205  17.572  0.0421  0.1031  0.5926
 2219SOL    HW118116   4.283   4.293  17.606  2.7397 -0.5519  0.9573
 2219SOL    HW218117   4.343   4.217  17.515 -1.8070  1.1581 -1.6665
 2220SOL     OW18118   3.298   4.146   8.858  0.1332  0.0391 -0.4451
 2220SOL    HW118119   3.216   4.139   8.809  0.3634  1.0762 -0.9852
 2220SOL    HW218120   3.291   4.069   8.914  0.8065 -0.4934 -1.0942
 2221SOL     OW18121   3.984   0.108   9.710  0.3502  0.1886  0.1514
 2221SOL    HW118122   4.073   0.075   9.695  0.4488 -0.8166  2.9569
 2221SOL    HW218123   3.955   0.111   9.618  2.3628 -0.6015 -0.5135
 2222SOL     OW18124   0.954   3.385   2.664  0.4478  0.0111 -0.3054
 2222SOL    HW118125   1.000   3.468   2.676  2.8171 -1.5681  1.5163
 2222SOL    HW218126   0.954   3.352   2.754 -2.1841 -1.7151 -0.9467
 2223SOL     OW18127   2.290   1.766   8.105  0.2378 -1.0015  0.5789
 2223SOL    HW118128   2.285   1.733   8.016 -0.0718  0.5043  0.0396
 2223SOL    HW218129   2.382   1.791   8.116  0.3116 -1.1625  0.3127
 2224SOL     OW18130   0.443   2.775   7.588  0.0936  0.3395  0.1285
 2224SOL    HW118131   0.459   2.718   7.663  1.7324  1.7937  0.8909
 2224SOL    HW218132   0.501   2.850   7.599  1.4278 -0.3757 -2.2304
 2225SOL     OW18133   0.682   3.710  12.095  0.0551  0.1663  0.2062
 2225SOL    HW118134   0.615   3.716  12.027 -0.8506 -0.4350  1.0486
 2225SOL    HW218135   0.769   3.724  12.057 -0.6366 -2.4693 -2.3869
 2226SOL     OW18136   2.275   2.782  14.498 -0.2234 -0.2952 -0.0855
 2226SOL    HW118137   2.224   2.740  14.429  0.4364 -0.2419 -0.6056
 2226SOL    HW218138   2.348   2.720  14.500 -0.7399 -1.0063 -3.2619
 2227SOL     OW18139   0.773   2.943   2.920 -0.5195 -0.1235  0.0340
 2227SOL    HW118140   0.771   3.018   2.861 -1.2611 -0.8146 -0.8192
 2227SOL    HW218141   0.859   2.903   2.909  0.2760  1.5842  0.0006
 2228SOL     OW18142   2.857   2.534  15.147  0.1067 -0.3407 -0.3006
 2228SOL    HW118143   2.922   2.467  15.168  0.5771  0.3006  0.2495
 2228SOL    HW218144   2.916   2.608  15.136 -1.3596  1.0949  1.5296
 2229SOL     OW18145   0.465   1.003   5.062  0.4946 -0.0651 -0.2016
 2229SOL    HW118146   0.466   1.087   5.108 -1.2045 -0.8149  1.1894
 2229SOL    HW218147   0.560   0.990   5.070  0.0606 -3.0476  0.1290
 2230SOL     OW18148   1.773   0.515  15.497  0.1240 -0.3835 -0.9504
 2230SOL    HW118149   1.714   0.547  15.565 -0.6853 -1.2315 -1.2553
 2230SOL    HW218150   1.765   0.419  15.500 -0.6683 -0.2748  0.6324
 2231SOL     OW18151   4.295   1.107   8.191  0.9968  0.6012 -0.2857
 2231SOL    HW118152   4.315   1.013   8.196  1.2536  0.6416 -0.5869
 2231SOL    HW218153   4.325   1.149   8.272 -1.9038 -0.2444  1.2641
 2232SOL     OW18154   0.846   2.358   0.523 -0.3569  0.6460  0.0051
 2232SOL    HW118155   0.924   2.395   0.481 -0.9216  1.9874  0.1403
 2232SOL    HW218156   0.791   2.435   0.534 -0.3731  0.8575 -1.6672
 2233SOL     OW18157   0.898   0.675   0.814  0.0522 -0.0342  0.3594
 2233SOL    HW118158   0.902   0.739   0.886 -2.4157  1.4089 -0.7692
 2233SOL    HW218159   0.829   0.615   0.841 -0.4219  0.1073 -0.5277
 2234SOL     OW18160   0.734   3.454   3.379 -0.3175 -0.2488  0.4105
 2234SOL    HW118161   0.644   3.423   3.373 -1.6775  3.3024  2.0786
 2234SOL    HW218162   0.741   3.501   3.296 -0.6869 -0.0919  0.4708
 2235SOL     OW18163   1.750   4.297  12.750 -0.2817 -0.7753 -0.2316
 2235SOL    HW118164   1.838   4.331  12.767 -1.3585 -0.5158  4.6697
 2235SOL    HW218165   1.716   4.256  12.829 -1.2860 -0.0932 -0.3151
 2236SOL     OW18166   2.613   0.062   0.822 -0.7857  0.9490 -0.0844
 2236SOL    HW118167   2.683   0.077   0.885  0.5521 -0.6237 -1.2063
 2236SOL    HW218168   2.541   0.031   0.878  0.3242  0.7737  1.2462
 2237SOL     OW18169   3.757   0.869  15.574 -0.1349 -0.1440 -0.1997
 2237SOL    HW118170   3.813   0.880  15.497 -1.9373  0.7627 -1.3733
 2237SOL    HW218171   3.767   0.776  15.594  1.8720 -0.3497 -2.1717
 2238SOL     OW18172   0.834   3.858   6.378 -0.7140 -0.5948 -0.1840
 2238SOL    HW118173   0.815   3.854   6.472 -1.8391 -0.5906 -0.4146
 2238SOL    HW218174   0.928   3.873   6.385 -0.7325 -0.6659  0.2504
 2239SOL     OW18175   0.041   2.462   7.575  0.2217 -0.2724  0.4164
 2239SOL    HW118176   0.042   2.430   7.665  0.0772 -3.3942 -0.6975
 2239SOL    HW218177   0.119   2.417   7.543  0.6083 -0.2615  1.3680
 2240SOL     OW18178   0.658   4.722  10.038 -0.3551  0.0512 -0.9865
 2240SOL    HW118179   0.739   0.048  10.028 -0.6873  0.8354  0.1836
 2240SOL    HW218180   0.653   0.009  10.133  1.7180 -3.4633 -0.5076
 2241SOL     OW18181   4.418   3.537   2.265  0.6259 -0.0858  0.2794
 2241SOL    HW118182   4.363   3.462   2.289 -0.2218  0.7830  1.0635
 2241SOL    HW218183   4.495   3.482   2.251  1.1713  1.2954 -2.3489
 2242SOL     OW18184   3.529   0.856   3.736  0.5478  0.2337 -0.3906
 2242SOL    HW118185   3.497   0.767   3.745  0.5998  0.2409 -0.1059
 2242SOL    HW218186   3.595   0.841   3.668  0.2234  1.8863 -1.0645
 2243SOL     OW18187   1.156   0.258   8.925  0.3973 -0.2124 -0.2088
 2243SOL    HW118188   1.200   0.191   8.872  2.7242 -0.9726  2.6778
 2243SOL    HW218189   1.070   0.216   8.936  0.0635  0.0682 -1.7266
 2244SOL     OW18190   4.271   0.640  16.160  0.4910  0.2809 -0.0403
 2244SOL    HW118191   4.285   0.723  16.114 -2.3153 -0.8109 -2.8318
 2244SOL    HW218192   4.280   0.656  16.254 -0.6296  0.0348  0.1035
 2245SOL     OW18193   4.291   3.812  14.110 -0.5468 -0.0427 -0.2597
 2245SOL    HW118194   4.372   3.762  14.097 -0.5153 -0.1974  0.5251
 2245SOL    HW218195   4.299   3.829  14.204 -2.8548 -0.9607  0.1102
 2246SOL     OW18196   4.646   1.483   6.194  0.4320  0.3973 -0.4159
 2246SOL    HW118197   4.663   1.577   6.206  0.8390  0.1187  1.2718
 2246SOL    HW218198   4.564   1.469   6.242 -0.3540 -0.4489 -2.0171
 2247SOL     OW18199   3.005   2.526  12.438 -0.6643 -0.7267  0.1737
 2247SOL    HW118200   3.099   2.523  12.418 -0.9919 -0.6719 -1.3923
 2247SOL    HW218201   2.948   2.569  12.374  0.9749  0.9054 -0.1871
 2248SOL     OW18202   0.607   1.058   4.514  0.1799  0.7413  0.0578
 2248SOL    HW118203   0.646   1.070   4.600 -1.9500 -0.7364  1.2313
 2248SOL    HW218204   0.685   1.049   4.460  0.1412  0.0290  0.1213
 2249SOL     OW18205   3.680   2.133  13.962  0.1585  0.3473  0.5154
 2249SOL    HW118206   3.740   2.205  13.983  2.8604 -1.3290 -1.4482
 2249SOL    HW218207   3.614   2.175  13.907  0.6820  1.4541  0.7408
 2250SOL     OW18208   3.658   1.168  14.514  0.3952 -0.3868  0.3490
 2250SOL    HW118209   3.582   1.140  14.462 -1.2536  2.0395  1.4565
 2250SOL    HW218210   3.718   1.096  14.495  2.5104  1.3822  0.4108
 2251SOL     OW18211   0.199   1.105   4.061 -0.1446 -0.2121 -1.0728
 2251SOL    HW118212   0.267   1.169   4.084  0.3991 -1.0552 -0.3008
 2251SOL    HW218213   0.139   1.150   4.002 -1.2400  0.9328  0.9089
 2252SOL     OW18214   4.540   1.017   2.367  0.0109 -0.2436 -0.2655
 2252SOL    HW118215   4.526   1.020   2.272 -1.5732  1.3388  0.0097
 2252SOL    HW218216   4.462   0.968   2.391 -1.2260  2.5162  1.4012
 2253SOL     OW18217   3.464   0.427   8.146  0.0599 -0.1774  0.2590
 2253SOL    HW118218   3.466   0.507   8.199 -1.5900 -1.1685  1.8213
 2253SOL    HW218219   3.385   0.385   8.181 -1.0363  0.4975 -1.4487
 2254SOL     OW18220   1.858   1.084   5.547  0.5855 -0.1505 -0.3947
 2254SOL    HW118221   1.872   1.002   5.593  0.3702 -0.5636 -1.0604
 2254SOL    HW218222   1.763   1.083   5.540  0.6060  2.7266 -1.0653
 2255SOL     OW18223   0.147   2.021   2.915  0.1462 -0.1173 -0.2838
 2255SOL    HW118224   0.131   2.037   2.822 -1.5239 -1.8171 -0.2947
 2255SOL    HW218225   0.128   1.927   2.922  0.7869 -0.3117 -1.2111
 2256SOL     OW18226   2.863   1.927   6.127 -0.4271  0.1286  0.3076
 2256SOL    HW118227   2.915   1.874   6.188  1.5092  0.6880 -0.8585
 2256SOL    HW218228   2.802   1.971   6.186  1.0376  0.9268  1.2225
 2257SOL     OW18229   2.187   0.362  14.120  0.0824  0.4797 -0.0368
 2257SOL    HW118230   2.263   0.419  14.109  0.9502 -0.7401 -0.3687
 2257SOL    HW218231   2.129   0.420  14.071  1.7983  1.5083 -0.8490
 2258SOL     OW18232   2.528   2.088  14.010 -0.0280  0.0716  0.1347
 2258SOL    HW118233   2.435   2.104  13.995 -0.1252  0.0851  0.7530
 2258SOL    HW218234   2.527   1.992  14.016  0.4672 -0.0156 -1.3087
 2259SOL     OW18235   4.413   2.692   5.183 -0.1352  0.0304 -0.7173
 2259SOL    HW118236   4.425   2.718   5.275  0.3250 -3.8171  0.3323
 2259SOL    HW218237   4.330   2.644   5.187  0.8699 -1.6793 -0.2010
 2260SOL     OW18238   1.850   3.581  11.314 -0.0611  0.4498  0.9188
 2260SOL    HW118239   1.884   3.665  11.281  2.4743 -1.1559 -0.5608
 2260SOL    HW218240   1.800   3.542  11.242 -0.0353 -0.3126  1.3158
 2261SOL     OW18241   0.673   4.625  17.088 -0.2792  0.4926  0.0825
 2261SOL    HW118242   0.682   4.670  17.004 -1.3753  0.1826 -0.2018
 2261SOL    HW218243   0.721   4.546  17.063 -0.4992  0.4388 -0.1686
 2262SOL     OW18244   1.456   4.513   1.528  0.3143 -0.0526 -0.0285
 2262SOL    HW118245   1.517   4.580   1.499 -0.4509 -0.8549 -3.5711
 2262SOL    HW218246   1.460   4.539   1.620 -2.1128  2.2297 -0.5544
 2263SOL     OW18247   0.874   1.809  17.490  0.1482  0.3550 -0.5458
 2263SOL    HW118248   0.782   1.784  17.493  0.4428 -0.8008 -1.3297
 2263SOL    HW218249   0.891   1.838  17.401 -1.4322 -1.5574 -1.4823
 2264SOL     OW18250   3.688   2.654   4.343  0.5726  0.4032 -0.2785
 2264SOL    HW118251   3.631   2.726   4.371 -0.0807  1.2630 -3.7807
 2264SOL    HW218252   3.675   2.600   4.420 -0.1057  1.3076  0.2315
 2265SOL     OW18253   4.314   1.392  10.015  0.0300  0.2520 -0.2763
 2265SOL    HW118254   4.352   1.474  10.049  0.5357 -0.1200  0.0514
 2265SOL    HW218255   4.311   1.339  10.094 -2.2961 -2.1427 -1.9574
 2266SOL     OW18256   1.620   1.063   6.571  0.4295 -0.0378  0.3446
 2266SOL    HW118257   1.681   1.137   6.582 -0.3980  0.5208  1.1926
 2266SOL    HW218258   1.656   1.016   6.646  0.7748 -0.4196 -0.0604
 2267SOL     OW18259   1.224   2.795  10.939 -0.8065 -0.7572  0.4948
 2267SOL    HW118260   1.146   2.781  10.993 -1.3664 -0.4447 -0.2280
 2267SOL    HW218261   1.291   2.781  11.005 -1.3071  1.2951  1.4254
 2268SOL     OW18262   2.559   3.540  14.745 -0.2152 -0.6199  0.1592
 2268SOL    HW118263   2.621   3.610  14.763  0.2582 -0.9296 -0.2799
 2268SOL    HW218264   2.583   3.482  14.817 -1.7307  0.3006  1.4120
 2269SOL     OW18265   0.153   2.593   5.228 -0.3663 -0.1812 -0.4111
 2269SOL    HW118266   0.091   2.557   5.291  2.2729 -0.4532  2.0252
 2269SOL    HW218267   0.241   2.579   5.262 -1.5391  0.7640  2.9996
 2270SOL     OW18268   3.522   1.761   4.334  0.4555  0.2572  0.5630
 2270SOL    HW118269   3.555   1.703   4.265  1.5140  0.4255  0.9232
 2270SOL    HW218270   3.444   1.791   4.288 -0.2647 -1.0590  0.9160
 2271SOL     OW18271   4.298   3.152   3.854 -0.4949 -0.4453  0.0470
 2271SOL    HW118272   4.359   3.180   3.921 -1.7555 -2.1720  1.9267
 2271SOL    HW218273   4.253   3.085   3.906  2.6457 -0.6495  2.4659
 2272SOL     OW18274   0.882   2.311   5.850  0.2039  0.3882  0.3720
 2272SOL    HW118275   0.812   2.245   5.849  0.4876  0.0630  1.8550
 2272SOL    HW218276   0.953   2.257   5.886 -1.6522 -0.9584  1.9892
 2273SOL     OW18277   2.909   2.163   1.671 -0.1315  0.1079  0.3278
 2273SOL    HW118278   2.893   2.077   1.709  0.8038  0.4909  1.6337
 2273SOL    HW218279   2.872   2.150   1.584  2.0581  0.3669 -0.6642
 2274SOL     OW18280   2.643   0.809   4.815 -0.0478  0.0443 -0.0283
 2274SOL    HW118281   2.664   0.903   4.817  1.9290 -0.4210  1.3286
 2274SOL    HW218282   2.605   0.800   4.728  1.1217  1.2887 -0.6559
 2275SOL     OW18283   3.719   1.013   8.888  0.1168  0.0300  0.1513
 2275SOL    HW118284   3.672   1.055   8.816 -0.8119  0.2973  0.9187
 2275SOL    HW218285   3.809   1.009   8.856 -0.3792 -2.1114 -0.9495
 2276SOL     OW18286   0.767   3.998   0.899  0.3502  0.4513 -0.0936
 2276SOL    HW118287   0.757   3.948   0.981  0.7099 -1.7876 -1.3973
 2276SOL    HW218288   0.810   3.934   0.842  0.3948  0.9573 -0.6264
 2277SOL     OW18289   0.970   3.725  14.301  0.2387 -0.5204  0.1929
 2277SOL    HW118290   0.972   3.743  14.395 -0.8886 -0.6295  0.2326
 2277SOL    HW218291   0.876   3.729  14.287  0.4469 -1.8626 -1.6150
 2278SOL     OW18292   0.733   3.362  13.476  0.2134  0.2905  0.0220
 2278SOL    HW118293   0.685   3.280  13.479  1.7996 -0.7081 -1.5844
 2278SOL    HW218294   0.753   3.396  13.563 -2.9324  1.4684  0.2740
 2279SOL     OW18295   4.134   2.672  14.547 -0.3469  0.6998  0.7168
 2279SOL    HW118296   4.125   2.622  14.628  0.4187  2.2969  1.7751
 2279SOL    HW218297   4.230   2.667  14.546 -0.4220 -0.8718 -0.3233
 2280SOL     OW18298   1.551   3.112   2.962 -0.1281 -0.4144 -0.4338
 2280SOL    HW118299   1.497   3.160   2.898 -2.6569  0.0225  2.0226
 2280SOL    HW218300   1.511   3.026   2.966  0.0236 -0.5278 -1.2845
 2281SOL     OW18301   0.674   3.003   6.120 -0.1684 -0.1687  0.2052
 2281SOL    HW118302   0.671   2.927   6.179  1.3746 -1.0439 -0.8465
 2281SOL    HW218303   0.756   3.010   6.073  0.0591 -3.6079  0.1038
 2282SOL     OW18304   1.306   4.619  14.732 -0.1097  0.2007 -0.1992
 2282SOL    HW118305   1.377   4.624  14.668  0.7179 -1.6327  0.5816
 2282SOL    HW218306   1.351   4.650  14.811 -0.5560 -0.5033  0.3208
 2283SOL     OW18307   2.354   2.165  14.881 -0.3610  0.3121 -0.0120
 2283SOL    HW118308   2.268   2.145  14.918 -0.3457 -0.9872 -0.6859
 2283SOL    HW218309   2.373   2.241  14.937  1.1073  0.5168 -0.7932
 2284SOL     OW18310   3.757   3.941   7.557  0.8684  0.8814  0.4392
 2284SOL    HW118311   3.665   3.921   7.541  0.5267  4.0156 -1.4959
 2284SOL    HW218312   3.747   3.968   7.648  0.6252  1.1163  0.3444
 2285SOL     OW18313   4.639   0.825   8.512  0.1228  0.3150  0.4147
 2285SOL    HW118314   4.685   0.764   8.570 -1.1583  1.3303  2.4982
 2285SOL    HW218315   4.696   0.848   8.440 -1.4382  2.0348 -0.2656
 2286SOL     OW18316   2.456   2.947   0.198  0.3144  0.0910 -0.2422
 2286SOL    HW118317   2.465   2.876   0.135  1.2859  0.6693 -0.7569
 2286SOL    HW218318   2.388   2.909   0.254  1.7216  0.2165  1.5636
 2287SOL     OW18319   3.178   4.034  16.863  0.2615 -0.3270  0.0337
 2287SOL    HW118320   3.230   4.048  16.784  0.2087  1.8051  0.3761
 2287SOL    HW218321   3.213   4.103  16.920 -0.5404  0.8165 -0.8532
 2288SOL     OW18322   0.863   2.644   3.838 -0.0143 -0.5335 -0.2266
 2288SOL    HW118323   0.825   2.560   3.812  0.8442 -1.5678  1.8776
 2288SOL    HW218324   0.816   2.706   3.782 -2.8172  0.7101  3.5271
 2289SOL     OW18325   2.656   2.372   3.688 -0.1090  0.2147 -0.0625
 2289SOL    HW118326   2.628   2.283   3.667  1.2187 -0.2930  0.2632
 2289SOL    HW218327   2.586   2.414   3.639 -1.7477 -0.7729  1.4317
 2290SOL     OW18328   4.279   2.627   7.130 -0.1975  0.6825  0.5221
 2290SOL    HW118329   4.206   2.582   7.173 -0.8780 -1.1613 -2.5618
 2290SOL    HW218330   4.336   2.663   7.197 -0.0173  0.1630  0.6476
 2291SOL     OW18331   1.134   1.241  10.901  0.1158  0.1124  0.3933
 2291SOL    HW118332   1.069   1.172  10.914  0.7246 -0.6059 -0.3867
 2291SOL    HW218333   1.189   1.190  10.842 -1.3324  0.1009 -0.9571
 2292SOL     OW18334   0.018   3.968   4.803 -0.1559  0.4294  0.0355
 2292SOL    HW118335   0.022   4.017   4.885  1.6921 -0.9039  0.7235
 2292SOL    HW218336   4.651   3.936   4.814  0.2624 -0.8922 -0.3945
 2293SOL     OW18337   3.289   2.240   4.705  0.0687 -0.4441 -0.0104
 2293SOL    HW118338   3.321   2.248   4.615 -1.0528  0.3426 -0.3318
 2293SOL    HW218339   3.198   2.212   4.701 -0.0698  0.0969 -0.5020
 2294SOL     OW18340   2.788   3.093   9.223  0.4154  0.0845  0.3698
 2294SOL    HW118341   2.874   3.102   9.184  0.0915 -0.1109 -0.3903
 2294SOL    HW218342   2.780   2.998   9.225  1.4996 -0.0131 -0.5995
 2295SOL     OW18343   2.134   1.250   3.227  0.3090  0.3157 -0.4012
 2295SOL    HW118344   2.182   1.229   3.307 -0.1465  0.5405 -0.0685
 2295SOL    HW218345   2.189   1.197   3.170 -0.6994 -1.6729  0.4560
 2296SOL     OW18346   0.786   1.603   1.704 -0.0321 -0.2971 -0.6323
 2296SOL    HW118347   0.696   1.583   1.682  0.0295  1.0600 -2.0894
 2296SOL    HW218348   0.787   1.696   1.681 -2.3794 -0.1106  0.0405
 2297SOL     OW18349   2.638   4.121   9.593 -0.1567  0.2401 -0.2833
 2297SOL    HW118350   2.719   4.171   9.605 -0.1014  0.0592  0.1027
 2297SOL    HW218351   2.673   4.032   9.598 -1.2707 -0.3089 -2.1529
 2298SOL     OW18352   4.678   2.197   2.501  0.5628  0.7179 -0.9245
 2298SOL    HW118353   4.654   2.154   2.418 -0.9245 -1.0005  0.3853
 2298SOL    HW218354   4.604   2.257   2.507 -0.7315 -1.1923  1.9438
 2299SOL     OW18355   3.085   3.697   1.373 -0.4811  0.5622  0.2768
 2299SOL    HW118356   3.087   3.762   1.302  1.5584  1.1358  0.8570
 2299SOL    HW218357   3.004   3.719   1.419 -1.2223  1.4046 -1.4420
 2300SOL     OW18358   3.047   3.782   2.157 -0.6757  0.2158 -0.3410
 2300SOL    HW118359   3.103   3.720   2.110 -0.8299 -0.4148  0.3088
 2300SOL    HW218360   3.019   3.710   2.214 -1.5885 -1.3502 -2.7570
 2301SOL     OW18361   1.561   1.240   7.607 -0.3161 -0.3178  0.0218
 2301SOL    HW118362   1.571   1.161   7.660  3.8306  0.1198 -0.0870
 2301SOL    HW218363   1.470   1.265   7.617  0.0557  1.5165 -1.1122
 2302SOL     OW18364   4.307   4.372   8.176  0.3265 -0.3767 -0.0478
 2302SOL    HW118365   4.353   4.296   8.211  0.4334  0.5428  1.7793
 2302SOL    HW218366   4.227   4.378   8.227  0.4610 -1.3946  0.2698
 2303SOL     OW18367   0.680   3.652   8.815 -0.6962  0.5933  0.2346
 2303SOL    HW118368   0.684   3.702   8.896  1.5549  1.3287 -0.3236
 2303SOL    HW218369   0.735   3.576   8.835  1.4306  2.2044  0.4835
 2304SOL     OW18370   2.294   2.779   8.701 -0.2531  0.2555 -0.1769
 2304SOL    HW118371   2.222   2.801   8.760  0.1297 -1.2562  0.8706
 2304SOL    HW218372   2.255   2.754   8.618 -0.4333  1.5567 -0.4842
 2305SOL     OW18373   1.917   1.585   2.793 -0.4768 -0.0952 -0.1073
 2305SOL    HW118374   1.933   1.506   2.742 -1.3197 -0.8604  0.8195
 2305SOL    HW218375   1.962   1.651   2.740  1.2582 -0.8080  0.4695
 2306SOL     OW18376   1.941   2.096  12.168  0.6187  0.4153  0.0094
 2306SOL    HW118377   1.867   2.135  12.216  1.4529  0.3761  1.3182
 2306SOL    HW218378   1.890   2.040  12.110 -0.1162  1.2722 -0.1767
 2307SOL     OW18379   2.030   0.793   4.381  0.4911  0.2775 -0.0534
 2307SOL    HW118380   1.989   0.777   4.466  2.2096 -0.8846  0.5724
 2307SOL    HW218381   2.117   0.826   4.405  1.0132 -1.5643  0.6772
 2308SOL     OW18382   1.457   3.649  16.875 -0.2085  0.4838 -0.7098
 2308SOL    HW118383   1.400   3.710  16.922 -1.2550 -1.8791  1.0873
 2308SOL    HW218384   1.538   3.682  16.913  0.2663 -1.0655 -0.3839
 2309SOL     OW18385   4.566   4.476   4.635  0.0532 -0.1553  0.4552
 2309SOL    HW118386   4.602   4.473   4.724 -2.2099  0.2381  1.3924
 2309SOL    HW218387   4.484   4.430   4.654 -0.7526  1.2511  0.4355
 2310SOL     OW18388   1.592   2.965  14.921 -0.0984  0.2497 -0.2989
 2310SOL    HW118389   1.687   2.954  14.914 -0.4728 -1.5553 -2.5878
 2310SOL    HW218390   1.579   3.044  14.974  1.1044 -0.0184  0.3986
 2311SOL     OW18391   0.796   3.638   9.107  0.3996  1.1465 -0.1002
 2311SOL    HW118392   0.718   3.683   9.139 -0.6055 -2.3041  2.3754
 2311SOL    HW218393   0.804   3.570   9.174 -1.5165  0.2028 -0.8318
 2312SOL     OW18394   3.327   1.770   6.791 -0.2171 -0.4072  0.2334
 2312SOL    HW118395   3.302   1.689   6.747  0.4145  0.8351 -2.4299
 2312SOL    HW218396   3.357   1.733   6.874  0.3135 -0.6162 -0.0486
 2313SOL     OW18397   0.459   3.969   5.285  0.4154 -0.3352  0.1368
 2313SOL    HW118398   0.490   3.960   5.375 -1.5950  1.3677  0.9914
 2313SOL    HW218399   0.468   3.881   5.248 -1.8778 -1.3706  2.0736
 2314SOL     OW18400   2.618   0.392  10.912 -0.1300 -0.0983 -0.2676
 2314SOL    HW118401   2.699   0.341  10.922 -1.0749 -1.0692  2.4404
 2314SOL    HW218402   2.658   0.477  10.895 -0.7677  0.7160  2.2751
 2315SOL     OW18403   4.170   3.463  15.279 -0.0731 -0.1754 -0.0242
 2315SOL    HW118404   4.196   3.389  15.334 -2.0743 -1.4058 -0.6958
 2315SOL    HW218405   4.255   3.488  15.244 -0.3888  2.4318  1.0724
 2316SOL     OW18406   0.673   0.847   3.861  0.0488  0.2873 -0.0995
 2316SOL    HW118407   0.650   0.809   3.776 -1.7334  1.4639 -0.1275
 2316SOL    HW218408   0.730   0.921   3.841 -1.1891  1.8007  1.9747
 2317SOL     OW18409   3.335   1.495  11.816  0.5786 -0.4377  0.0596
 2317SOL    HW118410   3.305   1.404  11.818  2.6262 -1.1017  0.7571
 2317SOL    HW218411   3.427   1.492  11.791  1.2002  0.7501  2.1734
 2318SOL     OW18412   3.204   0.620   1.723  0.2382  0.1863  0.0712
 2318SOL    HW118413   3.192   0.528   1.745  0.1961 -0.0232 -0.8558
 2318SOL    HW218414   3.121   0.626   1.676 -1.0842 -1.3202  2.2141
 2319SOL     OW18415   3.967   1.195   0.876 -0.2505  0.4149 -0.2180
 2319SOL    HW118416   3.955   1.186   0.971 -0.8911 -2.3971 -0.5700
 2319SOL    HW218417   4.048   1.147   0.860 -0.6480  0.3629 -2.0692
 2320SOL     OW18418   3.089   3.622   4.466 -0.4845  0.5342  0.0479
 2320SOL    HW118419   3.164   3.566   4.488 -0.6690  0.4283  0.3973
 2320SOL    HW218420   3.034   3.610   4.543  1.1668 -1.5659  0.9102
 2321SOL     OW18421   0.758   1.454   9.515 -0.4457 -0.4476 -0.5734
 2321SOL    HW118422   0.666   1.428   9.516 -0.1922 -1.2608  2.5004
 2321SOL    HW218423   0.782   1.466   9.607  0.4133  1.3332 -1.0258
 2322SOL     OW18424   2.495   0.733   5.564  0.1027 -0.6751 -0.5518
 2322SOL    HW118425   2.451   0.741   5.480 -2.3827 -0.2730  0.8094
 2322SOL    HW218426   2.585   0.723   5.531  0.3491 -0.1305 -0.0477
 2323SOL     OW18427   0.565   1.069   9.947 -0.6124  0.2681 -0.3115
 2323SOL    HW118428   0.546   1.124   9.871  0.1234  1.2040  0.1774
 2323SOL    HW218429   0.618   1.130   9.998  0.6166 -1.5415  0.5784
 2324SOL     OW18430   0.710   1.915   7.172  0.1580  0.0403 -0.0228
 2324SOL    HW118431   0.642   1.981   7.185  0.6733  0.0683  2.5342
 2324SOL    HW218432   0.664   1.851   7.117  0.7133 -0.4964  0.1364
 2325SOL     OW18433   4.064   1.098   7.556  0.6724 -0.7531 -0.2017
 2325SOL    HW118434   3.973   1.073   7.547  0.2933  1.0742 -1.4043
 2325SOL    HW218435   4.063   1.183   7.513  0.4399 -1.0411 -0.7559
 2326SOL     OW18436   0.029   0.112   8.625 -0.4679 -0.1353  0.4898
 2326SOL    HW118437   4.712   0.158   8.699 -0.3563 -0.3766  0.6991
 2326SOL    HW218438   4.674   0.057   8.609  2.2254 -3.8933  0.3362
 2327SOL     OW18439   1.517   2.311   2.631 -0.5510 -0.2929 -0.3886
 2327SOL    HW118440   1.569   2.285   2.555 -0.9370  2.4250 -1.5715
 2327SOL    HW218441   1.433   2.269   2.609  0.0192 -2.5700  1.8543
 2328SOL     OW18442   1.191   1.980  13.137  0.4461 -0.2326  0.4744
 2328SOL    HW118443   1.228   1.915  13.197  0.1689 -1.5350 -0.7812
 2328SOL    HW218444   1.262   1.980  13.073  0.3213  3.4792  0.3122
 2329SOL     OW18445   0.165   0.551   1.282  0.1107 -0.1448  0.6079
 2329SOL    HW118446   0.069   0.555   1.289  0.3176  1.8809  2.1636
 2329SOL    HW218447   0.182   0.499   1.361 -2.1733 -0.4721  0.9068
 2330SOL     OW18448   0.042   2.330   7.797 -0.2318 -0.0156  0.9329
 2330SOL    HW118449   4.721   2.251   7.829 -1.9503  0.3614 -0.4907
 2330SOL    HW218450   0.127   2.322   7.839 -0.3148  1.5225  1.3814
 2331SOL     OW18451   0.398   1.860   7.079  0.7143  0.5798  0.7304
 2331SOL    HW118452   0.435   1.856   7.167  0.3174  2.9649  1.0105
 2331SOL    HW218453   0.472   1.830   7.027  0.4360  0.5651  0.3378
 2332SOL     OW18454   4.244   0.665   6.186 -0.8429  0.6890 -0.1526
 2332SOL    HW118455   4.151   0.651   6.203 -1.1989 -0.8549 -3.2518
 2332SOL    HW218456   4.266   0.583   6.141  0.0447 -0.4754  2.4054
 2333SOL     OW18457   1.974   0.113   2.660  0.4623  0.1977  0.3054
 2333SOL    HW118458   1.916   0.049   2.618 -0.6966  0.5233  1.4004
 2333SOL    HW218459   2.056   0.065   2.673  0.9142  1.6916  3.0605
 2334SOL     OW18460   1.427   3.139  12.168  0.0326 -0.0311 -0.2854
 2334SOL    HW118461   1.512   3.100  12.187 -0.6794 -0.3885  2.1668
 2334SOL    HW218462   1.374   3.065  12.137  2.1993 -2.2841  1.3662
 2335SOL     OW18463   1.153   4.091   6.906  0.3769  0.0037  0.2378
 2335SOL    HW118464   1.115   4.004   6.901  0.5641 -0.1534  1.4989
 2335SOL    HW218465   1.246   4.069   6.893 -0.9510 -5.5594  0.0329
 2336SOL     OW18466   1.409   0.433   0.204  0.4685  0.3213  0.4314
 2336SOL    HW118467   1.351   0.360   0.182 -1.6013  2.1086 -0.0768
 2336SOL    HW218468   1.427   0.450   0.111  3.0397  0.5691  0.9716
 2337SOL     OW18469   2.215   1.941  14.732  0.2450  0.2057 -0.0894
 2337SOL    HW118470   2.256   2.026  14.748 -0.8970  0.3985  1.9040
 2337SOL    HW218471   2.233   1.891  14.812 -0.1966  1.3832  0.7626
 2338SOL     OW18472   3.070   0.088  11.719 -0.0803  0.1019  0.0665
 2338SOL    HW118473   3.141   0.057  11.776  0.3799  1.5392  0.2643
 2338SOL    HW218474   3.085   0.181  11.735  0.3845  0.1624 -0.7616
 2339SOL     OW18475   1.201   1.925   3.328 -0.6559 -0.0734  0.1861
 2339SOL    HW118476   1.258   1.850   3.310  1.4757  1.7153 -0.4886
 2339SOL    HW218477   1.135   1.920   3.258 -0.3270 -1.0159 -0.0597
 2340SOL     OW18478   3.598   4.641   4.170 -0.5357  0.4680  0.4140
 2340SOL    HW118479   3.595   4.660   4.263 -0.7198  2.5432  0.0026
 2340SOL    HW218480   3.692   4.653   4.154 -0.4834 -0.7773 -0.1730
 2341SOL     OW18481   3.724   0.819   7.406 -0.2708 -0.5248 -0.3756
 2341SOL    HW118482   3.783   0.833   7.332  1.6447 -0.5760  1.1529
 2341SOL    HW218483   3.706   0.908   7.437  2.8071  0.8704 -2.5732
 2342SOL     OW18484   1.148   1.637   8.699  0.1382 -0.0318 -0.0247
 2342SOL    HW118485   1.146   1.589   8.783 -1.9133  1.2278  0.6282
 2342SOL    HW218486   1.123   1.718   8.744  3.6641  1.5386 -0.9170
 2343SOL     OW18487   3.035   3.564   4.990  0.0434  0.1923 -0.0630
 2343SOL    HW118488   2.989   3.516   5.060  1.3466  0.3216  0.8829
 2343SOL    HW218489   3.016   3.653   5.020  0.7632  0.1829  0.4085
 2344SOL     OW18490   1.954   4.462   2.236  0.4852  0.1380  0.4469
 2344SOL    HW118491   1.958   4.407   2.158 -2.3807  0.1223  0.3363
 2344SOL    HW218492   1.863   4.456   2.265  0.2309 -2.2368 -0.8295
 2345SOL     OW18493   3.199   1.995   4.383 -0.2908 -0.8680 -0.6848
 2345SOL    HW118494   3.251   2.072   4.361  0.0440 -0.6751  0.7456
 2345SOL    HW218495   3.117   2.044   4.391  0.5438  0.6481 -1.5332
 2346SOL     OW18496   0.967   0.295  16.450 -0.0309 -0.1447 -0.9267
 2346SOL    HW118497   0.950   0.213  16.405  1.0773 -0.9895  0.1974
 2346SOL    HW218498   0.991   0.355  16.379  0.5024 -0.5217 -1.0680
 2347SOL     OW18499   1.516   0.052  11.004 -0.2411 -0.0128  0.0906
 2347SOL    HW118500   1.594   0.016  11.048 -1.0233 -0.2807  1.2542
 2347SOL    HW218501   1.472   4.696  10.971  1.6107 -0.5552 -1.1087
 2348SOL     OW18502   4.119   2.263   6.158 -0.4446  0.1859  0.3082
 2348SOL    HW118503   4.058   2.190   6.149 -1.2861  1.2891 -3.1344
 2348SOL    HW218504   4.066   2.314   6.219 -2.4173 -0.9643 -0.4597
 2349SOL     OW18505   3.496   0.299  11.084  0.0297 -0.0144 -0.6286
 2349SOL    HW118506   3.428   0.330  11.025 -0.3415  1.3950  0.5419
 2349SOL    HW218507   3.484   0.204  11.076 -0.0722 -0.2370  1.9991
 2350SOL     OW18508   2.229   0.232   1.264 -0.0586  0.0989 -0.7602
 2350SOL    HW118509   2.193   0.143   1.271  0.1562  0.0200 -0.6425
 2350SOL    HW218510   2.308   0.208   1.216  1.7928 -1.2344  2.9494
 2351SOL     OW18511   4.351   2.788   3.066 -0.3513 -0.2809  0.2201
 2351SOL    HW118512   4.441   2.778   3.096  0.0170  0.4737 -0.6304
 2351SOL    HW218513   4.312   2.701   3.069 -1.5529  0.1733 -2.1233
 2352SOL     OW18514   3.292   0.289   2.899 -0.5120  0.0170 -0.0376
 2352SOL    HW118515   3.225   0.261   2.837 -0.3997 -0.0469 -0.1313
 2352SOL    HW218516   3.324   0.372   2.863  0.6510 -1.0616 -1.4707
 2353SOL     OW18517   2.785   2.780   7.722 -0.4310  0.0233  0.0902
 2353SOL    HW118518   2.802   2.815   7.634 -0.9470 -1.1983 -0.4890
 2353SOL    HW218519   2.825   2.693   7.722 -1.4768 -0.4623 -0.8664
 2354SOL     OW18520   4.223   3.779   3.284  0.7652  0.0459 -0.0993
 2354SOL    HW118521   4.206   3.874   3.281 -1.1493 -0.2356  2.0748
 2354SOL    HW218522   4.180   3.745   3.205 -0.2752  0.9864  0.0576
 2355SOL     OW18523   4.223   1.113   5.886 -0.3087 -1.0767  0.5304
 2355SOL    HW118524   4.175   1.190   5.854  1.4389  0.3945  1.4546
 2355SOL    HW218525   4.226   1.128   5.981  0.4302 -1.0248  0.4987
 2356SOL     OW18526   1.740   1.009   9.788  0.6534  0.8352  0.5358
 2356SOL    HW118527   1.772   1.053   9.867  1.8931 -0.4589  0.7664
 2356SOL    HW218528   1.696   0.931   9.823  3.2901 -0.1005  1.8055
 2357SOL     OW18529   2.956   1.347   6.835 -0.3216  0.0844 -0.2119
 2357SOL    HW118530   2.991   1.262   6.808 -0.7903  0.4628 -1.9705
 2357SOL    HW218531   3.017   1.410   6.796  1.9849 -2.1858 -0.2767
 2358SOL     OW18532   0.001   2.376   2.196  0.2753 -0.1794 -0.2253
 2358SOL    HW118533   4.721   2.465   2.163  1.2562  0.7244  2.1220
 2358SOL    HW218534   4.647   2.384   2.253  1.1497 -1.2943  1.1165
 2359SOL     OW18535   2.678   4.664  15.887  0.1814  0.2033  0.5968
 2359SOL    HW118536   2.616   4.594  15.908  0.9939 -0.0039  2.3709
 2359SOL    HW218537   2.758   4.620  15.857  1.1521  1.9695  0.6154
 2360SOL     OW18538   3.864   2.204   3.927 -0.6024  0.5157 -0.0209
 2360SOL    HW118539   3.838   2.289   3.963 -0.1313 -0.4605  2.5872
 2360SOL    HW218540   3.820   2.205   3.842  1.2890  0.1017 -0.9938
 2361SOL     OW18541   4.038   2.941   8.746 -0.5741 -0.7993 -0.2363
 2361SOL    HW118542   4.053   2.857   8.788  3.0645  1.2484  2.5488
 2361SOL    HW218543   4.126   2.966   8.719 -0.4025  1.2435  2.1997
 2362SOL     OW18544   4.662   1.097  11.280 -0.0738 -0.2700 -0.2046
 2362SOL    HW118545   0.004   1.146  11.332 -1.2120  0.4787  0.5051
 2362SOL    HW218546   4.624   1.036  11.343  1.3549 -0.0741  0.8620
 2363SOL     OW18547   4.653   2.422   8.990  0.5002 -0.0062 -0.1792
 2363SOL    HW118548   0.007   2.411   9.047  1.2654  2.4738 -0.7214
 2363SOL    HW218549   4.606   2.481   9.050  0.4819 -0.0767 -0.1240
 2364SOL     OW18550   4.108   0.461   4.771  0.4908  0.1893 -0.0132
 2364SOL    HW118551   4.203   0.466   4.780  0.3190  2.0492  0.7634
 2364SOL    HW218552   4.098   0.479   4.678 -1.9125 -1.0613  0.0040
 2365SOL     OW18553   1.443   1.408  15.617 -0.2184 -0.8600  0.0230
 2365SOL    HW118554   1.515   1.408  15.555 -1.6841 -3.6585 -1.6838
 2365SOL    HW218555   1.490   1.436  15.696 -0.1841 -0.4280 -0.1515
 2366SOL     OW18556   4.566   3.270   9.693 -0.5010  0.2798  0.3012
 2366SOL    HW118557   4.532   3.328   9.761  1.8936  1.7785  0.2403
 2366SOL    HW218558   4.546   3.183   9.726 -2.4873  0.6656  0.1081
 2367SOL     OW18559   3.966   2.459   3.924 -0.3367 -0.5870 -0.1317
 2367SOL    HW118560   4.041   2.506   3.960 -0.2117 -1.4599  0.7419
 2367SOL    HW218561   3.974   2.451   3.829 -1.0857 -1.5761 -0.1014
 2368SOL     OW18562   0.598   1.371   5.762  0.2865  0.6690  0.0493
 2368SOL    HW118563   0.503   1.366   5.763  0.3964 -1.8432 -1.1786
 2368SOL    HW218564   0.621   1.281   5.785  1.9268  0.6804 -1.5253
 2369SOL     OW18565   3.910   3.275   2.587 -0.0075  0.0811 -0.0783
 2369SOL    HW118566   3.868   3.246   2.668 -0.0298  0.2077 -0.0451
 2369SOL    HW218567   3.852   3.350   2.573  1.6899  1.1242 -1.3928
 2370SOL     OW18568   3.791   2.136   5.711 -0.2083  0.3146  0.4681
 2370SOL    HW118569   3.742   2.054   5.721  0.7873 -0.6588 -2.6639
 2370SOL    HW218570   3.802   2.152   5.617  1.4905  2.2107  0.9970
 2371SOL     OW18571   0.958   2.006   6.692 -0.6606 -0.3952 -0.0479
 2371SOL    HW118572   1.017   2.077   6.666 -1.3360 -0.6613 -2.2602
 2371SOL    HW218573   0.987   1.946   6.623  0.6847  0.6369 -0.3734
 2372SOL     OW18574   1.456   4.366  14.453  0.1353  0.6466  0.2523
 2372SOL    HW118575   1.431   4.289  14.403  0.2481  0.9162 -0.2275
 2372SOL    HW218576   1.516   4.314  14.506 -1.1563 -0.8642  0.2054
 2373SOL     OW18577   1.817   0.989   2.944  0.4587  0.1676 -0.4366
 2373SOL    HW118578   1.756   0.978   2.871 -2.6968  2.9243  1.7806
 2373SOL    HW218579   1.824   1.084   2.942 -0.6737  0.2457 -0.7086
 2374SOL     OW18580   4.301   0.004   3.087 -0.5956  0.0940  0.3034
 2374SOL    HW118581   4.225   4.671   3.104  0.4884 -1.7310 -0.8468
 2374SOL    HW218582   4.350   4.675   3.023 -1.1146  2.0182 -1.6410
 2375SOL     OW18583   0.014   0.654   3.835 -0.2653 -0.2486 -0.4753
 2375SOL    HW118584   0.060   0.620   3.912 -1.0908  2.0946  1.0541
 2375SOL    HW218585   0.080   0.705   3.790  0.7510  0.8324  2.2672
 2376SOL     OW18586   0.758   0.965   0.919  0.5243 -0.2207 -0.0707
 2376SOL    HW118587   0.706   0.968   0.998  0.0247  0.2725 -0.4218
 2376SOL    HW218588   0.834   1.020   0.939  1.1439 -1.2877  0.5285
 2377SOL     OW18589   2.845   1.044   1.704  0.3552 -0.1434 -0.6586
 2377SOL    HW118590   2.771   0.984   1.694 -1.1211  1.1968  2.4220
 2377SOL    HW218591   2.789   1.113   1.739 -0.8037 -1.7296  0.6757
 2378SOL     OW18592   1.829   3.981   7.867  0.0611  0.1902  0.9646
 2378SOL    HW118593   1.784   4.060   7.897 -0.3347  0.5089 -0.4724
 2378SOL    HW218594   1.758   3.937   7.820  2.3876  0.7489 -3.1080
 2379SOL     OW18595   3.275   4.218  14.691 -0.3147 -0.2230  0.1351
 2379SOL    HW118596   3.249   4.238  14.781  0.4745 -0.2603  0.3778
 2379SOL    HW218597   3.358   4.179  14.721 -0.9667 -0.8825  1.0641
 2380SOL     OW18598   1.332   3.366   3.572 -0.4623  0.1090 -0.1748
 2380SOL    HW118599   1.300   3.297   3.514 -1.6982 -1.3357  2.2788
 2380SOL    HW218600   1.305   3.333   3.657 -1.7643  0.3318 -0.5024
 2381SOL     OW18601   0.373   2.821   6.001  0.0423 -0.1309 -0.1461
 2381SOL    HW118602   0.427   2.887   5.959 -0.4278 -1.3809 -2.6724
 2381SOL    HW218603   0.342   2.864   6.081  0.4587  4.0055 -2.2330
 2382SOL     OW18604   1.973   1.867  11.665 -0.4377 -0.6069  0.2027
 2382SOL    HW118605   1.993   1.820  11.747 -0.2032 -0.3129  0.3140
 2382SOL    HW218606   1.884   1.891  11.688 -0.3940  0.7490 -1.1017
 2383SOL     OW18607   2.217   4.279   6.743  0.3375 -0.2403 -0.1955
 2383SOL    HW118608   2.253   4.360   6.779  1.7933 -0.8257 -0.3232
 2383SOL    HW218609   2.287   4.259   6.680  1.6875 -1.1106  1.5400
 2384SOL     OW18610   3.982   3.036   7.434  0.4693  0.5116  0.3865
 2384SOL    HW118611   4.049   3.088   7.390 -0.0367  0.8556  0.0256
 2384SOL    HW218612   4.021   2.948   7.434 -0.1808  0.2239 -0.6405
 2385SOL     OW18613   4.459   4.698   3.562 -0.0113 -0.4679 -0.1554
 2385SOL    HW118614   4.493   4.612   3.538  0.5606 -0.1078 -0.6286
 2385SOL    HW218615   4.367   4.690   3.538  0.1165 -0.8937 -0.4847
 2386SOL     OW18616   0.599   0.114   6.194 -0.0533 -0.3156 -0.1558
 2386SOL    HW118617   0.661   0.052   6.156  0.6974  0.4982 -0.2501
 2386SOL    HW218618   0.668   0.167   6.235 -0.2373 -0.9001  0.9027
 2387SOL     OW18619   2.000   3.472   5.379 -0.8120 -0.0255 -0.0127
 2387SOL    HW118620   2.008   3.404   5.447 -0.6194  1.5566  1.5302
 2387SOL    HW218621   2.061   3.426   5.321 -1.8197 -1.6275  0.1704
 2388SOL     OW18622   2.222   0.874   4.535 -0.3461 -0.6289 -0.9662
 2388SOL    HW118623   2.293   0.810   4.536 -1.5659 -1.9580  0.9796
 2388SOL    HW218624   2.258   0.947   4.586 -0.8234 -0.7645 -0.4392
 2389SOL     OW18625   0.457   2.196   6.755  0.2294  0.3588 -0.4717
 2389SOL    HW118626   0.514   2.132   6.797  1.3801  1.9577  0.3644
 2389SOL    HW218627   0.509   2.273   6.775  0.5825 -0.7066  2.7309
 2390SOL     OW18628   3.714   1.419   8.092  0.1262 -0.5689  0.2699
 2390SOL    HW118629   3.647   1.390   8.029  0.4935 -0.8770  0.0183
 2390SOL    HW218630   3.660   1.410   8.170  1.2406 -3.2245  0.7395
 2391SOL     OW18631   0.638   4.459   8.278 -0.5736  0.4741  0.1479
 2391SOL    HW118632   0.678   4.535   8.320  0.6569 -0.5828  0.8859
 2391SOL    HW218633   0.694   4.385   8.300  0.5693  1.7995  1.6724
 2392SOL     OW18634   1.439   2.007   3.685  0.6663 -0.0311 -0.0222
 2392SOL    HW118635   1.461   1.975   3.597 -0.8837 -3.4720  0.8310
 2392SOL    HW218636   1.526   1.989   3.720 -0.1431 -3.3074  0.3604
 2393SOL     OW18637   3.688   3.161   8.556 -0.6595  0.3362 -0.0977
 2393SOL    HW118638   3.623   3.220   8.518  0.1954  0.2468 -1.7154
 2393SOL    HW218639   3.634   3.102   8.608  1.0822 -0.8575  0.3866
 2394SOL     OW18640   4.188   1.392   5.715  0.1017 -0.7455 -0.0540
 2394SOL    HW118641   4.099   1.372   5.743 -0.4292  0.6109 -0.7773
 2394SOL    HW218642   4.216   1.418   5.803 -0.9753 -0.9688  0.3531
 2395SOL     OW18643   2.785   4.491   0.353  0.4925 -0.0492  0.0812
 2395SOL    HW118644   2.758   4.418   0.298  0.1801  1.7938 -2.1897
 2395SOL    HW218645   2.698   4.516   0.384  0.0778 -1.0299 -0.2694
 2396SOL     OW18646   0.852   1.323   9.264  0.2856  0.3952 -0.1846
 2396SOL    HW118647   0.825   1.348   9.352  3.9982  1.3950  0.6923
 2396SOL    HW218648   0.944   1.351   9.266  0.5310 -0.2661 -2.0153
 2397SOL     OW18649   3.664   4.457   5.584 -0.2696 -0.5742 -0.3706
 2397SOL    HW118650   3.753   4.424   5.575 -0.9628 -2.2561 -0.9984
 2397SOL    HW218651   3.629   4.433   5.498  1.0777 -1.5561 -0.6388
 2398SOL     OW18652   1.453   2.446   0.407  0.1666  0.0145 -0.4901
 2398SOL    HW118653   1.444   2.422   0.315  1.2846 -1.3939 -0.2314
 2398SOL    HW218654   1.439   2.538   0.384 -1.1696  0.1486  0.8662
 2399SOL     OW18655   2.880   4.488  11.906  0.6536  0.0901  0.1710
 2399SOL    HW118656   2.948   4.450  11.851  1.8406  0.5810  1.3001
 2399SOL    HW218657   2.928   4.508  11.986 -0.3074 -0.3695  0.8638
 2400SOL     OW18658   3.429   0.729  11.127  0.1986 -0.1184  0.4507
 2400SOL    HW118659   3.367   0.736  11.054 -0.4063 -1.1751  0.8526
 2400SOL    HW218660   3.482   0.657  11.092 -0.7230 -0.2144 -0.7576
 2401SOL     OW18661   3.897   1.848   3.611 -0.1704 -0.0400  0.3816
 2401SOL    HW118662   3.885   1.800   3.529 -0.3014 -0.3530  0.5856
 2401SOL    HW218663   3.871   1.794   3.685  0.2931 -1.2509 -0.3420
 2402SOL     OW18664   2.802   2.593  14.262  0.6392  0.3985 -0.4136
 2402SOL    HW118665   2.732   2.627  14.318 -0.3782 -0.6322 -1.0787
 2402SOL    HW218666   2.804   2.668  14.203  1.4357  1.7085  1.2576
 2403SOL     OW18667   4.332   2.870   0.675 -0.6499  0.1063  0.0667
 2403SOL    HW118668   4.304   2.871   0.583 -0.2359 -2.9073 -0.0891
 2403SOL    HW218669   4.251   2.842   0.718  0.3247 -0.6717  1.3847
 2404SOL     OW18670   0.562   1.234   6.365  0.1363  0.1019  0.3623
 2404SOL    HW118671   0.627   1.202   6.427 -1.5158  0.0958  2.1023
 2404SOL    HW218672   0.480   1.197   6.399 -0.4183 -1.0537 -2.2728
 2405SOL     OW18673   2.318   4.305   4.303  0.6135 -0.1101  0.5366
 2405SOL    HW118674   2.282   4.275   4.386  2.0068  1.9889  1.9181
 2405SOL    HW218675   2.289   4.396   4.303  0.5768 -0.1376 -3.3125
 2406SOL     OW18676   3.136   2.685   0.208 -0.4367 -0.0654 -0.0131
 2406SOL    HW118677   3.045   2.673   0.235 -0.2679  1.2176  1.1509
 2406SOL    HW218678   3.188   2.622   0.258  1.1172  0.6895 -0.6835
 2407SOL     OW18679   0.740   2.043   3.444  0.1868 -0.9295  0.1874
 2407SOL    HW118680   0.663   1.995   3.417 -1.1902 -0.5824  3.5476
 2407SOL    HW218681   0.716   2.134   3.428 -0.2041 -1.1705 -0.6128
 2408SOL     OW18682   4.695   1.747   9.280 -0.2376  0.0531 -0.2650
 2408SOL    HW118683   0.068   1.750   9.267 -0.2957 -0.8246 -0.9149
 2408SOL    HW218684   4.685   1.680   9.348  0.6530 -0.8128 -0.9829
 2409SOL     OW18685   1.239   1.100   5.750 -0.1207 -0.0477  0.2961
 2409SOL    HW118686   1.261   1.048   5.672 -1.0408  0.9396 -0.6369
 2409SOL    HW218687   1.155   1.064   5.778 -1.4298  3.2056  0.5836
 2410SOL     OW18688   2.935   1.316   4.944  0.0815  0.4828 -0.0684
 2410SOL    HW118689   2.981   1.313   4.861  0.0757 -0.4425 -0.0476
 2410SOL    HW218690   2.925   1.410   4.956 -0.1855  0.1278  2.5299
 2411SOL     OW18691   2.440   1.248   4.251 -0.0195 -0.5975  0.3096
 2411SOL    HW118692   2.489   1.188   4.195  1.5530  1.4191 -0.4551
 2411SOL    HW218693   2.365   1.196   4.281 -1.9227  3.3179  2.2933
 2412SOL     OW18694   2.356   3.767   2.379  0.4471  0.0147 -0.0097
 2412SOL    HW118695   2.392   3.769   2.290 -2.2627 -1.2855 -1.1297
 2412SOL    HW218696   2.268   3.801   2.365  0.6545  0.9611  0.9556
 2413SOL     OW18697   1.139   1.294   4.305  0.5157 -0.1121 -0.5503
 2413SOL    HW118698   1.225   1.250   4.306  1.0226  0.8706 -0.9697
 2413SOL    HW218699   1.151   1.342   4.223  0.9459  0.5261 -0.1046
 2414SOL     OW18700   4.692   3.255   5.236 -0.4067 -0.2896 -0.4317
 2414SOL    HW118701   4.722   3.331   5.186  3.7302 -0.3839  1.9246
 2414SOL    HW218702   0.019   3.190   5.187 -0.2856  2.2892 -3.7520
 2415SOL     OW18703   0.042   3.937   6.911  0.3311 -0.0421  0.6318
 2415SOL    HW118704   0.061   4.018   6.864  1.8771  0.3428  1.9164
 2415SOL    HW218705   4.714   3.967   6.987 -1.6835  0.2507 -0.8049
 2416SOL     OW18706   4.502   2.099   5.188  0.3160 -0.4208  0.4216
 2416SOL    HW118707   4.590   2.075   5.217  0.6031  2.9292  2.3677
 2416SOL    HW218708   4.527   2.138   5.104 -0.8201 -1.0162 -0.1941
 2417SOL     OW18709   0.820   2.984   4.610 -0.4086 -0.1478 -0.0180
 2417SOL    HW118710   0.783   2.899   4.588  0.1144 -0.5163  0.5075
 2417SOL    HW218711   0.745   3.042   4.597  0.7717  1.6723  1.4106
 2418SOL     OW18712   0.062   3.896   3.334  0.0021 -0.2329 -0.0189
 2418SOL    HW118713   4.691   3.913   3.321 -0.3710 -1.9755  0.4061
 2418SOL    HW218714   0.051   3.859   3.421  0.4035 -0.6968 -0.1627
 2419SOL     OW18715   1.368   3.839   3.271  0.0962  0.3055  0.4934
 2419SOL    HW118716   1.366   3.754   3.315  1.3477 -1.5917 -3.1344
 2419SOL    HW218717   1.438   3.828   3.208 -1.5867  0.2852 -1.3731
 2420SOL     OW18718   4.217   2.611   4.018  0.5613 -0.1338 -0.6303
 2420SOL    HW118719   4.161   2.659   4.080  2.6264  0.2112  0.9688
 2420SOL    HW218720   4.274   2.681   3.986 -0.4613  0.2904 -1.5329
 2421SOL     OW18721   1.179   0.884  11.008 -0.2752  0.5162 -0.1008
 2421SOL    HW118722   1.223   0.851  10.930  0.1478 -1.4959  0.9914
 2421SOL    HW218723   1.246   0.861  11.073 -3.1440  1.3809  3.2004
 2422SOL     OW18724   3.191   4.690  14.476 -0.3033  0.2355  0.1904
 2422SOL    HW118725   3.281   4.721  14.471  0.9870 -3.1969  2.4236
 2422SOL    HW218726   3.152   0.001  14.395  0.7609 -2.3541 -1.4014
 2423SOL     OW18727   4.168   3.261   9.307  0.1647  0.0553  0.0694
 2423SOL    HW118728   4.133   3.324   9.244  3.1093  2.3959  0.7829
 2423SOL    HW218729   4.104   3.191   9.293  0.1469  0.2937 -1.0535
 2424SOL     OW18730   3.478   1.948   8.661  0.2165 -0.3541 -0.0863
 2424SOL    HW118731   3.470   1.928   8.754  0.9832 -1.0373 -0.1634
 2424SOL    HW218732   3.486   1.863   8.617 -0.4559  0.1051 -1.1008
 2425SOL     OW18733   2.820   4.630   4.331 -0.0018  0.0621  0.0133
 2425SOL    HW118734   2.839   4.679   4.251  0.3364  0.0298  0.0769
 2425SOL    HW218735   2.726   4.625   4.348  0.2798 -3.3155  0.6992
 2426SOL     OW18736   1.549   3.174   1.516 -0.5066  0.1422 -0.6029
 2426SOL    HW118737   1.622   3.117   1.490  0.5983  1.0854  0.4003
 2426SOL    HW218738   1.495   3.180   1.437  0.0531 -0.4830 -1.0331
 2427SOL     OW18739   0.659   1.867  14.917  0.5170 -0.1223  0.0662
 2427SOL    HW118740   0.704   1.801  14.971 -1.2617  1.0310  2.9891
 2427SOL    HW218741   0.727   1.922  14.879 -0.2258  1.8440  1.5956
 2428SOL     OW18742   2.766   1.952   1.883  0.1638 -0.7738  0.2115
 2428SOL    HW118743   2.757   1.864   1.920 -0.0771  0.4137  2.9699
 2428SOL    HW218744   2.850   1.984   1.917 -0.0123 -2.0359  1.8101
 2429SOL     OW18745   3.834   0.790   8.627 -0.4154  0.4875 -0.9313
 2429SOL    HW118746   3.858   0.735   8.701  0.0985  0.1882 -1.3198
 2429SOL    HW218747   3.748   0.825   8.652 -0.5724  1.2345 -2.4738
 2430SOL     OW18748   1.817   3.467  17.428 -0.0751 -0.3452 -0.3745
 2430SOL    HW118749   1.877   3.429  17.364 -3.3314 -1.6930 -2.6162
 2430SOL    HW218750   1.873   3.544  17.433 -0.9661  0.3695 -1.3938
 2431SOL     OW18751   2.681   1.365   4.078  0.3457  0.3313 -0.3481
 2431SOL    HW118752   2.763   1.347   4.031  0.3578  1.1246 -0.6245
 2431SOL    HW218753   2.620   1.312   4.026  0.2920  0.4692 -0.4260
 2432SOL     OW18754   2.057   2.018  14.128 -0.2042 -0.3417  0.9860
 2432SOL    HW118755   1.988   2.000  14.064  1.9966  0.4453 -1.5889
 2432SOL    HW218756   2.140   2.015  14.081 -1.2390  0.2466 -0.8888
 2433SOL     OW18757   2.478   1.001   9.836 -0.1852  0.5248 -0.3357
 2433SOL    HW118758   2.489   0.967   9.747  0.5677 -0.1583  0.0111
 2433SOL    HW218759   2.429   0.925   9.867  0.9520 -0.8256 -1.8169
 2434SOL     OW18760   1.445   2.989   7.519 -0.6379  0.2844 -0.6329
 2434SOL    HW118761   1.451   2.977   7.614 -1.2761  2.6326 -0.2978
 2434SOL    HW218762   1.478   2.904   7.489  0.1228  0.1919  0.4738
 2435SOL     OW18763   4.488   0.345  16.287 -0.5540 -0.3243 -0.0341
 2435SOL    HW118764   4.483   0.309  16.375  1.7684  1.5067  0.8388
 2435SOL    HW218765   4.579   0.374  16.288  0.1289 -2.4607  0.2232
 2436SOL     OW18766   3.005   0.224   7.778 -0.0769 -0.0930  0.2765
 2436SOL    HW118767   2.961   0.244   7.861 -1.1921  0.7171 -0.5157
 2436SOL    HW218768   3.056   0.301   7.751 -1.6603  0.2934 -1.5744
 2437SOL     OW18769   1.427   4.576   7.969 -0.2494 -0.1806 -0.0064
 2437SOL    HW118770   1.449   4.560   7.877 -1.1695 -2.9257  0.2598
 2437SOL    HW218771   1.422   4.672   7.964 -0.3534 -0.2457 -1.2889
 2438SOL     OW18772   3.161   2.082   3.628  0.5763 -0.3772 -0.1868
 2438SOL    HW118773   3.140   2.016   3.562 -1.4880  0.6240 -0.5336
 2438SOL    HW218774   3.095   2.056   3.693  0.0258  0.2088 -0.5144
 2439SOL     OW18775   2.241   0.661   2.908 -0.2136 -1.0742  0.1188
 2439SOL    HW118776   2.276   0.640   2.995 -2.2946 -0.7516  1.0557
 2439SOL    HW218777   2.149   0.678   2.929  0.1458  0.7440  0.1691
 2440SOL     OW18778   2.851   1.593   9.159 -0.2755 -0.3802  0.0123
 2440SOL    HW118779   2.777   1.553   9.205 -0.7997  0.8420  0.2387
 2440SOL    HW218780   2.924   1.569   9.216 -0.8898 -0.8743  0.5845
 2441SOL     OW18781   0.770   2.048   5.977  0.2432 -0.3684 -0.0557
 2441SOL    HW118782   0.847   2.003   6.010  0.4180 -0.8643 -1.1255
 2441SOL    HW218783   0.708   1.976   5.988 -0.0394 -0.0742  0.2906
 2442SOL     OW18784   0.292   4.386  13.550 -0.3387  0.4713 -0.3286
 2442SOL    HW118785   0.342   4.466  13.534  0.3532 -0.0965 -1.0481
 2442SOL    HW218786   0.258   4.373  13.461 -1.5385  0.0793  0.1950
 2443SOL     OW18787   3.721   3.231   7.031  0.1508 -0.7224  0.4555
 2443SOL    HW118788   3.640   3.244   7.081 -0.8919  0.3941 -1.5136
 2443SOL    HW218789   3.735   3.326   7.023  0.8193 -0.8481  0.1572
 2444SOL     OW18790   4.234   2.399  15.883  0.3307  0.2679 -0.1451
 2444SOL    HW118791   4.287   2.321  15.902  1.0233  0.5146 -1.0852
 2444SOL    HW218792   4.216   2.429  15.972  0.8925  0.7257 -0.1913
 2445SOL     OW18793   3.852   3.915   6.626  0.3701  0.3814  0.4343
 2445SOL    HW118794   3.802   3.993   6.602  0.5116  0.2298 -0.3516
 2445SOL    HW218795   3.781   3.851   6.633  1.2629 -0.5962  0.5245
 2446SOL     OW18796   0.182   0.911  16.934  0.1118  0.1355  0.2787
 2446SOL    HW118797   0.226   0.835  16.970 -0.5967 -0.5258 -0.2503
 2446SOL    HW218798   0.249   0.950  16.877 -1.9657 -0.6285 -2.6755
 2447SOL     OW18799   4.223   3.396   0.473  0.8073  0.1099 -0.6428
 2447SOL    HW118800   4.275   3.374   0.396 -0.7950  2.4083 -2.3912
 2447SOL    HW218801   4.165   3.458   0.429  3.2834  1.6933 -1.7046
 2448SOL     OW18802   2.261   1.218   7.734 -0.2887  0.0084  0.1257
 2448SOL    HW118803   2.206   1.288   7.769 -0.8190 -1.5258  2.3359
 2448SOL    HW218804   2.294   1.183   7.816 -2.8240  0.4406  1.3213
 2449SOL     OW18805   2.492   3.220   0.146 -0.0563  0.4023  0.1344
 2449SOL    HW118806   2.478   3.126   0.157  0.5224  0.1258 -1.4729
 2449SOL    HW218807   2.416   3.252   0.097  0.6885 -0.3952 -1.5392
 2450SOL     OW18808   3.868   2.428   2.463  0.0346 -0.0801 -0.6123
 2450SOL    HW118809   3.929   2.501   2.471 -2.0246  1.9229 -2.8957
 2450SOL    HW218810   3.823   2.462   2.385 -0.7616  1.0436  0.3385
 2451SOL     OW18811   4.509   4.426   8.617 -0.4611 -0.0147  0.0555
 2451SOL    HW118812   4.434   4.486   8.624  0.2082  0.9315 -0.9470
 2451SOL    HW218813   4.493   4.353   8.558 -0.1227  1.3332 -1.7106
 2452SOL     OW18814   4.151   4.373   3.871 -0.1039  0.1241 -0.4087
 2452SOL    HW118815   4.077   4.424   3.903 -1.0570 -0.9160 -0.9688
 2452SOL    HW218816   4.109   4.319   3.805  0.3780  1.9887 -2.2237
 2453SOL     OW18817   2.894   3.514   3.015  0.2804  0.4870 -0.5978
 2453SOL    HW118818   2.958   3.458   3.058  0.3526  0.7854 -0.3083
 2453SOL    HW218819   2.943   3.535   2.936 -1.2323  3.2847 -0.8132
 2454SOL     OW18820   0.633   2.442   6.723  0.8009  0.1960  0.4319
 2454SOL    HW118821   0.630   2.397   6.807 -2.0679  2.0771  1.3391
 2454SOL    HW218822   0.682   2.523   6.740  1.3115 -0.1987  0.8281
 2455SOL     OW18823   3.291   1.451   5.193 -0.0012 -0.0179 -0.0943
 2455SOL    HW118824   3.350   1.386   5.155 -0.4784 -1.6686  1.9744
 2455SOL    HW218825   3.213   1.395   5.197  2.1118 -2.7754  2.7212
 2456SOL     OW18826   0.060   1.110   6.631 -0.0158 -0.5137  0.1032
 2456SOL    HW118827   0.030   1.167   6.560 -1.9622 -1.4926  0.1454
 2456SOL    HW218828   4.707   1.052   6.631 -1.1814  1.0160 -0.4707
 2457SOL     OW18829   1.516   1.728  17.605 -0.4656  0.4307 -0.6172
 2457SOL    HW118830   1.536   1.722   0.007  0.0157  0.7930 -0.6939
 2457SOL    HW218831   1.593   1.683  17.570  0.7785  0.3178  2.2469
 2458SOL     OW18832   0.329   4.660   4.802 -0.2819 -0.2233  0.0336
 2458SOL    HW118833   0.406   4.685   4.751 -0.2116  2.1395  1.2984
 2458SOL    HW218834   0.305   4.578   4.758 -3.7692  0.6933  0.1828
 2459SOL     OW18835   4.403   2.611  14.622 -0.0984  0.4863  0.4904
 2459SOL    HW118836   4.475   2.670  14.646 -0.1779  0.7077  0.1949
 2459SOL    HW218837   4.420   2.535  14.677 -0.1331 -0.3132 -0.5955
 2460SOL     OW18838   1.525   3.504   8.198 -0.4085  0.4231  0.0898
 2460SOL    HW118839   1.460   3.439   8.226 -0.2242  0.1952 -0.0054
 2460SOL    HW218840   1.461   3.553   8.146 -1.7853 -2.4593 -0.9828
 2461SOL     OW18841   3.139   3.984  12.377  0.8583 -0.6114 -0.2211
 2461SOL    HW118842   3.193   3.972  12.299 -1.0488  0.5540 -1.7140
 2461SOL    HW218843   3.132   3.895  12.413  0.7822 -0.3848  0.3284
 2462SOL     OW18844   0.107   0.041   4.876  0.3546 -0.1286 -0.2464
 2462SOL    HW118845   0.183   4.720   4.837  0.8896  1.5471 -1.0918
 2462SOL    HW218846   0.116   0.130   4.842  2.2657 -0.6144 -1.0129
 2463SOL     OW18847   0.179   3.252  15.831  0.8247  0.2497 -0.0398
 2463SOL    HW118848   0.229   3.233  15.911  0.7195  0.1616  0.0048
 2463SOL    HW218849   0.208   3.339  15.804 -2.0660  1.6288  1.3374
 2464SOL     OW18850   1.457   3.833   2.206  0.6582 -0.1326  0.3753
 2464SOL    HW118851   1.475   3.741   2.220 -0.5130 -0.4591 -0.2450
 2464SOL    HW218852   1.539   3.872   2.175 -0.5579  0.8396 -1.6196
 2465SOL     OW18853   2.101   2.989   7.727  0.0517 -0.5873 -0.0915
 2465SOL    HW118854   2.118   3.049   7.799  0.1036 -1.1702  0.3847
 2465SOL    HW218855   2.112   2.907   7.775  0.6836 -1.5330 -1.8377
 2466SOL     OW18856   1.062   4.084   2.302  0.7184  0.1681 -0.3013
 2466SOL    HW118857   1.145   4.045   2.273  0.8028  0.0573  0.0876
 2466SOL    HW218858   1.087   4.139   2.376  0.9494 -1.3888  0.7935
 2467SOL     OW18859   0.493   0.179   8.381  0.4830  0.4766  0.2983
 2467SOL    HW118860   0.420   0.117   8.374 -0.1176  1.3003 -0.7159
 2467SOL    HW218861   0.550   0.146   8.450  2.3222  1.3287 -0.8421
 2468SOL     OW18862   1.835   3.914   2.977 -0.7672  0.0992 -0.3357
 2468SOL    HW118863   1.836   3.895   3.071 -0.8272  0.5377 -0.2473
 2468SOL    HW218864   1.825   3.825   2.942  0.1475 -1.0208  2.2800
 2469SOL     OW18865   2.175   1.589  14.443 -0.1760  0.0204 -0.0524
 2469SOL    HW118866   2.190   1.679  14.469  1.5887 -0.2547 -0.1059
 2469SOL    HW218867   2.079   1.590  14.447 -0.2117  0.0942 -0.7930
 2470SOL     OW18868   1.758   0.222  15.608 -0.2551 -0.4547 -0.0283
 2470SOL    HW118869   1.694   0.233  15.679  0.3471  0.5783  0.3453
 2470SOL    HW218870   1.829   0.179  15.657  1.7107  0.9934 -1.6419
 2471SOL     OW18871   4.329   1.527  15.277  0.1588  0.7562 -0.2402
 2471SOL    HW118872   4.380   1.508  15.198 -1.1334  1.2880 -1.2025
 2471SOL    HW218873   4.325   1.622  15.272 -1.1018  0.6397 -1.3360
 2472SOL     OW18874   4.627   2.215   8.784 -0.1462 -0.3062  0.1104
 2472SOL    HW118875   4.721   2.204   8.796 -0.0870  0.0729 -0.0118
 2472SOL    HW218876   4.620   2.291   8.842  0.7362 -0.9557  1.0856
 2473SOL     OW18877   4.622   3.135   1.970 -0.0206  0.3444 -0.4145
 2473SOL    HW118878   4.532   3.147   1.941  0.2615 -0.4107 -1.6009
 2473SOL    HW218879   4.617   3.148   2.065 -0.2345  0.6369 -0.4651
 2474SOL     OW18880   2.725   1.948   0.698  0.1548 -0.4185  0.4894
 2474SOL    HW118881   2.648   1.994   0.733  1.4696  2.3309 -0.2918
 2474SOL    HW218882   2.689   1.859   0.693 -0.9739 -0.0201  1.4015
 2475SOL     OW18883   1.171   3.166   0.628 -0.0946 -0.2090  0.1512
 2475SOL    HW118884   1.105   3.236   0.628 -0.0346 -0.1524 -0.0763
 2475SOL    HW218885   1.108   3.101   0.659  1.4033 -1.5751  0.2640
 2476SOL     OW18886   4.229   4.454   7.838 -0.0786 -0.3085 -0.1478
 2476SOL    HW118887   4.242   4.543   7.869 -1.3131 -0.3829  0.5790
 2476SOL    HW218888   4.158   4.423   7.894  0.3780  0.6630  0.9717
 2477SOL     OW18889   4.090   2.601   5.719  0.5333 -0.1515  0.6655
 2477SOL    HW118890   4.024   2.533   5.729  0.3505 -0.1301 -0.4577
 2477SOL    HW218891   4.039   2.679   5.696  0.4783  0.0008  1.3035
 2478SOL     OW18892   0.432   0.446   8.389  0.5326 -0.7143 -0.9662
 2478SOL    HW118893   0.391   0.448   8.303 -0.0343  3.0415 -0.5903
 2478SOL    HW218894   0.451   0.353   8.401 -0.8948 -1.0160 -1.0714
 2479SOL     OW18895   0.185   2.653  13.033 -0.2488  0.1079 -0.2117
 2479SOL    HW118896   0.170   2.571  12.986  0.5612 -0.0457 -0.2021
 2479SOL    HW218897   0.117   2.651  13.100 -0.7348  0.1606 -0.7103
 2480SOL     OW18898   0.899   4.416   5.069 -0.0815 -0.4086 -0.1447
 2480SOL    HW118899   0.947   4.498   5.086  0.2304 -0.4343 -0.8635
 2480SOL    HW218900   0.807   4.440   5.072 -0.3196 -1.7367  2.4775
 2481SOL     OW18901   0.365   2.035  12.913  0.4471 -0.6611 -0.1412
 2481SOL    HW118902   0.286   2.064  12.958  0.8768  2.2657 -1.2317
 2481SOL    HW218903   0.331   2.010  12.827  0.7748  1.6103 -0.9309
 2482SOL     OW18904   0.074   3.959  14.828 -0.5494  0.0212  0.2919
 2482SOL    HW118905   0.015   4.021  14.785  1.1133 -0.4132 -2.6800
 2482SOL    HW218906   0.132   3.938  14.754 -1.0014 -0.2583  0.0210
 2483SOL     OW18907   0.672   1.410   2.511  0.3626 -0.4690 -0.0371
 2483SOL    HW118908   0.620   1.469   2.566  0.2223 -0.8428  0.2336
 2483SOL    HW218909   0.763   1.433   2.532  0.7370 -1.8063 -0.1808
 2484SOL     OW18910   1.334   2.892  12.991 -0.2523  0.0127  0.3182
 2484SOL    HW118911   1.307   2.946  13.065 -1.9154  0.2910 -0.4991
 2484SOL    HW218912   1.336   2.953  12.917  1.9434 -0.9987 -0.4760
 2485SOL     OW18913   2.568   0.864   4.311  0.1087  0.0238  0.5063
 2485SOL    HW118914   2.586   0.945   4.358 -0.0768  0.3693 -0.0159
 2485SOL    HW218915   2.658   0.832   4.301  1.0841  2.1904  2.3929
 2486SOL     OW18916   0.901   0.465  10.695 -0.8919 -0.1772 -0.6157
 2486SOL    HW118917   0.919   0.372  10.679 -0.2618 -0.0319 -0.7334
 2486SOL    HW218918   0.834   0.482  10.629  1.5818  2.6856 -2.3310
 2487SOL     OW18919   0.635   3.117   9.176  0.4872  0.1580 -0.1624
 2487SOL    HW118920   0.557   3.171   9.162  0.8182  0.2321 -1.7346
 2487SOL    HW218921   0.685   3.126   9.095 -0.5723 -1.3983 -0.9981
 2488SOL     OW18922   1.702   0.927   3.449  0.2156  0.9621 -0.2161
 2488SOL    HW118923   1.707   0.902   3.356  0.2794 -0.6699  0.2225
 2488SOL    HW218924   1.692   0.841   3.491  0.7437  0.1874 -1.6724
 2489SOL     OW18925   0.948   3.233   6.859  0.4213 -0.1798  0.4188
 2489SOL    HW118926   0.907   3.293   6.797 -1.4689 -0.2069  1.6286
 2489SOL    HW218927   0.893   3.234   6.938  0.5189 -0.7082  0.4906
 2490SOL     OW18928   1.895   2.897   3.584 -0.1867 -0.4120  0.4160
 2490SOL    HW118929   1.819   2.857   3.541  0.6977 -0.4362 -1.1208
 2490SOL    HW218930   1.958   2.830   3.557  0.8461  0.9262 -0.4571
 2491SOL     OW18931   4.084   4.478   1.099 -0.1699 -0.3383  0.4154
 2491SOL    HW118932   4.069   4.384   1.097  0.1084 -0.3649 -0.2329
 2491SOL    HW218933   4.076   4.496   1.193  0.8204  0.7328  0.2926
 2492SOL     OW18934   4.531   1.483   7.704  0.0127 -0.2928  0.2921
 2492SOL    HW118935   4.615   1.474   7.659  0.1831  2.8697  0.0012
 2492SOL    HW218936   4.489   1.397   7.705 -0.3550 -0.1214 -0.3072
 2493SOL     OW18937   0.146   0.848   8.947 -0.0824  0.1707  0.4346
 2493SOL    HW118938   0.108   0.762   8.929  1.1875  0.2314 -2.5805
 2493SOL    HW218939   0.141   0.872   9.039  1.2264 -1.5819  0.9549
 2494SOL     OW18940   3.932   4.433   4.234 -0.1947  0.1366 -0.1863
 2494SOL    HW118941   3.851   4.381   4.232 -0.0641 -0.1301  1.4666
 2494SOL    HW218942   3.942   4.482   4.152  0.6699  0.7387  0.2885
 2495SOL     OW18943   0.729   1.447   2.958  0.3311  0.2262 -0.1662
 2495SOL    HW118944   0.744   1.542   2.954  3.2357 -0.0737  2.7069
 2495SOL    HW218945   0.802   1.430   3.018  0.7747  1.0068 -0.4864
 2496SOL     OW18946   0.730   0.919   1.749 -0.0110  0.4831 -0.3554
 2496SOL    HW118947   0.700   0.833   1.719  0.6843  0.4704 -1.0215
 2496SOL    HW218948   0.652   0.974   1.743  0.1423  0.9584  1.9337
 2497SOL     OW18949   1.585   1.753   9.057 -0.3240  0.1333  0.6350
 2497SOL    HW118950   1.491   1.746   9.038 -0.2099 -0.3704  0.2654
 2497SOL    HW218951   1.593   1.848   9.070 -1.1039  0.2487  0.2865
 2498SOL     OW18952   0.088   0.331   2.249 -0.1725 -0.3226 -0.2159
 2498SOL    HW118953   0.041   0.255   2.283  1.3090 -1.2515 -0.2637
 2498SOL    HW218954   0.095   0.382   2.330  0.3655  0.7503 -0.9512
 2499SOL     OW18955   0.434   0.294   4.440 -0.4497 -0.1492 -0.2116
 2499SOL    HW118956   0.362   0.231   4.446 -1.7496  1.2004 -1.6775
 2499SOL    HW218957   0.438   0.315   4.533 -1.4448 -1.5845  0.1537
 2500SOL     OW18958   4.694   0.244   8.853  0.3179  0.8561 -0.2717
 2500SOL    HW118959   0.039   0.190   8.895  1.1645 -0.2469 -3.0952
 2500SOL    HW218960   0.021   0.326   8.856  1.7924 -0.0511 -0.2357
 2501SOL     OW18961   1.370   0.289  16.103  0.0360  0.0149  0.8040
 2501SOL    HW118962   1.353   0.219  16.040  0.1538  0.7680 -0.0619
 2501SOL    HW218963   1.294   0.261  16.153 -0.7996  1.8435  0.5612
 2502SOL     OW18964   0.366   3.574   2.842  0.8091  0.1278  0.1392
 2502SOL    HW118965   0.387   3.624   2.921 -0.0738  0.8053 -0.0525
 2502SOL    HW218966   0.331   3.495   2.883 -0.8591  1.1671  0.7447
 2503SOL     OW18967   3.580   1.637   4.569  0.2649  0.1277 -0.1346
 2503SOL    HW118968   3.555   1.690   4.493 -0.3410  0.7617  0.5190
 2503SOL    HW218969   3.663   1.597   4.542  1.0359  2.1594 -0.7626
 2504SOL     OW18970   4.241   3.939   5.427  0.4705  0.2561 -0.1482
 2504SOL    HW118971   4.217   3.891   5.506  1.7307  1.6811  1.0905
 2504SOL    HW218972   4.257   3.864   5.370 -3.1137  0.9603 -2.0627
 2505SOL     OW18973   1.746   2.856   2.418 -0.3791 -0.1269  0.5222
 2505SOL    HW118974   1.729   2.804   2.340  0.5450  1.4744 -0.7455
 2505SOL    HW218975   1.681   2.927   2.417  1.1232  1.2009 -2.4182
 2506SOL     OW18976   0.552   3.100   7.268  0.2548 -0.3748 -0.1838
 2506SOL    HW118977   0.532   3.009   7.245 -0.5445 -0.1307 -0.4530
 2506SOL    HW218978   0.506   3.138   7.193 -0.7463 -0.0734  0.5789
 2507SOL     OW18979   2.686   1.787   7.105 -0.2427 -0.0832  0.4635
 2507SOL    HW118980   2.708   1.710   7.158  0.7569  0.7884  1.3064
 2507SOL    HW218981   2.602   1.752   7.076  0.7164  0.0044 -2.4129
 2508SOL     OW18982   2.464   2.844   3.950 -0.2208 -0.1408 -0.3484
 2508SOL    HW118983   2.417   2.907   3.895 -0.0857  0.9323  0.7582
 2508SOL    HW218984   2.389   2.789   3.974 -0.7083  0.4841 -0.4333
 2509SOL     OW18985   0.002   4.556  10.572  0.4886 -0.8545 -0.2018
 2509SOL    HW118986   4.639   4.593  10.594  1.2245  0.0339  1.1087
 2509SOL    HW218987   4.709   4.462  10.558 -0.5093 -0.3420 -2.5711
 2510SOL     OW18988   2.498   2.476   3.484 -0.5923 -0.0625  0.3097
 2510SOL    HW118989   2.427   2.413   3.470  0.0141 -0.8316  0.6439
 2510SOL    HW218990   2.514   2.513   3.398  1.5839  0.9243  1.1442
 2511SOL     OW18991   1.300   3.716   6.214 -0.5277 -0.4664  0.3249
 2511SOL    HW118992   1.210   3.739   6.190 -0.6552  0.4978  1.7398
 2511SOL    HW218993   1.282   3.637   6.265  0.3174 -0.4135  0.7028
 2512SOL     OW18994   1.430   4.506   8.212  0.9317 -0.0428  0.5695
 2512SOL    HW118995   1.440   4.531   8.120  0.8984  0.3864  0.6839
 2512SOL    HW218996   1.448   4.412   8.206  0.5909 -0.0777  0.0522
 2513SOL     OW18997   4.172   3.120   9.025  0.0449  0.5686  0.1247
 2513SOL    HW118998   4.101   3.118   9.089  0.1515 -0.4888  0.1959
 2513SOL    HW218999   4.116   3.137   8.949 -3.2284  2.0554  2.8630
 2514SOL     OW19000   1.443   1.795  12.300  0.0130  0.2186  0.2383
 2514SOL    HW119001   1.371   1.775  12.360 -0.3373 -0.6484 -0.4751
 2514SOL    HW219002   1.496   1.720  12.329 -0.3728  1.0995  3.2401
 2515SOL     OW19003   2.279   0.482   6.618  0.0917 -0.2485 -0.0355
 2515SOL    HW119004   2.248   0.490   6.528  0.8453  1.1002 -0.1673
 2515SOL    HW219005   2.366   0.521   6.615  0.2366 -0.6207 -0.6009
 2516SOL     OW19006   0.645   1.836   0.152  0.3936 -0.0951  0.4356
 2516SOL    HW119007   0.701   1.886   0.212  2.7903  0.4898 -2.2861
 2516SOL    HW219008   0.573   1.809   0.209 -1.0656  2.1369 -0.3455
 2517SOL     OW19009   1.941   3.796   5.810  0.4370  0.1780  0.6614
 2517SOL    HW119010   2.007   3.751   5.757 -0.6574 -1.8974  1.0320
 2517SOL    HW219011   1.857   3.769   5.773  0.7767 -0.5772  0.4376
 2518SOL     OW19012   0.418   4.661   5.145  0.6361 -0.4448 -0.3602
 2518SOL    HW119013   0.418   4.715   5.066 -2.2445  0.4703  0.2551
 2518SOL    HW219014   0.453   4.715   5.216 -2.7487  0.3918  0.6769
 2519SOL     OW19015   0.871   3.127   4.857  0.0860 -0.2481 -0.0657
 2519SOL    HW119016   0.867   3.180   4.777  4.2413  3.2125  2.0760
 2519SOL    HW219017   0.831   3.052   4.812 -1.8918  0.6189  0.2380
 2520SOL     OW19018   2.119   0.729   5.774  0.3637  0.4201  0.9062
 2520SOL    HW119019   2.140   0.641   5.806  2.1362 -0.3196 -2.3946
 2520SOL    HW219020   2.197   0.774   5.806  0.4314  1.9706 -1.4590
 2521SOL     OW19021   0.407   4.135   8.496 -0.0390  0.2794  0.0096
 2521SOL    HW119022   0.325   4.146   8.449  0.2236  1.9064 -0.0600
 2521SOL    HW219023   0.428   4.048   8.461 -2.3680 -0.6767  0.9708
 2522SOL     OW19024   0.161   2.931   4.806  0.2198 -0.2164  0.5693
 2522SOL    HW119025   0.090   2.898   4.862 -2.7820  3.2186 -1.1655
 2522SOL    HW219026   0.233   2.929   4.869  0.7809  0.5318 -0.0458
 2523SOL     OW19027   2.423   3.672   5.257 -0.3067 -0.5790  0.0818
 2523SOL    HW119028   2.395   3.664   5.348 -1.3983 -0.8472 -0.2807
 2523SOL    HW219029   2.461   3.760   5.263  0.5441 -0.9283 -0.2235
 2524SOL     OW19030   0.668   0.779   8.629  0.4601 -0.1792 -0.5028
 2524SOL    HW119031   0.752   0.824   8.622  1.5183 -1.5212  3.5408
 2524SOL    HW219032   0.658   0.747   8.540 -1.8313  0.9239 -0.6523
 2525SOL     OW19033   1.632   3.831   7.530 -0.5907  0.0396  0.2588
 2525SOL    HW119034   1.680   3.752   7.504  0.3504  0.6909  0.0270
 2525SOL    HW219035   1.550   3.802   7.571  0.0375  0.4258  1.7984
 2526SOL     OW19036   2.889   4.484   5.304  0.1627 -0.3833 -0.2078
 2526SOL    HW119037   2.870   4.573   5.336  0.6981  0.2645 -1.7120
 2526SOL    HW219038   2.807   4.438   5.321 -0.9581  1.1208 -1.5519
 2527SOL     OW19039   3.319   1.759  11.257  0.0716 -0.3412  0.3849
 2527SOL    HW119040   3.400   1.722  11.222 -0.3924 -1.4853  0.5170
 2527SOL    HW219041   3.336   1.747  11.350  4.1120  0.0331 -0.3069
 2528SOL     OW19042   2.935   4.346  13.856 -0.9732  0.5877  0.6089
 2528SOL    HW119043   2.957   4.294  13.779 -1.2393  2.1330 -0.4945
 2528SOL    HW219044   3.025   4.369  13.879  0.0211  0.3904 -3.0603
 2529SOL     OW19045   0.498   0.799   4.076 -0.1169  0.6646 -0.0311
 2529SOL    HW119046   0.410   0.801   4.039 -0.3290  1.2734  0.4937
 2529SOL    HW219047   0.555   0.820   4.002 -0.5104  1.4098 -0.1257
 2530SOL     OW19048   0.045   0.962   3.357  0.0908 -0.1811  0.1559
 2530SOL    HW119049   0.058   0.962   3.262  1.0856 -2.1363  0.2860
 2530SOL    HW219050   0.106   0.894   3.387  1.2137  1.7050  2.1413
 2531SOL     OW19051   4.163   3.854   5.739  0.5582 -0.1592 -0.2549
 2531SOL    HW119052   4.250   3.888   5.718  1.3241 -2.1730 -0.3846
 2531SOL    HW219053   4.171   3.861   5.834 -3.1351 -0.4940  0.0672
 2532SOL     OW19054   1.485   0.515  10.501  0.2955 -0.1710  0.2056
 2532SOL    HW119055   1.435   0.540  10.579 -0.4638 -0.9450 -0.0410
 2532SOL    HW219056   1.574   0.493  10.531  1.2266  3.4229  0.1745
 2533SOL     OW19057   3.608   4.496   7.813  0.0446  0.0460 -0.7733
 2533SOL    HW119058   3.697   4.496   7.780  0.5158 -1.3179  0.4955
 2533SOL    HW219059   3.560   4.460   7.738 -1.7102 -0.0385  0.3758
 2534SOL     OW19060   1.119   1.640   7.011  0.0857 -0.1890  0.1828
 2534SOL    HW119061   1.162   1.670   6.931  0.3865 -1.6507 -0.2018
 2534SOL    HW219062   1.046   1.587   6.979  0.9835 -0.2399 -1.7996
 2535SOL     OW19063   0.239   0.054  12.195 -0.6790 -0.1328  0.2162
 2535SOL    HW119064   0.313   0.026  12.249  0.0716  1.8365  0.2155
 2535SOL    HW219065   0.209   4.689  12.171  2.1601 -1.0159 -0.1017
 2536SOL     OW19066   4.094   0.810   3.370 -0.4050  0.1455 -0.6952
 2536SOL    HW119067   4.020   0.841   3.423  2.0384  0.3684  2.6214
 2536SOL    HW219068   4.061   0.810   3.281  3.5845 -1.3960 -2.2025
 2537SOL     OW19069   2.741   1.995   6.631  0.5337  0.1289  0.6295
 2537SOL    HW119070   2.721   1.915   6.583 -0.2699 -0.8865  2.6660
 2537SOL    HW219071   2.671   2.012   6.695 -0.1735 -1.7274  0.3518
 2538SOL     OW19072   4.071   0.111  11.393 -0.1010  0.0208  0.3454
 2538SOL    HW119073   4.012   0.139  11.322  0.6434 -1.2548 -0.7797
 2538SOL    HW219074   4.123   0.054  11.336  0.1512  0.9723 -0.3781
 2539SOL     OW19075   2.683   1.068   4.496 -0.0191 -0.0192  0.0824
 2539SOL    HW119076   2.767   1.026   4.478  1.0705  1.8081  0.8467
 2539SOL    HW219077   2.678   1.144   4.438 -0.1927  0.1975  0.3819
 2540SOL     OW19078   1.308   1.764   9.825 -0.0468 -0.1691 -0.1813
 2540SOL    HW119079   1.403   1.776   9.823 -0.0513  0.0095  0.9632
 2540SOL    HW219080   1.285   1.763   9.918  1.4371 -0.5933  0.1873
 2541SOL     OW19081   1.902   4.377   1.650  0.0840  1.1225 -0.1601
 2541SOL    HW119082   1.914   4.472   1.657  0.4229  0.7370  4.1614
 2541SOL    HW219083   1.807   4.371   1.640  0.4665 -1.8131 -2.0457
 2542SOL     OW19084   1.162   4.445   5.692 -0.1020  0.7934 -0.1085
 2542SOL    HW119085   1.176   4.539   5.689  0.8086  0.5525 -3.8553
 2542SOL    HW219086   1.134   4.418   5.604 -0.5577  0.6903  0.0674
 2543SOL     OW19087   1.006   0.709   1.150 -0.7888  0.1413 -0.2867
 2543SOL    HW119088   1.066   0.782   1.166 -1.0853  0.1293  0.8730
 2543SOL    HW219089   1.059   0.636   1.182 -1.0103  0.8707  1.7605
 2544SOL     OW19090   0.986   1.691   9.246  0.3562 -0.2489  0.0013
 2544SOL    HW119091   0.994   1.762   9.310 -1.6683 -2.1593  2.3836
 2544SOL    HW219092   0.930   1.733   9.181 -2.5978 -0.5644  2.3690
 2545SOL     OW19093   1.390   2.294  14.304  0.2606 -0.0845  0.0610
 2545SOL    HW119094   1.303   2.325  14.280  0.5271  0.5465 -0.0957
 2545SOL    HW219095   1.364   2.204  14.324  0.0110  0.7970  3.6071
 2546SOL     OW19096   1.264   0.821   2.147  0.0700 -0.6056 -0.2343
 2546SOL    HW119097   1.287   0.838   2.056  0.9288 -0.1575  0.0672
 2546SOL    HW219098   1.172   0.846   2.153  0.7017  1.4461  1.1143
 2547SOL     OW19099   2.117   2.784   9.136  0.6349  0.6500  0.1563
 2547SOL    HW119100   2.094   2.801   9.228 -0.7663 -1.7885  0.2697
 2547SOL    HW219101   2.175   2.856   9.113  0.0903  0.4220 -1.9117
 2548SOL     OW19102   1.232   1.304   0.833  0.0881  0.3676 -0.1608
 2548SOL    HW119103   1.319   1.294   0.796  0.2212  3.2848 -0.6622
 2548SOL    HW219104   1.255   1.307   0.926  0.1906  2.5257 -0.2524
 2549SOL     OW19105   1.489   0.837   0.373 -0.5148  0.2959 -0.0616
 2549SOL    HW119106   1.411   0.807   0.326  0.0501 -0.8865 -0.2508
 2549SOL    HW219107   1.519   0.765   0.429  1.4297  0.9355 -0.2773
 2550SOL     OW19108   0.287   4.236   7.675  0.4841  0.2494 -0.2614
 2550SOL    HW119109   0.363   4.288   7.699  0.0481 -0.2838  2.2480
 2550SOL    HW219110   0.264   4.189   7.755 -1.0352  1.8602  0.2664
 2551SOL     OW19111   2.051   4.675   4.286  0.0975 -0.6974  0.0206
 2551SOL    HW119112   2.069   0.043   4.312  3.3061 -1.1563 -0.5470
 2551SOL    HW219113   2.141   4.657   4.257  0.6434 -0.7211  1.7561
 2552SOL     OW19114   1.483   0.603   8.795 -0.2840  0.0507  0.7589
 2552SOL    HW119115   1.502   0.514   8.765  0.1786  0.6790 -0.8373
 2552SOL    HW219116   1.524   0.597   8.881  0.5294  1.4498  0.4649
 2553SOL     OW19117   2.066   0.601   4.181  0.2115 -0.0217 -0.0247
 2553SOL    HW119118   2.032   0.656   4.111 -0.0767 -0.6837 -0.3978
 2553SOL    HW219119   2.065   0.669   4.249  1.0332  0.0137 -0.0423
 2554SOL     OW19120   1.746   3.277  17.093  0.4225  0.0405  0.4361
 2554SOL    HW119121   1.828   3.262  17.045  0.7637  0.7151  0.7970
 2554SOL    HW219122   1.784   3.291  17.180 -1.6453  0.1977  1.3022
 2555SOL     OW19123   3.503   3.435   6.842  0.3724 -0.3649 -0.1676
 2555SOL    HW119124   3.571   3.443   6.910  0.0242 -0.7511  0.2264
 2555SOL    HW219125   3.443   3.375   6.886  0.7081 -0.0041  0.7912
 2556SOL     OW19126   1.955   0.684  12.621  0.8606 -0.2432  0.2947
 2556SOL    HW119127   1.970   0.590  12.631  0.8307 -0.5020 -2.2012
 2556SOL    HW219128   2.009   0.713  12.695 -0.1260 -1.1387  1.3710
 2557SOL     OW19129   1.259   4.044   6.290  0.6099  0.7624 -0.5695
 2557SOL    HW119130   1.181   4.001   6.324  1.3190 -0.1124 -0.0662
 2557SOL    HW219131   1.264   4.123   6.344 -1.5785 -0.1953  1.0338
 2558SOL     OW19132   0.626   0.030   0.340 -0.2232  0.7197 -0.3383
 2558SOL    HW119133   0.570   0.075   0.276 -1.0396 -0.0728 -0.1912
 2558SOL    HW219134   0.702   0.022   0.283  1.3005 -1.6466  1.9825
 2559SOL     OW19135   0.219   3.676   7.930  0.1355 -0.8588  0.5075
 2559SOL    HW119136   0.226   3.744   7.863  0.5033 -1.5070 -0.1131
 2559SOL    HW219137   0.305   3.673   7.972 -0.0839  0.4024  1.0476
 2560SOL     OW19138   4.599   3.851  10.352  0.1349 -0.0912  0.2452
 2560SOL    HW119139   4.626   3.910  10.422 -0.0040 -0.2308  0.4161
 2560SOL    HW219140   4.509   3.830  10.376  1.1950 -2.1048  2.3899
 2561SOL     OW19141   3.265   4.138  10.072  0.0638 -0.3880 -0.6082
 2561SOL    HW119142   3.284   4.145  10.165 -1.5595  2.7416 -0.4950
 2561SOL    HW219143   3.289   4.225  10.040  0.5279 -1.1115 -2.2335
 2562SOL     OW19144   0.222   3.895   4.633 -0.4887 -0.8141  0.2924
 2562SOL    HW119145   0.157   3.922   4.697  1.3607 -0.5011  2.0482
 2562SOL    HW219146   0.211   3.954   4.559 -2.3556 -1.7798 -0.1962
 2563SOL     OW19147   3.511   1.695   8.568 -0.1183  0.3105  0.0395
 2563SOL    HW119148   3.491   1.614   8.615 -0.1195 -0.7787 -1.8198
 2563SOL    HW219149   3.594   1.679   8.524  0.0494 -0.5382  0.6799
 2564SOL     OW19150   4.456   2.762  16.503  0.6445  0.2408  0.0415
 2564SOL    HW119151   4.371   2.802  16.521  0.0238 -1.2290  0.3856
 2564SOL    HW219152   4.423   2.680  16.468  1.5286 -0.0148 -0.1830
 2565SOL     OW19153   0.781   3.799   4.929 -0.2254 -0.0133  0.2715
 2565SOL    HW119154   0.839   3.869   4.957 -0.0324 -0.8954  2.1042
 2565SOL    HW219155   0.827   3.716   4.944  0.2364  0.4594  1.4615
 2566SOL     OW19156   3.267   4.716   8.171  0.3204 -0.6021  0.0117
 2566SOL    HW119157   3.217   4.651   8.123  0.2445 -0.4148 -0.1643
 2566SOL    HW219158   3.214   0.073   8.165 -0.1717 -1.0733 -1.9787
 2567SOL     OW19159   3.031   4.686   9.533  0.5536 -0.4199 -0.5889
 2567SOL    HW119160   3.006   4.715   9.445  0.8446  0.9207 -0.2193
 2567SOL    HW219161   3.125   4.696   9.519  0.3851 -0.2243 -1.5842
 2568SOL     OW19162   2.435   0.292   0.916 -0.3589  0.2781  0.1588
 2568SOL    HW119163   2.516   0.256   0.881 -0.7816 -0.1167 -0.4126
 2568SOL    HW219164   2.382   0.280   0.837 -2.1144  0.6151  1.2761
 2569SOL     OW19165   1.190   3.328   5.545  0.2248  0.5363  0.0896
 2569SOL    HW119166   1.152   3.295   5.464  0.7663  1.5208 -0.5658
 2569SOL    HW219167   1.162   3.259   5.605  0.1329  1.3992  1.0411
 2570SOL     OW19168   4.366   0.663  12.315  0.0204 -0.0356 -0.3113
 2570SOL    HW119169   4.422   0.589  12.292  0.1005 -0.8336  2.4392
 2570SOL    HW219170   4.295   0.612  12.354  0.4496  0.5012  1.1401
 2571SOL     OW19171   3.238   4.349  13.874  0.1673 -0.1178  0.2433
 2571SOL    HW119172   3.313   4.316  13.823  0.8182 -0.3072  1.3131
 2571SOL    HW219173   3.276   4.400  13.946  0.2888  1.7806 -1.1676
 2572SOL     OW19174   0.050   2.066   5.251 -0.5417 -0.1385  0.2348
 2572SOL    HW119175   0.080   2.157   5.245  0.9244 -0.6571 -0.1902
 2572SOL    HW219176   0.065   2.050   5.344  1.5649 -2.7363 -0.5415
 2573SOL     OW19177   2.946   4.325   4.690 -0.0160 -0.0571 -0.2528
 2573SOL    HW119178   2.911   4.357   4.773  0.6469 -1.9021  0.7148
 2573SOL    HW219179   2.953   4.410   4.646 -1.8910 -0.4692 -1.3922
 2574SOL     OW19180   3.729   0.233   4.100  0.5865  0.2186  0.3228
 2574SOL    HW119181   3.657   0.255   4.159 -0.1705 -0.5537 -0.3013
 2574SOL    HW219182   3.676   0.206   4.025 -0.5389  2.2699  0.3577
 2575SOL     OW19183   1.811   0.733   9.543  0.1673  0.4260  0.0230
 2575SOL    HW119184   1.808   0.735   9.639 -0.0027 -4.8257  0.0979
 2575SOL    HW219185   1.719   0.738   9.518  0.1240 -0.8828 -0.0619
 2576SOL     OW19186   0.940   0.499  12.487  0.0740 -0.3587 -0.0304
 2576SOL    HW119187   0.965   0.576  12.434  0.0485 -0.2287  0.1482
 2576SOL    HW219188   1.028   0.462  12.490  1.7598  3.4548 -1.5769
 2577SOL     OW19189   1.739   0.051  14.721 -0.2020  0.4971 -0.2188
 2577SOL    HW119190   1.659   0.039  14.773  0.4087 -2.5870  0.0230
 2577SOL    HW219191   1.720   4.710  14.652 -0.2731 -0.4949  0.7097
 2578SOL     OW19192   4.436   4.040   3.109 -0.1630 -0.0841 -0.5705
 2578SOL    HW119193   4.476   4.100   3.172 -2.3040 -0.2470  0.9816
 2578SOL    HW219194   4.450   3.957   3.153  1.9839 -0.2210 -1.5426
 2579SOL     OW19195   0.844   1.390   9.889 -0.8808 -0.0097  0.3545
 2579SOL    HW119196   0.748   1.391   9.890 -0.8871 -1.2497  0.1679
 2579SOL    HW219197   0.862   1.302   9.857 -0.3716 -0.5463  2.0719
 2580SOL     OW19198   3.837   2.828   1.656 -0.0227 -0.1182  0.5821
 2580SOL    HW119199   3.764   2.830   1.719  0.8710 -2.4594  1.6675
 2580SOL    HW219200   3.788   2.825   1.573  0.4091  0.6333  0.2979
 2581SOL     OW19201   1.409   4.442  11.802  0.2266 -0.1619 -0.3606
 2581SOL    HW119202   1.497   4.424  11.836  0.3277 -2.2085 -1.6649
 2581SOL    HW219203   1.364   4.464  11.883  1.0300  1.4513 -0.3531
 2582SOL     OW19204   3.482   3.293   3.812  0.4127 -0.1422  0.1244
 2582SOL    HW119205   3.530   3.294   3.895  1.9112  0.0332 -0.7491
 2582SOL    HW219206   3.472   3.386   3.790  0.4716  0.2119  1.5609
 2583SOL     OW19207   0.828   2.268   1.995 -0.6179 -0.5162  0.0404
 2583SOL    HW119208   0.829   2.335   1.926 -1.5032 -0.0181  0.5075
 2583SOL    HW219209   0.735   2.268   2.017 -1.0515  1.3038 -1.8098
 2584SOL     OW19210   0.882   1.341   2.142 -0.2815  0.3927 -0.2343
 2584SOL    HW119211   0.914   1.406   2.205  0.0706 -1.4233  1.4487
 2584SOL    HW219212   0.889   1.384   2.056 -2.3904 -0.9364 -1.0806
 2585SOL     OW19213   2.423   4.212   8.358  0.2394 -0.4390 -0.0475
 2585SOL    HW119214   2.389   4.286   8.307  0.3866 -1.7462 -2.0286
 2585SOL    HW219215   2.390   4.239   8.443  0.4329 -0.3557  0.0000
 2586SOL     OW19216   1.189   0.280   6.564 -0.2839  0.4948  0.0085
 2586SOL    HW119217   1.135   0.201   6.557  0.5342  0.0117 -0.8078
 2586SOL    HW219218   1.136   0.346   6.520 -2.4298  0.4384  2.5002
 2587SOL     OW19219   2.077   3.737   2.914 -0.4246 -0.0555 -0.1272
 2587SOL    HW119220   2.065   3.675   2.986 -1.4229  2.1973  1.6283
 2587SOL    HW219221   2.140   3.799   2.949  1.5889 -1.7155 -0.7738
 2588SOL     OW19222   0.315   4.561   8.268  0.1389 -0.2681 -0.1453
 2588SOL    HW119223   0.351   4.482   8.228  2.9422  0.9590 -0.0666
 2588SOL    HW219224   0.319   4.552   8.363  3.6711 -1.4157 -0.4182
 2589SOL     OW19225   3.067   3.342   2.073 -0.3482  0.1627 -0.0837
 2589SOL    HW119226   3.155   3.304   2.069 -2.2226 -4.0473 -0.3889
 2589SOL    HW219227   3.082   3.437   2.079  1.4336 -0.0593 -1.0344
 2590SOL     OW19228   3.385   2.060  11.429 -0.4074  0.8978 -0.3215
 2590SOL    HW119229   3.320   2.068  11.498  0.8030 -0.1155  0.9259
 2590SOL    HW219230   3.455   2.011  11.471 -1.6886 -1.3918 -0.8330
 2591SOL     OW19231   3.101   2.125  10.332 -0.4499  0.2994  0.1939
 2591SOL    HW119232   3.051   2.152  10.255 -0.6423 -2.0407 -0.5049
 2591SOL    HW219233   3.044   2.059  10.371 -1.4304 -0.1910 -2.1108
 2592SOL     OW19234   3.454   2.553  11.733 -0.3197 -0.4830  0.4075
 2592SOL    HW119235   3.419   2.482  11.679 -2.4424  0.3737  0.6717
 2592SOL    HW219236   3.374   2.605  11.738 -0.3919 -0.8586  3.2114
 2593SOL     OW19237   1.419   1.504   2.729  0.1511  0.3966 -0.2115
 2593SOL    HW119238   1.395   1.556   2.806  2.3636  1.1411 -0.0259
 2593SOL    HW219239   1.339   1.500   2.677  1.5968 -1.7114 -2.2641
 2594SOL     OW19240   2.260   1.822  11.110  0.1684 -0.3096  0.4838
 2594SOL    HW119241   2.209   1.770  11.173 -1.6533  0.0871 -0.6541
 2594SOL    HW219242   2.344   1.778  11.120  0.0925 -0.9426 -1.6836
 2595SOL     OW19243   3.741   4.086  13.332  0.3750 -0.2863 -0.0964
 2595SOL    HW119244   3.648   4.085  13.314  0.6024 -3.7880 -1.0333
 2595SOL    HW219245   3.741   4.093  13.428  1.0703  0.9531 -0.1938
 2596SOL     OW19246   4.166   3.861   4.191 -0.2395 -0.2829 -0.1665
 2596SOL    HW119247   4.184   3.954   4.176  0.6188 -0.0160  2.4594
 2596SOL    HW219248   4.178   3.867   4.286  1.9320 -0.0263 -0.4497
 2597SOL     OW19249   2.658   2.391   2.656  0.3771  0.4034  0.0021
 2597SOL    HW119250   2.620   2.467   2.612 -1.4440 -2.1245 -2.8610
 2597SOL    HW219251   2.726   2.360   2.595  1.4017 -0.9501  1.8274
 2598SOL     OW19252   0.883   1.977   8.496  0.7454 -0.5661  0.0174
 2598SOL    HW119253   0.805   1.985   8.551  0.8045 -2.7850  0.4174
 2598SOL    HW219254   0.892   1.884   8.476  0.4349 -1.0190  2.0473
 2599SOL     OW19255   0.483   0.606  12.039  0.0634  0.2479 -0.2644
 2599SOL    HW119256   0.479   0.672  11.969  1.9879 -0.8682 -1.4292
 2599SOL    HW219257   0.409   0.549  12.018 -1.8541  2.6122  0.1158
 2600SOL     OW19258   0.315   1.742   9.244 -0.1533  0.4046  0.0091
 2600SOL    HW119259   0.370   1.819   9.235  1.0760 -0.7613 -2.5386
 2600SOL    HW219260   0.293   1.742   9.337 -1.4421  1.4387 -0.2906
 2601SOL     OW19261   0.207   3.506   0.096  0.9448  0.0831  0.4102
 2601SOL    HW119262   0.285   3.487   0.148 -0.3334  0.3020  2.4133
 2601SOL    HW219263   0.156   3.574   0.141 -2.0223 -0.2959 -2.4252
 2602SOL     OW19264   4.382   3.389   6.930  0.2361 -0.2230 -0.5661
 2602SOL    HW119265   4.314   3.333   6.969  0.7048  0.7708  1.6311
 2602SOL    HW219266   4.392   3.348   6.844 -1.2253  1.8207 -1.6986
 2603SOL     OW19267   1.066   4.345   5.463  0.5919  0.7492 -0.0110
 2603SOL    HW119268   1.134   4.279   5.477 -0.1412  0.2711  1.2362
 2603SOL    HW219269   1.000   4.284   5.429  2.6747 -0.5758 -1.7041
 2604SOL     OW19270   3.108   4.033   2.269  0.2310  0.1477  0.0021
 2604SOL    HW119271   3.121   4.097   2.198 -1.3838  0.3299 -0.1293
 2604SOL    HW219272   3.045   3.970   2.234 -0.2883  0.3193  0.6273
 2605SOL     OW19273   2.484   2.972  13.627 -0.6489 -0.1741  0.2905
 2605SOL    HW119274   2.470   2.930  13.542  0.5834 -0.1878  0.0889
 2605SOL    HW219275   2.574   3.002  13.616 -1.4492  0.8284 -3.4761
 2606SOL     OW19276   2.546   1.481   7.810  0.0092  0.6574  0.2643
 2606SOL    HW119277   2.613   1.539   7.844  0.5562 -0.2643  0.7527
 2606SOL    HW219278   2.512   1.450   7.894  0.3589  3.0305  1.2734
 2607SOL     OW19279   3.815   2.227   2.642  0.1174 -0.0853 -0.3952
 2607SOL    HW119280   3.843   2.307   2.597  3.7484 -1.2863 -0.2536
 2607SOL    HW219281   3.895   2.175   2.638  1.2719  1.4639  2.1313
 2608SOL     OW19282   2.608   2.120   3.685 -0.2345 -0.3119 -0.2388
 2608SOL    HW119283   2.685   2.078   3.647  0.2279 -0.5430  0.9542
 2608SOL    HW219284   2.534   2.062   3.670 -0.6450  0.2826 -0.5462
 2609SOL     OW19285   0.484   1.858   4.250  0.7057 -0.0829 -0.1167
 2609SOL    HW119286   0.550   1.889   4.188 -0.4092  0.9337 -0.7885
 2609SOL    HW219287   0.398   1.870   4.210  0.5154  1.4400  0.7458
 2610SOL     OW19288   1.681   3.731   7.824  0.3838 -0.0860  0.5684
 2610SOL    HW119289   1.722   3.714   7.739 -1.6722  0.2698 -0.4827
 2610SOL    HW219290   1.752   3.692   7.875  0.4776 -0.8926 -0.1762
 2611SOL     OW19291   1.831   4.275   7.868 -0.1168 -0.3191 -0.4976
 2611SOL    HW119292   1.761   4.291   7.804 -0.4510 -0.3888 -0.1498
 2611SOL    HW219293   1.804   4.333   7.939 -0.4406 -1.9014  0.6756
 2612SOL     OW19294   0.175   4.091   6.531  0.3335  0.2988  0.6214
 2612SOL    HW119295   0.235   4.018   6.517  2.1030  1.8339  0.2478
 2612SOL    HW219296   0.234   4.165   6.520  1.0263 -0.8887 -3.5775
 2613SOL     OW19297   4.260   0.217   9.346  0.2911 -0.4174 -0.8343
 2613SOL    HW119298   4.287   0.201   9.256 -2.4438 -0.6728 -1.6141
 2613SOL    HW219299   4.321   0.157   9.388 -1.4869 -0.2572  2.0096
 2614SOL     OW19300   1.333   2.761   2.681 -0.5412 -0.1507  0.0140
 2614SOL    HW119301   1.257   2.708   2.656 -0.0776 -0.4688 -0.7165
 2614SOL    HW219302   1.402   2.696   2.671  0.7176  0.8830  2.0175
 2615SOL     OW19303   1.835   4.379   7.086  0.3633 -0.0652 -0.2295
 2615SOL    HW119304   1.874   4.433   7.155 -1.3968 -0.7552  1.3301
 2615SOL    HW219305   1.815   4.453   7.029  2.9328 -0.2188 -1.2997
 2616SOL     OW19306   0.618   2.200   1.419 -0.3973  0.2407 -0.4275
 2616SOL    HW119307   0.659   2.152   1.347  0.3946 -1.1130  0.9234
 2616SOL    HW219308   0.576   2.126   1.463 -0.3348  0.4600 -0.0019
 2617SOL     OW19309   0.338   2.296  14.378  0.2779 -0.2620 -0.1364
 2617SOL    HW119310   0.283   2.276  14.302  1.5247 -1.4063 -0.7383
 2617SOL    HW219311   0.404   2.230  14.357  0.6387  0.1476 -0.3011
 2618SOL     OW19312   2.187   3.236  17.385 -0.2504  0.2463  0.1601
 2618SOL    HW119313   2.206   3.253  17.477  1.7615 -0.4468 -0.1202
 2618SOL    HW219314   2.230   3.151  17.377 -1.8643 -0.4208 -1.5641
 2619SOL     OW19315   0.878   3.421   6.679  0.0348  0.0902  0.1764
 2619SOL    HW119316   0.832   3.346   6.642  1.0807 -0.9785  1.0491
 2619SOL    HW219317   0.950   3.430   6.617  0.1028 -0.9746  0.1025
 2620SOL     OW19318   4.223   4.450  12.963  1.0530  0.5271  0.5878
 2620SOL    HW119319   4.257   4.435  13.052  0.3966 -0.4733  0.6717
 2620SOL    HW219320   4.131   4.444  12.987  0.2607  0.5208 -2.4373
 2621SOL     OW19321   3.577   3.521   9.019 -0.4373 -0.2371  0.3102
 2621SOL    HW119322   3.608   3.500   8.931 -0.3817  0.5185  0.1513
 2621SOL    HW219323   3.549   3.612   9.013  0.7895 -0.0012 -1.8870
 2622SOL     OW19324   2.269   2.756  17.515  0.3562 -0.0542  0.0381
 2622SOL    HW119325   2.362   2.739  17.529 -0.2496 -1.4897  2.4150
 2622SOL    HW219326   2.235   2.672  17.483 -1.0652  0.2729  0.7226
 2623SOL     OW19327   3.301   1.448   7.124  0.2682  0.0855  0.2691
 2623SOL    HW119328   3.365   1.465   7.193 -0.4445 -0.0852  0.9846
 2623SOL    HW219329   3.342   1.501   7.056  2.0949 -0.5569  0.8618
 2624SOL     OW19330   2.825   4.365   4.152  0.2721  0.2145  0.0463
 2624SOL    HW119331   2.834   4.391   4.061 -0.3989  0.0865 -0.0592
 2624SOL    HW219332   2.737   4.327   4.152  1.1117 -1.7266  0.5025
 2625SOL     OW19333   2.935   2.258   8.759 -0.0564  0.4363 -0.1425
 2625SOL    HW119334   2.877   2.254   8.683 -0.1270  0.2744 -0.0803
 2625SOL    HW219335   2.877   2.313   8.812 -0.5160  0.4430 -0.6455
 2626SOL     OW19336   1.589   2.175   0.325 -0.2695 -0.0030 -0.5525
 2626SOL    HW119337   1.670   2.216   0.353  0.6955 -0.6744 -2.3562
 2626SOL    HW219338   1.529   2.203   0.394  0.5881  1.0918 -0.2602
 2627SOL     OW19339   4.699   1.207  11.036  0.3198  0.3846 -0.4612
 2627SOL    HW119340   4.639   1.282  11.042 -1.1167 -0.5820 -2.7897
 2627SOL    HW219341   4.683   1.155  11.115 -0.1987  1.1855 -0.0404
 2628SOL     OW19342   3.910   4.080   3.201 -0.4947  0.3441 -0.5976
 2628SOL    HW119343   3.913   4.136   3.123 -1.7500  1.0052 -0.1648
 2628SOL    HW219344   4.005   4.077   3.212 -0.3355  1.4010 -1.6854
 2629SOL     OW19345   4.380   2.228   6.218  0.1433  0.1061  0.2765
 2629SOL    HW119346   4.333   2.269   6.291 -0.3130  1.6212 -0.8744
 2629SOL    HW219347   4.313   2.229   6.150 -1.0544 -0.2494  1.4569
 2630SOL     OW19348   3.341   2.826   0.119 -0.3420 -0.0686 -0.3586
 2630SOL    HW119349   3.272   2.769   0.154 -0.7990  1.4521  1.2094
 2630SOL    HW219350   3.411   2.783   0.167 -1.0046 -0.5586  0.1786
 2631SOL     OW19351   1.523   0.605   3.768  0.1136  0.7217  0.0746
 2631SOL    HW119352   1.571   0.565   3.841  2.3474 -0.3171 -1.9879
 2631SOL    HW219353   1.460   0.655   3.821 -0.9973 -0.7316  0.1161
 2632SOL     OW19354   2.876   1.650   9.527  0.0745 -0.3085  0.0805
 2632SOL    HW119355   2.962   1.663   9.488  0.5036  2.7469  2.0533
 2632SOL    HW219356   2.838   1.729   9.489  0.6858 -0.0594 -0.0062
 2633SOL     OW19357   1.077   2.566   4.090  0.2755 -0.1897  0.6495
 2633SOL    HW119358   1.043   2.655   4.081  2.1093  0.3860 -0.6602
 2633SOL    HW219359   0.992   2.527   4.112  0.0113 -0.4177 -0.7468
 2634SOL     OW19360   0.914   0.218  10.584  0.0852 -0.2085  0.3599
 2634SOL    HW119361   0.946   0.127  10.587 -1.2675 -0.6604  1.1585
 2634SOL    HW219362   0.851   0.204  10.514 -1.5239  3.2089  1.1416
 2635SOL     OW19363   0.100   0.152   7.234 -0.2543  0.1645  0.3086
 2635SOL    HW119364   0.107   0.211   7.309 -0.4191  0.0023  0.4507
 2635SOL    HW219365   0.131   0.068   7.269  0.1671 -0.6922 -2.1310
 2636SOL     OW19366   0.515   4.118   7.873  0.1459  0.0671 -0.3598
 2636SOL    HW119367   0.584   4.169   7.916 -0.6268  0.4657  0.3931
 2636SOL    HW219368   0.439   4.155   7.917 -0.6939 -0.2873 -1.5272
 2637SOL     OW19369   3.608   2.204  12.792 -0.3157 -0.5413  0.2275
 2637SOL    HW119370   3.691   2.242  12.819 -0.9151  0.4197  0.7202
 2637SOL    HW219371   3.610   2.118  12.835 -0.0413  0.8794  3.0279
 2638SOL     OW19372   3.024   3.168   2.294 -0.0453  0.2640 -0.1629
 2638SOL    HW119373   2.963   3.219   2.240 -0.4770  0.2394  0.3074
 2638SOL    HW219374   3.103   3.164   2.239  0.6829  1.2462  0.8264
 2639SOL     OW19375   2.821   4.368   8.587  0.2483 -0.4263 -0.8435
 2639SOL    HW119376   2.866   4.318   8.519 -0.2724 -0.6744 -1.0093
 2639SOL    HW219377   2.885   4.428   8.625 -0.8507 -0.0202  0.3949
 2640SOL     OW19378   2.855   3.837   1.472 -0.5282 -0.3074 -0.1808
 2640SOL    HW119379   2.868   3.931   1.464 -1.9008  0.0497  1.9360
 2640SOL    HW219380   2.772   3.839   1.520  1.0776  1.5620  2.4948
 2641SOL     OW19381   1.838   1.028   6.758 -0.2111 -0.2028  0.1048
 2641SOL    HW119382   1.778   1.006   6.829  0.5282 -1.1406  0.4231
 2641SOL    HW219383   1.866   0.946   6.718  1.1457  2.9949 -5.5881
 2642SOL     OW19384   1.472   2.081  16.823  0.3499  0.4313  0.3021
 2642SOL    HW119385   1.491   2.175  16.829 -2.8290  1.0119  1.4840
 2642SOL    HW219386   1.395   2.083  16.766  0.5055 -1.4932  0.0215
 2643SOL     OW19387   3.156   0.630   0.271  0.3338  0.2756  0.3351
 2643SOL    HW119388   3.091   0.628   0.341 -0.1655  2.1855 -0.0892
 2643SOL    HW219389   3.097   0.608   0.198  2.5253 -0.3823 -1.2334
 2644SOL     OW19390   4.554   0.296   0.436  0.2791  0.5575  0.3194
 2644SOL    HW119391   4.586   0.263   0.520 -0.4821  0.3432  0.5246
 2644SOL    HW219392   4.610   0.370   0.413  0.6203  0.2278  0.0845
 2645SOL     OW19393   2.834   4.237  14.403  0.4346  0.0492  0.3784
 2645SOL    HW119394   2.928   4.219  14.409  0.0096 -1.9809  1.0016
 2645SOL    HW219395   2.822   4.233  14.308  0.2505 -0.0934  0.4089
 2646SOL     OW19396   1.252   2.311   8.444 -0.4791 -0.1230  0.0565
 2646SOL    HW119397   1.283   2.247   8.380  0.6796  1.7132 -1.2091
 2646SOL    HW219398   1.213   2.253   8.510 -1.0925 -1.4717 -1.4898
 2647SOL     OW19399   3.922   4.055   6.287  0.6852 -0.2868  0.2461
 2647SOL    HW119400   3.857   4.102   6.340 -1.4022 -1.3266 -1.3812
 2647SOL    HW219401   3.922   3.970   6.330 -0.5849 -0.4775 -0.1067
 2648SOL     OW19402   1.560   4.195  14.951 -0.1787  0.6979 -0.2087
 2648SOL    HW119403   1.638   4.173  15.002  0.2217  0.3436 -0.9809
 2648SOL    HW219404   1.504   4.219  15.025  0.6958 -3.5231  1.8512
 2649SOL     OW19405   4.345   4.296   2.630  0.0157  0.1855  0.1193
 2649SOL    HW119406   4.355   4.350   2.551 -2.6696 -1.7607 -1.5328
 2649SOL    HW219407   4.347   4.212   2.584  1.4832  1.1480 -1.6046
 2650SOL     OW19408   0.774   3.515   9.745  0.9967 -0.7835  0.4424
 2650SOL    HW119409   0.731   3.429   9.746 -0.5543 -0.0087  0.2272
 2650SOL    HW219410   0.863   3.483   9.732  0.6064 -1.8254  0.2683
 2651SOL     OW19411   2.571   4.240   4.185 -0.0470 -0.1844 -0.6331
 2651SOL    HW119412   2.491   4.243   4.238  1.8207  1.1189  2.1070
 2651SOL    HW219413   2.556   4.156   4.142  1.0051 -1.2205  1.0710
 2652SOL     OW19414   2.951   3.648  16.887 -0.1250  0.2288  0.2544
 2652SOL    HW119415   2.996   3.715  16.939  0.0077  1.6420 -1.6981
 2652SOL    HW219416   3.019   3.611  16.831 -1.4473 -1.0183 -0.5357
 2653SOL     OW19417   3.131   3.562   9.664 -0.3258  0.3095 -0.1270
 2653SOL    HW119418   3.151   3.594   9.752 -1.0286 -0.3293  0.2659
 2653SOL    HW219419   3.220   3.545   9.632 -0.7498  1.5990 -2.0037
 2654SOL     OW19420   2.215   0.917  15.920 -0.2778 -0.6050  0.2070
 2654SOL    HW119421   2.149   0.900  15.852 -0.8063 -0.5493  0.7005
 2654SOL    HW219422   2.238   1.007  15.900 -0.2369 -1.2621 -2.6905
 2655SOL     OW19423   2.531   0.438  15.079 -0.1838  0.0461 -0.1644
 2655SOL    HW119424   2.442   0.438  15.044 -1.5321 -2.1757  3.3072
 2655SOL    HW219425   2.584   0.385  15.020 -0.4452 -0.3475 -0.0400
 2656SOL     OW19426   3.564   0.049   8.212 -0.0188  0.5965 -0.1762
 2656SOL    HW119427   3.472   0.035   8.233 -0.1101  1.7674  0.1804
 2656SOL    HW219428   3.610   4.707   8.266  0.3075  1.1993  0.2649
 2657SOL     OW19429   2.847   1.009  16.160  0.0215  0.2392  0.0952
 2657SOL    HW119430   2.763   1.053  16.174 -0.5693 -1.0718  0.6541
 2657SOL    HW219431   2.881   1.052  16.081  1.5201  1.2431  1.2783
 2658SOL     OW19432   1.806   2.417  15.630 -0.0747  0.1212 -0.0945
 2658SOL    HW119433   1.747   2.419  15.555 -1.2236  0.3837  0.8189
 2658SOL    HW219434   1.886   2.463  15.604 -0.9270  1.7037  0.0462
 2659SOL     OW19435   0.154   2.089   3.568  0.1439 -0.1443 -0.4341
 2659SOL    HW119436   0.189   2.093   3.479 -1.2368 -0.3843 -0.9998
 2659SOL    HW219437   0.085   2.023   3.565 -0.0975  0.0392  0.8439
 2660SOL     OW19438   1.511   2.560   1.344  0.2766  0.0702  0.1638
 2660SOL    HW119439   1.604   2.545   1.326  0.4431 -0.4608  1.5016
 2660SOL    HW219440   1.500   2.585   1.436  0.0319 -1.3877  0.5241
 2661SOL     OW19441   4.694   3.038   7.465  0.1944 -0.3831 -0.3122
 2661SOL    HW119442   0.052   2.987   7.468  0.3101 -0.3147 -1.8308
 2661SOL    HW219443   0.001   3.110   7.409 -0.4729 -0.8368 -1.2690
 2662SOL     OW19444   3.579   1.810   5.442 -0.1971  0.6151 -0.5657
 2662SOL    HW119445   3.491   1.846   5.431 -0.7835 -0.0896  1.7087
 2662SOL    HW219446   3.603   1.828   5.351 -0.3738 -1.2585 -0.9776
 2663SOL     OW19447   0.974   0.119   4.214 -0.5154 -0.0551 -0.0032
 2663SOL    HW119448   0.997   0.039   4.167  1.8130  0.3434  0.4342
 2663SOL    HW219449   1.022   0.185   4.164 -0.2856 -0.8869 -0.8801
 2664SOL     OW19450   3.223   2.811   1.054 -0.3073 -0.4446  0.0430
 2664SOL    HW119451   3.250   2.886   1.108 -1.6909 -1.4377  2.1168
 2664SOL    HW219452   3.274   2.742   1.096 -0.0914 -1.2511 -1.5444
 2665SOL     OW19453   0.117   2.903  11.485 -0.6980 -0.4577  0.0180
 2665SOL    HW119454   0.160   2.858  11.558  0.6244 -1.6128 -1.4636
 2665SOL    HW219455   0.027   2.905  11.517 -0.5331 -0.7132  0.5116
 2666SOL     OW19456   1.572   0.081   1.218 -0.9535  0.2052 -0.1408
 2666SOL    HW119457   1.538   0.166   1.189 -1.0623  0.2549  0.1350
 2666SOL    HW219458   1.530   0.017   1.161  0.4506 -0.6492 -0.2096
 2667SOL     OW19459   1.872   2.340   8.574 -0.1540  0.1991 -0.1633
 2667SOL    HW119460   1.924   2.385   8.508  1.4337  0.3272  1.1900
 2667SOL    HW219461   1.807   2.297   8.518  2.0418 -0.8505 -1.9045
 2668SOL     OW19462   4.576   1.476  11.062  0.3063  0.1971 -0.0347
 2668SOL    HW119463   4.608   1.565  11.044 -1.5087  0.9659  0.5447
 2668SOL    HW219464   4.491   1.490  11.103  1.6189  0.6542  2.5503
 2669SOL     OW19465   1.164   1.959   1.983  0.3041  0.3169  0.4040
 2669SOL    HW119466   1.173   2.034   1.925  1.1240  0.1065  0.2652
 2669SOL    HW219467   1.256   1.949   2.007  0.6065 -2.1827 -1.7592
 2670SOL     OW19468   3.502   0.223   9.739  0.3370 -0.3778  0.4078
 2670SOL    HW119469   3.518   0.317   9.743 -1.8885  0.1174 -2.1037
 2670SOL    HW219470   3.592   0.199   9.763  0.6733  0.2916 -0.1762
 2671SOL     OW19471   0.207   3.223   8.860 -0.3672 -0.0013  0.6380
 2671SOL    HW119472   0.241   3.239   8.772 -0.0871  1.0349  0.9256
 2671SOL    HW219473   0.112   3.227   8.856 -0.5630 -2.2022  3.0708
 2672SOL     OW19474   0.843   4.243   8.312  0.1007 -0.2945  0.0131
 2672SOL    HW119475   0.878   4.244   8.223 -0.7346  0.7357 -0.3175
 2672SOL    HW219476   0.912   4.286   8.364  0.3510 -2.8122  1.7517
 2673SOL     OW19477   0.902   4.508   7.648 -0.2761  0.6566  0.0086
 2673SOL    HW119478   0.974   4.551   7.695  0.5539 -0.8696  0.1333
 2673SOL    HW219479   0.854   4.466   7.719  0.3799 -0.5699 -0.2639
 2674SOL     OW19480   3.978   0.670   3.137 -0.1309 -0.4076  0.4140
 2674SOL    HW119481   3.964   0.580   3.165 -0.9623 -0.4943 -0.2877
 2674SOL    HW219482   3.980   0.663   3.042  2.4937 -1.2072  0.5334
 2675SOL     OW19483   1.577   1.436   2.249 -0.3146 -0.5086  0.0417
 2675SOL    HW119484   1.625   1.516   2.271 -2.4196  0.4063  1.2951
 2675SOL    HW219485   1.656   1.386   2.232  0.8439  1.0637  0.7985
 2676SOL     OW19486   3.366   4.303   5.402 -0.1678  0.0564  0.1877
 2676SOL    HW119487   3.323   4.263   5.478 -0.0470  0.0252  0.2393
 2676SOL    HW219488   3.348   4.245   5.327  2.0773 -1.3357  0.7319
 2677SOL     OW19489   3.265   2.746   8.238  0.3403  0.0497 -0.3960
 2677SOL    HW119490   3.325   2.818   8.257 -1.0885  0.8676  0.9372
 2677SOL    HW219491   3.182   2.792   8.249  0.2149 -0.4358  0.6640
 2678SOL     OW19492   2.118   1.275  10.177  0.5054  0.1839 -0.3996
 2678SOL    HW119493   2.033   1.235  10.198  0.5231  0.1351 -0.4211
 2678SOL    HW219494   2.095   1.366  10.196 -0.4766 -0.6733  2.6372
 2679SOL     OW19495   1.873   3.351   0.217 -0.4217  0.5102  0.1926
 2679SOL    HW119496   1.822   3.358   0.136  0.8054  1.3541 -0.5141
 2679SOL    HW219497   1.937   3.284   0.194 -0.6756  0.5486 -0.6335
 2680SOL     OW19498   4.196   2.867   3.362 -0.6851  0.1838  0.1504
 2680SOL    HW119499   4.217   2.948   3.314  1.4942 -0.5041 -0.0671
 2680SOL    HW219500   4.222   2.891   3.451 -1.7011  0.1770  0.4452
 2681SOL     OW19501   4.720   2.372  12.017 -0.5832 -0.2949 -0.0992
 2681SOL    HW119502   0.056   2.420  12.075 -0.7366 -1.1668  0.7795
 2681SOL    HW219503   4.643   2.364  12.074 -1.2347  0.9553 -0.8096
 2682SOL     OW19504   3.402   2.601   2.670 -0.1228 -0.2019  0.1544
 2682SOL    HW119505   3.365   2.554   2.595 -1.9992  2.1785 -0.4195
 2682SOL    HW219506   3.407   2.528   2.732 -0.2092  2.1799  2.9302
 2683SOL     OW19507   0.763   1.150   5.802  0.1565 -0.2285 -0.1901
 2683SOL    HW119508   0.772   1.055   5.798 -2.4710 -0.5693  1.7405
 2683SOL    HW219509   0.855   1.178   5.801  0.4309 -1.2099 -2.0493
 2684SOL     OW19510   4.183   4.277   2.330  0.1350 -0.0434 -0.1927
 2684SOL    HW119511   4.112   4.237   2.380 -0.4130  0.8070 -0.2907
 2684SOL    HW219512   4.174   4.370   2.349  0.7773 -0.1954  0.8463
 2685SOL     OW19513   4.076   1.789   8.657 -0.1724 -0.4343  0.3763
 2685SOL    HW119514   3.987   1.824   8.662  0.0619  0.4341 -1.7419
 2685SOL    HW219515   4.093   1.796   8.564 -0.5017  1.0813  0.4357
 2686SOL     OW19516   3.194   2.189   8.720  0.2147  0.5260  0.4864
 2686SOL    HW119517   3.102   2.210   8.733  0.2270  0.4995  0.6126
 2686SOL    HW219518   3.225   2.162   8.806 -0.2866  1.1506  0.8676
 2687SOL     OW19519   4.064   3.870   4.484  0.1582 -0.1105  0.2349
 2687SOL    HW119520   4.041   3.839   4.572 -0.3280 -1.4213 -0.3468
 2687SOL    HW219521   4.039   3.794   4.431  0.5822  0.0536 -0.1941
 2688SOL     OW19522   0.974   2.859  13.759 -0.3993  0.7143 -0.5719
 2688SOL    HW119523   0.899   2.799  13.760  0.3693 -0.1768  3.3300
 2688SOL    HW219524   1.048   2.798  13.753 -1.1944 -0.5399  2.1314
 2689SOL     OW19525   1.993   1.439   8.726  0.1583  0.0683 -0.1954
 2689SOL    HW119526   1.900   1.459   8.741 -0.2777 -1.4531 -0.8781
 2689SOL    HW219527   1.989   1.401   8.638 -1.6787 -0.1984  0.0107
 2690SOL     OW19528   3.533   4.118  17.450 -0.1547  0.4957 -0.0570
 2690SOL    HW119529   3.505   4.098  17.539  0.6547 -2.6831 -0.5451
 2690SOL    HW219530   3.541   4.213  17.442  1.3003  0.3473 -0.3910
 2691SOL     OW19531   0.480   1.807   0.834  0.4555 -0.0072 -0.6157
 2691SOL    HW119532   0.482   1.730   0.891 -0.0338  1.4648  1.4094
 2691SOL    HW219533   0.471   1.876   0.900 -0.9112 -1.0515  0.2860
 2692SOL     OW19534   3.885   3.175   8.774 -0.3362 -0.2137  0.1308
 2692SOL    HW119535   3.947   3.105   8.753 -0.7428 -0.2029 -1.1073
 2692SOL    HW219536   3.817   3.166   8.708  2.7086 -2.7499 -2.6710
 2693SOL     OW19537   1.541   4.019  10.497 -0.5065  0.7173 -0.1115
 2693SOL    HW119538   1.610   3.991  10.437  0.0739  2.1214 -0.0974
 2693SOL    HW219539   1.597   4.066  10.559 -0.0844  0.2853 -0.1625
 2694SOL     OW19540   3.944   0.441   4.339 -0.3754  0.2112 -0.1426
 2694SOL    HW119541   3.861   0.398   4.361  0.0971 -0.2871  0.6960
 2694SOL    HW219542   3.998   0.376   4.295  1.3095  0.9112  0.8829
 2695SOL     OW19543   3.887   0.938   5.362  0.4388  0.1033  0.2659
 2695SOL    HW119544   3.814   0.935   5.301 -0.1143  0.2235  0.9128
 2695SOL    HW219545   3.879   0.859   5.415  0.7876  0.3229  0.6496
 2696SOL     OW19546   1.446   0.435   8.167 -0.4562  0.2749 -0.3684
 2696SOL    HW119547   1.510   0.492   8.209  1.1063 -0.1538 -2.2013
 2696SOL    HW219548   1.370   0.441   8.225 -0.0805 -1.2351  0.2876
 2697SOL     OW19549   3.046   0.989   8.884  0.0630  1.0634 -0.3657
 2697SOL    HW119550   3.105   0.915   8.899 -0.6118  0.5791 -0.1135
 2697SOL    HW219551   2.957   0.954   8.884  0.5968 -0.2629  2.2624
 2698SOL     OW19552   2.398   3.659   1.590  0.1987 -0.2054 -0.1647
 2698SOL    HW119553   2.321   3.610   1.619 -0.1548  1.8570  2.3469
 2698SOL    HW219554   2.361   3.697   1.510  0.6156  2.3202  0.8463
 2699SOL     OW19555   2.440   3.977   4.588 -0.2404  0.0635 -0.3076
 2699SOL    HW119556   2.403   3.902   4.542 -0.0352 -0.4343  0.3450
 2699SOL    HW219557   2.390   4.052   4.555 -2.8935 -0.9742  1.3079
 2700SOL     OW19558   2.191   1.858  17.223 -0.2194 -0.1710  0.2715
 2700SOL    HW119559   2.261   1.922  17.235 -0.5207  0.0049  1.0981
 2700SOL    HW219560   2.208   1.831  17.133 -1.0484 -2.2063  0.7285
 2701SOL     OW19561   1.536   1.909   1.223 -0.1002  0.0268 -0.1802
 2701SOL    HW119562   1.591   1.987   1.229 -0.9516  0.7076 -1.1207
 2701SOL    HW219563   1.604   1.841   1.222  0.5547  0.7306 -3.3731
 2702SOL     OW19564   4.322   1.528   0.345  0.0359  1.0030  0.4347
 2702SOL    HW119565   4.232   1.495   0.341  0.8774 -0.9823 -1.9161
 2702SOL    HW219566   4.327   1.569   0.432 -1.7564 -0.4758  1.2238
 2703SOL     OW19567   1.551   3.048   6.642  0.1524 -0.7112 -0.7509
 2703SOL    HW119568   1.557   3.019   6.733 -1.7282 -0.7262 -0.6288
 2703SOL    HW219569   1.470   3.099   6.645  0.9394  0.3642  1.8115
 2704SOL     OW19570   3.942   0.501   6.833  0.2166  0.4674 -0.4303
 2704SOL    HW119571   4.024   0.547   6.851  0.0294 -0.0974  1.8311
 2704SOL    HW219572   3.907   0.553   6.761  1.3656  3.7535  1.3701
 2705SOL     OW19573   2.805   1.059   8.388 -0.2654  0.1580 -0.1490
 2705SOL    HW119574   2.764   1.080   8.472 -1.2703 -1.6144 -0.1894
 2705SOL    HW219575   2.778   0.968   8.371 -2.0944  0.7400 -0.3794
 2706SOL     OW19576   0.201   1.676   4.063 -0.4790 -0.1795  0.0746
 2706SOL    HW119577   0.122   1.656   4.113 -0.1534 -0.4353  0.4832
 2706SOL    HW219578   0.209   1.594   4.014 -0.1995  0.2404 -0.5916
 2707SOL     OW19579   1.915   0.407   7.083 -0.2026 -0.2776 -0.5850
 2707SOL    HW119580   1.888   0.342   7.148 -3.9362  0.4485 -1.3802
 2707SOL    HW219581   1.977   0.459   7.134 -2.4338  1.8079 -0.0268
 2708SOL     OW19582   1.475   2.895   8.250  0.2637 -0.3922  0.1285
 2708SOL    HW119583   1.538   2.826   8.271 -1.0782 -1.2264  1.4655
 2708SOL    HW219584   1.532   2.972   8.256 -1.9927  1.2433  0.9757
 2709SOL     OW19585   3.210   2.670   2.932 -0.0360 -0.7376  0.1018
 2709SOL    HW119586   3.187   2.642   2.844  0.1844  2.2719 -0.9074
 2709SOL    HW219587   3.126   2.705   2.962  1.3864  0.9675  2.1605
 2710SOL     OW19588   2.846   4.354   3.257 -0.2464 -0.5999  0.1723
 2710SOL    HW119589   2.894   4.397   3.328  0.2786 -0.2392 -0.3955
 2710SOL    HW219590   2.918   4.316   3.208 -0.2014  0.9650 -0.9830
 2711SOL     OW19591   0.349   3.869   2.600 -0.6624 -0.4923  0.4271
 2711SOL    HW119592   0.289   3.917   2.657  1.3596 -0.6406  2.6685
 2711SOL    HW219593   0.428   3.919   2.621 -0.0822 -1.2881  0.1670
 2712SOL     OW19594   0.893   1.713   2.375 -0.2421 -0.3768  0.1192
 2712SOL    HW119595   0.880   1.805   2.398  1.2941 -0.0224 -0.3962
 2712SOL    HW219596   0.912   1.713   2.281 -0.6459  0.0589  0.0376
 2713SOL     OW19597   1.925   3.964   5.366 -0.2060 -0.2094  0.0542
 2713SOL    HW119598   1.860   3.897   5.388 -0.8969  1.3346  2.7567
 2713SOL    HW219599   2.006   3.915   5.380 -0.6844 -1.1988 -0.5894
 2714SOL     OW19600   0.147   2.662   8.017 -0.2523  0.2001 -0.1723
 2714SOL    HW119601   0.218   2.724   8.036  0.3643  0.2406 -2.4919
 2714SOL    HW219602   0.090   2.677   8.092  0.3098 -1.1870  0.5397
 2715SOL     OW19603   0.192   3.493   8.291 -0.1242  0.9817  0.2884
 2715SOL    HW119604   0.158   3.447   8.367  1.8417  0.5553  0.9042
 2715SOL    HW219605   0.180   3.585   8.314  0.6363  0.3908  2.9984
 2716SOL     OW19606   3.415   2.574   2.089  0.3270 -0.1200 -0.0876
 2716SOL    HW119607   3.379   2.599   2.004  0.4549  1.5980  0.3656
 2716SOL    HW219608   3.340   2.534   2.134 -0.6310 -0.0276 -1.5809
 2717SOL     OW19609   1.878   1.391  14.859 -0.2683 -1.1963 -0.0895
 2717SOL    HW119610   1.935   1.467  14.843 -1.8949  0.5692  2.4878
 2717SOL    HW219611   1.914   1.325  14.801 -0.2600 -1.4589  0.2132
 2718SOL     OW19612   2.569   1.446  15.945 -0.3264  0.4990  0.1592
 2718SOL    HW119613   2.509   1.374  15.965 -1.5324  1.8046  1.1877
 2718SOL    HW219614   2.642   1.429  16.004 -0.1489 -2.3961 -0.8551
 2719SOL     OW19615   2.380   4.669   0.951  0.4593  0.2085  0.0079
 2719SOL    HW119616   2.285   4.685   0.952  0.3685 -0.3596  0.2521
 2719SOL    HW219617   2.413   4.710   1.031 -0.2796  0.3483  0.2496
 2720SOL     OW19618   0.284   0.442  16.849  0.3016 -0.0307 -0.2096
 2720SOL    HW119619   0.374   0.473  16.859 -0.0127  0.3082  1.5907
 2720SOL    HW219620   0.282   0.365  16.906 -1.0902 -1.2948 -1.9577
 2721SOL     OW19621   0.234   1.204   1.594 -0.6002 -0.1975  0.4182
 2721SOL    HW119622   0.238   1.179   1.686  3.5621 -0.2458  0.2052
 2721SOL    HW219623   0.172   1.136   1.566 -0.3728  0.4963 -1.7531
 2722SOL     OW19624   0.007   2.981   2.566 -0.0402 -0.4806  0.4800
 2722SOL    HW119625   4.666   2.911   2.576  0.7950 -1.3418 -0.2394
 2722SOL    HW219626   0.045   2.970   2.479 -0.2555  0.9082  0.2050
 2723SOL     OW19627   3.207   3.692   6.685 -0.0319  0.2426 -0.1500
 2723SOL    HW119628   3.146   3.635   6.732  1.7034 -0.5965  1.0633
 2723SOL    HW219629   3.175   3.781   6.700 -1.5850 -0.3985  0.2926
 2724SOL     OW19630   3.593   2.588   6.661  0.0206  0.3767  0.0567
 2724SOL    HW119631   3.678   2.631   6.671  1.0264 -1.1219 -1.9055
 2724SOL    HW219632   3.631   2.514   6.614  1.5291  2.1713 -1.5559
 2725SOL     OW19633   0.076   0.653   8.675  0.3674  0.2037  0.0998
 2725SOL    HW119634   0.151   0.648   8.616 -0.9258 -0.7802 -1.4823
 2725SOL    HW219635   0.090   0.563   8.704 -1.1401 -0.4176 -1.0881
 2726SOL     OW19636   3.464   4.707   1.715 -0.0990 -0.0326 -0.4220
 2726SOL    HW119637   3.371   4.714   1.734  0.1284 -0.2932  0.7347
 2726SOL    HW219638   3.463   4.628   1.660  0.3188  0.8264 -1.6691
 2727SOL     OW19639   1.349   3.839  10.585 -0.2449  0.0324  0.0314
 2727SOL    HW119640   1.426   3.891  10.565  0.1137 -0.8770 -0.9448
 2727SOL    HW219641   1.305   3.853  10.501 -0.0302  0.8344  0.0512
 2728SOL     OW19642   3.200   3.171   2.537  0.6586 -0.0630 -0.5826
 2728SOL    HW119643   3.165   3.168   2.626  2.4962 -1.0667  0.0908
 2728SOL    HW219644   3.119   3.156   2.487  1.3014 -0.5206 -1.4878
 2729SOL     OW19645   2.675   3.618   5.152  0.1291 -0.4321 -0.1886
 2729SOL    HW119646   2.581   3.631   5.165  0.2419 -1.2551  1.4435
 2729SOL    HW219647   2.693   3.604   5.059 -0.5957 -2.1619 -0.0664
 2730SOL     OW19648   2.107   0.072   4.743  0.4092 -0.1319 -0.0260
 2730SOL    HW119649   2.170   0.035   4.805 -0.8004 -1.3035  0.5110
 2730SOL    HW219650   2.067   4.714   4.711 -2.2728  0.6709  1.3023
 2731SOL     OW19651   3.842   3.664   8.493  0.0922 -0.3801 -0.1726
 2731SOL    HW119652   3.770   3.603   8.512  0.1972  0.2878  2.3327
 2731SOL    HW219653   3.805   3.742   8.535  0.2005 -0.0728 -0.6524
 2732SOL     OW19654   1.626   1.953   8.738 -0.4828 -0.4016 -0.1292
 2732SOL    HW119655   1.565   1.885   8.709 -0.3718  0.1329 -1.6164
 2732SOL    HW219656   1.577   1.975   8.817  0.9672  0.8534  0.4246
 2733SOL     OW19657   2.962   3.220  14.332  0.2248 -0.5385 -0.2976
 2733SOL    HW119658   2.923   3.140  14.297  0.3006  0.8273 -3.4679
 2733SOL    HW219659   2.981   3.195  14.423 -0.5126 -0.1946 -0.0510
 2734SOL     OW19660   0.620   2.163   4.777  0.0949 -0.2133  0.1300
 2734SOL    HW119661   0.608   2.086   4.721  1.2563  0.1248 -0.5866
 2734SOL    HW219662   0.529   2.178   4.804  0.9340 -1.3829  3.6928
 2735SOL     OW19663   3.111   2.832   1.770 -0.0144 -0.1670  0.3117
 2735SOL    HW119664   3.129   2.858   1.860  0.3592  2.5072 -0.5415
 2735SOL    HW219665   3.124   2.737   1.776 -0.6813 -0.2440  0.5426
 2736SOL     OW19666   0.910   2.990   7.967 -0.3645 -0.1731  0.0428
 2736SOL    HW119667   0.935   2.901   7.994  2.7426  0.2437 -1.3987
 2736SOL    HW219668   0.851   3.013   8.038  0.3686 -0.6924  0.8306
 2737SOL     OW19669   2.252   1.333  12.023 -0.0304 -0.0050  0.9129
 2737SOL    HW119670   2.213   1.248  12.042 -1.2762  0.4201  0.2261
 2737SOL    HW219671   2.185   1.397  12.049 -1.0242  0.1845 -2.1581
 2738SOL     OW19672   3.406   2.346   9.374 -0.2376 -0.2461  0.8815
 2738SOL    HW119673   3.490   2.361   9.416  0.7889 -1.4671 -0.7361
 2738SOL    HW219674   3.344   2.377   9.440  2.2677  4.2735  1.0950
 2739SOL     OW19675   4.577   1.474   3.159 -0.0032  0.6730 -0.5416
 2739SOL    HW119676   4.505   1.525   3.122  0.3652  2.0689  0.6816
 2739SOL    HW219677   4.647   1.539   3.153 -1.0265  1.8566  0.2592
 2740SOL     OW19678   0.231   1.801   1.127 -0.5517  0.5095  0.5735
 2740SOL    HW119679   0.231   1.844   1.042 -0.0185  0.7096  0.6731
 2740SOL    HW219680   0.168   1.852   1.178 -0.3624  0.9333  0.3916
 2741SOL     OW19681   4.221   2.385  12.282  1.0656  0.0307 -0.0261
 2741SOL    HW119682   4.213   2.481  12.284  1.6145  0.0742  0.0933
 2741SOL    HW219683   4.275   2.372  12.204  0.3557 -0.8717 -0.3651
 2742SOL     OW19684   0.385   0.238   9.040 -0.2054  0.3242 -0.3882
 2742SOL    HW119685   0.355   0.312   9.093 -1.3822  0.7651 -1.6690
 2742SOL    HW219686   0.474   0.224   9.074 -0.2274 -3.1226 -1.8140
 2743SOL     OW19687   3.101   0.711   4.646  0.2230  0.4708  0.2101
 2743SOL    HW119688   3.116   0.616   4.652 -2.9998  0.0494  1.2142
 2743SOL    HW219689   3.163   0.725   4.574  1.4216 -1.6751  0.8117
 2744SOL     OW19690   1.245   1.668   6.781  0.0611  0.3266 -0.2335
 2744SOL    HW119691   1.328   1.621   6.787 -0.6306 -0.6724  1.4645
 2744SOL    HW219692   1.206   1.606   6.721  1.4393 -0.6452 -0.1240
 2745SOL     OW19693   0.937   1.339   8.530  0.1542  0.0151 -0.0765
 2745SOL    HW119694   0.858   1.379   8.494  0.8259 -0.0506 -1.6402
 2745SOL    HW219695   0.931   1.361   8.623 -0.0613  0.7067 -0.2583
 2746SOL     OW19696   1.186   1.678   1.674  0.4597  0.0272  0.1685
 2746SOL    HW119697   1.256   1.633   1.627 -0.2763  0.4953 -1.3740
 2746SOL    HW219698   1.177   1.629   1.756  3.2803 -1.5590 -0.4542
 2747SOL     OW19699   3.521   3.374   8.755 -0.0899 -0.3143  0.7197
 2747SOL    HW119700   3.429   3.387   8.730  0.0923 -1.4697 -0.5635
 2747SOL    HW219701   3.515   3.301   8.816  2.3716 -0.3719  0.8973
 2748SOL     OW19702   2.202   4.192   4.518  0.1151  0.1526 -0.0815
 2748SOL    HW119703   2.261   4.235   4.580  3.4462 -0.7185 -2.6474
 2748SOL    HW219704   2.121   4.171   4.564 -1.3917 -0.8307 -3.1223
 2749SOL     OW19705   2.517   4.468   2.155  0.5509 -0.1281 -0.4492
 2749SOL    HW119706   2.428   4.467   2.191  1.6207  0.4568  2.1928
 2749SOL    HW219707   2.526   4.553   2.113  1.7333  0.0367  0.1219
 2750SOL     OW19708   2.936   0.085   1.899 -0.7096  0.5257  0.0637
 2750SOL    HW119709   2.866   0.124   1.952  0.0777  1.7820  0.1827
 2750SOL    HW219710   2.993   0.161   1.884 -2.5503  1.9137  0.1239
 2751SOL     OW19711   4.178   2.553   3.073 -0.5214 -0.2184 -0.2963
 2751SOL    HW119712   4.240   2.510   3.014  0.9947  0.2217  0.9583
 2751SOL    HW219713   4.094   2.525   3.037  0.1244 -0.7750 -1.3776
 2752SOL     OW19714   0.439   4.678   2.647 -0.6288  0.0592  0.0835
 2752SOL    HW119715   0.368   0.015   2.670 -0.6107  0.0486  0.1703
 2752SOL    HW219716   0.409   4.632   2.570 -0.6541  1.2484 -0.6168
 2753SOL     OW19717   3.490   0.270   8.470  0.3093 -0.4579  0.5531
 2753SOL    HW119718   3.574   0.246   8.432  0.8895 -0.1601  1.6236
 2753SOL    HW219719   3.458   0.184   8.499 -0.2462 -0.1755  0.7853
 2754SOL     OW19720   4.251   2.428   5.012  0.4923  0.1534 -0.4674
 2754SOL    HW119721   4.191   2.468   5.076  0.1350  2.6992 -2.3920
 2754SOL    HW219722   4.202   2.355   4.975  0.8498  1.2323 -3.0862
 2755SOL     OW19723   2.676   0.382   8.151  0.5033  0.3525 -0.6448
 2755SOL    HW119724   2.617   0.316   8.187 -0.4273  1.6499  0.2387
 2755SOL    HW219725   2.629   0.394   8.068 -0.4902 -2.3745 -0.4645
 2756SOL     OW19726   2.969   3.985  10.379 -0.1997 -0.4950 -0.5118
 2756SOL    HW119727   2.963   4.080  10.393 -0.0131 -0.3656 -1.3021
 2756SOL    HW219728   2.931   3.983  10.292 -2.3996  1.2526  0.3968
 2757SOL     OW19729   1.169   3.806   3.668  0.1407  0.1093  0.3503
 2757SOL    HW119730   1.215   3.763   3.595 -0.8690 -0.7953  0.2601
 2757SOL    HW219731   1.107   3.741   3.700  0.8256 -1.1808 -0.8975
 2758SOL     OW19732   2.063   1.493   8.464  0.0432  0.2995 -0.0494
 2758SOL    HW119733   2.131   1.500   8.397 -0.3868  1.4084 -0.3679
 2758SOL    HW219734   2.087   1.558   8.530 -1.4713  0.3495  0.4527
 2759SOL     OW19735   1.108   1.958   4.569  1.0466 -0.1321 -0.5645
 2759SOL    HW119736   1.062   2.017   4.628  1.2162  1.0760 -1.6373
 2759SOL    HW219737   1.174   1.950   4.638  0.6087 -2.5350 -0.4448
 2760SOL     OW19738   1.884   2.576   3.836  0.2191 -0.3116  0.1390
 2760SOL    HW119739   1.858   2.514   3.769 -0.6427 -0.6242  0.7600
 2760SOL    HW219740   1.974   2.600   3.814 -0.6513  2.2250 -0.6259
 2761SOL     OW19741   2.666   0.799   2.306  0.2599 -0.1994 -0.3896
 2761SOL    HW119742   2.753   0.782   2.271 -0.4057  0.1845 -2.2593
 2761SOL    HW219743   2.643   0.709   2.329  0.8820 -0.3544 -0.3724
 2762SOL     OW19744   0.765   1.692  15.077  0.1436  0.1577  0.0205
 2762SOL    HW119745   0.794   1.738  15.156  2.2340  0.8110 -1.1018
 2762SOL    HW219746   0.810   1.610  15.098  1.4734  0.6639 -0.7984
 2763SOL     OW19747   2.616   0.092   8.447 -0.1031  0.3021 -0.1352
 2763SOL    HW119748   2.702   0.052   8.438  0.1537  0.9995 -0.7921
 2763SOL    HW219749   2.592   0.120   8.358 -0.1629 -1.7150 -0.7711
 2764SOL     OW19750   1.996   3.063   7.220  0.5401  0.1897 -0.0218
 2764SOL    HW119751   1.912   3.017   7.218  0.1724  0.7972  1.5463
 2764SOL    HW219752   1.978   3.126   7.151 -1.4119 -0.8430 -0.4729
 2765SOL     OW19753   2.596   0.474   1.814 -0.1110  0.3340 -0.3861
 2765SOL    HW119754   2.608   0.569   1.821  1.1921 -0.1687  4.2952
 2765SOL    HW219755   2.510   0.470   1.773  0.9387 -1.6449 -2.3791
 2766SOL     OW19756   1.519   2.259  10.995  0.2079  0.7664 -0.2101
 2766SOL    HW119757   1.462   2.332  11.019 -0.8013 -1.1124  2.9829
 2766SOL    HW219758   1.529   2.213  11.078 -2.7658  1.4219  0.4983
 2767SOL     OW19759   0.751   1.553  13.567  0.5096 -0.1851 -0.1028
 2767SOL    HW119760   0.708   1.556  13.482 -0.0471 -0.1733  0.1800
 2767SOL    HW219761   0.835   1.599  13.562  1.6460 -2.4911 -2.4498
 2768SOL     OW19762   0.045   2.647   6.970 -0.0509  0.1243  0.3607
 2768SOL    HW119763   0.035   2.613   7.059 -1.0666  0.9770  0.5650
 2768SOL    HW219764   4.695   2.709   6.977  1.7900  2.2112  1.2999
 2769SOL     OW19765   2.342   3.287  16.998  0.2877 -0.1079 -0.1096
 2769SOL    HW119766   2.255   3.282  17.039 -0.1436 -0.2729 -1.0565
 2769SOL    HW219767   2.338   3.218  16.932  0.1520 -0.0331 -0.1782
 2770SOL     OW19768   1.309   0.525   3.634 -0.1897  0.0098  1.1167
 2770SOL    HW119769   1.310   0.432   3.659  1.0401 -0.3867 -0.3916
 2770SOL    HW219770   1.394   0.556   3.664 -0.3253  1.4087  0.0558
 2771SOL     OW19771   0.630   1.782   6.967  0.1240  0.4999  0.1589
 2771SOL    HW119772   0.614   1.701   6.920 -0.0370 -0.0631  1.1769
 2771SOL    HW219773   0.711   1.803   6.921 -0.1721 -1.7000 -1.3067
 2772SOL     OW19774   1.444   3.363   1.894  0.4184 -0.1514  0.2283
 2772SOL    HW119775   1.487   3.307   1.829 -1.3827  0.6388 -1.6441
 2772SOL    HW219776   1.349   3.363   1.880  0.2832  0.6790  1.1408
 2773SOL     OW19777   0.334   4.399   0.567  0.2449 -0.3333  0.0194
 2773SOL    HW119778   0.403   4.464   0.559  1.1775 -1.1604  1.3117
 2773SOL    HW219779   0.267   4.432   0.507 -0.7950 -1.7325  0.4063
 2774SOL     OW19780   3.343   0.407  12.863  0.8000  0.1051 -0.1534
 2774SOL    HW119781   3.405   0.369  12.801 -1.0659 -1.5508 -1.0395
 2774SOL    HW219782   3.328   0.329  12.917  1.3209 -0.6055 -1.0439
 2775SOL     OW19783   3.942   4.658   7.316  0.1708  0.1738 -0.2656
 2775SOL    HW119784   3.891   4.652   7.397  1.2664 -1.0562  0.3286
 2775SOL    HW219785   4.026   4.658   7.362  0.1353 -1.5394 -0.1978
 2776SOL     OW19786   3.529   2.023   7.684 -0.1660  0.5063 -0.4281
 2776SOL    HW119787   3.546   1.950   7.743  2.5212  2.3380  1.1000
 2776SOL    HW219788   3.438   2.039   7.708  0.1936  0.8664  0.7272
 2777SOL     OW19789   4.426   1.931  10.522 -0.0605  0.3606  0.2004
 2777SOL    HW119790   4.355   1.932  10.458 -1.2732 -0.3999  1.5487
 2777SOL    HW219791   4.448   2.023  10.537  1.5311  0.1056 -0.6215
 2778SOL     OW19792   1.448   0.379  15.415  0.0584 -0.3915  0.0174
 2778SOL    HW119793   1.392   0.375  15.493  0.7868 -1.0555  0.4987
 2778SOL    HW219794   1.443   0.472  15.396 -2.7494 -0.4844  0.2400
 2779SOL     OW19795   1.550   2.710  16.207 -0.3231 -0.1619  0.3244
 2779SOL    HW119796   1.579   2.620  16.219 -2.2129 -0.7716  0.3375
 2779SOL    HW219797   1.556   2.727  16.113 -0.6434 -2.6705 -0.1325
 2780SOL     OW19798   4.190   0.567   3.583 -0.0627 -0.5135  1.5528
 2780SOL    HW119799   4.239   0.485   3.592 -0.8923 -1.2595 -0.6790
 2780SOL    HW219800   4.102   0.553   3.548 -0.0377 -0.3919  1.4416
 2781SOL     OW19801   3.573   2.622   8.834 -0.7413  0.5179  0.2610
 2781SOL    HW119802   3.545   2.713   8.849 -0.5647  0.5796  0.2194
 2781SOL    HW219803   3.490   2.576   8.822 -0.4585  0.2658 -0.7304
 2782SOL     OW19804   4.288   4.045   1.249  0.2583 -0.3614  0.2156
 2782SOL    HW119805   4.290   3.958   1.209  0.6704 -0.3798  0.2770
 2782SOL    HW219806   4.358   4.040   1.314  0.0337 -2.6799  0.2696
 2783SOL     OW19807   3.619   1.426   3.572  0.0600  0.0345 -0.2712
 2783SOL    HW119808   3.536   1.474   3.580  0.6235  1.3927 -2.6591
 2783SOL    HW219809   3.583   1.341   3.597 -0.4297  0.3354  0.0558
 2784SOL     OW19810   0.875   4.545   6.318  0.5743 -0.0489 -0.2463
 2784SOL    HW119811   0.909   4.462   6.285  1.4279  0.5792 -0.9349
 2784SOL    HW219812   0.802   4.568   6.261 -0.3459 -0.6024  0.7013
 2785SOL     OW19813   0.592   2.682   5.727  0.2788 -0.8105 -0.4935
 2785SOL    HW119814   0.618   2.591   5.741  0.1705 -0.6446  0.7873
 2785SOL    HW219815   0.671   2.726   5.759  0.1689 -1.9388  1.3311
 2786SOL     OW19816   0.835   0.806  13.764 -0.3676  0.1927 -0.2642
 2786SOL    HW119817   0.809   0.897  13.747  2.9268  1.4475  1.5452
 2786SOL    HW219818   0.856   0.813  13.857  0.9416 -0.1258 -0.5431
 2787SOL     OW19819   2.591   4.706   7.058  0.1442 -0.0125  0.2807
 2787SOL    HW119820   2.653   0.056   7.065  0.3955  0.0236 -2.3530
 2787SOL    HW219821   2.510   0.022   7.023 -0.6094 -0.8492  1.1087
 2788SOL     OW19822   1.203   2.835   8.263 -0.2237 -0.4399 -0.2497
 2788SOL    HW119823   1.205   2.911   8.205  0.0807  0.7179  1.2537
 2788SOL    HW219824   1.295   2.838   8.290 -0.0982  2.3649 -0.9999
 2789SOL     OW19825   2.728   2.399   6.011 -0.3233 -0.1145 -0.1395
 2789SOL    HW119826   2.751   2.458   5.940 -1.5667  0.4547 -0.0842
 2789SOL    HW219827   2.796   2.413   6.077 -1.8105  1.3433  1.1071
 2790SOL     OW19828   1.732   1.733   0.483 -0.2469  0.5196 -0.3736
 2790SOL    HW119829   1.677   1.657   0.502  1.6222 -0.5812  0.5278
 2790SOL    HW219830   1.719   1.775   0.568  1.6516 -0.2803  0.2988
 2791SOL     OW19831   0.351   2.664  12.264 -0.4339  0.2646 -0.0585
 2791SOL    HW119832   0.422   2.623  12.214 -1.0766  0.2138 -0.9205
 2791SOL    HW219833   0.379   2.650  12.355 -0.7351  4.4500  0.6792
 2792SOL     OW19834   3.597   4.227   1.246 -0.4453  0.2755 -0.2354
 2792SOL    HW119835   3.659   4.165   1.285  1.0360  2.9190  1.6040
 2792SOL    HW219836   3.657   4.301   1.250 -0.1282 -0.0230  0.6030
 2793SOL     OW19837   0.129   0.542  12.765  0.0166 -0.4274  0.3166
 2793SOL    HW119838   0.133   0.627  12.722 -1.1691  1.4257  3.8272
 2793SOL    HW219839   0.039   0.511  12.755 -0.4265  2.0995 -3.5908
 2794SOL     OW19840   2.289   3.070  12.839  0.2843  0.1165 -0.2352
 2794SOL    HW119841   2.283   3.164  12.858 -1.0844  0.2771 -1.4481
 2794SOL    HW219842   2.289   3.035  12.928 -1.7988 -1.0613 -0.7035
 2795SOL     OW19843   2.377   2.725   3.065  0.2939 -0.3832 -0.3907
 2795SOL    HW119844   2.330   2.652   3.104 -0.4840 -0.1547 -0.8904
 2795SOL    HW219845   2.309   2.768   3.013 -0.3557 -0.3134  0.5297
 2796SOL     OW19846   0.457   1.984   3.600 -0.0564  0.5566  0.3245
 2796SOL    HW119847   0.366   1.956   3.598 -0.2290  1.0563  1.6150
 2796SOL    HW219848   0.474   1.977   3.506  0.2157 -0.8915  0.4779
 2797SOL     OW19849   2.806   0.908   9.243  0.5434  0.5625  0.3868
 2797SOL    HW119850   2.800   0.833   9.303  0.4673  0.3133  0.0705
 2797SOL    HW219851   2.715   0.936   9.255  0.8573  1.0803  1.5985
 2798SOL     OW19852   4.548   1.131   5.948  0.1538  0.2137 -0.2997
 2798SOL    HW119853   4.520   1.074   6.020 -0.1661  0.0888 -0.5248
 2798SOL    HW219854   4.506   1.094   5.870  0.7437 -1.7076  0.3048
 2799SOL     OW19855   2.180   2.318   7.012 -0.2757 -0.4743  0.5187
 2799SOL    HW119856   2.213   2.384   6.952 -0.3679 -1.5705 -0.7388
 2799SOL    HW219857   2.140   2.377   7.077  0.3780 -1.5577  1.9151
 2800SOL     OW19858   3.003   2.089  10.878 -0.2426  0.3353 -0.0399
 2800SOL    HW119859   2.932   2.063  10.820 -0.5430 -3.9879  2.2805
 2800SOL    HW219860   3.021   2.011  10.931 -0.0731  0.3264 -0.1117
 2801SOL     OW19861   4.702   1.463   6.920 -0.1927 -0.5417  0.2110
 2801SOL    HW119862   4.696   1.551   6.958  1.2001  0.5287 -2.0968
 2801SOL    HW219863   0.055   1.466   6.862  0.6880 -0.6014  1.3604
 2802SOL     OW19864   0.116   0.877   7.347  0.5490  0.2280 -0.1190
 2802SOL    HW119865   0.186   0.915   7.400 -1.1692  0.5085  1.9631
 2802SOL    HW219866   0.047   0.876   7.414  0.2225 -0.0914 -0.4606
 2803SOL     OW19867   0.762   3.430   3.059 -0.4782  0.0899  0.0856
 2803SOL    HW119868   0.724   3.469   2.980 -1.1588  0.8144  0.7730
 2803SOL    HW219869   0.816   3.498   3.100  1.8197 -0.5992 -1.7775
 2804SOL     OW19870   2.549   0.550   9.015  0.0483 -0.0669  0.2906
 2804SOL    HW119871   2.492   0.616   8.977  1.6225  0.4298 -1.1818
 2804SOL    HW219872   2.607   0.529   8.942 -2.1713 -0.9524 -1.2357
 2805SOL     OW19873   3.246   4.395   9.358  0.1543 -0.4073  0.5279
 2805SOL    HW119874   3.182   4.454   9.317  1.3755 -0.1178 -0.9238
 2805SOL    HW219875   3.228   4.310   9.318  1.0040 -1.4762  2.4203
 2806SOL     OW19876   0.241   4.572   6.095  0.4119 -0.4944  0.1807
 2806SOL    HW119877   0.207   4.552   6.007 -0.9451  0.9098  0.3839
 2806SOL    HW219878   0.229   4.665   6.112  0.4366 -0.2218 -1.2772
 2807SOL     OW19879   1.169   1.869   3.577  0.2379 -0.3065  0.1685
 2807SOL    HW119880   1.078   1.844   3.563  0.1935 -0.6157  1.0237
 2807SOL    HW219881   1.197   1.905   3.492  0.1559  1.3119  0.8211
 2808SOL     OW19882   4.081   0.245   2.606 -0.6539  0.5483  0.7223
 2808SOL    HW119883   4.125   0.320   2.647  1.1818  0.1358 -0.4997
 2808SOL    HW219884   4.002   0.285   2.571 -0.1370  0.8896 -0.0449
 2809SOL     OW19885   4.157   2.280   2.433  0.4237 -0.0434  0.3796
 2809SOL    HW119886   4.110   2.360   2.409  0.9490 -0.4386 -1.9615
 2809SOL    HW219887   4.207   2.326   2.501 -1.0820  1.1817  0.6576
 2810SOL     OW19888   3.053   1.335   3.037  0.1296 -0.6079 -0.2202
 2810SOL    HW119889   3.120   1.403   3.038  0.3104 -0.7889 -0.0215
 2810SOL    HW219890   3.106   1.257   3.020  1.5659  0.0553  1.2279
 2811SOL     OW19891   3.749   3.166   2.773  0.2365  0.2718  0.4960
 2811SOL    HW119892   3.742   3.120   2.856 -1.6746  0.5739  0.5189
 2811SOL    HW219893   3.684   3.234   2.792 -0.2995 -0.4050  1.0728
 2812SOL     OW19894   0.737   3.081   7.759  0.1233 -0.4115  0.2538
 2812SOL    HW119895   0.743   3.004   7.703 -1.2839 -1.0378  0.9699
 2812SOL    HW219896   0.805   3.058   7.822  0.0437  1.1990  0.9300
 2813SOL     OW19897   4.001   1.410  10.095  0.2215 -0.1376  0.3589
 2813SOL    HW119898   3.914   1.405  10.134  0.0570 -0.3825 -0.0368
 2813SOL    HW219899   4.032   1.323  10.121  0.8005 -0.7700 -2.4533
 2814SOL     OW19900   0.212   4.128   5.869 -0.2708 -0.2199  0.2458
 2814SOL    HW119901   0.300   4.131   5.831 -0.7643  3.4604 -0.6074
 2814SOL    HW219902   0.220   4.081   5.952  1.7764  0.4012  0.4007
 2815SOL     OW19903   2.009   2.329  15.378 -0.0521  0.1107 -0.4682
 2815SOL    HW119904   2.036   2.418  15.404  0.7291 -0.2336 -0.1072
 2815SOL    HW219905   1.920   2.342  15.347  0.6123  4.3615 -0.7004
 2816SOL     OW19906   0.700   4.123   6.073 -0.3657  0.9368 -0.6330
 2816SOL    HW119907   0.689   4.218   6.084  1.7777  1.2230 -0.7893
 2816SOL    HW219908   0.607   4.105   6.069 -0.0894 -1.1651  2.1062
 2817SOL     OW19909   2.350   4.341   8.630  0.5816 -0.1384  0.0918
 2817SOL    HW119910   2.411   4.387   8.572  2.7236 -1.5152  1.2642
 2817SOL    HW219911   2.389   4.361   8.715  0.1252 -1.1266  0.5372
 2818SOL     OW19912   4.673   0.983   4.399 -0.7611 -0.3075 -0.2062
 2818SOL    HW119913   0.003   0.903   4.407  0.2351  0.5335  1.6085
 2818SOL    HW219914   0.014   1.054   4.412 -1.8420  0.7142 -0.4636
 2819SOL     OW19915   4.525   2.134  16.341  0.1851 -0.3587 -1.0040
 2819SOL    HW119916   4.548   2.163  16.430  2.9679 -1.6626 -1.3264
 2819SOL    HW219917   4.528   2.221  16.301 -0.1785  1.0984  2.0786
 2820SOL     OW19918   2.240   0.383   5.650 -0.8663  0.0437 -0.3437
 2820SOL    HW119919   2.194   0.377   5.734 -1.7249  2.3798 -0.6716
 2820SOL    HW219920   2.311   0.439   5.681 -0.3260 -0.8921  0.1138
 2821SOL     OW19921   3.442   0.643   8.658 -0.2790  0.1216  0.3430
 2821SOL    HW119922   3.506   0.692   8.710 -1.9604  1.0212  1.5689
 2821SOL    HW219923   3.467   0.556   8.690  0.7628 -0.7346 -2.8542
 2822SOL     OW19924   3.200   3.919   4.535  0.5645 -0.4499 -0.5278
 2822SOL    HW119925   3.226   3.838   4.491  0.1390 -1.7694  1.6268
 2822SOL    HW219926   3.260   3.981   4.493 -0.5353  1.3580  0.5786
 2823SOL     OW19927   0.439   0.808   7.817 -0.5309 -0.5351  0.1406
 2823SOL    HW119928   0.533   0.796   7.799  0.0432  3.2243  0.6440
 2823SOL    HW219929   0.445   0.863   7.895  0.1914  0.7729 -0.8420
 2824SOL     OW19930   1.722   1.244   0.804  0.3321  0.4490  0.3251
 2824SOL    HW119931   1.635   1.223   0.770 -0.2976  1.7742  1.0985
 2824SOL    HW219932   1.731   1.337   0.785  1.4426  0.8924  3.0374
 2825SOL     OW19933   3.095   0.327   4.040  0.2667  0.2943  0.0053
 2825SOL    HW119934   3.035   0.278   3.983  1.3308  1.3584 -2.0380
 2825SOL    HW219935   3.090   0.417   4.007  0.9126  0.2448 -0.2259
 2826SOL     OW19936   0.992   1.846   0.035 -0.0762  0.1143  0.2615
 2826SOL    HW119937   0.926   1.904   0.073  0.5605  1.4213 -0.6132
 2826SOL    HW219938   0.956   1.839  17.639 -0.0216  3.4674 -0.0611
 2827SOL     OW19939   4.532   3.592   5.939  0.2365 -0.2177 -0.2888
 2827SOL    HW119940   4.546   3.670   5.885 -0.1151 -0.7292 -1.0982
 2827SOL    HW219941   4.546   3.525   5.873 -0.1667  0.3184 -0.9167
 2828SOL     OW19942   1.186   0.400  15.880  0.4375 -0.3262  0.6164
 2828SOL    HW119943   1.119   0.433  15.940 -0.9413 -0.4065 -0.8733
 2828SOL    HW219944   1.151   0.311  15.871  1.1301 -0.6849  1.3780
 2829SOL     OW19945   1.932   3.556   6.082 -0.1861  0.0507 -0.5218
 2829SOL    HW119946   1.883   3.482   6.117  1.5951 -2.0361 -2.4268
 2829SOL    HW219947   1.955   3.607   6.160  0.7179 -0.0304 -0.7275
 2830SOL     OW19948   2.904   0.415  15.603 -0.4595 -0.3985  1.1498
 2830SOL    HW119949   2.992   0.444  15.580 -0.6880 -0.7418 -0.1776
 2830SOL    HW219950   2.900   0.324  15.572  1.5236  0.2779 -1.0550
 2831SOL     OW19951   1.280   2.398   7.152  0.1990  0.0070  0.3651
 2831SOL    HW119952   1.341   2.469   7.132  1.6471 -1.2364  0.4145
 2831SOL    HW219953   1.281   2.407   7.247  0.1365  2.9541  0.1000
 2832SOL     OW19954   2.668   4.343   6.424 -0.1684  0.0017  0.3273
 2832SOL    HW119955   2.755   4.314   6.453 -0.7958 -1.0581  1.1941
 2832SOL    HW219956   2.690   4.432   6.398  0.0387  0.2877  1.4551
 2833SOL     OW19957   1.283   1.258   9.292 -0.0160  0.3345  0.0013
 2833SOL    HW119958   1.329   1.279   9.373  0.1823 -0.8402  0.1993
 2833SOL    HW219959   1.215   1.323   9.308  0.0647  0.5424 -0.5110
 2834SOL     OW19960   4.698   4.454   2.995 -0.3451 -0.1126  0.1027
 2834SOL    HW119961   0.039   4.415   2.935 -0.0599 -0.4020  0.5936
 2834SOL    HW219962   4.621   4.402   2.971  0.0774 -0.1888 -1.0533
 2835SOL     OW19963   4.213   2.220  10.996 -0.1833  0.3710 -0.8076
 2835SOL    HW119964   4.265   2.274  10.936 -0.2659  1.6122  0.2450
 2835SOL    HW219965   4.270   2.146  11.018 -0.4747 -0.1322 -1.7503
 2836SOL     OW19966   1.164   2.187  12.052  0.1709 -0.2140  0.2047
 2836SOL    HW119967   1.157   2.266  12.105 -0.4032  0.7470 -1.3073
 2836SOL    HW219968   1.201   2.229  11.974  0.6960 -1.4578 -0.2113
 2837SOL     OW19969   0.064   2.987  10.017  0.1684  0.4014  0.1750
 2837SOL    HW119970   0.130   2.926   9.986  0.7579  0.8776  0.5014
 2837SOL    HW219971   0.003   2.930  10.064 -0.6243  1.8438  0.8725
 2838SOL     OW19972   4.003   1.540   2.319 -0.3967  0.2298  0.2654
 2838SOL    HW119973   3.918   1.502   2.342 -0.9675  1.8785  0.9042
 2838SOL    HW219974   3.982   1.634   2.314 -1.9244 -0.2013 -1.1540
 2839SOL     OW19975   4.686   1.247   5.323 -0.0928  0.1955  0.5253
 2839SOL    HW119976   0.026   1.313   5.293  0.3891 -1.7315 -2.6448
 2839SOL    HW219977   4.610   1.286   5.280 -0.0609 -0.5208 -0.1754
 2840SOL     OW19978   0.110   4.057   3.099  0.1884  0.6034 -0.3077
 2840SOL    HW119979   0.185   4.021   3.146  0.7171 -0.0639 -1.6634
 2840SOL    HW219980   0.034   4.070   3.156  1.5640 -0.2387  1.7115
 2841SOL     OW19981   2.660   0.221   7.711 -0.3361  0.1124  0.0497
 2841SOL    HW119982   2.586   0.185   7.663 -1.8657 -0.3197  2.7376
 2841SOL    HW219983   2.687   0.134   7.743 -0.0227  0.5454  0.9549
 2842SOL     OW19984   2.489   4.698   8.778  0.6795 -0.2245  0.5192
 2842SOL    HW119985   2.404   4.700   8.735  1.2141 -1.3485 -0.5959
 2842SOL    HW219986   2.491   4.604   8.793 -0.7014 -0.0325  1.9051
 2843SOL     OW19987   2.621   3.675  16.924 -0.1908 -0.2361 -0.2453
 2843SOL    HW119988   2.684   3.613  16.887  1.4649  2.1791 -1.4861
 2843SOL    HW219989   2.563   3.614  16.970  1.0898 -0.1513  1.4511
 2844SOL     OW19990   1.259   1.906   5.948  0.1922  0.1237 -0.3797
 2844SOL    HW119991   1.333   1.962   5.924  0.3348 -0.4785 -1.3636
 2844SOL    HW219992   1.286   1.819   5.919 -0.1532 -0.1256  0.0557
 2845SOL     OW19993   1.371   3.477  13.957 -0.2909  0.4169  0.1881
 2845SOL    HW119994   1.389   3.410  13.891 -1.4196  1.5699 -1.2739
 2845SOL    HW219995   1.276   3.484  13.943 -0.6426 -1.5906  1.6211
 2846SOL     OW19996   1.772   2.253   2.740  0.5012  0.0371  0.1163
 2846SOL    HW119997   1.774   2.275   2.833 -0.3745  1.4970 -0.2141
 2846SOL    HW219998   1.682   2.281   2.726  1.0811  2.4593  1.2935
 2847SOL     OW19999   4.552   0.400  11.907 -0.4799 -0.3282 -0.7732
 2847SOL    HW120000   4.555   0.449  11.989 -0.7929 -2.3679  0.4539
 2847SOL    HW220001   4.465   0.430  11.880 -0.7412  0.0201  0.4679
 2848SOL     OW20002   2.719   0.505   5.343  0.0690 -0.2523 -0.0915
 2848SOL    HW120003   2.768   0.573   5.388  1.0377  0.3646 -2.0696
 2848SOL    HW220004   2.705   0.540   5.255 -0.7204  3.1098  1.3743
 2849SOL     OW20005   0.851   4.456  15.112  0.0183  0.1507 -0.4276
 2849SOL    HW120006   0.878   4.367  15.092 -1.9409 -0.3284 -0.9325
 2849SOL    HW220007   0.909   4.507  15.055 -0.9026  1.4644 -0.1972
 2850SOL     OW20008   1.671   1.675   9.305 -0.2674  0.0125  0.1309
 2850SOL    HW120009   1.694   1.767   9.316  0.7374 -0.1335 -0.7870
 2850SOL    HW220010   1.615   1.676   9.227 -2.1792 -2.9834  1.4481
 2851SOL     OW20011   2.857   1.958  10.693 -0.0833 -0.1871  0.3713
 2851SOL    HW120012   2.922   1.927  10.629 -1.1880  0.5704 -1.1272
 2851SOL    HW220013   2.870   1.888  10.757  0.1973 -0.0287  0.4881
 2852SOL     OW20014   1.056   2.408   3.240 -0.3999 -0.2114  0.4899
 2852SOL    HW120015   0.968   2.380   3.216  0.7920 -3.0743 -0.5659
 2852SOL    HW220016   1.071   2.358   3.321 -0.3414 -0.2695  0.4439
 2853SOL     OW20017   4.172   1.761   4.684  0.0694 -0.4997 -0.4851
 2853SOL    HW120018   4.256   1.750   4.727  0.2748  0.1758 -0.7100
 2853SOL    HW220019   4.206   1.795   4.601  2.2233  0.6374  0.8893
 2854SOL     OW20020   3.476   0.979   5.488  0.2863 -0.4205  0.7698
 2854SOL    HW120021   3.551   1.030   5.458  0.9723 -0.0490  3.1320
 2854SOL    HW220022   3.498   0.914   5.421 -0.5503  2.0692 -1.9168
 2855SOL     OW20023   2.290   1.897   6.993 -0.3475 -0.2032  0.2136
 2855SOL    HW120024   2.273   1.894   6.899  1.2585  0.7157 -0.0968
 2855SOL    HW220025   2.330   1.982   7.006  2.3093 -1.3702 -0.2816
 2856SOL     OW20026   0.493   3.847  12.824  0.3058 -0.5170  0.0771
 2856SOL    HW120027   0.534   3.931  12.801 -0.7182  0.1285  0.5899
 2856SOL    HW220028   0.565   3.792  12.854  1.2283  1.0995  0.8031
 2857SOL     OW20029   2.729   3.442   6.144 -0.2227 -0.0586 -0.1527
 2857SOL    HW120030   2.652   3.487   6.180  0.0535  0.0263  0.3325
 2857SOL    HW220031   2.686   3.431   6.059 -1.0217 -0.5019  0.3048
 2858SOL     OW20032   2.547   4.622  17.015  0.4241 -0.1645 -0.1549
 2858SOL    HW120033   2.633   4.597  16.984  0.7519  1.2399 -0.3882
 2858SOL    HW220034   2.543   4.568  17.094  0.8535 -1.7215 -1.1982
 2859SOL     OW20035   3.914   2.051   6.105 -0.1199  0.5840 -0.4382
 2859SOL    HW120036   3.948   1.962   6.114 -0.1648  0.3715 -2.5148
 2859SOL    HW220037   3.820   2.033   6.114 -0.3490  1.9527  0.0181
 2860SOL     OW20038   3.152   1.799  11.804 -0.3149 -0.5202 -0.0533
 2860SOL    HW120039   3.085   1.762  11.861  1.0403 -2.0034  0.5772
 2860SOL    HW220040   3.228   1.769  11.853 -1.0243 -0.2948  1.1783
 2861SOL     OW20041   2.305   3.630   3.341 -0.3441 -0.1632 -0.2437
 2861SOL    HW120042   2.228   3.579   3.316 -0.4141  0.4437 -1.2726
 2861SOL    HW220043   2.325   3.594   3.427 -0.8725 -1.1245 -0.5173
 2862SOL     OW20044   2.044   4.591  13.757 -0.7890  0.3714 -0.5954
 2862SOL    HW120045   1.991   4.549  13.825 -0.2131  0.0952 -0.3138
 2862SOL    HW220046   2.121   4.536  13.771 -2.2745 -2.5317 -4.0524
 2863SOL     OW20047   2.134   1.134  17.677  0.0290 -0.2036 -0.3788
 2863SOL    HW120048   2.058   1.095   0.028  0.1191 -1.2438 -1.1646
 2863SOL    HW220049   2.173   1.180   0.060  2.5734 -1.2354 -1.0655
 2864SOL     OW20050   0.044   1.884   5.043 -0.0535  0.0326  0.3038
 2864SOL    HW120051   4.684   1.892   4.993 -0.5686  0.2326  1.1935
 2864SOL    HW220052   0.064   1.976   5.058  3.0571 -0.1153 -2.8519
 2865SOL     OW20053   4.353   4.028   2.575 -0.0629 -0.3120  0.0711
 2865SOL    HW120054   4.390   3.940   2.582 -2.3649 -1.2185  0.7858
 2865SOL    HW220055   4.406   4.057   2.500 -0.3247  0.8249  0.3231
 2866SOL     OW20056   3.419   2.193   2.421  0.4288 -0.2529 -0.1755
 2866SOL    HW120057   3.495   2.147   2.386  0.4074  0.8546 -1.6857
 2866SOL    HW220058   3.439   2.198   2.514 -0.5035 -2.0172  0.1048
 2867SOL     OW20059   2.284   1.512   6.102  0.8542  0.3727 -0.4692
 2867SOL    HW120060   2.318   1.459   6.029 -2.2644 -0.6436 -1.1989
 2867SOL    HW220061   2.335   1.593   6.104  1.1277  0.2261 -1.4983
 2868SOL     OW20062   2.670   0.005   6.103  0.1338  0.1615  0.6816
 2868SOL    HW120063   2.702   4.639   6.084  0.9349  0.4657  0.6246
 2868SOL    HW220064   2.669   0.032   6.011  2.3270 -0.8417  0.3581
 2869SOL     OW20065   2.690   0.955  15.171 -0.1440 -0.0981 -0.5599
 2869SOL    HW120066   2.755   1.013  15.212 -2.4230  2.5180 -0.6321
 2869SOL    HW220067   2.746   0.890  15.129 -1.3848 -2.3521  1.3110
 2870SOL     OW20068   2.236   4.517   5.921  0.1440  0.5353 -0.2619
 2870SOL    HW120069   2.177   4.463   5.869  0.5738 -0.0085 -0.1876
 2870SOL    HW220070   2.316   4.494   5.873  0.9403  0.8465  0.9146
 2871SOL     OW20071   3.049   3.023   4.753 -0.5537  0.4296 -0.1189
 2871SOL    HW120072   3.120   3.070   4.797  1.0252 -2.4956  0.3901
 2871SOL    HW220073   3.006   3.094   4.704 -0.7369  0.2098 -0.2748
 2872SOL     OW20074   4.061   2.501   1.590 -0.1176 -0.3601 -0.1693
 2872SOL    HW120075   4.077   2.595   1.583  0.8326 -0.6311 -1.6608
 2872SOL    HW220076   3.968   2.487   1.569  0.1841 -0.0617 -1.7129
 2873SOL     OW20077   3.166   4.401   3.346  0.2303  0.7433 -0.7232
 2873SOL    HW120078   3.131   4.366   3.264  2.5890 -1.6767 -0.6826
 2873SOL    HW220079   3.111   4.478   3.355 -1.0865 -0.5587  2.6329
 2874SOL     OW20080   3.144   1.459   8.013  0.2400 -0.4448 -0.2926
 2874SOL    HW120081   3.217   1.407   8.046  0.8093 -0.3968 -1.4870
 2874SOL    HW220082   3.112   1.403   7.943  1.9001 -0.6500 -0.8943
 2875SOL     OW20083   3.128   1.712  17.598 -0.0481  0.1374  0.0089
 2875SOL    HW120084   3.118   1.806  17.587  0.3923  0.2834  0.8620
 2875SOL    HW220085   3.221   1.702  17.576 -0.3162  0.4208 -1.2601
 2876SOL     OW20086   3.592   0.350   3.564  0.0921 -0.0777 -0.0220
 2876SOL    HW120087   3.636   0.325   3.483 -1.6032 -0.0515 -0.9617
 2876SOL    HW220088   3.563   0.268   3.604 -0.3346 -0.4306 -1.0339
 2877SOL     OW20089   0.797   2.357   3.204 -0.2860  0.1267 -0.4796
 2877SOL    HW120090   0.719   2.304   3.187 -0.1929 -0.4888  1.0774
 2877SOL    HW220091   0.787   2.351   3.299 -1.7572 -0.0924 -0.6398
 2878SOL     OW20092   0.268   3.310  16.276 -0.0571  0.0654  0.0198
 2878SOL    HW120093   0.302   3.265  16.198  0.1432 -0.8602  0.6466
 2878SOL    HW220094   0.187   3.352  16.248  0.8924  1.3989 -0.7426
 2879SOL     OW20095   1.570   2.176  15.814  0.4336 -0.0100 -0.0316
 2879SOL    HW120096   1.572   2.108  15.747 -0.5851 -0.2076  0.1481
 2879SOL    HW220097   1.603   2.125  15.888 -0.1082 -0.3915 -0.0593
 2880SOL     OW20098   2.355   1.579   4.412 -0.0994  0.8964  0.3463
 2880SOL    HW120099   2.379   1.656   4.465 -0.6962  2.3744 -1.5264
 2880SOL    HW220100   2.434   1.571   4.359 -1.2650 -3.2095 -0.7457
 2881SOL     OW20101   3.328   3.667   2.431 -0.0165 -0.7016 -0.3832
 2881SOL    HW120102   3.362   3.632   2.349 -1.4105 -0.8328 -0.9042
 2881SOL    HW220103   3.341   3.761   2.426  2.5464 -0.9834  0.9644
 2882SOL     OW20104   2.557   4.721   2.079 -0.0122  0.6122 -0.2037
 2882SOL    HW120105   2.564   4.710   1.984 -0.0048 -0.6139 -0.0617
 2882SOL    HW220106   2.635   0.053   2.089  0.9337 -0.2000 -3.0014
 2883SOL     OW20107   1.702   3.124   0.977  0.0913  0.4630  0.5146
 2883SOL    HW120108   1.686   3.204   0.927 -0.9438  0.1782  0.3800
 2883SOL    HW220109   1.775   3.084   0.931  0.6272  2.4030 -0.3219
 2884SOL     OW20110   2.165   4.680   5.292  0.2659 -0.4303  0.1540
 2884SOL    HW120111   2.098   4.702   5.228 -0.5402  1.7916  1.7301
 2884SOL    HW220112   2.147   0.018   5.365 -1.5940 -1.1191  0.2515
 2885SOL     OW20113   2.583   1.431  14.290  0.2084  0.7209  0.0469
 2885SOL    HW120114   2.529   1.432  14.368 -2.7864  0.5848 -2.0174
 2885SOL    HW220115   2.547   1.365  14.231 -1.3253  0.2190  1.5419
 2886SOL     OW20116   4.680   3.949  14.061  0.1965  0.1924  0.3582
 2886SOL    HW120117   0.006   4.027  14.035 -1.1808  0.2345 -2.1772
 2886SOL    HW220118   4.596   3.995  14.071  0.0217 -0.2840  1.0713
 2887SOL     OW20119   4.426   3.121   5.231 -0.1429 -0.4861  0.1981
 2887SOL    HW120120   4.500   3.175   5.203  0.9379 -1.3855  1.3327
 2887SOL    HW220121   4.430   3.067   5.151  2.7645 -0.8488  0.5991
 2888SOL     OW20122   2.771   0.700   9.408  0.0019 -1.1592  0.1389
 2888SOL    HW120123   2.691   0.671   9.365 -0.1767 -0.5394  0.0535
 2888SOL    HW220124   2.752   0.678   9.499 -4.1012  1.2913 -0.1344
 2889SOL     OW20125   2.986   0.251   4.311  0.4389 -0.4827  0.0826
 2889SOL    HW120126   3.040   0.182   4.272 -0.2080 -1.2226  0.5025
 2889SOL    HW220127   3.050   0.322   4.304  0.6135 -0.6766 -0.2761
 2890SOL     OW20128   4.470   3.659   0.187  0.5410  0.2707  0.8161
 2890SOL    HW120129   4.376   3.641   0.191  0.1977  1.7099 -0.8315
 2890SOL    HW220130   4.488   3.678   0.279 -2.0418 -0.6704  1.5139
 2891SOL     OW20131   1.417   2.562   8.520  0.1277  0.0554  0.5610
 2891SOL    HW120132   1.358   2.487   8.529 -0.8043  0.7936  0.7189
 2891SOL    HW220133   1.360   2.636   8.541 -0.9755 -0.4871 -0.5481
 2892SOL     OW20134   4.210   1.483  13.456 -0.2102 -0.6664  0.7195
 2892SOL    HW120135   4.171   1.451  13.537  1.1055 -2.3961  0.6669
 2892SOL    HW220136   4.295   1.517  13.481 -0.1714  0.0010 -0.2906
 2893SOL     OW20137   0.860   2.236  14.057  0.2058 -0.0701 -0.2131
 2893SOL    HW120138   0.812   2.236  13.974  0.0822  3.0473 -0.1677
 2893SOL    HW220139   0.800   2.289  14.110  1.1355  1.9062 -1.1151
 2894SOL     OW20140   2.728   1.282  12.159 -0.0254 -0.2452  0.0222
 2894SOL    HW120141   2.748   1.189  12.170 -1.2208 -0.6250 -1.0407
 2894SOL    HW220142   2.649   1.269  12.108 -0.1086  1.5228 -0.2956
 2895SOL     OW20143   1.717   3.338   8.072 -0.0493 -0.2969  0.1267
 2895SOL    HW120144   1.770   3.417   8.057 -0.9743  0.2451 -0.3242
 2895SOL    HW220145   1.644   3.374   8.124  0.5125  0.1434  0.6063
 2896SOL     OW20146   0.247   4.140   7.932 -0.1111 -0.1067 -0.3411
 2896SOL    HW120147   0.160   4.170   7.958  0.6227 -0.6454  2.6462
 2896SOL    HW220148   0.273   4.095   8.012 -1.2562  2.0734  1.2342
 2897SOL     OW20149   3.275   2.466   5.663  0.3713  0.2249  0.6303
 2897SOL    HW120150   3.210   2.463   5.593  0.3295 -0.5909  0.6999
 2897SOL    HW220151   3.238   2.545   5.701  1.4366  0.6362  0.8323
 2898SOL     OW20152   4.041   1.540  17.501  0.3003 -0.1038  0.4652
 2898SOL    HW120153   4.046   1.602  17.575  0.8142  2.5220 -1.7780
 2898SOL    HW220154   4.065   1.597  17.428  2.5281  0.5143  1.6764
 2899SOL     OW20155   1.795   1.827   1.507  0.3613 -0.2460  0.0189
 2899SOL    HW120156   1.706   1.845   1.536  0.7211  0.6461  0.5591
 2899SOL    HW220157   1.822   1.769   1.579  0.5149 -0.2677 -0.0571
 2900SOL     OW20158   2.462   1.332   6.707 -0.3327 -0.4550 -0.7535
 2900SOL    HW120159   2.455   1.413   6.657 -1.6832 -0.1814 -0.1212
 2900SOL    HW220160   2.522   1.284   6.650  2.1032  0.7450  0.8298
 2901SOL     OW20161   2.997   1.059   8.632  0.1028 -0.0876  0.1849
 2901SOL    HW120162   2.901   1.067   8.631  0.1644  0.1259 -3.6452
 2901SOL    HW220163   3.013   1.036   8.723  0.8217  1.3344  0.4289
 2902SOL     OW20164   2.249   4.632  15.176  0.2405 -0.0857 -0.0984
 2902SOL    HW120165   2.181   4.613  15.241  0.8594  0.2280  0.6403
 2902SOL    HW220166   2.262   0.004  15.184 -0.3946  0.0774 -0.9390
 2903SOL     OW20167   4.215   0.964  13.904  0.1250  0.4495  0.2356
 2903SOL    HW120168   4.135   0.951  13.852  1.4840 -2.0615 -1.2022
 2903SOL    HW220169   4.256   1.021  13.838  0.2365 -1.3657 -1.2473
 2904SOL     OW20170   2.062   2.960   5.872 -0.1187  0.5319 -0.7191
 2904SOL    HW120171   2.064   2.934   5.964 -1.4448 -0.7009 -1.0445
 2904SOL    HW220172   2.079   2.872   5.839 -1.4578  0.4632 -1.2235
 2905SOL     OW20173   4.352   1.144  17.228  0.6941  0.1847 -0.2135
 2905SOL    HW120174   4.264   1.180  17.226  0.6192  0.0048 -0.2176
 2905SOL    HW220175   4.407   1.208  17.273  2.0583 -1.9404  1.1832
 2906SOL     OW20176   2.940   2.844   1.151 -0.4580  0.5427  0.2774
 2906SOL    HW120177   2.873   2.863   1.086  0.5637  2.6026 -0.1695
 2906SOL    HW220178   3.015   2.832   1.093 -2.8440 -1.1314 -2.4008
 2907SOL     OW20179   1.804   3.880   2.663 -0.0432 -0.1706 -0.2649
 2907SOL    HW120180   1.775   3.811   2.602  4.1169 -0.9637 -1.3295
 2907SOL    HW220181   1.818   3.826   2.741 -0.0837 -0.3837 -0.4029
 2908SOL     OW20182   3.905   2.708  10.141  0.0204 -0.3842  0.4801
 2908SOL    HW120183   3.985   2.741  10.099  0.6876 -0.6650  1.5440
 2908SOL    HW220184   3.876   2.794  10.171  0.6308 -0.7340  2.0766
 2909SOL     OW20185   3.219   3.069  16.323 -0.1633  0.1677  0.6136
 2909SOL    HW120186   3.200   2.975  16.317 -2.1166  0.8011 -3.2413
 2909SOL    HW220187   3.210   3.092  16.230 -2.0983 -0.7484  0.5654
 2910SOL     OW20188   2.048   1.146  13.338  0.5618  0.1717 -0.1652
 2910SOL    HW120189   2.088   1.065  13.369 -3.6612 -1.4409  1.1610
 2910SOL    HW220190   2.112   1.212  13.365  0.9264 -0.7106  1.1259
 2911SOL     OW20191   1.929   2.886  10.561  0.0606 -0.4130 -0.3049
 2911SOL    HW120192   1.986   2.912  10.489  2.2767 -0.3562  1.4345
 2911SOL    HW220193   1.897   2.806  10.520 -1.0685 -0.9165  1.5576
 2912SOL     OW20194   1.892   1.640   3.334  0.0897  0.0191 -0.8058
 2912SOL    HW120195   1.853   1.554   3.340  0.3417  0.0098  0.8367
 2912SOL    HW220196   1.984   1.613   3.327  0.4916  1.1149  0.1486
 2913SOL     OW20197   3.068   2.600   3.513 -0.3881  0.6558 -0.2719
 2913SOL    HW120198   3.061   2.638   3.425  1.1991 -1.3871 -1.2675
 2913SOL    HW220199   2.979   2.568   3.530  0.7651 -1.4530  1.7180
 2914SOL     OW20200   2.919   1.674   6.955 -0.5356 -0.2106 -0.0576
 2914SOL    HW120201   2.967   1.704   7.032 -0.0589  0.6352 -0.6878
 2914SOL    HW220202   2.829   1.699   6.975 -0.4658 -1.1545  1.4172
 2915SOL     OW20203   1.635   1.154  16.645  0.4342 -0.0000 -0.1962
 2915SOL    HW120204   1.604   1.220  16.706 -0.3111  1.2905 -1.9731
 2915SOL    HW220205   1.656   1.090  16.713 -1.5653  0.0580  0.4649
 2916SOL     OW20206   1.247   0.997   8.813 -0.9439 -0.7265 -0.0730
 2916SOL    HW120207   1.277   1.066   8.871 -1.6346 -0.9665  0.5721
 2916SOL    HW220208   1.331   0.952   8.799 -0.7001  0.2731 -1.7748
 2917SOL     OW20209   0.784   3.843   2.866 -0.3684  0.1915  0.1262
 2917SOL    HW120210   0.758   3.833   2.958  0.6506 -0.7386  0.3199
 2917SOL    HW220211   0.870   3.887   2.868 -1.0519  1.4274  2.3324
 2918SOL     OW20212   3.281   2.866   1.556  0.2537 -0.9712  0.1023
 2918SOL    HW120213   3.227   2.851   1.634 -0.0236  3.0754  0.6581
 2918SOL    HW220214   3.214   2.868   1.488  1.7825 -2.0339 -1.4392
 2919SOL     OW20215   2.589   0.617  16.695 -0.4625  0.2798  0.4337
 2919SOL    HW120216   2.499   0.584  16.685 -1.4513  2.9819  0.5706
 2919SOL    HW220217   2.640   0.538  16.675  0.9235  1.5007 -0.7848
 2920SOL     OW20218   3.166   2.547   2.231  0.3828  0.0549  0.5951
 2920SOL    HW120219   3.103   2.571   2.163  0.1040 -1.0314  0.4629
 2920SOL    HW220220   3.114   2.486   2.283  0.9207 -1.8354 -1.0506
 2921SOL     OW20221   1.797   4.709  11.103 -0.2804  0.0302 -0.1726
 2921SOL    HW120222   1.834   4.631  11.062 -4.3870 -2.3212  0.6091
 2921SOL    HW220223   1.810   4.672  11.191 -0.5447  1.3192  0.4139
 2922SOL     OW20224   0.010   2.624   2.048  0.0418 -0.0311  0.3994
 2922SOL    HW120225   0.049   2.671   2.122 -2.0388  0.9018  0.9225
 2922SOL    HW220226   4.691   2.686   1.988  1.2244  1.1696  0.8011
 2923SOL     OW20227   0.576   2.914   2.171 -0.1813 -0.3161  0.2299
 2923SOL    HW120228   0.491   2.886   2.135  0.7742 -0.0906 -2.1624
 2923SOL    HW220229   0.555   2.996   2.215 -0.4725 -0.6988  0.7958
 2924SOL     OW20230   3.467   3.741   3.688 -0.1414  0.0825 -0.9508
 2924SOL    HW120231   3.471   3.699   3.602  0.6622  1.6301 -1.6753
 2924SOL    HW220232   3.417   3.816   3.655 -0.4649  0.1942 -0.1931
 2925SOL     OW20233   3.419   0.297   9.296  0.2185 -0.0716 -0.1102
 2925SOL    HW120234   3.420   0.213   9.251  0.1795 -1.4014  2.3495
 2925SOL    HW220235   3.511   0.314   9.279 -0.1656  0.8576 -1.3061
 2926SOL     OW20236   1.527   0.965   9.082 -0.0075 -0.2429 -0.5268
 2926SOL    HW120237   1.602   1.010   9.120 -1.1287 -0.3840  1.8064
 2926SOL    HW220238   1.458   1.030   9.092  0.5230  0.4600 -1.3391
 2927SOL     OW20239   1.018   2.596   9.964  0.0451 -0.6428  0.2074
 2927SOL    HW120240   0.934   2.552   9.952 -0.0079 -0.0610 -1.6231
 2927SOL    HW220241   1.058   2.536  10.026 -0.3861  0.3110  1.4131
 2928SOL     OW20242   2.724   2.555   7.042 -0.6996 -0.3141 -0.2902
 2928SOL    HW120243   2.702   2.466   7.014 -1.8614 -1.1694  3.3772
 2928SOL    HW220244   2.750   2.600   6.961 -1.4695  0.4364 -0.1243
 2929SOL     OW20245   2.236   3.704   3.862 -0.0996  0.6150  0.1233
 2929SOL    HW120246   2.238   3.736   3.953  0.4022 -0.0546  0.3446
 2929SOL    HW220247   2.248   3.787   3.815 -0.4506  0.2658 -0.5761
 2930SOL     OW20248   0.599   0.217  12.763 -0.2038  0.0250 -0.3270
 2930SOL    HW120249   0.529   0.259  12.812  0.7771  1.2670  0.0136
 2930SOL    HW220250   0.668   0.265  12.809 -1.1516  0.4856  0.5872
 2931SOL     OW20251   3.149   3.251   5.853  0.3354 -0.1132 -0.0621
 2931SOL    HW120252   3.198   3.170   5.866 -1.5362 -1.1886  0.2823
 2931SOL    HW220253   3.210   3.306   5.902 -2.2159  2.0408  0.7220
 2932SOL     OW20254   2.463   2.153   4.642 -0.5811 -0.1242 -0.2050
 2932SOL    HW120255   2.421   2.148   4.557  0.8629  0.1483 -0.9297
 2932SOL    HW220256   2.444   2.242   4.671 -0.8167 -0.3925  0.4814
 2933SOL     OW20257   1.959   1.863   6.492 -0.2702 -0.0635 -0.2052
 2933SOL    HW120258   1.956   1.851   6.587 -0.0181  2.1958  0.0866
 2933SOL    HW220259   2.045   1.833   6.462  0.2477  0.6732  0.5733
 2934SOL     OW20260   0.689   4.314  11.076  0.0806  0.1080  0.2601
 2934SOL    HW120261   0.728   4.390  11.119 -1.3538  0.8516  0.2392
 2934SOL    HW220262   0.755   4.295  11.009  0.3376  2.1961 -0.0638
 2935SOL     OW20263   4.580   0.361  11.618 -0.1908  0.3313 -0.3580
 2935SOL    HW120264   4.533   0.279  11.603 -0.8380  0.8751 -1.2546
 2935SOL    HW220265   4.604   0.347  11.710 -1.8373 -0.4977 -0.0518
 2936SOL     OW20266   3.421   3.129   2.764 -0.3795  0.1381  0.5034
 2936SOL    HW120267   3.376   3.091   2.839 -0.4922  0.9933  0.8693
 2936SOL    HW220268   3.472   3.194   2.812  2.1197 -2.1609  0.9568
 2937SOL     OW20269   3.891   0.945   4.847 -0.1423  0.4030  0.1721
 2937SOL    HW120270   3.960   0.890   4.885  1.0658  1.2759 -0.7360
 2937SOL    HW220271   3.937   1.023   4.816  0.4508 -0.9212 -2.3348
 2938SOL     OW20272   2.020   3.577   5.048  0.3273 -0.1889  0.3358
 2938SOL    HW120273   2.059   3.491   5.037  1.8986  0.5616  0.1150
 2938SOL    HW220274   1.935   3.552   5.085  0.4349 -3.6496 -1.8186
 2939SOL     OW20275   2.985   1.775  10.507 -0.3371  0.3246  0.4011
 2939SOL    HW120276   3.040   1.812  10.438  0.8000 -3.5910 -0.7684
 2939SOL    HW220277   2.907   1.782  10.454 -0.8635 -2.0720  0.8845
 2940SOL     OW20278   2.383   0.506   3.617  0.0359 -0.4890 -0.3683
 2940SOL    HW120279   2.320   0.560   3.570  0.0736 -0.0152  0.1238
 2940SOL    HW220280   2.330   0.469   3.687  0.1893 -3.0206 -1.5750
 2941SOL     OW20281   4.533   3.621  16.007 -0.0030  0.0102  0.1621
 2941SOL    HW120282   4.599   3.689  16.014 -0.9288  0.9785 -0.4692
 2941SOL    HW220283   4.466   3.676  15.965  0.5269 -0.3899 -1.1845
 2942SOL     OW20284   2.822   3.911   7.525 -0.4965  0.4755  0.2931
 2942SOL    HW120285   2.803   3.986   7.469 -3.9192  0.3624  1.3109
 2942SOL    HW220286   2.916   3.921   7.543 -0.4752 -0.9833  0.9981
 2943SOL     OW20287   3.245   0.302  14.411 -0.1499 -0.0772  0.0570
 2943SOL    HW120288   3.160   0.260  14.397 -0.4333  0.1480  1.0555
 2943SOL    HW220289   3.250   0.291  14.506  1.0055  1.6492  0.1915
 2944SOL     OW20290   1.431   3.084   1.743  0.7657 -0.6239  0.3548
 2944SOL    HW120291   1.460   3.108   1.655 -1.4325 -0.7289 -0.4022
 2944SOL    HW220292   1.392   2.997   1.739  2.3262 -1.3128  0.1898
 2945SOL     OW20293   1.094   3.136  16.503 -0.7176  0.8310 -0.3951
 2945SOL    HW120294   1.179   3.180  16.510  0.8366 -2.4077  1.0917
 2945SOL    HW220295   1.027   3.203  16.519 -1.1865 -0.6269  3.8563
 2946SOL     OW20296   1.471   2.026  17.208 -0.4323 -0.2374 -0.5287
 2946SOL    HW120297   1.518   1.951  17.243 -1.5758 -1.4040 -1.5106
 2946SOL    HW220298   1.447   1.994  17.121  0.6446  0.8282 -1.2061
 2947SOL     OW20299   3.560   3.175   4.860  0.0560 -0.6392 -0.1927
 2947SOL    HW120300   3.629   3.184   4.926 -1.2805 -0.8052  1.2416
 2947SOL    HW220301   3.562   3.253   4.806 -0.5077 -0.8349 -0.5049
 2948SOL     OW20302   1.040   0.876   5.630  0.0551 -0.0895  0.3868
 2948SOL    HW120303   0.964   0.903   5.579  1.4169  0.7052 -1.2548
 2948SOL    HW220304   1.001   0.806   5.682 -0.8150  0.4406  0.4500
 2949SOL     OW20305   3.657   0.041   4.403  0.2663  0.0737  0.0143
 2949SOL    HW120306   3.577   0.082   4.434  0.5359  0.1785  0.5770
 2949SOL    HW220307   3.714   0.116   4.385  0.9326 -0.3418  0.3551
 2950SOL     OW20308   4.521   3.343   7.209  0.2937 -0.0926  0.2932
 2950SOL    HW120309   4.533   3.431   7.173  1.8137 -0.6604 -0.5773
 2950SOL    HW220310   4.427   3.345   7.224  0.2048 -1.4976 -0.1417
 2951SOL     OW20311   1.884   1.039   9.032 -0.0041  0.6821  0.1336
 2951SOL    HW120312   1.895   1.010   8.942  0.4332  0.6289  0.2051
 2951SOL    HW220313   1.931   0.974   9.084 -0.5894 -1.0330 -1.5157
 2952SOL     OW20314   1.087   0.037  12.267 -0.6963  0.3229  0.4037
 2952SOL    HW120315   1.071   4.718  12.183 -1.6281  1.1163  0.1955
 2952SOL    HW220316   1.004   0.085  12.268 -0.6518  0.3595  2.9838
 2953SOL     OW20317   4.713   1.141   7.980  0.0931  0.5305 -0.4774
 2953SOL    HW120318   4.703   1.047   7.996 -0.3692  0.2703 -2.3280
 2953SOL    HW220319   0.082   1.145   8.008 -0.5473 -0.1453  1.7155
 2954SOL     OW20320   0.450   0.639   1.468 -0.5892 -0.8473  0.2674
 2954SOL    HW120321   0.543   0.632   1.448 -0.7026  1.5051 -1.1456
 2954SOL    HW220322   0.406   0.560   1.438  0.2004 -1.3664  0.4731
 2955SOL     OW20323   3.273   1.593   4.641  0.1138  0.2072  0.0279
 2955SOL    HW120324   3.244   1.606   4.731  0.2348  0.4899  0.0286
 2955SOL    HW220325   3.367   1.585   4.660  0.4672 -1.4587 -2.4091
 2956SOL     OW20326   1.530   3.240   7.190 -0.7157  0.2804  0.6465
 2956SOL    HW120327   1.488   3.282   7.265 -0.0653 -1.2634  1.8810
 2956SOL    HW220328   1.457   3.228   7.130  0.0329  1.3846 -0.4876
 2957SOL     OW20329   3.361   0.139   3.747  0.4790 -0.3232  0.2247
 2957SOL    HW120330   3.381   0.114   3.657  0.2666 -1.2573  0.4382
 2957SOL    HW220331   3.373   0.053   3.787  0.3075 -0.3682  0.1809
 2958SOL     OW20332   3.356   4.488  17.399 -0.1567  0.0607 -0.0656
 2958SOL    HW120333   3.329   4.560  17.455 -0.0688  1.5833 -1.9876
 2958SOL    HW220334   3.337   4.415  17.458 -1.4671 -0.7663 -1.5289
 2959SOL     OW20335   2.926   4.274   6.516  0.7488 -0.5139  0.1728
 2959SOL    HW120336   2.977   4.253   6.437 -0.1723 -1.1366 -0.2585
 2959SOL    HW220337   2.977   4.350   6.544 -1.8260  1.0776  0.5571
 2960SOL     OW20338   3.813   2.330  16.272 -0.7671  0.4782 -0.0597
 2960SOL    HW120339   3.881   2.345  16.337 -1.7682 -1.4523  1.4441
 2960SOL    HW220340   3.790   2.423  16.263 -0.1706  0.5696 -0.6161
 2961SOL     OW20341   3.052   0.397   1.496 -0.3130  0.0635 -0.1874
 2961SOL    HW120342   3.038   0.302   1.494 -1.8293  0.2318  2.4972
 2961SOL    HW220343   3.092   0.409   1.410 -2.6150 -2.8030 -1.6467
 2962SOL     OW20344   1.567   0.518   0.441 -0.4010 -0.0051 -0.4445
 2962SOL    HW120345   1.654   0.511   0.400  0.3694  3.8303  0.5117
 2962SOL    HW220346   1.522   0.529   0.357  0.3563 -0.4614 -0.9075
 2963SOL     OW20347   4.565   1.933   2.824  0.0601  0.5816  0.7370
 2963SOL    HW120348   4.608   1.877   2.760 -0.7569  1.3157 -0.4637
 2963SOL    HW220349   4.503   1.987   2.774 -0.3829  0.2444  0.9180
 2964SOL     OW20350   3.021   1.973   5.913 -0.7383  0.9566 -0.0514
 2964SOL    HW120351   2.968   1.978   5.992 -2.0581  0.7067 -0.9140
 2964SOL    HW220352   2.984   1.890   5.883  0.1991  0.8592 -0.9466
 2965SOL     OW20353   4.670   2.597   6.549  0.6582 -0.1408  0.1954
 2965SOL    HW120354   4.626   2.559   6.624  0.3727 -0.0815  0.0571
 2965SOL    HW220355   0.034   2.560   6.569  0.1344 -1.8719 -0.7973
 2966SOL     OW20356   0.627   4.257   4.388 -0.5111 -0.2607 -0.4339
 2966SOL    HW120357   0.582   4.267   4.472  0.2906  0.7597 -0.1160
 2966SOL    HW220358   0.661   4.169   4.403  1.7417  0.3992 -1.6488
 2967SOL     OW20359   3.715   1.420   2.627 -0.0433 -0.1843 -0.4967
 2967SOL    HW120360   3.623   1.399   2.614  0.2997 -1.6406 -0.6034
 2967SOL    HW220361   3.706   1.452   2.717  1.6344  0.2570 -0.4931
 2968SOL     OW20362   0.059   3.990   2.619 -0.5149 -0.0283 -0.4522
 2968SOL    HW120363   0.065   3.951   2.707 -1.5580  0.9978  0.0662
 2968SOL    HW220364   0.070   4.082   2.642  2.0236 -1.1671  3.0041
 2969SOL     OW20365   4.554   2.274   8.285  0.3295 -0.0299 -0.4222
 2969SOL    HW120366   4.544   2.223   8.365 -1.4341 -2.1896 -2.0268
 2969SOL    HW220367   4.650   2.275   8.286  0.3220 -0.6899  0.6488
 2970SOL     OW20368   4.381   4.040   5.774 -0.3713  0.1265 -0.5038
 2970SOL    HW120369   4.364   4.091   5.853  0.8724 -0.1409 -0.0633
 2970SOL    HW220370   4.466   4.000   5.790  0.2939  1.8888  0.4174
 2971SOL     OW20371   3.350   0.586   2.018 -0.1290  0.2465  0.0627
 2971SOL    HW120372   3.398   0.535   1.953  0.6330 -1.1767  1.7481
 2971SOL    HW220373   3.414   0.657   2.012 -0.2649  0.4015  0.4149
 2972SOL     OW20374   0.575   2.043   8.190  0.3751 -0.0428 -0.1029
 2972SOL    HW120375   0.658   2.002   8.166 -0.8120 -0.3297 -3.7858
 2972SOL    HW220376   0.559   1.983   8.263  0.8737 -1.7721 -1.4196
 2973SOL     OW20377   0.439   1.773   8.634  0.4659  0.3598  0.2311
 2973SOL    HW120378   0.517   1.818   8.666  0.9313 -0.1305 -0.2220
 2973SOL    HW220379   0.397   1.750   8.717 -0.8404  1.4361 -0.1347
 2974SOL     OW20380   3.975   2.389   6.376 -0.4917  0.3196  0.0424
 2974SOL    HW120381   4.026   2.339   6.440 -0.4508 -1.7066 -1.5802
 2974SOL    HW220382   3.888   2.362   6.403 -0.3230 -1.0677 -0.7822
 2975SOL     OW20383   2.589   4.469   7.468  0.2803 -0.5324  0.0575
 2975SOL    HW120384   2.517   4.532   7.473 -0.6268 -1.8101  2.9598
 2975SOL    HW220385   2.542   4.426   7.396 -0.3203 -0.6172  0.4974
 2976SOL     OW20386   2.234   2.063   4.117  0.5469  0.4961  0.2105
 2976SOL    HW120387   2.222   2.138   4.176 -0.9540 -0.4357  1.0825
 2976SOL    HW220388   2.288   2.100   4.047 -0.0106 -0.5398 -0.7701
 2977SOL     OW20389   2.229   0.120   8.299 -0.6119 -0.5101 -0.1033
 2977SOL    HW120390   2.140   0.141   8.269 -0.7992 -1.4701 -0.2197
 2977SOL    HW220391   2.216   0.093   8.390 -0.0314  1.7003  0.6389
 2978SOL     OW20392   4.523   4.500   5.537  0.2698  0.0207  0.1273
 2978SOL    HW120393   4.467   4.428   5.566 -0.2674  0.9052  1.2907
 2978SOL    HW220394   4.602   4.447   5.527 -1.7772 -3.5375  2.5101
 2979SOL     OW20395   0.097   3.346   1.654  0.1010 -0.0342 -0.7133
 2979SOL    HW120396   0.020   3.385   1.696 -0.4235 -0.8092 -0.9646
 2979SOL    HW220397   0.059   3.262   1.630 -1.2888  0.0984  1.0020
 2980SOL     OW20398   2.427   2.058   3.468 -0.6627  0.6049  0.6570
 2980SOL    HW120399   2.384   2.144   3.464 -0.6272  0.6798  1.7906
 2980SOL    HW220400   2.503   2.073   3.412 -1.1756  0.6686 -0.0318
 2981SOL     OW20401   1.107   1.000   4.531 -0.1801 -0.7248  0.1840
 2981SOL    HW120402   1.045   0.950   4.478 -1.9003  0.5665  0.9609
 2981SOL    HW220403   1.057   1.078   4.556 -0.3094 -0.6207 -0.4080
 2982SOL     OW20404   1.052   3.117   3.947  0.1757  0.1275 -0.3746
 2982SOL    HW120405   1.019   3.090   3.861  1.6566 -1.3333 -0.4838
 2982SOL    HW220406   0.980   3.175   3.972  1.4154  0.7366  1.7537
 2983SOL     OW20407   4.134   2.015   2.339  0.0556  0.2263 -0.2396
 2983SOL    HW120408   4.137   2.032   2.245 -2.5752 -1.4291 -0.6305
 2983SOL    HW220409   4.131   2.096   2.389 -0.6092 -1.0194  1.7615
 2984SOL     OW20410   4.617   3.682  10.127  0.1602  0.0258  0.1573
 2984SOL    HW120411   4.623   3.699  10.221 -0.5698 -0.2626  0.2565
 2984SOL    HW220412   4.541   3.624  10.123 -0.7051  1.0249  2.1896
 2985SOL     OW20413   1.792   2.068  16.967  0.0473  0.0994 -0.1241
 2985SOL    HW120414   1.773   2.160  16.947  1.4515 -0.0700 -2.1892
 2985SOL    HW220415   1.734   2.024  16.905 -1.4689 -0.8644  2.0062
 2986SOL     OW20416   4.294   4.413   9.725  0.0831  0.5141  0.2976
 2986SOL    HW120417   4.299   4.365   9.643 -0.8244  0.0922  0.4859
 2986SOL    HW220418   4.273   4.498   9.687  0.1444  0.1145 -0.6153
 2987SOL     OW20419   4.197   4.023   9.903 -0.4195 -0.5585 -0.2439
 2987SOL    HW120420   4.145   4.032   9.823  1.7670 -0.9964 -1.6964
 2987SOL    HW220421   4.173   4.110   9.936  2.6239 -0.5114  1.8054
 2988SOL     OW20422   2.588   3.085   9.027 -0.0465 -0.5189  0.1765
 2988SOL    HW120423   2.658   3.035   8.986  0.4412 -0.5842  1.0922
 2988SOL    HW220424   2.634   3.117   9.104  1.1737 -3.0915  0.5126
 2989SOL     OW20425   0.756   2.270  13.808 -0.2580 -0.0798 -0.0578
 2989SOL    HW120426   0.753   2.366  13.805  1.6856  0.0260  1.4838
 2989SOL    HW220427   0.752   2.247  13.715 -1.4866  0.4525 -0.1406
 2990SOL     OW20428   4.475   2.229   8.029  0.1576  0.2671  0.4316
 2990SOL    HW120429   4.526   2.250   8.108  1.0791  0.1372 -0.1316
 2990SOL    HW220430   4.386   2.212   8.062 -0.9355  1.0612 -2.1580
 2991SOL     OW20431   4.018   0.084   0.550 -0.0621 -0.4122 -0.4353
 2991SOL    HW120432   4.098   0.108   0.503 -0.7017 -0.5510 -1.5818
 2991SOL    HW220433   4.005   0.151   0.617 -0.5257  0.2059 -1.1610
 2992SOL     OW20434   2.430   3.292   2.812 -0.3015 -0.6961  0.3995
 2992SOL    HW120435   2.508   3.347   2.802 -1.2624  0.9416  1.9542
 2992SOL    HW220436   2.391   3.314   2.896 -1.2423  2.0517 -0.7538
 2993SOL     OW20437   3.363   0.805   3.450  0.2211 -0.2834  0.4394
 2993SOL    HW120438   3.447   0.852   3.453 -0.5548  0.9646  2.5752
 2993SOL    HW220439   3.393   0.720   3.484  1.4493 -0.1175 -0.2084
 2994SOL     OW20440   3.178   3.079  16.839 -0.3043  0.5780  0.5708
 2994SOL    HW120441   3.211   3.027  16.765 -1.4038 -0.8055  1.0367
 2994SOL    HW220442   3.083   3.066  16.837 -0.4757  2.1596 -1.4124
 2995SOL     OW20443   1.164   3.491   2.359  0.1116 -0.3260 -0.1048
 2995SOL    HW120444   1.112   3.571   2.358  0.8334  0.1266 -1.6342
 2995SOL    HW220445   1.235   3.525   2.305  0.5562  0.0441  0.7224
 2996SOL     OW20446   0.048   2.752  16.336  0.1731  0.3996 -0.4702
 2996SOL    HW120447   0.121   2.698  16.364  0.5015  0.7219 -0.7134
 2996SOL    HW220448   0.025   2.793  16.420 -0.4093 -1.1361  0.1348
 2997SOL     OW20449   0.128   0.292   4.778 -0.5426 -0.1813  0.0922
 2997SOL    HW120450   0.061   0.318   4.842 -0.8619  2.3163 -1.2612
 2997SOL    HW220451   0.078   0.298   4.697  2.5893  0.1010 -1.7929
 2998SOL     OW20452   3.411   2.427   6.135 -0.1885  0.3570  0.4153
 2998SOL    HW120453   3.446   2.352   6.086  0.0193 -0.0936  1.2435
 2998SOL    HW220454   3.486   2.448   6.191  1.2283  0.6751 -1.6121
 2999SOL     OW20455   0.676   3.845   4.664 -0.4938  0.5216 -0.7336
 2999SOL    HW120456   0.687   3.815   4.755 -0.0309 -0.3791 -1.0913
 2999SOL    HW220457   0.589   3.808   4.649 -1.5463  2.6077  0.2019
 3000SOL     OW20458   2.257   3.726  15.923  0.8310  0.1461  0.0983
 3000SOL    HW120459   2.246   3.802  15.866  0.4652  0.8088  1.0563
 3000SOL    HW220460   2.311   3.671  15.866 -2.1174 -2.2343 -0.4298
 3001SOL     OW20461   1.428   2.474   0.956  0.0329 -0.1869 -0.0569
 3001SOL    HW120462   1.374   2.494   1.033  0.2172  0.4180 -0.0926
 3001SOL    HW220463   1.408   2.549   0.900  0.7408  0.4895  0.5991
 3002SOL     OW20464   4.281   0.954  14.590  0.2127 -0.1618 -0.5701
 3002SOL    HW120465   4.300   0.968  14.683  0.7255 -1.0466 -0.5455
 3002SOL    HW220466   4.357   0.996  14.551  2.2908  0.2888  3.8606
 3003SOL     OW20467   4.080   4.666   7.710 -0.5884 -0.0390  0.1340
 3003SOL    HW120468   4.110   4.694   7.623 -0.3914 -1.7357 -0.3429
 3003SOL    HW220469   4.128   0.010   7.760  1.0789  0.1662 -1.7442
 3004SOL     OW20470   1.418   4.013   6.954  0.1336  0.7059 -0.6361
 3004SOL    HW120471   1.451   4.102   6.967  0.6783  0.1986  1.5226
 3004SOL    HW220472   1.490   3.969   6.908 -0.3265 -0.2955 -0.4129
 3005SOL     OW20473   4.278   4.484   0.873 -0.0562  0.1000  0.2428
 3005SOL    HW120474   4.200   4.487   0.928  0.5561 -2.5166  1.2292
 3005SOL    HW220475   4.348   4.506   0.934 -0.3215  1.0319  0.2152
 3006SOL     OW20476   3.182   4.595   3.090 -0.3363  0.0627 -0.4391
 3006SOL    HW120477   3.246   4.614   3.021 -0.1988 -1.0833 -0.6156
 3006SOL    HW220478   3.233   4.641   3.157 -0.9512 -0.5894  0.4735
 3007SOL     OW20479   1.022   0.997   1.675  0.1351 -0.5750  0.3482
 3007SOL    HW120480   1.029   0.905   1.651  3.8148  0.1134 -1.2788
 3007SOL    HW220481   0.933   0.993   1.711 -0.7927 -0.5980 -1.9245
 3008SOL     OW20482   2.501   0.732   4.592 -0.2743 -1.0999 -0.0605
 3008SOL    HW120483   2.501   0.747   4.497 -1.1913  2.2709  0.5032
 3008SOL    HW220484   2.528   0.640   4.588  0.4663 -0.8567 -0.6661
 3009SOL     OW20485   3.990   3.521  16.596  0.4031 -0.1423 -0.6974
 3009SOL    HW120486   4.047   3.520  16.673  0.3760  0.3176 -0.6729
 3009SOL    HW220487   3.901   3.526  16.630  0.7226  3.2236 -0.3204
 3010SOL     OW20488   2.044   0.966   3.764 -0.1728  0.0120 -0.4066
 3010SOL    HW120489   2.106   0.960   3.837  0.4756 -1.1539 -1.0511
 3010SOL    HW220490   2.103   0.962   3.689  0.3178  1.4245 -0.1091
 3011SOL     OW20491   1.908   0.144   4.072 -0.1866 -0.4785  0.8212
 3011SOL    HW120492   1.944   0.232   4.057  0.7074 -0.6304  2.0603
 3011SOL    HW220493   1.989   0.094   4.081  0.2769  0.0290 -0.5720
 3012SOL     OW20494   4.530   1.684   7.884 -0.1361  0.1829  0.3775
 3012SOL    HW120495   4.497   1.754   7.828 -2.1006 -1.3331 -0.3466
 3012SOL    HW220496   4.542   1.614   7.820 -2.4801 -0.7489  0.9558
 3013SOL     OW20497   0.546   1.875  13.085 -0.5200 -0.0334  0.1866
 3013SOL    HW120498   0.620   1.936  13.095 -2.0213  1.9002 -0.5330
 3013SOL    HW220499   0.486   1.942  13.052 -1.5706 -0.7957  0.5403
 3014SOL     OW20500   4.644   4.051   6.615  0.2310 -0.0588  0.2553
 3014SOL    HW120501   0.003   4.080   6.574 -1.9314  0.5092 -3.6000
 3014SOL    HW220502   4.599   4.005   6.545 -2.9065  0.6193  1.8429
 3015SOL     OW20503   1.486   2.841   1.220 -0.0072  0.4277  0.2846
 3015SOL    HW120504   1.391   2.843   1.209 -0.0705  0.0104  0.7746
 3015SOL    HW220505   1.497   2.750   1.193  0.1665  0.8366 -0.9926
 3016SOL     OW20506   1.541   3.360   0.166  0.1752 -0.6183  0.3267
 3016SOL    HW120507   1.592   3.385   0.089 -0.2432  0.9672  0.5465
 3016SOL    HW220508   1.594   3.388   0.241  0.2283  0.7837 -0.2315
 3017SOL     OW20509   4.242   2.049   7.696 -0.1183  0.2892  0.8879
 3017SOL    HW120510   4.263   2.135   7.733 -0.5335  0.5292  0.5683
 3017SOL    HW220511   4.323   1.998   7.696 -0.6018 -0.4770  1.9269
 3018SOL     OW20512   0.896   1.436   5.101  0.0472  0.1647 -0.4159
 3018SOL    HW120513   0.923   1.513   5.150 -1.6388  0.3041  0.3044
 3018SOL    HW220514   0.965   1.373   5.123 -0.5506 -0.7918 -1.2630
 3019SOL     OW20515   4.640   4.139   5.812 -0.6937  0.1006 -0.1556
 3019SOL    HW120516   4.632   4.178   5.899 -0.5124 -1.1174  0.4042
 3019SOL    HW220517   0.013   4.129   5.808 -0.7910 -0.2742 -1.3180
 3020SOL     OW20518   2.444   4.495  11.324 -0.7939 -0.4125 -0.8339
 3020SOL    HW120519   2.443   4.506  11.420 -0.8247 -1.5410 -0.7045
 3020SOL    HW220520   2.532   4.460  11.317 -0.4021  0.8140 -1.9369
 3021SOL     OW20521   0.895   2.115  10.134 -0.0680  0.5427 -0.3955
 3021SOL    HW120522   0.971   2.137  10.187  0.6169 -0.2429 -1.0535
 3021SOL    HW220523   0.837   2.072  10.196 -1.3823  1.7917 -0.7597
 3022SOL     OW20524   1.581   3.795  12.572 -0.2456  0.0900  0.8977
 3022SOL    HW120525   1.493   3.819  12.599 -1.3783 -0.8859 -1.9080
 3022SOL    HW220526   1.561   3.757  12.486  0.7704  1.3182  0.1309
 3023SOL     OW20527   3.974   1.314   2.565 -0.0504 -0.5384  0.6266
 3023SOL    HW120528   3.960   1.226   2.601  1.5541  0.0785  2.7739
 3023SOL    HW220529   3.887   1.349   2.583  1.1441  3.0901 -0.6603
 3024SOL     OW20530   0.873   2.443   1.768  0.5243  0.0148  0.1708
 3024SOL    HW120531   0.823   2.466   1.690 -0.7829 -0.4059  0.8662
 3024SOL    HW220532   0.833   2.515   1.817 -0.5818  0.0923 -0.8606
 3025SOL     OW20533   2.148   3.933   1.208  0.0087 -0.1982 -0.1127
 3025SOL    HW120534   2.056   3.935   1.182  0.5286  0.7322 -1.8444
 3025SOL    HW220535   2.175   4.010   1.159  1.1815  0.1002  0.9811
 3026SOL     OW20536   1.522   1.218   2.442  0.1775  0.0512 -0.0671
 3026SOL    HW120537   1.545   1.282   2.374 -1.2035 -0.2015 -0.7704
 3026SOL    HW220538   1.606   1.177   2.461 -1.0202 -1.2608  2.3388
 3027SOL     OW20539   1.692   2.284   3.044 -0.3780  0.1590 -0.2590
 3027SOL    HW120540   1.713   2.284   3.137  1.5278  0.3686 -0.6730
 3027SOL    HW220541   1.714   2.373   3.016 -0.8676  0.4458  0.2715
 3028SOL     OW20542   1.440   3.892   6.650  0.2940  0.9372 -0.4253
 3028SOL    HW120543   1.504   3.876   6.720  0.4405  1.7505 -0.3821
 3028SOL    HW220544   1.484   3.841   6.582  2.6365  0.6466  1.3060
 3029SOL     OW20545   4.093   4.049   9.651 -0.1443 -0.1351 -0.3489
 3029SOL    HW120546   4.134   4.022   9.569  0.7970 -0.8645  0.3514
 3029SOL    HW220547   4.001   4.060   9.628  0.0063  0.9469 -0.4211
 3030SOL     OW20548   3.501   0.375   5.514  0.0921  0.0969  0.2862
 3030SOL    HW120549   3.426   0.425   5.548 -0.5867  0.1335 -1.2374
 3030SOL    HW220550   3.576   0.421   5.552  1.4246 -0.1977 -2.0087
 3031SOL     OW20551   3.667   3.660   5.318  0.3009  0.0877 -0.1756
 3031SOL    HW120552   3.701   3.592   5.260  0.5765  0.0745  0.0025
 3031SOL    HW220553   3.747   3.673   5.369 -0.5064 -3.3307  1.9673
 3032SOL     OW20554   2.380   1.964   9.949  0.0366  0.2308 -0.0155
 3032SOL    HW120555   2.314   1.985  10.015 -0.0484  3.0649 -0.9999
 3032SOL    HW220556   2.344   2.008   9.873 -0.4847  0.1528  0.1899
 3033SOL     OW20557   3.881   1.305   6.507 -0.2784  0.0774  0.2040
 3033SOL    HW120558   3.963   1.271   6.472 -0.0808  1.4814 -0.7339
 3033SOL    HW220559   3.907   1.377   6.564  2.4716  1.3224 -2.6128
 3034SOL     OW20560   3.308   4.200   7.388 -0.2131 -0.6557  0.0031
 3034SOL    HW120561   3.250   4.276   7.375 -1.6415 -1.7283  0.1192
 3034SOL    HW220562   3.347   4.190   7.301  1.6560 -0.1365  0.7858
 3035SOL     OW20563   3.105   4.373   4.248  0.5114  0.3301  0.0352
 3035SOL    HW120564   3.118   4.289   4.203 -1.5333 -0.7610  1.4716
 3035SOL    HW220565   3.046   4.423   4.191  2.3937  1.2627 -1.0935
 3036SOL     OW20566   0.647   0.224   4.971 -0.6807 -0.1929  0.2307
 3036SOL    HW120567   0.723   0.282   4.982 -1.6542  1.8243 -3.5508
 3036SOL    HW220568   0.652   0.232   4.876  0.1076  1.1900  0.3856
 3037SOL     OW20569   4.304   4.302   7.028  0.1808  0.0283  0.4896
 3037SOL    HW120570   4.263   4.344   7.103 -0.2718 -1.0920  0.8662
 3037SOL    HW220571   4.236   4.246   6.991 -1.1458  1.8484  0.1762
 3038SOL     OW20572   3.818   0.432   0.812 -0.3207 -0.5652 -0.0209
 3038SOL    HW120573   3.906   0.467   0.823  0.4135 -2.1797 -0.7182
 3038SOL    HW220574   3.822   0.405   0.721  0.5433  0.5165 -0.2996
 3039SOL     OW20575   0.578   3.332   6.468  0.3495 -0.4942 -0.9903
 3039SOL    HW120576   0.522   3.410   6.471 -1.1369 -1.5191 -1.7719
 3039SOL    HW220577   0.531   3.287   6.397 -0.1126 -0.3705 -0.7597
 3040SOL     OW20578   3.446   1.899  11.801 -0.5181 -0.4600  0.2600
 3040SOL    HW120579   3.421   1.888  11.893  0.5572  1.0367  0.7269
 3040SOL    HW220580   3.524   1.955  11.808 -1.2030  0.5381 -0.0488
 3041SOL     OW20581   0.768   4.430   7.890  0.5888  0.0504 -0.2179
 3041SOL    HW120582   0.823   4.488   7.942  1.5270  1.7700 -3.1327
 3041SOL    HW220583   0.769   4.354   7.949 -1.6089 -1.2214 -1.8297
 3042SOL     OW20584   0.476   4.553  15.646 -0.2105 -0.0685 -0.2900
 3042SOL    HW120585   0.416   4.488  15.684 -0.6202  0.7049  0.3957
 3042SOL    HW220586   0.561   4.517  15.671 -0.4323  0.2253  0.9133
 3043SOL     OW20587   3.797   0.904   1.054  0.0362 -0.2565 -0.4438
 3043SOL    HW120588   3.743   0.863   0.987 -0.6707 -0.7193  0.4158
 3043SOL    HW220589   3.733   0.912   1.125 -1.2133 -0.4647 -1.5358
 3044SOL     OW20590   2.153   3.109   5.307  0.0160  0.0011 -0.8295
 3044SOL    HW120591   2.189   3.195   5.287  0.0358 -0.2682 -1.9166
 3044SOL    HW220592   2.090   3.100   5.235  1.1001  0.4258 -1.8195
 3045SOL     OW20593   0.644   0.977   4.235 -0.1447 -0.3487 -0.1816
 3045SOL    HW120594   0.569   1.030   4.208  0.5374  0.9571  0.5056
 3045SOL    HW220595   0.595   0.895   4.224  1.0428 -1.1605  0.6257
 3046SOL     OW20596   1.832   1.822   6.009 -0.2980 -0.1421 -0.0938
 3046SOL    HW120597   1.922   1.819   5.974 -0.0626 -3.2352  0.7676
 3046SOL    HW220598   1.803   1.888   5.945  1.6751  1.3087  0.4946
 3047SOL     OW20599   0.980   2.986  13.076 -0.0082  0.6089  1.0592
 3047SOL    HW120600   1.029   3.003  13.156  0.4728 -0.2913  0.9597
 3047SOL    HW220601   0.916   3.056  13.088  0.3483  0.9471  0.9909
 3048SOL     OW20602   1.187   2.898   0.032 -0.1399  0.1664  0.1683
 3048SOL    HW120603   1.280   2.883   0.048  0.0408 -0.2917 -1.3018
 3048SOL    HW220604   1.176   2.989   0.061  0.2050 -0.0354  0.9263
 3049SOL     OW20605   2.947   0.575   6.358  0.3994  0.1780  0.3913
 3049SOL    HW120606   2.950   0.525   6.439 -0.6229 -2.2738 -1.1027
 3049SOL    HW220607   2.999   0.653   6.377 -0.0259  0.5812 -0.1209
 3050SOL     OW20608   0.238   0.156   8.160 -0.3905 -0.5150  0.2012
 3050SOL    HW120609   0.294   0.097   8.110  0.6178  1.0474 -0.5379
 3050SOL    HW220610   0.245   0.112   8.244 -1.7129  0.1790  0.6835
 3051SOL     OW20611   2.931   3.789   6.924  0.0118  0.0638 -0.1880
 3051SOL    HW120612   2.850   3.825   6.962  0.3865  0.4461  0.2521
 3051SOL    HW220613   2.913   3.776   6.831  2.3201 -0.4446 -0.5628
 3052SOL     OW20614   4.153   1.606   5.915  0.0371 -0.0385  0.0627
 3052SOL    HW120615   4.233   1.658   5.923  0.7446 -0.6737 -2.6592
 3052SOL    HW220616   4.091   1.659   5.865  1.2523  0.9316 -0.4021
 3053SOL     OW20617   0.517   1.475  16.567  0.2576  0.6500  0.8746
 3053SOL    HW120618   0.542   1.562  16.597  2.9286  0.5474 -1.0971
 3053SOL    HW220619   0.465   1.441  16.640  0.4402 -0.1433  0.6385
 3054SOL     OW20620   0.877   4.455  17.410  0.2455 -0.2257 -0.1040
 3054SOL    HW120621   0.844   4.545  17.421 -1.0931 -0.7016 -0.2960
 3054SOL    HW220622   0.924   4.459  17.494  0.2547  3.0572 -0.2517
 3055SOL     OW20623   1.481   1.562   6.776 -0.8001 -0.0772 -0.1432
 3055SOL    HW120624   1.549   1.629   6.766  0.1347 -1.1377 -0.9138
 3055SOL    HW220625   1.518   1.499   6.715 -0.4621  0.5477 -0.5878
 3056SOL     OW20626   1.038   4.205  16.104  0.4312  0.7817  0.2739
 3056SOL    HW120627   0.987   4.157  16.038  0.7917 -0.0912  0.6257
 3056SOL    HW220628   1.086   4.136  16.150 -1.7085 -1.2599 -0.5556
 3057SOL     OW20629   1.606   4.673   2.398  0.0569 -0.0333  0.6205
 3057SOL    HW120630   1.606   4.590   2.350 -0.1196 -0.0110  0.5804
 3057SOL    HW220631   1.511   4.675   2.414 -0.5106  1.1073 -2.8352
 3058SOL     OW20632   3.632   3.186  13.436  0.3171  0.4057  0.1395
 3058SOL    HW120633   3.704   3.221  13.488  0.5606 -0.5258  0.4342
 3058SOL    HW220634   3.675   3.192  13.351 -1.0190  0.9371 -0.5037
 3059SOL     OW20635   2.745   0.602   2.682 -0.1330 -0.1581 -0.1333
 3059SOL    HW120636   2.717   0.689   2.710  1.0870  0.1939  0.0184
 3059SOL    HW220637   2.667   0.547   2.689 -0.3083 -0.1666 -1.9037
 3060SOL     OW20638   0.171   2.990   8.449 -0.0177 -0.5618  0.0778
 3060SOL    HW120639   0.129   2.979   8.534 -2.1351 -1.3546 -1.0775
 3060SOL    HW220640   0.170   3.085   8.436 -1.1509 -0.5150  0.5263
 3061SOL     OW20641   4.351   2.565   1.908 -0.3898 -0.3128 -0.0295
 3061SOL    HW120642   4.398   2.482   1.920 -1.9025 -1.4386 -1.8161
 3061SOL    HW220643   4.355   2.587   1.815 -0.7334 -0.5663 -0.1032
 3062SOL     OW20644   3.031   1.272   2.565 -0.3142  0.5357 -0.7503
 3062SOL    HW120645   3.092   1.198   2.567 -0.2886  0.5524 -0.9369
 3062SOL    HW220646   3.045   1.306   2.653  1.4405 -1.4347 -0.2638
 3063SOL     OW20647   4.712   1.496   8.241  0.1206 -0.2948 -0.7800
 3063SOL    HW120648   4.697   1.427   8.176  0.0014 -1.6490  0.6741
 3063SOL    HW220649   4.671   1.454   8.317 -1.9015  0.7244 -1.2859
 3064SOL     OW20650   2.252   4.202   6.236 -0.1634  0.6872  0.3245
 3064SOL    HW120651   2.188   4.168   6.299 -0.0828  0.1682  0.1255
 3064SOL    HW220652   2.294   4.123   6.204  0.1754  0.9823  0.0349
 3065SOL     OW20653   3.965   1.948   1.815 -0.2488 -0.0992 -0.3539
 3065SOL    HW120654   4.025   1.893   1.866  0.7014 -0.8932 -2.3021
 3065SOL    HW220655   3.889   1.954   1.873 -1.4772  1.3901 -2.1170
 3066SOL     OW20656   3.476   2.020   2.042 -0.2451  0.0236 -0.1217
 3066SOL    HW120657   3.386   2.005   2.015  0.5147 -3.6802 -0.5503
 3066SOL    HW220658   3.478   2.110   2.075  1.9255  0.1203 -0.5141
 3067SOL     OW20659   1.083   0.704   2.704  0.2467 -0.4363  0.5881
 3067SOL    HW120660   1.140   0.774   2.672  0.5503 -0.4114  1.1912
 3067SOL    HW220661   0.995   0.740   2.712  0.5659  0.3686  0.4431
 3068SOL     OW20662   1.430   0.535   6.975 -0.8579  0.3418  0.6704
 3068SOL    HW120663   1.507   0.528   7.031 -0.5664  0.0574  0.2237
 3068SOL    HW220664   1.371   0.572   7.042  1.6030  1.0536  2.4601
 3069SOL     OW20665   0.344   0.617   6.987 -0.1565 -0.4814 -0.1161
 3069SOL    HW120666   0.264   0.566   6.997 -1.3204  0.9777 -1.8970
 3069SOL    HW220667   0.317   0.707   7.004  1.0738  0.0175 -0.7714
 3070SOL     OW20668   2.823   0.780   5.386  0.2338 -0.2505 -0.1723
 3070SOL    HW120669   2.856   0.848   5.446 -0.9631  0.7836 -0.6911
 3070SOL    HW220670   2.777   0.830   5.319 -1.5596 -0.2976  0.9916
 3071SOL     OW20671   0.806   3.153   5.664 -0.7319  0.0225  0.5079
 3071SOL    HW120672   0.803   3.184   5.755  2.6945 -0.9331  0.9351
 3071SOL    HW220673   0.719   3.118   5.644 -1.2829  1.0940  1.0036
 3072SOL     OW20674   1.854   3.529  10.220  0.0708 -0.4143 -0.2496
 3072SOL    HW120675   1.930   3.554  10.273  0.4517 -0.7656 -0.6368
 3072SOL    HW220676   1.810   3.473  10.284  2.6281  0.7929  2.6264
 3073SOL     OW20677   3.987   4.203   7.373  0.4835 -0.5024  0.2595
 3073SOL    HW120678   4.016   4.121   7.413  1.9869  0.4891  1.1469
 3073SOL    HW220679   4.038   4.269   7.420 -0.3994  0.2227  0.2058
 3074SOL     OW20680   2.345   0.106   6.936  0.2529 -0.1537  0.3757
 3074SOL    HW120681   2.344   0.183   6.879  0.7536 -0.4604 -0.0436
 3074SOL    HW220682   2.265   0.126   6.984 -0.0418  1.1205 -0.6510
 3075SOL     OW20683   1.692   0.754   9.894  0.4580 -0.8325 -0.0109
 3075SOL    HW120684   1.621   0.693   9.874  1.0427 -1.4118 -0.3499
 3075SOL    HW220685   1.766   0.697   9.872  0.7801 -1.8098  3.6900
 3076SOL     OW20686   0.172   4.192   8.334 -0.0546  0.5498 -0.2449
 3076SOL    HW120687   0.135   4.275   8.304 -1.5263  0.0646  0.2571
 3076SOL    HW220688   0.138   4.134   8.266 -0.1027  1.3805 -0.9302
 3077SOL     OW20689   0.177   3.961   2.869 -0.1996 -0.4760 -0.2376
 3077SOL    HW120690   0.271   3.963   2.890 -0.2823  0.6118  0.0291
 3077SOL    HW220691   0.142   3.993   2.952  0.3161 -1.1222  0.2269
 3078SOL     OW20692   1.476   4.477  12.384  0.2633  0.5716 -0.3382
 3078SOL    HW120693   1.509   4.516  12.466  0.0152  0.6325 -0.2673
 3078SOL    HW220694   1.414   4.549  12.373  1.1891  1.4907  0.4367
 3079SOL     OW20695   3.111   1.212   5.976  0.2519 -0.3812  0.4530
 3079SOL    HW120696   3.089   1.303   5.957  3.5892  0.0905 -1.0372
 3079SOL    HW220697   3.193   1.205   5.927 -1.7692 -3.7901 -2.4753
 3080SOL     OW20698   0.622   0.060  11.337  0.0598 -0.1385 -0.8529
 3080SOL    HW120699   0.681   4.709  11.325  1.8642  1.0277  0.8675
 3080SOL    HW220700   0.536   0.026  11.360  0.6025 -0.0264  1.3565
 3081SOL     OW20701   3.879   3.095   1.444 -0.1329  0.1263 -0.1729
 3081SOL    HW120702   3.812   3.163   1.444 -0.0574  0.2053 -1.5027
 3081SOL    HW220703   3.922   3.110   1.528 -0.3197  0.2741 -0.1062
 3082SOL     OW20704   4.347   0.289   8.631  0.0298 -0.1755 -0.8626
 3082SOL    HW120705   4.414   0.355   8.613 -0.8629  0.9076 -0.1324
 3082SOL    HW220706   4.354   0.238   8.549  1.1052  1.3528 -1.7271
 3083SOL     OW20707   1.372   3.319  17.112  0.4252 -0.0631  0.4938
 3083SOL    HW120708   1.330   3.400  17.141  0.2981  0.3060 -0.7495
 3083SOL    HW220709   1.419   3.305  17.195  0.3891  2.0281  0.8716
 3084SOL     OW20710   3.498   0.485   4.235  0.2606 -0.0589  0.1265
 3084SOL    HW120711   3.405   0.470   4.216  0.2601 -1.8708  1.5010
 3084SOL    HW220712   3.534   0.519   4.154 -0.5321 -1.0099 -0.6238
 3085SOL     OW20713   4.600   2.140  13.371 -0.2702 -0.0970  0.1682
 3085SOL    HW120714   4.513   2.177  13.388  0.4393  2.3020 -1.2791
 3085SOL    HW220715   4.626   2.167  13.283  0.3697  2.4910  1.1446
 3086SOL     OW20716   3.656   0.635  10.449 -0.1849 -0.2176  0.0342
 3086SOL    HW120717   3.675   0.691  10.373 -0.7896 -0.4342 -0.2702
 3086SOL    HW220718   3.619   0.554  10.414  1.2311 -0.6031 -0.5712
 3087SOL     OW20719   1.295   3.215   3.811 -0.0399 -0.4300 -0.1548
 3087SOL    HW120720   1.235   3.193   3.883 -1.8346  1.5664 -1.0537
 3087SOL    HW220721   1.286   3.137   3.756  1.1216 -0.3181 -0.4939
 3088SOL     OW20722   4.660   0.827  17.342 -0.0846 -0.1428 -0.4107
 3088SOL    HW120723   4.595   0.835  17.271  0.4171 -0.2318 -0.8750
 3088SOL    HW220724   0.003   0.887  17.307 -1.8476  0.4836 -2.6197
 3089SOL     OW20725   4.506   3.807  12.933 -0.0477 -0.6067  0.5843
 3089SOL    HW120726   4.591   3.850  12.928  0.5033 -1.6890  0.8314
 3089SOL    HW220727   4.532   3.723  12.969  0.2311 -0.5938  0.4054
 3090SOL     OW20728   2.519   0.949   9.332 -0.2699  0.3988  0.4941
 3090SOL    HW120729   2.498   1.042   9.341  0.7106  0.8144 -1.3430
 3090SOL    HW220730   2.435   0.905   9.335  0.0166 -0.0570  1.6797
 3091SOL     OW20731   2.668   3.152   8.055 -0.2079  0.0661  0.2127
 3091SOL    HW120732   2.668   3.097   7.977  0.2834  0.5668 -0.1429
 3091SOL    HW220733   2.740   3.208   8.027  0.4486 -1.8570 -1.8827
 3092SOL     OW20734   3.044   3.128   3.078  0.5786  0.1198  0.4387
 3092SOL    HW120735   2.956   3.118   3.114  0.8205  0.8868  1.2544
 3092SOL    HW220736   3.095   3.078   3.143  3.8726  1.5590 -1.0207
 3093SOL     OW20737   2.610   3.201  10.978 -0.2912 -0.7014 -0.0259
 3093SOL    HW120738   2.634   3.209  11.070  3.6771  0.5076 -1.1846
 3093SOL    HW220739   2.672   3.132  10.958 -0.0863  0.1746 -2.3912
 3094SOL     OW20740   4.464   3.463  16.222 -0.5452 -0.0033  0.0791
 3094SOL    HW120741   4.385   3.414  16.201 -0.9990  0.3136  1.0507
 3094SOL    HW220742   4.469   3.524  16.148  0.4769  0.2213  0.3235
 3095SOL     OW20743   2.526   1.084  17.535 -0.5561  0.3313 -0.1613
 3095SOL    HW120744   2.596   1.030  17.499  0.1088  1.5161 -0.6719
 3095SOL    HW220745   2.534   1.064  17.628  1.5021 -2.2535 -0.8783
 3096SOL     OW20746   3.475   0.060   7.014 -0.2191 -0.6180  0.2251
 3096SOL    HW120747   3.556   0.029   7.054  0.9463  0.2230 -1.5015
 3096SOL    HW220748   3.438   0.107   7.089 -0.8450  0.6080 -0.8443
 3097SOL     OW20749   4.374   1.628   5.244 -0.0401  0.7135 -0.8414
 3097SOL    HW120750   4.459   1.616   5.200  1.5204  1.3389  1.9683
 3097SOL    HW220751   4.371   1.546   5.294  3.1941  0.5138 -0.9683
 3098SOL     OW20752   1.134   0.707   7.699 -0.3775  0.2800 -0.7131
 3098SOL    HW120753   1.084   0.788   7.694  0.2260  0.5474 -2.2615
 3098SOL    HW220754   1.069   0.649   7.659  0.1216 -0.7783  0.0023
 3099SOL     OW20755   4.285   0.100   0.870  0.1422  0.1356 -0.3342
 3099SOL    HW120756   4.356   0.160   0.890 -0.4020  0.6687  0.0246
 3099SOL    HW220757   4.307   0.016   0.910  0.9223 -0.0943 -1.2698
 3100SOL     OW20758   2.210   4.154   0.557  0.0727  0.3651  0.0710
 3100SOL    HW120759   2.186   4.234   0.511  1.2118  1.1873  0.9106
 3100SOL    HW220760   2.274   4.112   0.500 -0.1908 -0.9927  0.7738
 3101SOL     OW20761   1.420   1.366   7.163 -0.3478  0.2742 -0.9055
 3101SOL    HW120762   1.463   1.356   7.077  0.4372  1.3116 -0.6394
 3101SOL    HW220763   1.359   1.293   7.157 -1.0730  0.8778 -0.8371
 3102SOL     OW20764   1.334   2.774   1.987 -0.4221  0.1707  0.0997
 3102SOL    HW120765   1.335   2.760   1.892 -1.7999  1.1710 -0.0441
 3102SOL    HW220766   1.263   2.720   2.022  0.1590  0.2706  1.4329
 3103SOL     OW20767   1.744   3.775  10.175 -0.3539  0.0867  0.4982
 3103SOL    HW120768   1.802   3.699  10.168 -2.5501 -1.7328  1.9505
 3103SOL    HW220769   1.684   3.737  10.239  0.5412  0.5624  1.6283
 3104SOL     OW20770   2.688   3.834   1.233 -0.1024 -0.4215  0.3153
 3104SOL    HW120771   2.675   3.779   1.310 -0.0668 -1.7699 -0.6438
 3104SOL    HW220772   2.632   3.908   1.257  0.0044 -0.5683  1.0137
 3105SOL     OW20773   1.443   3.490  14.418 -0.5519 -0.1324 -0.5314
 3105SOL    HW120774   1.390   3.438  14.357 -1.5807  0.5690 -0.2332
 3105SOL    HW220775   1.531   3.452  14.419 -0.1803  0.8093  2.3549
 3106SOL     OW20776   1.254   4.409   8.733  0.2938 -0.2254  0.6361
 3106SOL    HW120777   1.337   4.456   8.742  0.1987  0.5949 -2.6714
 3106SOL    HW220778   1.202   4.442   8.807 -1.0171 -3.6610  1.2479
 3107SOL     OW20779   1.751   1.326  11.536 -0.6001 -0.1194 -0.0216
 3107SOL    HW120780   1.679   1.299  11.594  0.7418 -4.1085 -0.2318
 3107SOL    HW220781   1.750   1.240  11.492  0.6801 -1.2516  2.1865
 3108SOL     OW20782   3.210   0.718   6.076  0.3436  0.5821  0.3164
 3108SOL    HW120783   3.182   0.654   6.010 -2.7943  1.2769  0.9611
 3108SOL    HW220784   3.256   0.783   6.023 -3.2348  2.0248 -1.0535
 3109SOL     OW20785   3.708   0.287   8.106  0.0385 -0.2728 -0.2712
 3109SOL    HW120786   3.638   0.352   8.114 -0.0846 -0.5538  0.9733
 3109SOL    HW220787   3.664   0.206   8.133  0.6695 -0.0451  1.4522
 3110SOL     OW20788   4.007   4.061   5.325  0.0969 -0.4401  0.3505
 3110SOL    HW120789   4.007   4.115   5.404  3.5345 -1.5433  1.1340
 3110SOL    HW220790   4.100   4.037   5.320 -0.0630 -1.5293  2.4967
 3111SOL     OW20791   0.515   4.535   4.506 -0.4252 -0.2562 -0.0310
 3111SOL    HW120792   0.547   4.515   4.418  1.3376  2.2188  0.0289
 3111SOL    HW220793   0.425   4.564   4.489  1.3031  4.4265 -1.2063
 3112SOL     OW20794   1.553   0.972   4.161  0.2574 -0.3792 -0.0511
 3112SOL    HW120795   1.598   0.914   4.222  2.1319  0.4012 -0.7072
 3112SOL    HW220796   1.463   0.940   4.170  0.2882  0.0121  1.5131
 3113SOL     OW20797   1.086   3.838   4.636  0.2126  0.7635  0.3257
 3113SOL    HW120798   1.132   3.864   4.716 -0.7414  1.0251  0.7977
 3113SOL    HW220799   1.011   3.897   4.634  0.4335  1.0680  1.0672
 3114SOL     OW20800   2.758   3.005   8.376 -0.4207  0.2714 -0.1819
 3114SOL    HW120801   2.703   2.952   8.319  0.6706 -0.1852 -0.8121
 3114SOL    HW220802   2.705   3.017   8.454  0.8617  0.5630  0.6360
 3115SOL     OW20803   2.113   4.023  16.652  0.5778  0.1703  0.2472
 3115SOL    HW120804   2.093   4.052  16.563  1.8423  0.5732  0.0962
 3115SOL    HW220805   2.022   4.024  16.682  0.7003 -0.9699  0.6904
 3116SOL     OW20806   1.965   0.763   3.989  0.0397 -0.4456  0.7816
 3116SOL    HW120807   2.005   0.806   3.914 -2.4578  1.9039  0.8141
 3116SOL    HW220808   1.917   0.838   4.025 -0.2480  0.4538 -1.4645
 3117SOL     OW20809   2.465   0.418   2.089  0.2105  0.3527  0.3197
 3117SOL    HW120810   2.515   0.417   2.008  1.6743  0.2592  1.2319
 3117SOL    HW220811   2.404   0.345   2.086 -0.5869  0.9752  1.2949
 3118SOL     OW20812   3.056   2.501   7.385  0.1335 -0.4156  0.3934
 3118SOL    HW120813   3.141   2.541   7.369 -0.4454  0.8652  0.5777
 3118SOL    HW220814   3.042   2.454   7.303 -0.6205 -0.3263  0.4737
 3119SOL     OW20815   0.627   0.606   7.080 -0.4354 -0.1586  0.4998
 3119SOL    HW120816   0.677   0.565   7.009 -0.8300  0.2159  0.0104
 3119SOL    HW220817   0.538   0.586   7.050 -0.1874 -0.2037 -0.2148
 3120SOL     OW20818   1.860   4.691  14.988 -0.2828 -0.2761 -0.2257
 3120SOL    HW120819   1.848   4.719  14.897 -2.0364 -0.8508 -0.1792
 3120SOL    HW220820   1.803   4.615  14.997  0.1019 -0.4413  0.8778
 3121SOL     OW20821   4.135   4.321   2.840  0.0471  0.1936 -0.1146
 3121SOL    HW120822   4.118   4.390   2.776 -1.7378 -0.3959 -0.2899
 3121SOL    HW220823   4.197   4.269   2.790  0.6308  0.4648  0.3252
 3122SOL     OW20824   3.149   2.697   3.273  0.2214  0.0265 -0.1311
 3122SOL    HW120825   3.182   2.657   3.193  1.8623  0.5777  0.2769
 3122SOL    HW220826   3.187   2.784   3.269  3.3298 -1.2278  1.4449
 3123SOL     OW20827   3.140   0.414   2.487  0.1724  0.0732  0.2606
 3123SOL    HW120828   3.186   0.331   2.498  2.3350  1.1358 -0.7797
 3123SOL    HW220829   3.187   0.477   2.541 -1.0907 -0.7082  2.2725
 3124SOL     OW20830   3.688   1.201   4.357 -0.2739 -0.5230 -0.1723
 3124SOL    HW120831   3.638   1.272   4.317 -1.9701 -2.0615 -0.8289
 3124SOL    HW220832   3.631   1.167   4.427  2.2235 -0.2476  1.9931
 3125SOL     OW20833   2.258   0.555   6.894  1.1407  0.3229  0.5000
 3125SOL    HW120834   2.272   0.524   6.804 -0.0385  0.1189  0.3972
 3125SOL    HW220835   2.224   0.644   6.884 -1.7861 -0.9677 -0.8245
 3126SOL     OW20836   1.014   3.602   5.996 -0.3703 -0.0222 -0.2779
 3126SOL    HW120837   0.979   3.622   6.083  1.1561  0.2995  0.2552
 3126SOL    HW220838   0.934   3.623   5.947 -1.4876 -0.1896  1.4498
 3127SOL     OW20839   2.618   0.528   2.285  0.3088  0.2939 -0.3608
 3127SOL    HW120840   2.550   0.476   2.328  2.0997 -1.6768  0.0591
 3127SOL    HW220841   2.581   0.528   2.197 -3.0232 -2.0171  1.0169
 3128SOL     OW20842   4.473   0.153   4.823 -0.0213  0.3008 -0.1021
 3128SOL    HW120843   4.526   0.118   4.751 -0.1972 -0.7778  0.2889
 3128SOL    HW220844   4.403   0.091   4.803 -1.3846  2.2876 -1.3898
 3129SOL     OW20845   0.580   1.717   9.444 -0.2018 -0.3044 -0.4522
 3129SOL    HW120846   0.668   1.751   9.461 -0.4316 -0.4615  1.0361
 3129SOL    HW220847   0.530   1.786   9.487 -0.7943  0.0325 -1.6883
 3130SOL     OW20848   4.140   3.709   3.823  0.2094  0.4471  0.8341
 3130SOL    HW120849   4.180   3.795   3.832  0.5047  0.3818  0.1648
 3130SOL    HW220850   4.155   3.690   3.730 -1.7186 -2.0732  1.0426
 3131SOL     OW20851   0.826   4.705  15.227 -0.5902  0.6332 -0.1326
 3131SOL    HW120852   0.869   4.620  15.222 -1.2535  0.2643  0.5543
 3131SOL    HW220853   0.871   0.008  15.146 -1.3859  0.8449 -0.5086
 3132SOL     OW20854   3.645   3.003   2.564 -0.1019 -0.6686  0.2578
 3132SOL    HW120855   3.667   3.048   2.645 -0.2188  0.6935 -0.4762
 3132SOL    HW220856   3.733   2.984   2.530  0.0040  3.5171 -1.7345
 3133SOL     OW20857   3.778   1.850   3.267  0.2215  0.8518  0.4005
 3133SOL    HW120858   3.731   1.815   3.343  0.0371 -3.1025 -1.5366
 3133SOL    HW220859   3.856   1.794   3.270  0.3880  1.0285 -0.6905
 3134SOL     OW20860   4.580   0.702   2.977  0.1526  0.1758  0.3222
 3134SOL    HW120861   4.667   0.665   2.988  1.5388  3.1649 -0.4537
 3134SOL    HW220862   4.598   0.745   2.893  1.2298 -0.7647  0.0781
 3135SOL     OW20863   1.068   3.997   2.648 -0.0728  0.6267 -0.1155
 3135SOL    HW120864   1.095   3.958   2.731 -0.2756 -1.6735 -1.1045
 3135SOL    HW220865   1.001   4.060   2.672 -1.4814 -0.9559  0.1064
 3136SOL     OW20866   1.901   2.963   8.470  0.5126  0.3337  0.0284
 3136SOL    HW120867   1.811   2.981   8.497  0.4988  0.2247  0.0556
 3136SOL    HW220868   1.906   2.870   8.495  1.0577  0.6503  1.1217
 3137SOL     OW20869   2.735   3.467  10.900 -0.3068 -0.4334 -0.3528
 3137SOL    HW120870   2.667   3.400  10.896 -1.9608  1.3865 -2.7461
 3137SOL    HW220871   2.769   3.476  10.812 -0.0877  0.8227 -0.1434
 3138SOL     OW20872   4.270   3.196  16.779 -0.1285  0.0173  0.2828
 3138SOL    HW120873   4.276   3.161  16.868 -0.7779 -2.4231 -0.6351
 3138SOL    HW220874   4.230   3.283  16.786 -1.2389 -0.3421 -1.7646
 3139SOL     OW20875   0.752   4.543   4.780  0.6687 -0.1414  0.2787
 3139SOL    HW120876   0.780   4.634   4.775 -0.2549  0.1765  0.8664
 3139SOL    HW220877   0.808   4.501   4.845 -1.3228  0.2941  2.2808
 3140SOL     OW20878   0.682   3.470   2.587  0.4238 -0.1616 -0.3741
 3140SOL    HW120879   0.769   3.450   2.552  0.7705 -0.0220  0.4083
 3140SOL    HW220880   0.700   3.506   2.673 -1.1325  1.5849 -0.7822
 3141SOL     OW20881   1.405   2.947  11.602 -0.2319 -0.7262  0.3954
 3141SOL    HW120882   1.472   2.880  11.611 -0.4720 -0.4142  4.4557
 3141SOL    HW220883   1.331   2.887  11.618 -0.3065 -0.3245  1.5262
 3142SOL     OW20884   0.060   3.956  15.773  0.7676  0.0539 -0.6275
 3142SOL    HW120885   4.702   3.980  15.726 -0.0210 -1.1645  0.1121
 3142SOL    HW220886   0.079   4.037  15.820  2.1048 -1.1051  0.8096
 3143SOL     OW20887   0.127   1.699   7.246 -0.0228  0.1906  0.3317
 3143SOL    HW120888   0.069   1.770   7.219  0.5144  0.3797 -0.3074
 3143SOL    HW220889   0.128   1.724   7.339 -1.0609  2.7451 -0.3400
 3144SOL     OW20890   2.640   2.208   2.039  0.0698  0.4239 -0.6775
 3144SOL    HW120891   2.671   2.296   2.019  0.9923  0.2920  0.1688
 3144SOL    HW220892   2.654   2.154   1.961  0.3388 -1.5259  0.7179
 3145SOL     OW20893   0.197   2.516   0.789  0.5171  0.6586 -0.3706
 3145SOL    HW120894   0.129   2.545   0.849  0.4957 -3.2050  1.4872
 3145SOL    HW220895   0.256   2.591   0.788  0.4886  0.7190  2.8430
 3146SOL     OW20896   0.070   4.218   4.667  0.1469  0.4276 -0.2381
 3146SOL    HW120897   0.064   4.155   4.740  0.1018 -1.6162 -2.0030
 3146SOL    HW220898   0.052   4.167   4.588 -0.6489 -1.6101  1.2390
 3147SOL     OW20899   3.252   1.797  10.628  0.3374 -0.3503  0.0145
 3147SOL    HW120900   3.289   1.856  10.693 -0.2690 -0.6511  0.6319
 3147SOL    HW220901   3.302   1.822  10.551  0.4500 -0.3014  0.1047
 3148SOL     OW20902   0.866   3.462  12.496  0.6252 -0.5883  0.1421
 3148SOL    HW120903   0.877   3.376  12.455 -0.6831 -1.4636  1.6637
 3148SOL    HW220904   0.858   3.437  12.587 -2.2255 -0.1020  0.0078
 3149SOL     OW20905   4.290   1.594   8.379 -0.7675  0.0188 -0.3750
 3149SOL    HW120906   4.378   1.610   8.411 -0.9715  0.4497 -0.0375
 3149SOL    HW220907   4.273   1.504   8.408 -0.5579 -0.0309 -0.4023
 3150SOL     OW20908   3.726   4.360   4.855 -0.2942 -0.4206 -0.1287
 3150SOL    HW120909   3.636   4.390   4.842 -0.2169  0.0589  0.4170
 3150SOL    HW220910   3.776   4.402   4.785 -0.5105 -0.5451 -0.3582
 3151SOL     OW20911   2.831   2.846   7.999 -0.1937 -0.0139  0.0068
 3151SOL    HW120912   2.807   2.855   7.907 -1.1967  0.7371  0.3553
 3151SOL    HW220913   2.860   2.754   7.992 -0.2425  0.0063 -0.4335
 3152SOL     OW20914   4.694   1.585   2.332 -0.0053  0.4073  0.5484
 3152SOL    HW120915   4.720   1.495   2.312 -0.7540  0.3893 -0.3734
 3152SOL    HW220916   4.600   1.576   2.319  0.0679  3.1024 -1.8712
 3153SOL     OW20917   0.405   4.510   7.066 -0.0866  0.5514 -0.1963
 3153SOL    HW120918   0.495   4.488   7.042 -0.7966 -0.3288 -2.1096
 3153SOL    HW220919   0.389   4.452   7.140 -0.3719 -0.6144 -1.1603
 3154SOL     OW20920   3.541   2.927  16.818 -0.5372 -0.0815 -0.4233
 3154SOL    HW120921   3.612   2.893  16.873 -1.6482  0.6731  1.4686
 3154SOL    HW220922   3.483   2.851  16.828 -2.2792  1.2207 -0.6579
 3155SOL     OW20923   3.385   3.236   9.847 -0.5242  0.3405  0.2841
 3155SOL    HW120924   3.382   3.328   9.820 -3.3046  0.0996 -0.2564
 3155SOL    HW220925   3.293   3.209   9.843 -0.5137  0.5138 -1.1401
 3156SOL     OW20926   0.175   3.482   3.937  0.3782 -0.1162  0.4478
 3156SOL    HW120927   0.113   3.413   3.958 -1.2466  0.8632 -1.2181
 3156SOL    HW220928   0.243   3.458   4.001  0.9411  0.7888  0.1845
 3157SOL     OW20929   2.361   3.714   6.551 -0.3193 -0.3903  1.1762
 3157SOL    HW120930   2.418   3.700   6.627  1.4684  0.0883 -0.0934
 3157SOL    HW220931   2.352   3.628   6.509  1.4504  0.0294 -0.0104
 3158SOL     OW20932   0.582   2.395   6.976 -0.2096 -0.8943  0.2423
 3158SOL    HW120933   0.604   2.477   7.020  1.6286 -0.4777 -1.4529
 3158SOL    HW220934   0.509   2.376   7.035 -0.7905 -1.4811 -0.6454
 3159SOL     OW20935   3.053   1.360  13.083  0.5653 -0.1000 -0.3636
 3159SOL    HW120936   2.991   1.293  13.055 -0.4631 -0.5095  2.9490
 3159SOL    HW220937   3.050   1.433  13.022 -0.9291  0.4314  0.3720
 3160SOL     OW20938   2.536   3.496  14.456 -0.2478 -0.3647 -0.3022
 3160SOL    HW120939   2.586   3.497  14.538 -1.0672  1.5186  0.1774
 3160SOL    HW220940   2.603   3.460  14.398 -0.5582 -1.1554 -0.1747
 3161SOL     OW20941   3.368   3.312   3.123  0.2671  0.0652  0.0858
 3161SOL    HW120942   3.417   3.241   3.165  1.8184 -0.5530 -2.7544
 3161SOL    HW220943   3.433   3.337   3.058 -0.9308  0.4833 -0.9507
 3162SOL     OW20944   2.876   2.748  10.440 -0.5543  0.4227 -0.0698
 3162SOL    HW120945   2.799   2.690  10.440  1.3970 -2.2096  0.7013
 3162SOL    HW220946   2.941   2.682  10.415  1.8480  2.3992  0.9399
 3163SOL     OW20947   1.603   0.151   6.992 -0.2593 -0.2117  0.0288
 3163SOL    HW120948   1.538   0.210   7.032  1.3420  1.7397 -0.2465
 3163SOL    HW220949   1.606   0.186   6.903 -1.2475  0.4429  0.2476
 3164SOL     OW20950   4.519   0.180   1.914  0.1443  0.1412  0.3196
 3164SOL    HW120951   4.432   0.177   1.873 -1.5603  0.1443  3.9097
 3164SOL    HW220952   4.537   0.273   1.902  2.4831 -0.5582 -1.4019
 3165SOL     OW20953   0.465   1.202   7.203 -0.1355  0.2241  0.1623
 3165SOL    HW120954   0.370   1.197   7.205  0.1243 -4.4375  1.2813
 3165SOL    HW220955   0.487   1.165   7.289 -0.4527  0.3667  0.3036
 3166SOL     OW20956   3.218   1.044   2.583 -0.0464 -0.0254  0.2615
 3166SOL    HW120957   3.213   0.950   2.565 -3.1375 -0.1745  1.8053
 3166SOL    HW220958   3.298   1.066   2.536 -1.3549 -0.9711 -2.3822
 3167SOL     OW20959   0.807   1.288   7.819 -0.4302  0.2841 -0.0115
 3167SOL    HW120960   0.842   1.250   7.738 -0.5156 -1.7675  0.9416
 3167SOL    HW220961   0.818   1.383   7.810 -1.1752  0.4719  1.0525
 3168SOL     OW20962   0.852   2.397  16.405  0.6047 -0.2885 -0.4128
 3168SOL    HW120963   0.850   2.396  16.500 -1.0539 -0.3607 -0.4344
 3168SOL    HW220964   0.778   2.454  16.383  0.9001  0.9818  1.9286
 3169SOL     OW20965   1.088   1.869  12.463  0.1159 -0.5227 -0.2190
 3169SOL    HW120966   1.112   1.777  12.448 -1.2769 -0.7920 -0.7464
 3169SOL    HW220967   1.098   1.894  12.371  0.8237 -1.2599 -0.3546
 3170SOL     OW20968   2.351   0.785   7.998 -0.1100  0.2161  0.3322
 3170SOL    HW120969   2.295   0.753   8.068  1.4782 -1.1053  0.9805
 3170SOL    HW220970   2.321   0.733   7.924  0.2260 -1.5695  1.4646
 3171SOL     OW20971   3.376   1.322  16.934  0.4637  0.5401 -0.5148
 3171SOL    HW120972   3.395   1.268  17.011 -0.2546 -1.4727 -1.7599
 3171SOL    HW220973   3.334   1.400  16.970 -0.8065 -0.6634  0.6515
 3172SOL     OW20974   3.409   3.944   4.381 -0.8227 -0.2210  0.3124
 3172SOL    HW120975   3.422   4.000   4.305 -2.1902  0.3432  0.4981
 3172SOL    HW220976   3.414   3.856   4.344 -0.5279  0.6385 -1.6632
 3173SOL     OW20977   0.685   3.827  17.253  0.6801  0.6312 -0.3338
 3173SOL    HW120978   0.771   3.799  17.284  1.2329  2.4183 -0.2591
 3173SOL    HW220979   0.692   3.817  17.158  0.4182 -0.0959 -0.2801
 3174SOL     OW20980   2.625   2.590   9.994  0.2287  0.1238 -0.1371
 3174SOL    HW120981   2.606   2.572   9.902 -0.9544  3.3732 -0.5156
 3174SOL    HW220982   2.679   2.668   9.989 -1.7160  1.4518 -0.1279
 3175SOL     OW20983   0.570   2.535   9.892 -0.6228 -0.3901  0.0251
 3175SOL    HW120984   0.579   2.452   9.847  0.2100  0.1149 -0.7491
 3175SOL    HW220985   0.634   2.517   9.961 -0.0086  0.3231 -0.3454
 3176SOL     OW20986   4.196   2.793  10.835 -0.3093 -0.3613 -0.1606
 3176SOL    HW120987   4.284   2.787  10.870 -1.1191 -2.1372  1.5546
 3176SOL    HW220988   4.210   2.860  10.768 -0.2493 -0.4728 -0.2592
 3177SOL     OW20989   1.726   3.476   1.898 -0.5102  0.1611  0.4082
 3177SOL    HW120990   1.694   3.449   1.812 -1.9789  0.5299  0.8343
 3177SOL    HW220991   1.653   3.443   1.950 -2.0853  2.2768 -0.4859
 3178SOL     OW20992   4.683   0.614   4.834 -0.1682  0.0049 -0.5418
 3178SOL    HW120993   4.645   0.543   4.884 -0.9501  1.8220  1.4567
 3178SOL    HW220994   0.006   0.571   4.761  0.5011 -0.5295  0.1932
 3179SOL     OW20995   4.649   2.850   4.437 -0.0487 -0.0851  0.3493
 3179SOL    HW120996   0.011   2.894   4.451 -0.9144  1.2866  1.2853
 3179SOL    HW220997   4.646   2.813   4.525  0.1177 -3.1145 -0.9180
 3180SOL     OW20998   0.886   2.576   7.282  0.4784  0.5618 -0.4422
 3180SOL    HW120999   0.962   2.619   7.242  1.0023 -0.1954 -0.2733
 3180SOL    HW221000   0.828   2.651   7.299  0.8327  0.0999  2.8194
 3181SOL     OW21001   4.384   2.728   6.044 -0.0396 -0.2367 -0.4681
 3181SOL    HW121002   4.413   2.665   6.110  0.6468 -0.7366 -1.2544
 3181SOL    HW221003   4.290   2.711   6.054 -0.0941  0.9146  0.9637
 3182SOL     OW21004   1.383   1.957  16.401  0.8240  0.4594  0.3821
 3182SOL    HW121005   1.407   1.981  16.312 -0.3028 -0.1487 -0.0888
 3182SOL    HW221006   1.468   1.964  16.444  0.9834  2.1104 -0.1942
 3183SOL     OW21007   4.624   3.906   1.565  0.2664 -0.2062  0.7663
 3183SOL    HW121008   4.635   3.875   1.475  2.3852  0.4358  0.8215
 3183SOL    HW221009   4.531   3.888   1.580  0.0045  0.1831 -0.3865
 3184SOL     OW21010   1.659   2.885  16.840 -0.5488  0.2078 -0.1838
 3184SOL    HW121011   1.701   2.923  16.763 -0.3257  0.7440  0.2002
 3184SOL    HW221012   1.600   2.957  16.865 -0.0049  0.2606  0.9485
 3185SOL     OW21013   0.726   1.847   4.077  0.4649 -0.2083 -0.3252
 3185SOL    HW121014   0.695   1.842   3.986 -2.1741  2.2921  0.4164
 3185SOL    HW221015   0.820   1.836   4.066  0.6714  0.7160  0.4170
 3186SOL     OW21016   1.651   3.716   0.223  0.0868  0.4829 -0.4402
 3186SOL    HW121017   1.657   3.705   0.318  1.2614 -1.5749 -0.7597
 3186SOL    HW221018   1.727   3.772   0.213  2.2747 -1.9395  2.7115
 3187SOL     OW21019   1.164   1.609   6.112  0.4938  0.7990 -0.5485
 3187SOL    HW121020   1.257   1.589   6.111  0.5530  0.9914  0.4232
 3187SOL    HW221021   1.164   1.704   6.128  1.0727  0.9288 -1.3559
 3188SOL     OW21022   0.888   3.251   8.572 -0.2129  0.2794  0.0574
 3188SOL    HW121023   0.884   3.167   8.617 -0.5864  0.1871 -0.1449
 3188SOL    HW221024   0.854   3.225   8.486 -0.6239  2.8018 -0.5642
 3189SOL     OW21025   3.930   1.700  11.321  0.0477  0.1858 -0.1867
 3189SOL    HW121026   3.975   1.785  11.323 -0.3940  0.3769  1.8717
 3189SOL    HW221027   3.846   1.722  11.281  1.1685  3.0951 -0.9336
 3190SOL     OW21028   1.153   1.087   0.487 -0.2857 -0.3605 -0.0915
 3190SOL    HW121029   1.104   1.148   0.542  2.1916  2.5418 -1.1383
 3190SOL    HW221030   1.123   1.005   0.526  0.6479 -0.5759  0.1812
 3191SOL     OW21031   4.035   4.537  10.951  0.0756 -0.2639  0.6980
 3191SOL    HW121032   4.057   4.502  11.037 -0.6027 -1.7838  0.2541
 3191SOL    HW221033   3.979   4.608  10.981  2.1381  1.7200 -0.1296
 3192SOL     OW21034   2.294   3.389   7.958  0.3584  0.0794 -0.2183
 3192SOL    HW121035   2.382   3.396   7.921  0.0875  0.1012 -0.8632
 3192SOL    HW221036   2.257   3.385   7.870 -0.4024 -1.3282  0.1664
 3193SOL     OW21037   0.193   1.715   6.930  0.4640 -0.7953  0.3256
 3193SOL    HW121038   0.265   1.752   6.981  0.9213 -0.5556 -0.4929
 3193SOL    HW221039   0.243   1.653   6.876 -0.4180 -2.0814  0.9867
 3194SOL     OW21040   4.350   1.374  10.723  0.3254 -0.1932  0.3860
 3194SOL    HW121041   4.418   1.424  10.679 -1.9608  0.4039 -2.5376
 3194SOL    HW221042   4.314   1.445  10.776  1.9242 -0.7898  2.2556
 3195SOL     OW21043   1.695   4.617   6.994  0.2317 -0.8230  0.2137
 3195SOL    HW121044   1.696   4.617   7.090  2.1315 -0.0074  0.1938
 3195SOL    HW221045   1.655   4.702   6.974  2.8915  0.2604 -0.4694
 3196SOL     OW21046   4.234   2.908  16.567 -0.0080 -0.1003 -0.4126
 3196SOL    HW121047   4.175   2.885  16.638 -0.4443 -0.5441 -0.9203
 3196SOL    HW221048   4.172   2.945  16.504 -0.3992 -2.1087 -1.2095
 3197SOL     OW21049   2.475   2.949  14.379  0.1702  0.3082  0.5052
 3197SOL    HW121050   2.485   3.031  14.427 -1.5753  0.4135  0.7004
 3197SOL    HW221051   2.413   2.894  14.427 -0.1935  0.0063 -0.3029
 3198SOL     OW21052   4.433   4.509  12.344 -0.4571  0.5358 -0.0049
 3198SOL    HW121053   4.501   4.507  12.411  2.4508 -0.4026 -2.9845
 3198SOL    HW221054   4.350   4.514  12.391  0.2465  0.4389  1.2425
 3199SOL     OW21055   1.861   2.270   7.660 -0.5593 -0.0900 -0.2460
 3199SOL    HW121056   1.775   2.229   7.654 -1.3701  1.3628  1.3120
 3199SOL    HW221057   1.906   2.241   7.580 -1.8360 -2.4075 -0.0951
 3200SOL     OW21058   3.523   2.339   7.734  0.2498 -0.0387  0.0990
 3200SOL    HW121059   3.549   2.248   7.716 -0.4578 -0.3509  0.6717
 3200SOL    HW221060   3.495   2.377   7.650  1.3419  0.4793 -0.0375
 3201SOL     OW21061   1.195   1.264   8.040 -0.4149 -0.1367  0.1227
 3201SOL    HW121062   1.227   1.331   8.100 -1.4061  0.2600  0.2174
 3201SOL    HW221063   1.100   1.272   8.054 -0.1836  2.1365  0.3718
 3202SOL     OW21064   0.477   2.538   7.416 -0.2253 -0.1846 -0.3571
 3202SOL    HW121065   0.460   2.573   7.328 -0.6836 -0.2424 -0.2885
 3202SOL    HW221066   0.457   2.608   7.478 -0.8268  0.3117 -1.1182
 3203SOL     OW21067   1.178   3.191   5.870  0.1454  0.1556 -0.2083
 3203SOL    HW121068   1.143   3.154   5.951 -0.0576  1.0659  0.1296
 3203SOL    HW221069   1.112   3.154   5.812 -0.1516  0.7216 -0.2373
 3204SOL     OW21070   1.818   3.040  13.318  0.7102 -0.1213  1.0552
 3204SOL    HW121071   1.764   3.067  13.244  0.1629 -0.6784  1.2530
 3204SOL    HW221072   1.783   3.094  13.389 -1.3786 -0.5013  0.2990
 3205SOL     OW21073   2.042   2.010   4.364 -0.2379  0.4971  0.1704
 3205SOL    HW121074   1.984   2.027   4.289 -0.0222 -1.1689 -0.3889
 3205SOL    HW221075   2.051   1.914   4.357  3.4743  0.7771  0.9447
 3206SOL     OW21076   3.772   3.503   3.316  0.6113 -0.1680 -0.0345
 3206SOL    HW121077   3.800   3.541   3.398 -0.5685  0.8648 -0.1114
 3206SOL    HW221078   3.765   3.411   3.344  3.1523 -0.3917 -0.1087
 3207SOL     OW21079   4.090   0.141   4.574 -0.0835  0.1493  0.5532
 3207SOL    HW121080   4.070   0.228   4.608  0.8400  0.6965 -0.3087
 3207SOL    HW221081   4.088   0.094   4.658  0.1725  0.2841  0.6331
 3208SOL     OW21082   4.044   3.155  15.449 -0.1157  0.3128 -1.1279
 3208SOL    HW121083   4.124   3.177  15.401  0.3318 -0.6011 -0.8222
 3208SOL    HW221084   3.983   3.138  15.378 -0.3866 -3.7511  0.0704
 3209SOL     OW21085   1.498   4.540   8.820 -0.2557  0.3672  0.5438
 3209SOL    HW121086   1.556   4.464   8.816  1.6440  1.8578 -0.1385
 3209SOL    HW221087   1.560   4.612   8.831  1.0991 -0.9881  1.6924
 3210SOL     OW21088   4.695   0.317   6.133 -0.0284 -0.0324 -0.4148
 3210SOL    HW121089   4.651   0.395   6.167 -0.1112  0.8105 -2.4718
 3210SOL    HW221090   4.666   0.259   6.205  0.9106  1.3700  1.0933
 3211SOL     OW21091   2.055   4.525   5.641 -0.3767  0.3608  0.6714
 3211SOL    HW121092   2.026   4.507   5.731  0.6283 -1.0482  0.7112
 3211SOL    HW221093   1.980   4.571   5.603 -0.5652 -0.1661  0.3979
 3212SOL     OW21094   2.460   3.898  17.041  0.0049 -0.0315 -0.1475
 3212SOL    HW121095   2.384   3.917  16.986  0.3509  0.1050 -0.5818
 3212SOL    HW221096   2.523   3.880  16.972 -0.6617  2.4577 -1.4181
 3213SOL     OW21097   4.596   4.466   2.521 -0.3538 -0.1109 -1.1055
 3213SOL    HW121098   4.576   4.464   2.428  0.3771 -1.2019 -1.2416
 3213SOL    HW221099   4.691   4.452   2.523 -0.4092 -0.3309  0.4626
 3214SOL     OW21100   1.708   0.707   2.538 -0.1791  0.0925 -0.0907
 3214SOL    HW121101   1.647   0.778   2.515  0.1455  0.4463  0.1418
 3214SOL    HW221102   1.706   0.701   2.633  0.1471 -1.3713 -0.1762
 3215SOL     OW21103   0.580   2.698   9.690 -0.4275 -0.4143 -0.4471
 3215SOL    HW121104   0.569   2.630   9.757  0.1888 -0.9380 -0.8833
 3215SOL    HW221105   0.625   2.770   9.733  0.8910 -1.2474 -0.4347
 3216SOL     OW21106   1.844   0.775   6.955 -0.5943  0.1948 -0.8448
 3216SOL    HW121107   1.911   0.843   6.954 -1.1840  0.7789 -0.4208
 3216SOL    HW221108   1.830   0.751   7.047 -0.7946 -0.7071 -1.1006
 3217SOL     OW21109   3.807   2.812   5.008 -0.1614 -0.2585  0.0506
 3217SOL    HW121110   3.853   2.729   4.995  0.1825  0.2346 -1.8498
 3217SOL    HW221111   3.853   2.848   5.085  0.0579  1.7184 -1.0097
 3218SOL     OW21112   4.526   2.665   3.353 -0.0472  0.0924  0.2080
 3218SOL    HW121113   4.447   2.612   3.345 -0.4197  0.8932 -1.3756
 3218SOL    HW221114   4.499   2.745   3.397 -1.8403  0.1831 -1.0384
 3219SOL     OW21115   2.919   4.695   6.559 -0.0293 -0.5572 -0.5381
 3219SOL    HW121116   2.919   0.067   6.577  0.8606 -1.0052  1.8475
 3219SOL    HW221117   2.879   4.689   6.472  0.5705 -1.5489 -0.7333
 3220SOL     OW21118   0.722   0.608   1.442  0.0019  0.6545 -0.1763
 3220SOL    HW121119   0.798   0.664   1.428 -0.1557  0.5514 -1.3920
 3220SOL    HW221120   0.714   0.568   1.355  1.4823 -1.8582  0.8222
 3221SOL     OW21121   3.709   2.670  17.439 -0.0407 -0.0564 -0.3772
 3221SOL    HW121122   3.637   2.710  17.488 -1.6459 -1.6077 -1.4485
 3221SOL    HW221123   3.784   2.706  17.486  0.7903 -2.2134 -0.0433
 3222SOL     OW21124   2.739   3.029   7.245  0.1864 -0.2848 -0.4353
 3222SOL    HW121125   2.720   3.046   7.337  0.9357  1.3316 -0.5872
 3222SOL    HW221126   2.663   3.067   7.201  0.5029  0.6707 -0.1329
 3223SOL     OW21127   1.769   3.102  12.466  0.1898 -0.3415 -0.2625
 3223SOL    HW121128   1.751   3.195  12.451 -0.3942 -0.3438  0.3907
 3223SOL    HW221129   1.724   3.062  12.392 -1.4747  1.0721 -0.0101
 3224SOL     OW21130   3.637   3.555   6.096  0.2104  0.8218 -0.7393
 3224SOL    HW121131   3.637   3.561   6.192 -1.0735  0.1578 -0.7037
 3224SOL    HW221132   3.560   3.501   6.077 -0.6450  0.9151  2.4751
 3225SOL     OW21133   2.525   4.694   4.213  0.4453  0.4099  0.4538
 3225SOL    HW121134   2.462   0.042   4.198  2.9904  2.6176 -0.0139
 3225SOL    HW221135   2.609   0.017   4.221  1.2982 -1.2131  0.8065
 3226SOL     OW21136   0.675   4.710   1.974 -0.5371  0.3559  0.0401
 3226SOL    HW121137   0.689   0.062   1.917  2.3793 -1.7467 -2.0085
 3226SOL    HW221138   0.599   4.669   1.933 -0.3416  0.6597 -0.6156
 3227SOL     OW21139   0.256   1.560   2.008 -0.5329 -0.2084  0.1818
 3227SOL    HW121140   0.312   1.637   1.997 -1.2979  0.2415 -0.6267
 3227SOL    HW221141   0.173   1.606   1.998  1.4300  3.0002 -1.6778
 3228SOL     OW21142   3.311   4.081   5.847  0.2448 -0.0699  0.0781
 3228SOL    HW121143   3.220   4.082   5.878  0.3081  0.4198  0.2438
 3228SOL    HW221144   3.359   4.041   5.918  0.7578  2.2440  1.0383
 3229SOL     OW21145   0.093   3.427  10.923  0.3849 -0.8643 -0.1415
 3229SOL    HW121146   0.118   3.434  10.831  1.2816 -1.8051  0.0340
 3229SOL    HW221147   0.178   3.411  10.962 -0.2835 -0.6066  1.4158
 3230SOL     OW21148   3.360   3.053   2.307 -0.7688  0.4091  0.8150
 3230SOL    HW121149   3.352   3.118   2.237 -0.8804 -1.3753 -0.8147
 3230SOL    HW221150   3.291   2.991   2.285 -0.4720  0.7966 -1.1940
 3231SOL     OW21151   4.004   1.767   0.267  0.8985 -0.4305  0.5637
 3231SOL    HW121152   3.922   1.768   0.218  0.2470 -1.8254  1.6210
 3231SOL    HW221153   3.976   1.827   0.336  0.4721 -1.6221  1.4311
 3232SOL     OW21154   0.492   0.487   6.757 -0.0830  0.0077  0.3084
 3232SOL    HW121155   0.448   0.519   6.836  0.7244 -1.5950  1.4133
 3232SOL    HW221156   0.432   0.520   6.690  0.0924 -0.4943 -0.0960
 3233SOL     OW21157   3.189   2.623   6.459 -0.0589  0.1255  0.5041
 3233SOL    HW121158   3.106   2.668   6.471  0.0747  0.1891  1.1904
 3233SOL    HW221159   3.246   2.699   6.473  0.9327 -0.4100 -0.6098
 3234SOL     OW21160   1.521   1.714   4.414 -0.4884  0.1296  0.2345
 3234SOL    HW121161   1.459   1.642   4.402 -0.7483  0.6396 -1.3485
 3234SOL    HW221162   1.468   1.793   4.419  0.5506  0.7630  1.1123
 3235SOL     OW21163   0.806   1.980   7.831 -0.0277  0.2006 -0.0079
 3235SOL    HW121164   0.766   2.065   7.850  0.6559  0.3074  0.9377
 3235SOL    HW221165   0.814   1.983   7.735  2.0117 -2.3167  0.0811
 3236SOL     OW21166   3.596   0.844   7.105  0.3422  0.6347  0.2081
 3236SOL    HW121167   3.642   0.773   7.149 -0.8996  1.5416  2.9102
 3236SOL    HW221168   3.511   0.857   7.146 -0.3343 -2.6377 -0.1477
 3237SOL     OW21169   0.311   2.282   7.120 -0.4325 -0.2933 -0.5223
 3237SOL    HW121170   0.262   2.323   7.049  2.1142 -0.4518 -2.3834
 3237SOL    HW221171   0.279   2.193   7.107  1.6086 -1.4459  2.2903
 3238SOL     OW21172   3.717   2.362   2.865 -0.2686 -1.2670 -0.0570
 3238SOL    HW121173   3.768   2.315   2.800 -0.9368 -0.3192 -1.2711
 3238SOL    HW221174   3.628   2.342   2.834 -0.7856 -0.2356  0.7447
 3239SOL     OW21175   3.092   1.153  10.562  0.3313  0.4707 -0.8221
 3239SOL    HW121176   3.128   1.130  10.647 -2.3904 -1.0408 -0.0981
 3239SOL    HW221177   2.998   1.151  10.578  0.7323 -2.5454  0.9548
 3240SOL     OW21178   0.485   1.703   4.450 -0.1251  0.2705  0.5276
 3240SOL    HW121179   0.463   1.771   4.387  0.0259  0.3064  0.5126
 3240SOL    HW221180   0.535   1.648   4.389  0.1694  2.5096 -1.2357
 3241SOL     OW21181   1.833   3.827   3.931  0.0967 -0.2801 -0.5956
 3241SOL    HW121182   1.741   3.803   3.938  0.1370 -0.3182 -0.1780
 3241SOL    HW221183   1.832   3.910   3.979 -0.1356 -0.4134 -0.3713
 3242SOL     OW21184   2.530   3.314  17.334 -0.6467 -0.6854 -0.3458
 3242SOL    HW121185   2.517   3.226  17.369  1.4135  0.2845  2.8453
 3242SOL    HW221186   2.600   3.292  17.272  0.7901 -0.3589  1.1729
 3243SOL     OW21187   0.232   0.010   9.253  0.3318  0.1403 -0.0422
 3243SOL    HW121188   0.215   4.655   9.305 -1.1540 -1.2538 -2.6275
 3243SOL    HW221189   0.327   0.006   9.266  0.7615  3.1307 -2.3138
 3244SOL     OW21190   1.078   0.560   4.738 -0.1168  0.3002  0.2967
 3244SOL    HW121191   1.140   0.488   4.728 -1.0580 -0.5564  0.7174
 3244SOL    HW221192   1.115   0.633   4.687 -0.7506  0.5023  0.1297
 3245SOL     OW21193   0.646   4.055  12.776  0.4268 -0.2691  0.1373
 3245SOL    HW121194   0.720   4.078  12.832  0.8367  1.5440 -1.1410
 3245SOL    HW221195   0.689   4.031  12.694 -2.0127 -1.2794 -0.8562
 3246SOL     OW21196   1.540   3.025   2.360 -0.5879 -0.6322 -0.3409
 3246SOL    HW121197   1.515   3.027   2.267  2.0125 -2.3005 -1.0877
 3246SOL    HW221198   1.453   3.013   2.396 -0.4605 -0.6418 -0.0364
 3247SOL     OW21199   2.872   4.401   2.103  0.2383 -0.3264 -0.6429
 3247SOL    HW121200   2.853   4.448   2.021 -1.8894 -3.3411 -1.8725
 3247SOL    HW221201   2.935   4.339   2.066  3.0868  2.2330 -0.0947
 3248SOL     OW21202   4.662   1.729   7.022 -0.2353 -1.0891  0.2480
 3248SOL    HW121203   4.632   1.819   7.009  0.7527 -0.9495 -1.0016
 3248SOL    HW221204   0.032   1.737   7.001 -0.5623 -1.1251 -1.1487
 3249SOL     OW21205   4.203   1.291   8.460  0.0893 -1.3144  0.2922
 3249SOL    HW121206   4.144   1.293   8.536 -0.5312 -3.7421 -0.1182
 3249SOL    HW221207   4.275   1.242   8.500  1.8361  1.2310  0.2013
 3250SOL     OW21208   4.633   2.429   4.270  0.3453 -0.4743 -0.0900
 3250SOL    HW121209   4.585   2.505   4.302 -1.4529 -1.9891  0.8380
 3250SOL    HW221210   4.576   2.353   4.284 -1.3759  0.5897 -1.3242
 3251SOL     OW21211   0.255   4.722   1.170 -0.2038  0.7065 -0.5179
 3251SOL    HW121212   0.318   0.063   1.136  0.1381  0.4542 -0.3572
 3251SOL    HW221213   0.193   0.005   1.097  1.1197 -1.1310 -1.7813
 3252SOL     OW21214   2.367   1.063   6.598  0.3145  0.0234  0.3508
 3252SOL    HW121215   2.365   1.099   6.509  1.4233  0.3029  0.4416
 3252SOL    HW221216   2.424   0.991   6.574 -0.2224 -1.0915  2.4037
 3253SOL     OW21217   3.765   1.135  15.387  0.2029 -0.3688  0.3064
 3253SOL    HW121218   3.791   1.048  15.358  2.9644  0.8514 -0.8630
 3253SOL    HW221219   3.839   1.153  15.446 -0.3348  2.2678  0.1652
 3254SOL     OW21220   0.832   0.292   3.839  0.1845  0.1957 -0.6530
 3254SOL    HW121221   0.926   0.311   3.841  0.0067  0.8722  1.1519
 3254SOL    HW221222   0.791   0.377   3.851  1.5550  0.5741  1.3259
 3255SOL     OW21223   4.542   0.580   2.392  0.2047  0.0378 -0.2817
 3255SOL    HW121224   4.601   0.514   2.429  2.1138  0.7407 -2.0050
 3255SOL    HW221225   4.560   0.562   2.300 -2.6148 -1.0928 -0.5953
 3256SOL     OW21226   1.318   4.263   2.540  0.1588  0.0343  0.4133
 3256SOL    HW121227   1.274   4.330   2.593  1.4053  2.0593 -1.1264
 3256SOL    HW221228   1.278   4.180   2.566  2.0864 -1.3149 -0.9829
 3257SOL     OW21229   2.114   1.367   6.311 -0.3710 -0.4592 -0.0578
 3257SOL    HW121230   2.021   1.385   6.299 -0.6062 -2.7359 -1.7452
 3257SOL    HW221231   2.144   1.400   6.226  2.3650  0.1477  1.1534
 3258SOL     OW21232   1.492   2.616   5.634 -0.1800 -0.0905  0.3080
 3258SOL    HW121233   1.526   2.608   5.723 -1.7905 -0.5247  0.8893
 3258SOL    HW221234   1.406   2.656   5.647 -0.9319 -0.9914 -1.9187
 3259SOL     OW21235   2.708   2.191  10.757  0.0107  0.0374  0.4582
 3259SOL    HW121236   2.792   2.211  10.797  1.1978 -2.7147 -0.6805
 3259SOL    HW221237   2.737   2.139  10.682 -1.7350 -1.5381  0.8612
 3260SOL     OW21238   4.718   2.143  11.569 -0.3500 -0.5872  0.0572
 3260SOL    HW121239   0.067   2.082  11.586  0.5850  0.1577 -1.1520
 3260SOL    HW221240   0.036   2.178  11.489 -1.4403 -0.2857 -0.3638
 3261SOL     OW21241   4.252   3.369   2.673 -0.3493 -0.4827  0.1250
 3261SOL    HW121242   4.191   3.310   2.717 -0.3683  0.8790  1.9359
 3261SOL    HW221243   4.325   3.314   2.645  0.4975  0.2116  0.9587
 3262SOL     OW21244   0.411   4.468   6.279 -0.1927  0.0458  0.1693
 3262SOL    HW121245   0.361   4.397   6.318  1.4215 -2.5300 -2.4861
 3262SOL    HW221246   0.349   4.512   6.220 -0.3735  2.0490  1.8447
 3263SOL     OW21247   4.691   2.872   1.601 -0.0637 -0.5151  0.1886
 3263SOL    HW121248   4.628   2.839   1.537  1.3048  0.4840 -1.6922
 3263SOL    HW221249   4.681   2.967   1.600  2.9247 -0.1974  0.1938
 3264SOL     OW21250   1.972   3.762   7.612  0.0634 -0.0433 -0.1936
 3264SOL    HW121251   2.046   3.702   7.612  0.0768 -0.0273 -0.2537
 3264SOL    HW221252   1.897   3.708   7.587 -0.8782  1.7602 -1.2970
 3265SOL     OW21253   2.402   1.461  14.491  0.2317  0.0243  0.1741
 3265SOL    HW121254   2.413   1.493  14.580  1.2894  1.4796 -0.4746
 3265SOL    HW221255   2.320   1.505  14.471  1.2309  1.8504  0.0841
 3266SOL     OW21256   4.699   4.283   5.584  0.4200  0.1690  0.1494
 3266SOL    HW121257   4.661   4.239   5.660 -1.7313 -1.7962 -2.0827
 3266SOL    HW221258   4.666   4.225   5.516  0.5225  2.3864 -1.7761
 3267SOL     OW21259   1.620   3.753   9.587  0.5078 -0.5817  0.4610
 3267SOL    HW121260   1.582   3.826   9.637  1.3790  1.1950 -1.5079
 3267SOL    HW221261   1.679   3.716   9.652  1.4526  1.4608  0.7503
 3268SOL     OW21262   4.226   1.739   6.653  0.5947  0.5766 -0.2290
 3268SOL    HW121263   4.309   1.787   6.645  0.1841  1.6269  1.8662
 3268SOL    HW221264   4.217   1.685   6.575 -0.5144  1.1109 -0.4645
 3269SOL     OW21265   2.113   1.778   6.233  0.2893 -0.1560  0.6882
 3269SOL    HW121266   2.090   1.686   6.219  1.4361 -0.2034 -0.8533
 3269SOL    HW221267   2.199   1.770   6.192  1.0812  2.6343  1.8151
 3270SOL     OW21268   1.271   4.129   0.233  0.0887 -0.1302  0.0362
 3270SOL    HW121269   1.330   4.054   0.227 -1.2861 -1.1872 -0.0801
 3270SOL    HW221270   1.291   4.163   0.320 -0.3933  1.6296 -0.5311
 3271SOL     OW21271   3.439   2.358  11.406  0.1229  0.1643  0.2624
 3271SOL    HW121272   3.481   2.313  11.333  1.4374  0.3015  0.9341
 3271SOL    HW221273   3.425   2.289  11.471 -2.2901 -1.0123 -1.5011
 3272SOL     OW21274   1.626   1.517  11.758  0.1598 -0.3679 -0.2690
 3272SOL    HW121275   1.705   1.503  11.811  0.1316  2.4186  0.4690
 3272SOL    HW221276   1.595   1.426  11.753 -0.0184 -0.3009 -0.3771
 3273SOL     OW21277   1.146   4.341  14.598  0.0149 -0.4792 -0.1009
 3273SOL    HW121278   1.152   4.245  14.593  1.3877 -0.3936 -0.0367
 3273SOL    HW221279   1.204   4.370  14.528  0.9758  1.8015  1.6559
 3274SOL     OW21280   3.456   0.504   9.711  0.6933  0.1771 -0.1867
 3274SOL    HW121281   3.372   0.484   9.670  0.7980  3.1831 -1.8955
 3274SOL    HW221282   3.430   0.581   9.762  0.0769  1.0489 -1.8162
 3275SOL     OW21283   1.416   3.894  11.603 -0.4968 -0.2259  0.5790
 3275SOL    HW121284   1.422   3.835  11.679 -1.3289  1.7411  2.1818
 3275SOL    HW221285   1.472   3.843  11.545  1.5250  1.8451  0.7175
 3276SOL     OW21286   4.507   0.969  10.557 -0.0858  0.0531 -0.3391
 3276SOL    HW121287   4.570   1.003  10.621  0.3155  0.3321 -0.8821
 3276SOL    HW221288   4.493   0.880  10.590 -1.8066  0.5229  0.1853
 3277SOL     OW21289   1.750   3.255   5.056  0.1176 -0.0389  0.3040
 3277SOL    HW121290   1.696   3.324   5.018  0.0475 -0.0419  0.3995
 3277SOL    HW221291   1.712   3.258   5.144  0.7888  0.7887  0.5668
 3278SOL     OW21292   3.153   3.144  14.559  0.1053 -0.1163 -0.1320
 3278SOL    HW121293   3.127   3.144  14.651  0.0417  1.1587 -0.1552
 3278SOL    HW221294   3.237   3.099  14.567  0.7817  0.5500 -3.1703
 3279SOL     OW21295   4.521   2.486  15.905  0.1083  0.0712  0.4218
 3279SOL    HW121296   4.518   2.580  15.891  2.6443  0.1628  0.4984
 3279SOL    HW221297   4.438   2.469  15.860  0.8753 -0.1343 -0.9027
 3280SOL     OW21298   2.027   1.601   3.070  0.1024 -0.0218  0.1062
 3280SOL    HW121299   1.985   1.684   3.095  1.2905  0.1056  1.6951
 3280SOL    HW221300   2.003   1.590   2.978  3.2612  0.5179 -0.7684
 3281SOL     OW21301   0.108   4.641   1.388  0.4201 -0.3953 -0.4770
 3281SOL    HW121302   0.175   4.668   1.326 -0.4335  3.3897  0.2238
 3281SOL    HW221303   0.093   0.002   1.432 -1.2512 -0.9034 -0.0729
 3282SOL     OW21304   3.788   0.007   9.376  0.0016 -0.1265 -0.3059
 3282SOL    HW121305   3.868   0.060   9.375  0.4741 -0.8510 -1.5064
 3282SOL    HW221306   3.723   0.066   9.339 -1.7773 -0.9887  1.4753
 3283SOL     OW21307   0.506   1.061   9.196  0.1786  0.7487 -0.5210
 3283SOL    HW121308   0.591   1.025   9.170 -0.5232 -0.2735 -1.3829
 3283SOL    HW221309   0.460   1.048   9.114 -1.1325  0.4470  0.2697
 3284SOL     OW21310   3.779   4.213   1.879  0.3067  0.5360  0.0960
 3284SOL    HW121311   3.717   4.272   1.921 -0.9885 -0.5345 -0.3032
 3284SOL    HW221312   3.845   4.266   1.834 -2.1736  1.0819 -2.9201
 3285SOL     OW21313   1.698   3.915  14.571  0.3109 -0.4210  0.4843
 3285SOL    HW121314   1.772   3.869  14.533  0.2216 -0.4991  0.4038
 3285SOL    HW221315   1.739   3.947  14.651 -0.9400 -1.2143  1.4460
 3286SOL     OW21316   2.217   0.516   0.530 -0.0482 -0.0200  0.5008
 3286SOL    HW121317   2.280   0.546   0.465  0.9147 -1.0079  0.9730
 3286SOL    HW221318   2.137   0.531   0.480 -0.4459 -0.6692  0.9442
 3287SOL     OW21319   1.831   3.888   1.814 -0.3872 -0.7016  0.5505
 3287SOL    HW121320   1.825   3.825   1.885  0.5255 -0.9646  0.3988
 3287SOL    HW221321   1.744   3.888   1.775 -0.2005 -2.0673  0.1281
 3288SOL     OW21322   3.573   2.727   2.828 -0.5597 -0.1964  0.4742
 3288SOL    HW121323   3.494   2.717   2.774 -0.0025  0.7650 -0.4936
 3288SOL    HW221324   3.610   2.641   2.808  0.5398  0.5080 -0.4709
 3289SOL     OW21325   3.299   0.171  12.990  0.2376 -0.0514 -0.0362
 3289SOL    HW121326   3.260   0.087  12.968  0.1044  0.6623 -2.4952
 3289SOL    HW221327   3.303   0.151  13.084  1.8708 -1.8791 -0.5058
 3290SOL     OW21328   3.727   1.705  13.568 -0.2253 -0.0715  0.7157
 3290SOL    HW121329   3.698   1.747  13.487  0.6879  0.0048  0.4321
 3290SOL    HW221330   3.733   1.782  13.625  1.2700  1.2342 -1.2039
 3291SOL     OW21331   2.038   1.334  17.458 -0.1959  0.7713  0.1463
 3291SOL    HW121332   2.092   1.278  17.514 -0.4338  1.6978  1.2967
 3291SOL    HW221333   1.979   1.269  17.420  2.0635 -1.1624 -0.0854
 3292SOL     OW21334   2.394   3.022   2.926 -0.1329  0.6524 -0.5076
 3292SOL    HW121335   2.384   3.095   2.866 -0.0687  0.2041 -1.0649
 3292SOL    HW221336   2.488   3.006   2.925 -0.0079  1.3820 -0.5229
 3293SOL     OW21337   2.003   4.207   7.425 -0.5520  0.3698  0.5184
 3293SOL    HW121338   2.034   4.254   7.503  0.1111  1.3211 -0.3153
 3293SOL    HW221339   1.973   4.135   7.480  0.8680 -0.6263 -0.0039
 3294SOL     OW21340   2.044   4.090   9.015  0.0959  0.2229  0.3596
 3294SOL    HW121341   2.138   4.077   9.008 -0.0823 -0.7106 -0.3338
 3294SOL    HW221342   2.014   4.029   8.948  0.6773 -1.1765  1.3950
 3295SOL     OW21343   1.583   1.557   5.497  0.1555  0.1764  0.0777
 3295SOL    HW121344   1.570   1.636   5.445  1.0104 -0.9437 -1.8356
 3295SOL    HW221345   1.664   1.517   5.465 -0.5446  0.7433 -2.4227
 3296SOL     OW21346   0.684   0.793  14.721 -0.3398 -0.3894 -0.3582
 3296SOL    HW121347   0.593   0.821  14.733 -0.0138  0.0338  1.1329
 3296SOL    HW221348   0.710   0.780  14.812 -2.3127 -3.2235 -0.2275
 3297SOL     OW21349   1.582   3.824   0.769 -0.0594  0.2005 -0.0146
 3297SOL    HW121350   1.674   3.852   0.770 -0.7075  2.3753 -1.0614
 3297SOL    HW221351   1.540   3.909   0.781 -0.5541 -0.1587  0.7982
 3298SOL     OW21352   4.030   0.617   4.015  0.3808 -0.2431 -0.1880
 3298SOL    HW121353   3.985   0.543   3.975  0.3670 -0.9818  1.1927
 3298SOL    HW221354   3.970   0.630   4.088  2.0845  0.9697  1.0063
 3299SOL     OW21355   4.311   0.340   2.219  0.7188  0.2933  0.6172
 3299SOL    HW121356   4.266   0.256   2.207  0.0069  0.9394 -1.1642
 3299SOL    HW221357   4.241   0.401   2.242 -1.3184 -1.9958  0.5324
 3300SOL     OW21358   4.539   2.654  16.234 -0.6564 -0.0215 -0.1981
 3300SOL    HW121359   4.511   2.714  16.164  1.5872  0.3574 -0.7689
 3300SOL    HW221360   4.628   2.680  16.257 -0.4954 -0.3814 -0.4159
 3301SOL     OW21361   2.663   0.424  16.273  0.3105 -0.1411 -0.0012
 3301SOL    HW121362   2.611   0.400  16.197 -2.2454  0.9140  1.4189
 3301SOL    HW221363   2.603   0.402  16.344 -1.3745 -0.5510 -1.5628
 3302SOL     OW21364   3.915   0.234   2.211 -0.4901 -0.4266  0.0933
 3302SOL    HW121365   3.848   0.239   2.279  1.2793 -0.4794  1.8399
 3302SOL    HW221366   3.951   0.322   2.204  2.0368 -1.4465  0.1726
 3303SOL     OW21367   2.040   2.468   1.307  0.3016  0.3699  0.1101
 3303SOL    HW121368   2.106   2.424   1.360 -0.2224  0.8657  1.1631
 3303SOL    HW221369   2.084   2.483   1.223 -0.1283 -0.2456 -0.2264
 3304SOL     OW21370   1.697   1.975   3.816  0.1926  0.0996 -0.1924
 3304SOL    HW121371   1.689   2.054   3.870  0.4305  1.4892 -2.1766
 3304SOL    HW221372   1.784   1.993   3.780  0.8532 -0.5794  1.0852
 3305SOL     OW21373   1.201   4.116   3.635 -0.9877  0.4739 -0.5713
 3305SOL    HW121374   1.215   4.031   3.677 -0.5857  1.8159  2.0288
 3305SOL    HW221375   1.256   4.116   3.557 -0.7885  1.4701 -0.4285
 3306SOL     OW21376   2.910   4.166   8.929  0.7755  0.2823 -0.5444
 3306SOL    HW121377   2.927   4.258   8.909  1.3157  0.8848  2.6325
 3306SOL    HW221378   2.927   4.162   9.023  0.1455  0.5257 -0.4122
 3307SOL     OW21379   4.718   3.379   6.234 -0.4309  0.3076  0.0630
 3307SOL    HW121380   4.674   3.301   6.201  1.4715 -0.5932 -0.3511
 3307SOL    HW221381   4.655   3.400   6.303  1.2780  1.0610  1.3744
 3308SOL     OW21382   0.627   2.679   6.973  0.3546  0.1780  0.6605
 3308SOL    HW121383   0.549   2.719   6.935  0.1583  0.0146  0.8932
 3308SOL    HW221384   0.688   2.657   6.902 -0.0701 -1.9383  0.9526
 3309SOL     OW21385   4.130   2.134   0.666  0.4827 -0.2851  0.0519
 3309SOL    HW121386   4.050   2.168   0.705  0.1395 -1.8287  0.6858
 3309SOL    HW221387   4.154   2.207   0.608 -0.7262 -1.8687 -2.4719
 3310SOL     OW21388   0.203   2.833   3.236 -0.9481 -0.3502  0.2622
 3310SOL    HW121389   0.137   2.784   3.185 -1.7178  1.6971 -0.7330
 3310SOL    HW221390   0.193   2.918   3.192 -3.1494 -1.1958 -0.9003
 3311SOL     OW21391   1.606   3.115   3.701  0.5297  0.0711 -0.0355
 3311SOL    HW121392   1.647   3.134   3.617  1.7220  1.4604  0.8459
 3311SOL    HW221393   1.609   3.201   3.743  0.7492  0.0184  0.0574
 3312SOL     OW21394   0.726   2.225   9.231  0.0981 -0.1448  0.2488
 3312SOL    HW121395   0.787   2.295   9.211  1.3590 -1.2275  0.2682
 3312SOL    HW221396   0.644   2.269   9.210  0.8871  1.0138 -0.3920
 3313SOL     OW21397   3.515   0.283  14.518  0.2007 -0.0568  0.7419
 3313SOL    HW121398   3.457   0.294  14.594 -0.3950  1.6003  0.0414
 3313SOL    HW221399   3.601   0.274  14.560  1.0477 -1.3022 -1.2755
 3314SOL     OW21400   2.090   2.328   0.793  0.4820 -0.0380  0.8742
 3314SOL    HW121401   2.012   2.312   0.846 -0.0035  0.2518  0.2495
 3314SOL    HW221402   2.066   2.283   0.712 -0.4360 -1.3054  1.8562
 3315SOL     OW21403   0.822   3.779   8.452  0.1026  0.4960  0.1308
 3315SOL    HW121404   0.840   3.839   8.524  0.6614  1.8864 -1.1568
 3315SOL    HW221405   0.889   3.712   8.470  0.2695  0.2461 -1.3682
 3316SOL     OW21406   1.735   3.695   2.492 -0.1902  0.3132  0.3631
 3316SOL    HW121407   1.687   3.698   2.409  0.4295 -5.0385 -0.2562
 3316SOL    HW221408   1.806   3.633   2.473 -1.0711 -0.3399 -0.7588
 3317SOL     OW21409   4.062   0.972   2.866 -0.5988 -0.1254 -0.2205
 3317SOL    HW121410   4.128   0.957   2.933 -0.8272  2.5037  0.6087
 3317SOL    HW221411   4.072   1.064   2.842 -0.9541 -0.5739 -2.1167
 3318SOL     OW21412   3.629   2.841   1.825 -0.4425 -0.5164  0.4319
 3318SOL    HW121413   3.603   2.749   1.828  1.7008 -1.0791  1.4450
 3318SOL    HW221414   3.575   2.878   1.894  1.3213  1.3650  0.8136
 3319SOL     OW21415   1.516   3.481   5.871 -0.8572  0.4790  0.1522
 3319SOL    HW121416   1.578   3.472   5.943 -1.0788 -2.8119 -0.0399
 3319SOL    HW221417   1.434   3.469   5.918 -0.8516  2.1779  0.5910
 3320SOL     OW21418   0.419   0.199  15.256  0.1550 -0.3344  0.3718
 3320SOL    HW121419   0.383   0.260  15.320 -0.7357 -0.9036  0.4126
 3320SOL    HW221420   0.514   0.200  15.272  0.2149 -1.0532  0.1099
 3321SOL     OW21421   0.991   1.150   0.935 -0.5305  0.1086  0.5505
 3321SOL    HW121422   1.046   1.171   1.011 -2.0628  1.1772  1.3824
 3321SOL    HW221423   1.051   1.150   0.861 -0.0757 -0.5926  0.9157
 3322SOL     OW21424   1.956   4.244   0.019 -0.0857 -0.1622 -0.1332
 3322SOL    HW121425   2.012   4.313  17.674  1.5131 -0.1761  2.2585
 3322SOL    HW221426   1.917   4.290   0.093  0.3856  0.5767 -0.3351
 3323SOL     OW21427   0.216   1.208   7.130  0.1789 -0.4395 -0.0954
 3323SOL    HW121428   0.129   1.198   7.168 -0.8547  0.1453 -2.2626
 3323SOL    HW221429   0.212   1.161   7.047  1.7043  2.8306 -2.0402
 3324SOL     OW21430   2.429   0.482  14.161  0.3803 -0.1425  0.5749
 3324SOL    HW121431   2.444   0.519  14.248  0.2747 -1.4090  1.1199
 3324SOL    HW221432   2.485   0.548  14.120 -1.0211 -0.4957 -1.8867
 3325SOL     OW21433   2.360   3.524   5.912 -0.3957 -0.0050 -0.1363
 3325SOL    HW121434   2.361   3.528   6.007  0.3721 -0.6898 -0.1189
 3325SOL    HW221435   2.268   3.502   5.898 -0.4689  0.4436 -0.3722
 3326SOL     OW21436   4.687   1.778  17.286  0.3108  0.2568 -0.0004
 3326SOL    HW121437   4.657   1.820  17.367  2.0096  1.7941 -0.1646
 3326SOL    HW221438   0.059   1.784  17.299  0.3948 -0.3548 -0.3610
 3327SOL     OW21439   3.106   4.530   8.100  0.1004 -0.3712 -0.2141
 3327SOL    HW121440   3.151   4.446   8.105  1.2071  0.2690  0.6944
 3327SOL    HW221441   3.011   4.520   8.104  0.0971  0.0094  0.8001
 3328SOL     OW21442   3.012   3.593   5.780  0.2979 -0.5509 -0.0648
 3328SOL    HW121443   3.049   3.561   5.862  0.6915 -0.0675 -0.0552
 3328SOL    HW221444   2.930   3.628   5.816 -0.0324 -0.4860 -0.8822
 3329SOL     OW21445   0.928   3.052  13.544 -0.2563  0.7680 -0.7355
 3329SOL    HW121446   0.975   3.013  13.617  0.6861  0.0787 -1.7100
 3329SOL    HW221447   0.980   3.015  13.473  0.6357 -0.2748  0.4625
 3330SOL     OW21448   0.153   0.831   1.193  0.1970 -0.0439  0.5564
 3330SOL    HW121449   0.060   0.843   1.208  0.2985  0.3329  0.8621
 3330SOL    HW221450   0.166   0.736   1.192  1.7779  0.1552  1.3494
 3331SOL     OW21451   2.954   4.096  15.642 -0.3611 -0.2752 -0.2167
 3331SOL    HW121452   2.955   4.000  15.643 -0.5710 -0.2702  0.7385
 3331SOL    HW221453   2.863   4.105  15.613  0.2608  0.0799 -2.0506
 3332SOL     OW21454   0.264   2.915   6.641  0.0643  0.1014 -0.1957
 3332SOL    HW121455   0.186   2.970   6.639  0.0231 -0.0063 -1.3188
 3332SOL    HW221456   0.332   2.980   6.626 -0.2351  0.4802  0.0737
 3333SOL     OW21457   2.124   0.897   3.506  0.1722 -0.6929  0.4329
 3333SOL    HW121458   2.041   0.944   3.500  0.9412  0.5138 -0.4872
 3333SOL    HW221459   2.161   0.890   3.418 -1.3927 -0.3243 -0.2557
 3334SOL     OW21460   3.544   0.404   8.707 -0.0291  0.1073 -0.1812
 3334SOL    HW121461   3.545   0.350   8.628  0.3509  0.5192 -0.4574
 3334SOL    HW221462   3.637   0.414   8.725 -0.0179  1.0056 -0.7433
 3335SOL     OW21463   4.170   1.598   1.794 -0.0232 -0.4956  0.2810
 3335SOL    HW121464   4.163   1.660   1.867  0.2481 -0.5281  0.3362
 3335SOL    HW221465   4.258   1.563   1.810  0.0368 -0.9805 -1.1449
 3336SOL     OW21466   2.267   2.252  11.878  0.0660 -0.0026 -0.0604
 3336SOL    HW121467   2.291   2.163  11.854 -0.4640 -0.2344  0.2692
 3336SOL    HW221468   2.283   2.298  11.795 -2.9723 -0.1719 -0.7265
 3337SOL     OW21469   2.403   2.868   6.716  0.2843  0.3215  0.0030
 3337SOL    HW121470   2.331   2.885   6.776  0.7032  2.2573 -0.0653
 3337SOL    HW221471   2.470   2.932   6.737  0.4846 -0.3516  1.4401
 3338SOL     OW21472   0.191   2.339   3.620 -0.3078 -0.1434  0.3698
 3338SOL    HW121473   0.159   2.251   3.601  2.2317 -0.7292 -1.2213
 3338SOL    HW221474   0.230   2.326   3.707  0.3537  1.3521  0.2816
 3339SOL     OW21475   4.684   0.548   0.432  0.0252 -0.3269  0.3230
 3339SOL    HW121476   4.605   0.578   0.478 -1.2654 -1.8390 -0.9044
 3339SOL    HW221477   0.000   0.626   0.392 -1.1110 -0.4484 -0.9960
 3340SOL     OW21478   0.344   0.513   1.080  0.8067  0.3864 -0.4171
 3340SOL    HW121479   0.275   0.456   1.046 -1.3098  1.9530  1.2813
 3340SOL    HW221480   0.306   0.534   1.165 -3.7898  0.0429 -2.4087
 3341SOL     OW21481   3.626   4.352   5.329  0.5574  0.2533 -0.3878
 3341SOL    HW121482   3.657   4.261   5.324  1.6863  0.7267 -2.1378
 3341SOL    HW221483   3.538   4.337   5.363  1.3095 -2.4344  0.3691
 3342SOL     OW21484   3.142   3.782  15.772 -0.1273  0.0360 -0.1057
 3342SOL    HW121485   3.090   3.785  15.693 -0.0795  0.6242 -0.1175
 3342SOL    HW221486   3.232   3.805  15.748  1.2614 -2.4518  2.5939
 3343SOL     OW21487   0.336   1.079  13.768 -0.5356  0.2497 -1.0388
 3343SOL    HW121488   0.319   0.986  13.784 -0.2120  0.4614  0.4962
 3343SOL    HW221489   0.246   1.111  13.781 -0.4403  0.6413 -1.3325
 3344SOL     OW21490   0.145   3.839  10.497 -0.2281 -0.9980  0.7106
 3344SOL    HW121491   0.067   3.855  10.551 -0.9189 -0.8303 -0.3384
 3344SOL    HW221492   0.134   3.745  10.479  1.9135 -0.6519 -2.1849
 3345SOL     OW21493   4.715   2.190   4.465 -0.0359 -0.4046  0.0716
 3345SOL    HW121494   0.002   2.264   4.526 -1.4597  1.6614 -2.2294
 3345SOL    HW221495   4.670   2.128   4.522  0.0992  0.6852  1.3623
 3346SOL     OW21496   4.553   2.442   5.109  0.7308  0.1000  0.2850
 3346SOL    HW121497   4.477   2.410   5.061 -1.3920  1.7166  2.5579
 3346SOL    HW221498   4.531   2.528   5.146 -2.6339 -0.3160 -0.7574
 3347SOL     OW21499   1.114   1.111   3.570 -0.4159  0.1271  0.5253
 3347SOL    HW121500   1.068   1.163   3.505  2.9502 -0.0666 -2.0067
 3347SOL    HW221501   1.039   1.065   3.607  0.3782 -0.3398  1.5654
 3348SOL     OW21502   1.929   2.639   1.772 -0.1706 -0.7783  0.3981
 3348SOL    HW121503   1.856   2.611   1.827  0.8093 -3.6181  0.2483
 3348SOL    HW221504   1.969   2.697   1.836  1.3998  1.6139 -2.7839
 3349SOL     OW21505   1.010   3.491   8.999 -0.4630 -0.1052 -0.6318
 3349SOL    HW121506   1.047   3.509   9.085  0.2103 -0.9793 -0.7382
 3349SOL    HW221507   0.935   3.550   8.990  1.3251  2.4032  1.2986
 3350SOL     OW21508   3.794   1.223  17.489  0.3490 -0.1662  0.1200
 3350SOL    HW121509   3.837   1.170  17.422 -1.3318 -0.2549 -0.8942
 3350SOL    HW221510   3.785   1.164  17.563  4.2863 -2.0674 -0.9225
 3351SOL     OW21511   0.188   0.288   1.129 -0.0206  0.2361 -0.2436
 3351SOL    HW121512   0.149   0.217   1.078  1.2843 -0.7982  0.1890
 3351SOL    HW221513   0.114   0.327   1.174 -0.2643  0.8056 -1.1296
 3352SOL     OW21514   1.102   1.580  16.228 -0.5476 -0.3926  0.2430
 3352SOL    HW121515   1.117   1.668  16.263 -1.6652  0.6400 -1.9001
 3352SOL    HW221516   1.121   1.523  16.303 -0.9007  0.3131  0.8740
 3353SOL     OW21517   3.145   0.298  13.385  0.3638  0.2040  0.3441
 3353SOL    HW121518   3.171   0.388  13.404 -0.0750 -0.3482  3.4879
 3353SOL    HW221519   3.062   0.290  13.430 -1.9067  0.1663 -3.8549
 3354SOL     OW21520   0.937   3.322   0.534 -0.4502  0.3085  0.2251
 3354SOL    HW121521   0.848   3.352   0.515 -0.8566 -1.3220 -0.4521
 3354SOL    HW221522   0.915   3.293   0.623  0.2000  1.0832  0.6406
 3355SOL     OW21523   0.051   1.256   6.277 -0.0547  0.3140 -0.1072
 3355SOL    HW121524   0.003   1.330   6.239  0.2278  0.3957 -0.3082
 3355SOL    HW221525   0.093   1.304   6.348  0.6280  0.7738 -0.8108
 3356SOL     OW21526   4.244   3.494   8.278  0.0354 -0.0672  0.2371
 3356SOL    HW121527   4.326   3.516   8.322 -0.2894  0.6167  0.5151
 3356SOL    HW221528   4.220   3.404   8.300  1.5310 -0.3847  0.5166
 3357SOL     OW21529   1.163   3.985  10.731  0.2212 -0.4530 -0.2620
 3357SOL    HW121530   1.188   3.911  10.676  2.0500 -0.0048 -0.0189
 3357SOL    HW221531   1.245   3.991  10.780 -0.4883  0.4883  0.8262
 3358SOL     OW21532   0.813   2.621  13.524 -0.0642 -0.4349 -0.4190
 3358SOL    HW121533   0.879   2.559  13.555  2.3493  1.8512 -1.0069
 3358SOL    HW221534   0.786   2.581  13.441  0.5138 -1.1232 -0.2772
 3359SOL     OW21535   3.140   1.882   4.780 -0.0316  0.0892  0.4043
 3359SOL    HW121536   3.119   1.968   4.745 -1.0333 -0.2802  0.0782
 3359SOL    HW221537   3.060   1.837   4.752  0.1937 -1.6071  2.5000
 3360SOL     OW21538   4.059   0.901   6.579 -0.2607  0.3536  0.3052
 3360SOL    HW121539   4.029   0.881   6.491 -0.7976  0.0228  0.5623
 3360SOL    HW221540   3.979   0.915   6.630 -0.6119  1.1110 -0.4532
 3361SOL     OW21541   2.437   2.556  14.539  0.1641  0.3690 -0.0437
 3361SOL    HW121542   2.511   2.524  14.486  0.1311 -1.0682  0.7979
 3361SOL    HW221543   2.477   2.610  14.607  1.5854  2.9120 -2.8621
 3362SOL     OW21544   0.143   1.605   2.595  0.0659  0.4937 -0.0935
 3362SOL    HW121545   0.094   1.572   2.520 -0.5501  0.6468  0.2474
 3362SOL    HW221546   0.221   1.638   2.550  1.0077 -0.8908  0.4995
 3363SOL     OW21547   1.874   2.684  17.679 -0.0372 -0.6235  0.3171
 3363SOL    HW121548   1.867   2.737  17.600 -2.1860  0.7927  1.4577
 3363SOL    HW221549   1.954   2.720   0.023 -0.5774  0.8635  0.0314
 3364SOL     OW21550   0.221   3.508  16.494 -0.5095 -0.1314  0.0947
 3364SOL    HW121551   0.300   3.521  16.547 -1.3976 -0.6788  1.5529
 3364SOL    HW221552   0.249   3.455  16.420  2.9026 -0.7713  1.8505
 3365SOL     OW21553   3.503   3.220  11.960 -0.2750  0.3780  0.6755
 3365SOL    HW121554   3.590   3.243  11.927 -0.5696  0.3754 -0.1071
 3365SOL    HW221555   3.520   3.242  12.052  1.0759  1.1946  0.2408
 3366SOL     OW21556   1.456   2.965   0.752  0.4510  0.0392 -0.4491
 3366SOL    HW121557   1.412   2.911   0.686 -0.5267 -0.4895  0.6247
 3366SOL    HW221558   1.545   2.931   0.741  0.6369  0.6872 -0.8828
 3367SOL     OW21559   4.162   4.624   9.943 -0.1498  0.4508 -0.0702
 3367SOL    HW121560   4.182   4.716   9.930  0.3071  0.3798  0.1318
 3367SOL    HW221561   4.184   4.589   9.857  0.4062  1.2909 -0.2683
 3368SOL     OW21562   3.269   4.347  17.608 -0.4439 -0.6079  0.4719
 3368SOL    HW121563   3.313   4.268  17.639  0.3171 -0.3247  0.1086
 3368SOL    HW221564   3.261   4.392   0.000 -2.1444  0.1850 -0.1053
 3369SOL     OW21565   1.663   4.075   6.280 -0.5024  0.4300 -0.0716
 3369SOL    HW121566   1.608   4.151   6.302 -0.5880  0.6648 -1.1043
 3369SOL    HW221567   1.596   4.017   6.243  0.4183  0.7106 -2.1519
 3370SOL     OW21568   2.858   0.636   1.913  0.5901  0.0888 -0.3607
 3370SOL    HW121569   2.894   0.666   1.830  0.0246 -0.1410 -0.6859
 3370SOL    HW221570   2.783   0.582   1.887  2.4008 -0.3978 -4.4892
 3371SOL     OW21571   0.212   4.440   4.636  0.4711 -0.0919 -0.3521
 3371SOL    HW121572   0.204   4.441   4.541 -2.0852  0.3417 -0.1508
 3371SOL    HW221573   0.167   4.357   4.650  1.7962 -0.7637 -0.0614
 3372SOL     OW21574   0.626   3.178   4.547  0.1511 -0.1460 -0.2023
 3372SOL    HW121575   0.565   3.122   4.595 -0.5720 -0.7068 -1.7680
 3372SOL    HW221576   0.577   3.260   4.547  3.7991  2.0244  1.3479
 3373SOL     OW21577   0.956   3.033   9.941  0.0149  0.0641  0.7741
 3373SOL    HW121578   0.960   3.102  10.007 -0.3572 -0.5586  1.4501
 3373SOL    HW221579   1.049   3.011   9.933  0.0512  0.2564  0.6859
 3374SOL     OW21580   4.095   2.720   8.880  0.1034 -0.4069  0.5694
 3374SOL    HW121581   4.011   2.680   8.903 -0.4908 -0.3780 -1.5846
 3374SOL    HW221582   4.164   2.670   8.924  1.3521  0.2437 -0.6435
 3375SOL     OW21583   0.395   3.814  17.667 -0.2821 -0.4991  0.0808
 3375SOL    HW121584   0.387   3.720  17.653  2.0755 -0.5437 -0.9870
 3375SOL    HW221585   0.412   3.841  17.577 -1.0632 -1.5245 -0.3845
 3376SOL     OW21586   4.573   2.422   6.176 -0.1146 -0.1420 -0.3001
 3376SOL    HW121587   4.514   2.353   6.206 -1.5405  0.6309 -1.3454
 3376SOL    HW221588   4.541   2.487   6.238  3.3659  2.1182 -0.8860
 3377SOL     OW21589   2.359   3.226  12.276 -0.2527 -0.0141  0.1780
 3377SOL    HW121590   2.328   3.237  12.366 -0.2786 -1.3823  0.3457
 3377SOL    HW221591   2.319   3.142  12.253 -0.1307  0.1961 -0.8068
 3378SOL     OW21592   4.611   4.054   1.239  0.1511  0.6001  0.0601
 3378SOL    HW121593   4.645   3.965   1.248 -0.0615  0.6960  1.6801
 3378SOL    HW221594   4.690   4.105   1.218  0.5361 -0.8334 -2.0046
 3379SOL     OW21595   4.569   0.574  12.579  0.3762  0.3207 -0.2837
 3379SOL    HW121596   4.651   0.527  12.566 -0.0477 -0.8943  1.4304
 3379SOL    HW221597   4.510   0.500  12.594  1.5446 -0.8285 -1.3341
 3380SOL     OW21598   3.391   3.641   3.176 -0.0745  0.4283  0.4839
 3380SOL    HW121599   3.331   3.569   3.160  0.7231 -0.1669  0.1670
 3380SOL    HW221600   3.480   3.613   3.153 -0.7821 -0.2281 -1.3988
 3381SOL     OW21601   2.232   0.895   2.018  0.2049 -0.1971 -0.1239
 3381SOL    HW121602   2.139   0.910   2.034  1.1297 -1.1546  6.0142
 3381SOL    HW221603   2.260   0.819   2.069  0.2546 -0.0398  0.0848
 3382SOL     OW21604   2.956   4.326   0.098  0.3794  0.1930 -0.3436
 3382SOL    HW121605   2.975   4.255   0.158 -1.3759 -0.3478 -0.4313
 3382SOL    HW221606   3.001   4.399   0.141  1.6862 -0.5668 -0.4114
 3383SOL     OW21607   3.672   1.467  16.504 -0.3183  0.2436  0.4408
 3383SOL    HW121608   3.646   1.434  16.418 -1.7352 -3.6856  2.3780
 3383SOL    HW221609   3.753   1.417  16.501 -0.6531 -0.3855  1.9770
 3384SOL     OW21610   1.871   2.058  13.882  0.0351 -1.1930  0.2646
 3384SOL    HW121611   1.949   2.113  13.874 -0.1088 -1.0830 -0.4221
 3384SOL    HW221612   1.905   1.970  13.864  1.5244 -0.5736  0.1108
 3385SOL     OW21613   2.568   0.406   4.367  0.1150  0.5037  0.2908
 3385SOL    HW121614   2.501   0.472   4.349  1.1001  1.5334  0.3902
 3385SOL    HW221615   2.548   0.390   4.460 -0.8579 -0.8820 -0.1582
 3386SOL     OW21616   2.201   0.364   9.444 -0.6451  0.2490 -0.6006
 3386SOL    HW121617   2.124   0.421   9.435 -0.3755  0.9830  1.5282
 3386SOL    HW221618   2.160   0.300   9.503  1.0168 -0.5068 -0.2843
 3387SOL     OW21619   2.162   1.154   2.566 -0.5302  0.1387 -0.5007
 3387SOL    HW121620   2.227   1.217   2.598 -1.2924  0.7635 -0.1963
 3387SOL    HW221621   2.212   1.073   2.565  1.6492  1.4672  1.7519
 3388SOL     OW21622   3.426   3.965   1.772  0.5549 -0.1177 -0.3386
 3388SOL    HW121623   3.512   4.004   1.757  1.1357 -0.7344  1.4087
 3388SOL    HW221624   3.394   3.966   1.681 -1.1421 -0.6568  0.2466
 3389SOL     OW21625   2.269   0.129   3.601 -0.5633  0.1636  0.3068
 3389SOL    HW121626   2.335   0.066   3.628 -1.1638 -1.3848 -1.7552
 3389SOL    HW221627   2.245   0.096   3.514  1.6421 -0.8561  0.0947
 3390SOL     OW21628   3.385   4.021  14.463  0.1277  0.2558  0.3853
 3390SOL    HW121629   3.315   4.044  14.525  0.6976 -1.4825  1.6822
 3390SOL    HW221630   3.380   4.088  14.395  1.4059 -0.4777 -0.4218
 3391SOL     OW21631   0.669   0.666  12.245  0.5390 -0.6381 -0.3227
 3391SOL    HW121632   0.748   0.694  12.197  0.1128 -0.5159 -0.9494
 3391SOL    HW221633   0.615   0.637  12.172  0.4230  2.4177 -1.4793
 3392SOL     OW21634   2.150   0.500   8.020 -0.6707  0.7355 -0.3380
 3392SOL    HW121635   2.090   0.482   7.948 -0.8604  2.6909 -0.6520
 3392SOL    HW221636   2.202   0.420   8.011  0.2730  0.9011  3.3860
 3393SOL     OW21637   0.730   0.649   7.495  0.0583  0.3201 -0.2925
 3393SOL    HW121638   0.758   0.588   7.563 -3.0968 -1.3151 -0.4265
 3393SOL    HW221639   0.714   0.590   7.420 -2.1091  0.2886  0.1898
 3394SOL     OW21640   3.267   2.636   7.324  0.6620 -0.1410  0.3875
 3394SOL    HW121641   3.334   2.602   7.265  0.1972  0.9949 -0.8083
 3394SOL    HW221642   3.291   2.728   7.340 -0.3873  0.0157  0.9891
 3395SOL     OW21643   1.410   4.127   8.313  0.8331  0.3633 -0.0844
 3395SOL    HW121644   1.318   4.117   8.339  0.8740  0.3544  0.0516
 3395SOL    HW221645   1.428   4.206   8.363  0.8555 -0.3623  1.0570
 3396SOL     OW21646   2.530   0.664   5.031  0.2057  0.7041 -0.0683
 3396SOL    HW121647   2.608   0.617   5.003 -0.0167  0.6202 -0.5475
 3396SOL    HW221648   2.544   0.749   4.989 -0.3775 -0.0553 -1.8056
 3397SOL     OW21649   2.772   4.489   6.041  0.6403  0.0871  0.2103
 3397SOL    HW121650   2.848   4.454   5.996 -0.8644 -0.4356 -1.9493
 3397SOL    HW221651   2.703   4.422   6.036  0.7491 -0.1855  2.3838
 3398SOL     OW21652   2.404   0.720   1.635  0.2297 -0.4075  0.4724
 3398SOL    HW121653   2.378   0.629   1.647  2.4913 -0.7995  2.4834
 3398SOL    HW221654   2.366   0.744   1.551  1.5215 -0.7919 -0.2241
 3399SOL     OW21655   1.044   0.734  14.770  0.3492  0.0288  0.0060
 3399SOL    HW121656   1.082   0.653  14.737 -3.5745 -1.1578 -1.5357
 3399SOL    HW221657   1.039   0.713  14.864  1.1878 -0.2204 -0.0046
 3400SOL     OW21658   2.971   2.567   0.911 -0.7198  0.6121 -0.3015
 3400SOL    HW121659   3.060   2.584   0.881 -0.5597  0.2969 -0.0091
 3400SOL    HW221660   2.926   2.560   0.827 -1.6235  0.7192  0.1674
 3401SOL     OW21661   0.022   3.045   1.324  0.0167  0.4835 -0.7125
 3401SOL    HW121662   0.033   2.951   1.306 -0.8460  0.9360 -3.5727
 3401SOL    HW221663   0.114   3.073   1.316  0.1031  0.8507  1.7949
 3402SOL     OW21664   0.836   1.426   8.799  0.1119 -0.2657  0.0137
 3402SOL    HW121665   0.816   1.457   8.888 -0.7212 -2.5055  0.6172
 3402SOL    HW221666   0.747   1.426   8.764  0.5764  0.6634 -1.1675
 3403SOL     OW21667   2.536   2.609   4.891 -0.2375  0.1840 -0.0091
 3403SOL    HW121668   2.469   2.653   4.943 -2.5831 -1.2817 -1.8209
 3403SOL    HW221669   2.594   2.593   4.965 -2.8967  0.4420  2.1100
 3404SOL     OW21670   3.756   0.684   3.293 -0.6186 -0.6047 -0.6076
 3404SOL    HW121671   3.698   0.627   3.242 -1.4215 -0.8546  0.5958
 3404SOL    HW221672   3.836   0.682   3.239 -1.6794 -0.5550 -2.1804
 3405SOL     OW21673   2.253   3.356   5.222 -0.5046  0.2603 -0.4907
 3405SOL    HW121674   2.243   3.380   5.130  0.1124 -1.2954 -0.9634
 3405SOL    HW221675   2.335   3.400   5.243 -0.4942  0.1654 -0.3344
 3406SOL     OW21676   1.002   1.441   4.518  0.0372  0.0696 -0.1384
 3406SOL    HW121677   1.086   1.420   4.478 -0.5900 -2.6337 -0.0578
 3406SOL    HW221678   0.986   1.353   4.554  2.3042 -0.5469 -0.6121
 3407SOL     OW21679   3.421   0.982  11.259 -0.4966  0.3556  0.1432
 3407SOL    HW121680   3.411   0.894  11.222 -0.1034  0.0664  0.7251
 3407SOL    HW221681   3.379   1.032  11.189  0.1739  0.8381  0.0857
 3408SOL     OW21682   1.001   3.663   9.931  0.4379 -0.3431  0.2196
 3408SOL    HW121683   1.066   3.629   9.869  1.1971  0.1560  0.7431
 3408SOL    HW221684   0.988   3.581   9.979 -0.2205  1.5144  3.1678
 3409SOL     OW21685   0.745   0.314  16.782 -0.4748  0.4312 -0.3976
 3409SOL    HW121686   0.655   0.280  16.785 -0.0610 -0.5963  0.4499
 3409SOL    HW221687   0.751   0.348  16.693 -0.8729  2.1980  0.2643
 3410SOL     OW21688   0.501   4.702   9.312 -0.2942 -0.3402  0.0183
 3410SOL    HW121689   0.577   4.709   9.369 -0.6767  0.1125  0.4728
 3410SOL    HW221690   0.547   4.674   9.233 -1.2790  1.0205 -1.0295
 3411SOL     OW21691   1.278   4.066   4.672 -0.2413 -0.5033 -0.4059
 3411SOL    HW121692   1.211   4.079   4.604 -0.7078  0.5726  0.2555
 3411SOL    HW221693   1.351   4.041   4.615  0.4626 -1.0841  0.7559
 3412SOL     OW21694   1.565   0.515   6.131  0.0802  0.1407  0.5409
 3412SOL    HW121695   1.640   0.476   6.175  0.7297 -0.1037 -0.7656
 3412SOL    HW221696   1.577   0.610   6.140  4.1222 -0.1595 -1.8476
 3413SOL     OW21697   2.043   2.461   7.829  0.4003 -0.6894 -0.2130
 3413SOL    HW121698   2.032   2.518   7.753 -0.5965 -0.6578 -0.0388
 3413SOL    HW221699   2.010   2.376   7.800 -2.8052  0.1206  1.0403
 3414SOL     OW21700   4.303   3.067  16.325 -0.1285  0.1668  0.3022
 3414SOL    HW121701   4.392   3.049  16.295 -0.9777  2.2598 -3.3729
 3414SOL    HW221702   4.288   3.005  16.396  2.0074 -0.4506  0.2266
 3415SOL     OW21703   3.911   4.513   2.264 -0.1199  1.0927 -0.4207
 3415SOL    HW121704   3.824   4.543   2.236 -0.6581  1.4431  1.6714
 3415SOL    HW221705   3.943   4.578   2.326 -0.8927  1.7636 -0.7218
 3416SOL     OW21706   1.729   0.890   2.240  0.0869  0.0594  0.5477
 3416SOL    HW121707   1.743   0.952   2.313 -0.9365  0.4710  0.3892
 3416SOL    HW221708   1.673   0.943   2.184  0.0604  0.6863  1.1524
 3417SOL     OW21709   2.697   1.042   3.475  0.1712 -0.6421  0.4392
 3417SOL    HW121710   2.683   0.959   3.521 -1.3655  0.3068  1.7121
 3417SOL    HW221711   2.608   1.079   3.479 -0.3383 -2.0422  2.0820
 3418SOL     OW21712   0.898   3.891   9.036 -0.2455 -0.3793  0.4606
 3418SOL    HW121713   0.899   3.925   9.125  1.0740  1.5552 -0.3003
 3418SOL    HW221714   0.862   3.804   9.056 -1.4089  0.0845  0.3988
 3419SOL     OW21715   2.277   0.236  10.551 -0.7438  1.0791 -0.5389
 3419SOL    HW121716   2.322   0.292  10.615  1.3302 -1.5775  0.3205
 3419SOL    HW221717   2.347   0.174  10.531 -0.2292  1.0153  1.4344
 3420SOL     OW21718   1.837   4.445   3.440  0.1412 -0.1814 -0.0631
 3420SOL    HW121719   1.898   4.496   3.386 -1.4887  0.5649 -1.1830
 3420SOL    HW221720   1.791   4.513   3.489 -0.3347 -0.1154 -0.6067
 3421SOL     OW21721   1.709   0.172   8.491  0.1507 -0.1375 -0.3657
 3421SOL    HW121722   1.721   0.090   8.539  0.9142  0.7087  0.9027
 3421SOL    HW221723   1.641   0.146   8.429  0.7765 -1.7903 -0.3596
 3422SOL     OW21724   1.595   0.188   4.348 -0.1766 -0.6109 -0.1376
 3422SOL    HW121725   1.533   0.206   4.418  1.7367  1.0977  1.0971
 3422SOL    HW221726   1.675   0.219   4.389  1.0397 -1.4685 -1.8440
 3423SOL     OW21727   0.721   2.858   4.942  0.1983  0.3709  0.4977
 3423SOL    HW121728   0.800   2.815   4.973  1.5305  3.3431  1.1678
 3423SOL    HW221729   0.664   2.816   5.007 -0.7662  2.1956  0.8277
 3424SOL     OW21730   4.397   4.635  14.082 -0.9916 -0.7169 -0.4288
 3424SOL    HW121731   4.392   4.708  14.020  0.6908  0.5108  0.8677
 3424SOL    HW221732   4.350   4.566  14.037 -1.3416 -0.5242 -0.3550
 3425SOL     OW21733   1.752   2.303   9.375 -1.1246  0.0096  0.7306
 3425SOL    HW121734   1.722   2.336   9.459 -1.8458  1.0095  0.0804
 3425SOL    HW221735   1.737   2.385   9.329  0.1954 -1.2693 -2.0089
 3426SOL     OW21736   2.810   1.404   4.592  0.2212 -0.3561  0.6146
 3426SOL    HW121737   2.881   1.344   4.617  1.0262  0.7471  0.9662
 3426SOL    HW221738   2.814   1.403   4.497  0.7006  1.2980  0.6256
 3427SOL     OW21739   1.983   2.929  13.497 -0.2591 -0.5159  0.0445
 3427SOL    HW121740   1.923   2.955  13.427 -1.2850  1.8731  1.8021
 3427SOL    HW221741   2.049   2.888  13.442  0.9778 -0.1091  1.2038
 3428SOL     OW21742   3.457   0.198  15.513  0.3315 -0.1197 -0.3989
 3428SOL    HW121743   3.367   0.179  15.486 -0.9228  0.8774  3.1762
 3428SOL    HW221744   3.483   0.114  15.552 -1.9155 -1.1554 -1.1404
 3429SOL     OW21745   1.103   0.176   2.578 -0.4778  0.4592  0.6311
 3429SOL    HW121746   1.028   0.234   2.594 -0.5226  0.9994 -1.6280
 3429SOL    HW221747   1.164   0.221   2.520 -2.3280  0.1237 -1.5765
 3430SOL     OW21748   1.438   0.842  17.072 -0.1024  0.0642 -0.0238
 3430SOL    HW121749   1.367   0.833  17.009  0.1773  2.6834 -0.6977
 3430SOL    HW221750   1.438   0.931  17.108  2.4048  1.2554 -3.0053
 3431SOL     OW21751   1.602   2.556   6.311  0.6283  0.3742 -0.3298
 3431SOL    HW121752   1.585   2.496   6.238  0.8309  0.1462 -0.1892
 3431SOL    HW221753   1.664   2.516   6.372 -0.1999 -0.6029 -0.1395
 3432SOL     OW21754   3.856   0.885   6.359  0.0873 -0.1271 -0.1640
 3432SOL    HW121755   3.801   0.855   6.286 -2.2101  2.0148  0.6583
 3432SOL    HW221756   3.816   0.969   6.383  0.6542 -0.2567  1.2471
 3433SOL     OW21757   1.870   2.681  11.660  0.0597 -0.1615 -0.1180
 3433SOL    HW121758   1.936   2.740  11.624  0.5442 -1.0716 -0.7416
 3433SOL    HW221759   1.927   2.621  11.709 -0.5983 -1.8389 -1.3887
 3434SOL     OW21760   2.633   0.978   2.524 -0.4224 -0.0096  0.1088
 3434SOL    HW121761   2.653   0.932   2.442  1.8362 -0.8801  1.1246
 3434SOL    HW221762   2.648   1.069   2.500 -1.1980 -0.4147 -1.9058
 3435SOL     OW21763   4.317   0.649   3.014 -0.2365 -0.2282 -0.5046
 3435SOL    HW121764   4.405   0.615   3.001 -0.5779 -0.7409 -1.4930
 3435SOL    HW221765   4.324   0.737   2.977 -0.3126  0.3668  0.8829
 3436SOL     OW21766   2.759   4.076   7.932  0.1992 -0.0962 -0.6204
 3436SOL    HW121767   2.806   4.060   8.014 -0.9805 -1.7073 -0.2478
 3436SOL    HW221768   2.788   4.004   7.876  1.0018 -0.0117 -0.3105
 3437SOL     OW21769   3.138   0.270   0.533  0.2640 -0.3895 -0.1167
 3437SOL    HW121770   3.211   0.324   0.565 -1.4090  1.1248  1.1644
 3437SOL    HW221771   3.135   0.289   0.440  1.4546 -0.9282 -0.2612
 3438SOL     OW21772   2.649   1.316   3.087 -0.3686  0.1383 -0.1200
 3438SOL    HW121773   2.628   1.320   3.180  2.4024 -2.3835  0.5844
 3438SOL    HW221774   2.584   1.375   3.047 -1.0403 -0.3961  0.1936
 3439SOL     OW21775   3.963   3.448   8.745 -0.1321  0.4117 -0.3314
 3439SOL    HW121776   4.050   3.415   8.766 -1.6946 -2.2885  1.8405
 3439SOL    HW221777   3.916   3.368   8.766 -0.4465  0.8834  0.7291
 3440SOL     OW21778   0.840   4.259  10.845  0.3010 -0.3373 -0.1477
 3440SOL    HW121779   0.908   4.230  10.784 -0.1049  0.2035 -0.8645
 3440SOL    HW221780   0.778   4.186  10.850  0.8514 -0.8840 -1.5191
 3441SOL     OW21781   4.192   0.080   2.173  0.1947  0.3824  0.7637
 3441SOL    HW121782   4.259   0.012   2.164 -0.4784 -0.0776 -0.9415
 3441SOL    HW221783   4.151   0.070   2.087 -0.4725  0.9173  1.0152
 3442SOL     OW21784   1.467   2.094   9.509  0.0973  0.7932 -0.0890
 3442SOL    HW121785   1.391   2.037   9.501  1.8526 -1.6516  0.6787
 3442SOL    HW221786   1.528   2.040   9.559  0.5716  0.7387 -0.7237
 3443SOL     OW21787   3.414   2.109   3.673 -0.3461  0.5687 -0.0465
 3443SOL    HW121788   3.412   2.054   3.751 -1.2237  0.1567 -0.3567
 3443SOL    HW221789   3.323   2.097   3.643 -0.0031 -1.5008 -0.2328
 3444SOL     OW21790   3.497   0.226   3.097  0.1087 -0.3432  0.0012
 3444SOL    HW121791   3.524   0.150   3.045  1.2108 -1.2010  1.8321
 3444SOL    HW221792   3.428   0.260   3.039  0.0214  1.0224  0.9018
 3445SOL     OW21793   3.187   1.588   8.809  0.2382  0.5962  0.1405
 3445SOL    HW121794   3.144   1.649   8.749  1.0556 -0.5161 -1.5895
 3445SOL    HW221795   3.162   1.623   8.894  0.5471 -1.5825  1.1237
 3446SOL     OW21796   1.087   4.038   7.430 -0.1074 -0.0888  0.4445
 3446SOL    HW121797   1.122   4.126   7.443  3.1161 -1.0062 -1.7563
 3446SOL    HW221798   1.012   4.057   7.375  1.6693  1.9435 -1.2520
 3447SOL     OW21799   0.648   0.105   8.606 -0.2244  0.3959  0.0666
 3447SOL    HW121800   0.662   0.198   8.624 -1.6561  0.1510  2.4771
 3447SOL    HW221801   0.598   0.087   8.686 -1.6570 -0.8743 -1.1093
 3448SOL     OW21802   1.544   0.706   9.052 -0.2151  0.1814  0.0792
 3448SOL    HW121803   1.545   0.800   9.068 -1.0844  0.4473 -1.4726
 3448SOL    HW221804   1.468   0.672   9.100 -0.2097 -2.3074 -1.6562
 3449SOL     OW21805   4.527   1.633   8.492 -0.2785 -0.3270  0.5319
 3449SOL    HW121806   4.532   1.538   8.488 -1.2972 -0.4391  1.7546
 3449SOL    HW221807   4.533   1.671   8.580  0.1250  0.0133  0.3591
 3450SOL     OW21808   3.320   2.823   3.897  0.1611  0.1785 -0.2774
 3450SOL    HW121809   3.292   2.770   3.822  0.2835  1.2317 -1.0779
 3450SOL    HW221810   3.413   2.826   3.873  0.3202  1.9984  0.5316
 3451SOL     OW21811   3.309   0.177   4.807 -0.5708 -0.0681 -0.3284
 3451SOL    HW121812   3.321   0.135   4.893  1.4899  0.6119 -0.2729
 3451SOL    HW221813   3.262   0.108   4.760 -1.4205  0.3802 -0.1264
 3452SOL     OW21814   2.319   3.034   5.816  0.0901  0.0360 -0.1536
 3452SOL    HW121815   2.326   3.027   5.721 -3.0709 -0.7868 -0.3353
 3452SOL    HW221816   2.226   3.012   5.824  1.0245 -2.9104  2.4962
 3453SOL     OW21817   0.301   1.060   1.222 -0.5570  0.2591 -0.1991
 3453SOL    HW121818   0.307   1.042   1.128  1.1546  0.5288 -0.1474
 3453SOL    HW221819   0.231   1.003   1.253 -0.7643 -0.7240 -2.4216
 3454SOL     OW21820   2.824   0.737  15.064  0.4502  0.1583 -0.0779
 3454SOL    HW121821   2.788   0.657  15.026 -0.3669  0.7815 -0.6014
 3454SOL    HW221822   2.889   0.752  14.995  1.1347  0.5677  0.6484
 3455SOL     OW21823   3.598   1.329   8.349  0.0641  0.3977 -0.4442
 3455SOL    HW121824   3.518   1.336   8.402  0.3523  3.6944 -0.3921
 3455SOL    HW221825   3.593   1.234   8.340 -0.4364  0.5168 -1.4335
 3456SOL     OW21826   2.426   1.675   3.978  0.1229  0.3183 -0.0255
 3456SOL    HW121827   2.372   1.720   4.042 -0.5160  1.1533 -1.1434
 3456SOL    HW221828   2.400   1.587   4.004  3.0474 -0.2899  0.8556
 3457SOL     OW21829   0.236   2.099   7.717  0.4279 -0.1528  0.1649
 3457SOL    HW121830   0.312   2.146   7.750  0.0191  1.1532 -0.7441
 3457SOL    HW221831   0.177   2.085   7.791  1.7892  0.4840  1.3615
 3458SOL     OW21832   3.467   3.777   9.226 -0.2559  0.1544 -0.3077
 3458SOL    HW121833   3.495   3.780   9.134  0.4541 -1.6599 -0.1493
 3458SOL    HW221834   3.405   3.704   9.225 -0.1142  0.0272  0.5454
 3459SOL     OW21835   3.276   2.441  13.507  0.1257  0.0171  0.2728
 3459SOL    HW121836   3.269   2.435  13.602  0.2681 -0.2461  0.2668
 3459SOL    HW221837   3.188   2.427  13.471 -0.2169  0.5949  0.8862
 3460SOL     OW21838   3.008   4.687   5.554 -0.2218  0.1763 -0.0304
 3460SOL    HW121839   2.923   4.646   5.572 -1.7167  2.5891 -1.6321
 3460SOL    HW221840   2.988   4.713   5.464  0.7008 -0.0325 -0.2894
 3461SOL     OW21841   2.809   3.921   5.079 -0.2102 -0.0279 -0.5181
 3461SOL    HW121842   2.741   3.876   5.029  1.5367 -2.0996 -0.9949
 3461SOL    HW221843   2.763   4.000   5.108 -0.0018 -0.6238  1.4290
 3462SOL     OW21844   1.838   0.446   6.016  0.0653  0.1493 -0.2685
 3462SOL    HW121845   1.828   0.354   5.992  2.7055  0.2718 -1.8418
 3462SOL    HW221846   1.860   0.430   6.107 -2.0130 -3.3962 -0.3992
 3463SOL     OW21847   1.126   1.547   6.417  0.3038 -0.6632 -0.3054
 3463SOL    HW121848   1.099   1.456   6.434  0.2569 -1.1064 -2.8161
 3463SOL    HW221849   1.156   1.541   6.326  2.2833 -0.9337  0.3606
 3464SOL     OW21850   1.481   1.782   5.650 -0.5095  0.6125  0.0018
 3464SOL    HW121851   1.493   1.697   5.608  1.2393  0.5561  0.6126
 3464SOL    HW221852   1.416   1.766   5.718 -1.4960 -2.4603 -1.6499
 3465SOL     OW21853   3.994   3.144   5.102  0.1074  0.3086  0.0935
 3465SOL    HW121854   4.007   3.230   5.142  2.2785 -1.3393  2.8935
 3465SOL    HW221855   3.899   3.137   5.100  0.0760  0.7028  0.1594
 3466SOL     OW21856   1.447   4.594   6.004 -0.1040 -0.1032  0.3344
 3466SOL    HW121857   1.519   4.644   6.042 -1.0581 -0.3594  2.4997
 3466SOL    HW221858   1.387   4.667   5.989  0.1038 -0.2227 -1.0614
 3467SOL     OW21859   2.250   0.248   2.024  0.3672  0.3140 -0.0914
 3467SOL    HW121860   2.241   0.183   1.954  0.4007 -1.2167  1.3411
 3467SOL    HW221861   2.259   0.201   2.107  1.2461 -0.3986 -0.5874
 3468SOL     OW21862   3.877   2.433   5.739 -0.3657 -0.4995 -0.3995
 3468SOL    HW121863   3.839   2.386   5.664 -0.9074 -1.1096  0.2505
 3468SOL    HW221864   3.822   2.386   5.802  0.1368  0.7898  0.9863
 3469SOL     OW21865   0.370   2.565  13.829 -0.6294  1.0013  0.1821
 3469SOL    HW121866   0.374   2.642  13.773 -0.7595  0.1940 -0.9447
 3469SOL    HW221867   0.377   2.498  13.761 -2.3813  0.3819  0.5946
 3470SOL     OW21868   1.587   3.494   3.108  0.3566 -0.3309  0.1969
 3470SOL    HW121869   1.555   3.408   3.135  0.7911 -0.2606  0.9353
 3470SOL    HW221870   1.536   3.508   3.028  2.0420 -0.5060 -0.9153
 3471SOL     OW21871   0.453   1.137  11.951 -0.2651 -0.9935  0.2394
 3471SOL    HW121872   0.414   1.049  11.953 -2.7821  0.1420  0.4364
 3471SOL    HW221873   0.441   1.165  11.860 -0.1827  1.7438  1.1021
 3472SOL     OW21874   2.056   1.048   1.360  0.5412 -1.0260  0.6426
 3472SOL    HW121875   2.144   1.062   1.324  0.6292  1.3442  1.7804
 3472SOL    HW221876   2.048   1.120   1.423  2.4006  0.2819 -0.6033
 3473SOL     OW21877   1.748   2.730   1.532  0.1096  0.0576  0.1898
 3473SOL    HW121878   1.823   2.746   1.475 -1.1012 -2.1886 -2.0648
 3473SOL    HW221879   1.798   2.700   1.608  0.7683  1.7109  0.4099
 3474SOL     OW21880   0.655   4.083  11.237 -0.2650 -0.4439 -0.1537
 3474SOL    HW121881   0.748   4.060  11.230  0.8663  4.0710 -0.5687
 3474SOL    HW221882   0.652   4.157  11.176 -2.0320  1.5144  2.3213
 3475SOL     OW21883   2.535   2.613   8.708 -0.3406 -0.3141 -0.4648
 3475SOL    HW121884   2.532   2.624   8.613 -1.6010  2.3222 -0.1260
 3475SOL    HW221885   2.476   2.682   8.738  1.2591  1.5403 -1.6092
 3476SOL     OW21886   0.541   3.934   3.317 -0.1991  0.1243 -0.3890
 3476SOL    HW121887   0.458   3.979   3.304  0.1556  0.9472  0.1807
 3476SOL    HW221888   0.543   3.919   3.411 -0.7947 -1.6433 -0.6569
 3477SOL     OW21889   0.043   0.335   0.079 -0.3228 -0.3008  0.3120
 3477SOL    HW121890   0.004   0.260   0.123  0.5414 -0.2834  1.1001
 3477SOL    HW221891   4.708   0.315   0.005 -0.6545  0.1799  0.4371
 3478SOL     OW21892   3.109   4.125  14.372 -0.0140 -0.5056 -0.4955
 3478SOL    HW121893   3.097   4.042  14.325 -1.7520 -0.7348  0.3413
 3478SOL    HW221894   3.195   4.161  14.352  0.0192  0.1406  0.8197
 3479SOL     OW21895   0.025   1.060  15.246 -0.1969 -0.1737  0.2053
 3479SOL    HW121896   0.060   1.019  15.167  1.6419 -0.1647  1.0238
 3479SOL    HW221897   4.672   1.104  15.207 -0.6968  0.5690  2.0169
 3480SOL     OW21898   1.542   1.650   2.504  0.6828  0.6220  0.0454
 3480SOL    HW121899   1.474   1.671   2.441 -1.3523 -0.0590  1.9972
 3480SOL    HW221900   1.499   1.628   2.587 -0.0094  1.6414 -0.0506
 3481SOL     OW21901   4.448   0.840   4.837 -0.4026 -0.4300  0.0000
 3481SOL    HW121902   4.418   0.813   4.750  1.6211 -0.6391 -0.6392
 3481SOL    HW221903   4.542   0.842   4.817 -0.6518  0.5379 -1.0682
 3482SOL     OW21904   3.993   0.129   3.247 -0.7059  0.3784 -0.0759
 3482SOL    HW121905   4.035   0.096   3.327 -1.9664 -0.6936  0.1434
 3482SOL    HW221906   3.920   0.070   3.227 -2.2528  1.3881  2.7435
 3483SOL     OW21907   0.737   2.850   8.376 -0.0402 -0.4017 -0.1341
 3483SOL    HW121908   0.816   2.796   8.372 -0.4347 -1.1819  2.7162
 3483SOL    HW221909   0.728   2.849   8.471  1.1060 -0.3097 -0.0304
 3484SOL     OW21910   3.217   4.175   7.644 -0.3343 -0.1989  0.5272
 3484SOL    HW121911   3.236   4.216   7.560 -1.0639 -0.7445  0.0893
 3484SOL    HW221912   3.189   4.252   7.693 -1.4787 -0.1652 -0.1960
 3485SOL     OW21913   3.917   3.375   8.206 -0.7685 -0.1039  0.0019
 3485SOL    HW121914   3.887   3.308   8.145  0.0931 -0.9813  0.5392
 3485SOL    HW221915   3.924   3.324   8.286  0.3914 -0.8947 -0.5957
 3486SOL     OW21916   1.534   4.212   5.689  0.1664 -0.6979  0.5742
 3486SOL    HW121917   1.533   4.242   5.780  1.0986 -0.7973  0.6227
 3486SOL    HW221918   1.566   4.124   5.711  0.3394 -1.0415 -1.0659
 3487SOL     OW21919   2.805   4.327   7.573  0.0383 -0.1323 -0.0292
 3487SOL    HW121920   2.731   4.387   7.579 -0.2606 -0.3230 -2.0821
 3487SOL    HW221921   2.800   4.298   7.482 -1.0123 -1.2839  0.4014
 3488SOL     OW21922   4.447   1.113   4.949 -0.4520 -0.5042  0.2431
 3488SOL    HW121923   4.492   1.138   4.868 -3.1199  0.2858 -0.9957
 3488SOL    HW221924   4.463   1.020   4.964  1.8165 -0.4937 -2.0957
 3489SOL     OW21925   3.486   3.758   4.999  0.3425  0.0617  0.4987
 3489SOL    HW121926   3.399   3.790   4.974  0.6625 -1.6999 -2.8255
 3489SOL    HW221927   3.465   3.665   4.993  1.6853 -0.0432 -2.3879
 3490SOL     OW21928   3.199   3.755  12.783 -0.2397 -0.5974 -0.3289
 3490SOL    HW121929   3.263   3.719  12.722 -1.0304 -2.5892  0.0123
 3490SOL    HW221930   3.189   3.847  12.758 -0.2519 -1.3225 -2.9998
 3491SOL     OW21931   3.722   0.225  16.966  0.1337  0.3143  0.2157
 3491SOL    HW121932   3.696   0.176  17.044 -1.3991 -0.3187 -0.6917
 3491SOL    HW221933   3.798   0.177  16.932 -0.4075 -0.6020  0.2771
 3492SOL     OW21934   1.261   2.416   7.429 -0.3068 -0.0618 -0.4388
 3492SOL    HW121935   1.322   2.436   7.499 -0.4885 -2.5414  0.4420
 3492SOL    HW221936   1.203   2.350   7.468 -1.6737  0.9010 -0.8567
 3493SOL     OW21937   1.779   2.163   4.381 -0.3977 -0.2372  0.0401
 3493SOL    HW121938   1.837   2.183   4.454 -2.5271 -1.0634  1.9238
 3493SOL    HW221939   1.766   2.255   4.357  0.6200  0.0583  0.6382
 3494SOL     OW21940   4.510   4.430   2.262  0.4459  0.6789  0.3950
 3494SOL    HW121941   4.488   4.506   2.208 -0.6641 -0.0936 -0.2689
 3494SOL    HW221942   4.587   4.404   2.212 -0.2194 -1.8485  0.6667
 3495SOL     OW21943   0.821   1.280   7.538 -0.3178 -0.5285  0.0483
 3495SOL    HW121944   0.811   1.359   7.484 -1.3187 -1.4537 -1.1181
 3495SOL    HW221945   0.911   1.251   7.527 -0.8383 -1.8496 -0.7165
 3496SOL     OW21946   0.666   4.557   9.134 -0.8829 -0.1539  0.0467
 3496SOL    HW121947   0.688   4.474   9.177 -3.0392 -1.4317 -1.2634
 3496SOL    HW221948   0.623   4.519   9.057 -1.1983 -0.0627  0.1779
 3497SOL     OW21949   4.653   3.029  13.908  0.5950 -0.5558  0.4648
 3497SOL    HW121950   4.689   3.005  13.993  0.9638  1.1103  0.7807
 3497SOL    HW221951   4.665   3.124  13.914 -0.4220 -0.4081  0.2259
 3498SOL     OW21952   1.071   4.656  11.995  0.0151  0.2987  0.0856
 3498SOL    HW121953   0.995   4.598  12.005 -0.7994  1.0243 -1.8905
 3498SOL    HW221954   1.035   0.005  11.942 -0.3916  2.6997  3.6154
 3499SOL     OW21955   3.847   3.077   1.148  0.0199 -0.1056 -0.2255
 3499SOL    HW121956   3.868   3.087   1.241  0.3028  1.0864 -0.4144
 3499SOL    HW221957   3.933   3.049   1.116  0.2029  1.1397 -0.8352
 3500SOL     OW21958   3.855   4.514   6.728  0.6239 -0.1180 -0.2361
 3500SOL    HW121959   3.857   4.550   6.640 -0.6946  1.7314  0.4978
 3500SOL    HW221960   3.838   4.598   6.771  1.3585  0.9711 -2.0708
 3501SOL     OW21961   4.316   0.079  10.366  0.4246  0.0261  0.6227
 3501SOL    HW121962   4.229   0.085  10.327  1.0034 -1.5179 -0.9223
 3501SOL    HW221963   4.350   0.005  10.316  0.6405 -2.2366  4.1047
 3502SOL     OW21964   0.171   0.140   3.633  0.0163  0.1754  0.1188
 3502SOL    HW121965   0.137   0.200   3.699 -0.9576  1.1504 -1.2602
 3502SOL    HW221966   0.260   0.170   3.618  0.8695 -3.2263 -1.5687
 3503SOL     OW21967   2.858   0.676   7.957 -0.0250  0.1907  1.2339
 3503SOL    HW121968   2.896   0.681   8.045 -1.9891  1.3358  2.0199
 3503SOL    HW221969   2.764   0.679   7.974 -0.3184  0.3697 -0.4498
 3504SOL     OW21970   1.922   0.126   6.972  0.2674 -0.3259 -0.2305
 3504SOL    HW121971   1.862   0.133   6.899 -1.0135  2.1969  1.0704
 3504SOL    HW221972   1.867   0.140   7.049  1.2815  1.8527  0.1127
 3505SOL     OW21973   4.006   1.758   5.317  0.6052 -0.7179  0.3071
 3505SOL    HW121974   3.992   1.852   5.318  0.4600 -0.7319 -1.9449
 3505SOL    HW221975   4.038   1.747   5.228  0.6217  1.2976  0.0755
 3506SOL     OW21976   0.954   3.040   1.771 -0.4728 -0.4453 -0.1132
 3506SOL    HW121977   0.878   3.090   1.742 -0.6236 -0.6977 -0.1595
 3506SOL    HW221978   0.969   3.073   1.859 -0.9627  1.5899 -0.8070
 3507SOL     OW21979   1.679   4.160   1.816 -0.1938  0.3404 -0.3398
 3507SOL    HW121980   1.672   4.191   1.726  2.6089 -0.4854 -0.8567
 3507SOL    HW221981   1.717   4.238   1.858 -0.7248  1.3189 -1.6779
 3508SOL     OW21982   2.048   1.433  12.157  0.2360  0.0735 -0.5652
 3508SOL    HW121983   2.071   1.478  12.238  0.7326 -0.8321 -0.2003
 3508SOL    HW221984   1.963   1.397  12.182  0.1426  1.3456  0.9217
 3509SOL     OW21985   0.583   2.142   7.255 -0.0945  0.1154 -0.5053
 3509SOL    HW121986   0.515   2.188   7.206  0.4444  0.2671 -1.1135
 3509SOL    HW221987   0.647   2.211   7.270 -0.5500  0.3196  0.4798
 3510SOL     OW21988   0.108   2.977   1.982  0.4376 -0.3492  0.0866
 3510SOL    HW121989   0.072   3.065   1.982 -0.6372 -0.7924  1.7820
 3510SOL    HW221990   0.032   2.924   1.959  1.9862 -1.7697 -1.7974
 3511SOL     OW21991   1.852   4.593  10.536 -0.4984 -0.3210  0.1875
 3511SOL    HW121992   1.806   4.563  10.615  0.6840 -0.2286  0.9182
 3511SOL    HW221993   1.932   4.540  10.538  0.3175  0.9027 -0.5593
 3512SOL     OW21994   2.532   3.179  14.538 -0.2035 -0.2985 -0.5661
 3512SOL    HW121995   2.611   3.172  14.592 -0.0989  2.1372 -0.3904
 3512SOL    HW221996   2.555   3.236  14.464  1.9607 -2.9446 -1.9556
 3513SOL     OW21997   0.533   3.262   2.806  0.0295  0.5522 -0.2500
 3513SOL    HW121998   0.508   3.349   2.774  1.8651  0.1133 -2.8628
 3513SOL    HW221999   0.465   3.256   2.873  0.8523  1.3930  0.6667
 3514SOL     OW22000   0.573   3.893   6.636  0.5639  0.2843  0.2087
 3514SOL    HW122001   0.521   3.970   6.658  0.3957  0.0584  0.6020
 3514SOL    HW222002   0.659   3.929   6.655 -0.3324  1.1511  2.5660
 3515SOL     OW22003   4.157   2.280   1.849  0.3457  0.2523  0.5434
 3515SOL    HW122004   4.223   2.343   1.877  1.3478 -0.3078 -0.5413
 3515SOL    HW222005   4.175   2.288   1.755 -0.0572 -0.3788  0.4101
 3516SOL     OW22006   3.623   0.793  14.027  0.3940 -0.1761 -1.2495
 3516SOL    HW122007   3.690   0.751  14.081  0.1231  0.9021 -0.0737
 3516SOL    HW222008   3.550   0.811  14.086  2.3164  0.1729  1.0407
 3517SOL     OW22009   2.699   3.508   7.018 -1.1004  0.0146 -0.5238
 3517SOL    HW122010   2.728   3.526   6.929 -0.4728  1.9062  0.0559
 3517SOL    HW222011   2.683   3.593   7.061  0.0881 -0.0999  0.1410
 3518SOL     OW22012   2.934   0.415   2.775  0.5887 -0.4531  0.3640
 3518SOL    HW122013   3.000   0.479   2.801  0.9006  0.1336 -1.8982
 3518SOL    HW222014   2.860   0.467   2.745  1.0658 -0.9750 -1.7701
 3519SOL     OW22015   2.677   0.460   8.787  0.2137  0.0389  0.1819
 3519SOL    HW122016   2.663   0.381   8.733  0.1789  1.5761 -2.0657
 3519SOL    HW222017   2.674   0.525   8.717  1.3499  0.4563  0.5289
 3520SOL     OW22018   2.995   3.901   4.725 -0.0907 -0.5626  0.0181
 3520SOL    HW122019   3.058   3.933   4.660  0.1106  1.0810  1.0350
 3520SOL    HW222020   2.918   3.953   4.702 -0.0699 -1.0833 -1.2365
 3521SOL     OW22021   3.141   1.771   7.091  0.5887  0.3216  0.4462
 3521SOL    HW122022   3.213   1.721   7.128  0.2980 -1.7207 -1.7411
 3521SOL    HW222023   3.152   1.762   6.997  0.2881 -1.7790  0.6032
 3522SOL     OW22024   4.470   0.266   4.260 -0.3120 -0.3660  0.2313
 3522SOL    HW122025   4.454   0.184   4.306 -1.9057 -0.4003 -0.3835
 3522SOL    HW222026   4.447   0.330   4.328  1.5940  0.2074  0.3442
 3523SOL     OW22027   2.438   2.537   2.565 -0.3543  0.1003 -0.2020
 3523SOL    HW122028   2.453   2.588   2.645  1.3157 -0.4383 -0.1504
 3523SOL    HW222029   2.386   2.469   2.608 -1.7525  1.7806  0.7431
 3524SOL     OW22030   2.534   3.431  12.265  0.1098 -0.3253 -0.3130
 3524SOL    HW122031   2.565   3.393  12.183 -0.2294  1.9800 -1.5089
 3524SOL    HW222032   2.511   3.350  12.310  0.3496  1.2815  2.7543
 3525SOL     OW22033   3.596   2.204   6.804 -0.5469  0.2368 -0.5252
 3525SOL    HW122034   3.628   2.115   6.814 -0.5541  0.3472  0.5005
 3525SOL    HW222035   3.533   2.195   6.732 -0.4215 -1.6840 -0.3799
 3526SOL     OW22036   0.941   1.234  17.206 -0.4837 -0.3110 -0.3253
 3526SOL    HW122037   0.876   1.195  17.264  1.7330  0.1047  2.4066
 3526SOL    HW222038   0.904   1.316  17.174 -0.7595 -0.7536 -1.1408
 3527SOL     OW22039   3.479   4.192   9.781  0.0870  0.6433  0.5179
 3527SOL    HW122040   3.543   4.155   9.843 -0.5180 -1.5544 -0.1827
 3527SOL    HW222041   3.538   4.234   9.718  0.1567  1.4287  1.1064
 3528SOL     OW22042   4.177   3.714   0.917  0.1805 -0.1082 -0.6984
 3528SOL    HW122043   4.091   3.671   0.918  0.8977 -1.5528 -0.2159
 3528SOL    HW222044   4.218   3.657   0.852  1.6000  1.6504 -1.3076
 3529SOL     OW22045   3.916   3.245   4.146 -0.0214 -0.2679  0.2347
 3529SOL    HW122046   3.929   3.230   4.052  0.6577 -0.3504  0.3393
 3529SOL    HW222047   3.992   3.199   4.184 -1.2714 -2.0601  0.5619
 3530SOL     OW22048   3.844   2.667   6.307 -0.6015  0.0064  0.4251
 3530SOL    HW122049   3.813   2.712   6.228 -0.0479  0.7688  0.6455
 3530SOL    HW222050   3.917   2.616   6.271 -1.1339 -0.8473  0.5610
 3531SOL     OW22051   2.479   3.505  17.582 -0.1892 -0.1224 -0.1659
 3531SOL    HW122052   2.525   3.579  17.542  0.4321 -0.5255 -0.1939
 3531SOL    HW222053   2.454   3.448  17.508 -0.3091  0.6665 -0.7312
 3532SOL     OW22054   2.067   1.252   7.080  0.5465 -0.1984 -0.2903
 3532SOL    HW122055   2.162   1.258   7.070  0.6827 -3.4761 -0.9834
 3532SOL    HW222056   2.051   1.302   7.160  0.0646  2.9728 -2.3923
 3533SOL     OW22057   4.004   0.599   0.703  0.5760 -0.5571  0.0513
 3533SOL    HW122058   4.056   0.669   0.743 -2.2648  2.1038 -0.9085
 3533SOL    HW222059   3.965   0.642   0.627 -0.8561 -0.7005  0.7106
 3534SOL     OW22060   1.206   0.776   4.652 -0.4439 -0.0012  0.5906
 3534SOL    HW122061   1.300   0.780   4.668 -0.1812 -2.0446 -0.4994
 3534SOL    HW222062   1.186   0.844   4.587  3.5346 -0.0092 -0.6573
 3535SOL     OW22063   4.302   0.420   7.077 -0.0865  0.4514  0.1176
 3535SOL    HW122064   4.253   0.496   7.044  1.6557  1.6384  0.2221
 3535SOL    HW222065   4.390   0.459   7.074 -0.3288  1.0875  1.2894
 3536SOL     OW22066   1.482   3.940   9.391  0.1778 -0.3413 -0.5926
 3536SOL    HW122067   1.523   3.870   9.443  0.0663  2.4562  3.2936
 3536SOL    HW222068   1.519   4.019   9.431 -2.6690  0.3536  0.6291
 3537SOL     OW22069   2.744   2.274   5.518 -0.3297 -0.2488 -0.6758
 3537SOL    HW122070   2.797   2.240   5.447  0.4358 -1.2570  0.3680
 3537SOL    HW222071   2.708   2.351   5.474  0.4955 -0.8480 -2.3963
 3538SOL     OW22072   2.050   2.214   8.244 -0.0156 -0.0009 -0.1499
 3538SOL    HW122073   2.088   2.127   8.253 -0.6727 -0.1672  1.0049
 3538SOL    HW222074   2.116   2.260   8.193 -1.4375  0.2402 -1.7974
 3539SOL     OW22075   2.754   0.205   2.083 -0.3474  0.2619  0.1928
 3539SOL    HW122076   2.695   0.271   2.121  3.3421  1.8039  3.2078
 3539SOL    HW222077   2.813   0.198   2.158 -1.3445  0.2044  0.9839
 3540SOL     OW22078   0.375   4.143  12.055  0.5274 -0.3279 -0.0516
 3540SOL    HW122079   0.316   4.211  12.089  0.9360  0.4638 -0.9229
 3540SOL    HW222080   0.318   4.109  11.987  0.8144 -1.1417  0.1145
 3541SOL     OW22081   3.899   4.637   2.844  0.2430 -0.6686 -0.3492
 3541SOL    HW122082   3.847   4.701   2.892  1.5461  1.4287 -1.7423
 3541SOL    HW222083   3.981   4.685   2.834 -0.5633  1.4797  3.2451
 3542SOL     OW22084   2.834   1.357   8.239  0.5190  0.1990 -0.1057
 3542SOL    HW122085   2.815   1.342   8.332 -1.3479  0.9802 -0.3762
 3542SOL    HW222086   2.881   1.274   8.230 -0.0089 -0.0035 -0.9078
 3543SOL     OW22087   1.256   0.569   0.525  0.1440  0.2261  0.2820
 3543SOL    HW122088   1.317   0.497   0.539 -0.8996 -0.9173 -1.0898
 3543SOL    HW222089   1.201   0.538   0.453  1.1050  1.2277 -0.8826
 3544SOL     OW22090   3.207   3.180   3.822  0.0266 -0.3686 -0.0495
 3544SOL    HW122091   3.278   3.155   3.881  1.1439  3.2763  0.1443
 3544SOL    HW222092   3.130   3.193   3.877  0.9662 -0.4923  1.2796
 3545SOL     OW22093   3.888   2.836   3.382  0.1078 -0.4269  0.2660
 3545SOL    HW122094   3.866   2.755   3.336  2.2210 -0.0136 -1.5081
 3545SOL    HW222095   3.955   2.867   3.321 -0.9495 -0.7230 -1.0555
 3546SOL     OW22096   1.798   3.945   0.194  0.3124  0.0170  0.0382
 3546SOL    HW122097   1.729   4.007   0.214  0.5992 -0.3836  2.2394
 3546SOL    HW222098   1.865   3.975   0.255 -0.9380  3.3390 -0.2539
 3547SOL     OW22099   1.384   2.090   0.166  0.7369 -0.4040  0.2765
 3547SOL    HW122100   1.361   2.170   0.118  2.1746  1.3353  2.4594
 3547SOL    HW222101   1.451   2.120   0.228 -1.0892  2.0557  1.0439
 3548SOL     OW22102   1.915   4.153   2.849 -0.4585  0.2253 -0.4893
 3548SOL    HW122103   1.939   4.132   2.759  1.1945 -0.5341  0.1334
 3548SOL    HW222104   1.886   4.069   2.884  0.5421 -1.2210 -3.1476
 3549SOL     OW22105   2.596   1.542   9.934 -0.3174 -0.0341 -0.0113
 3549SOL    HW122106   2.604   1.452   9.903 -2.6053 -0.7859  1.5733
 3549SOL    HW222107   2.547   1.583   9.863 -0.1507 -0.4945 -0.3867
 3550SOL     OW22108   3.883   1.197   6.904 -0.2873 -0.2937  0.3179
 3550SOL    HW122109   3.877   1.263   6.973  2.2642 -0.6760  0.9219
 3550SOL    HW222110   3.951   1.145   6.947  1.5452  0.1249 -2.0201
 3551SOL     OW22111   1.252   4.162   8.567 -0.3780  0.4490  0.2128
 3551SOL    HW122112   1.258   4.225   8.639  0.8119 -2.4359  2.6359
 3551SOL    HW222113   1.213   4.090   8.616  0.7270  0.2455  0.8083
 3552SOL     OW22114   2.204   4.413  10.903  0.2354 -0.1446  0.2502
 3552SOL    HW122115   2.202   4.479  10.834 -1.6974 -0.6082 -0.1377
 3552SOL    HW222116   2.295   4.386  10.913 -0.2804 -2.6386 -1.6460
 3553SOL     OW22117   0.300   1.817  13.325 -0.0434  0.2061  0.0439
 3553SOL    HW122118   0.352   1.894  13.303  0.4751 -0.7987 -2.2000
 3553SOL    HW222119   0.361   1.745  13.311  1.9708  2.1474 -1.2178
 3554SOL     OW22120   0.069   0.244  11.933 -0.6189  0.1496  0.1554
 3554SOL    HW122121   4.716   0.301  11.919 -0.2063  0.2407 -1.6819
 3554SOL    HW222122   0.046   0.161  11.891 -0.4727  1.1807 -1.9619
 3555SOL     OW22123   4.665   2.567  11.787 -0.5818 -0.0534 -0.4707
 3555SOL    HW122124   4.576   2.551  11.818 -0.4879  0.6610  0.1564
 3555SOL    HW222125   4.713   2.541  11.865 -0.9347 -1.4450 -0.7310
 3556SOL     OW22126   3.756   4.450   9.040 -0.0143 -0.5940 -0.0768
 3556SOL    HW122127   3.761   4.472   9.133  1.1821 -1.7025  0.1305
 3556SOL    HW222128   3.664   4.431   9.022  0.1183 -0.4503 -0.8797
 3557SOL     OW22129   0.799   0.908   6.782  0.3068 -0.3302 -0.4292
 3557SOL    HW122130   0.736   0.935   6.849 -0.5419 -1.4209 -0.7982
 3557SOL    HW222131   0.875   0.966   6.791  1.0561 -1.3020 -0.5670
 3558SOL     OW22132   4.259   4.145   1.527  0.4446 -0.2184  0.0885
 3558SOL    HW122133   4.226   4.151   1.437  1.4104 -0.9521 -0.3092
 3558SOL    HW222134   4.347   4.182   1.529  1.1387 -1.8572 -0.5627
 3559SOL     OW22135   0.059   3.664   3.200 -0.5076 -0.0272  0.5159
 3559SOL    HW122136   0.058   3.600   3.271 -1.5159  0.0575  0.5766
 3559SOL    HW222137   0.050   3.751   3.238  0.5155  1.0733 -1.7519
 3560SOL     OW22138   3.335   3.536   2.818  0.1086  0.4236 -0.3534
 3560SOL    HW122139   3.308   3.576   2.735 -0.9764 -1.0345 -0.7010
 3560SOL    HW222140   3.264   3.474   2.833  2.6595 -2.4788 -0.4913
 3561SOL     OW22141   3.801   4.082   1.345 -0.4043 -0.4724  0.4627
 3561SOL    HW122142   3.814   4.053   1.435 -0.6946  1.7760  1.2334
 3561SOL    HW222143   3.873   4.036   1.303  0.0220  0.2465  0.4002
 3562SOL     OW22144   2.056   3.224  17.030  0.2914 -0.2695 -0.3208
 3562SOL    HW122145   2.017   3.209  16.944  2.2377 -1.6356 -0.9637
 3562SOL    HW222146   2.086   3.138  17.061 -0.4590 -0.4640 -0.1392
 3563SOL     OW22147   1.742   0.756   1.389 -0.0660  0.3193  0.3624
 3563SOL    HW122148   1.767   0.805   1.311  0.5802  1.8176  1.5114
 3563SOL    HW222149   1.702   0.834   1.427 -1.3220 -0.0953 -0.0904
 3564SOL     OW22150   3.511   4.446   9.417  0.2831  1.2376 -0.3449
 3564SOL    HW122151   3.417   4.446   9.395  0.4774  0.5165 -1.1717
 3564SOL    HW222152   3.558   4.510   9.363 -1.9636  3.7787  0.6800
 3565SOL     OW22153   1.404   4.473   7.667 -0.0625 -0.0416  0.0258
 3565SOL    HW122154   1.428   4.442   7.580  0.6504 -0.3441  0.3259
 3565SOL    HW222155   1.309   4.481   7.671 -0.1816 -0.8483 -1.1769
 3566SOL     OW22156   1.087   1.218   7.537  0.0352 -0.0127 -0.3520
 3566SOL    HW122157   1.101   1.310   7.518  0.2502 -0.2592 -1.3708
 3566SOL    HW222158   1.127   1.172   7.463 -1.6717 -1.0732 -0.6225
 3567SOL     OW22159   3.702   0.313   5.128  0.0583 -0.0787 -0.0198
 3567SOL    HW122160   3.692   0.320   5.033  0.8256  0.9547 -0.0242
 3567SOL    HW222161   3.748   0.229   5.132 -0.0547 -0.1565 -0.3842
 3568SOL     OW22162   2.359   1.843   6.403 -0.1286 -0.1021 -0.1724
 3568SOL    HW122163   2.391   1.810   6.319  0.8373 -1.5344  0.7618
 3568SOL    HW222164   2.334   1.933   6.382 -0.8751 -0.0436  0.9947
 3569SOL     OW22165   0.085   0.421   0.741  0.3403  0.2360 -0.2312
 3569SOL    HW122166   0.040   0.357   0.686 -1.3788  1.1437  0.0978
 3569SOL    HW222167   0.166   0.373   0.755  0.7048  1.0052  0.3038
 3570SOL     OW22168   4.225   3.718   5.294 -0.8510  0.5760 -0.0788
 3570SOL    HW122169   4.304   3.664   5.302 -1.6930 -0.8512 -1.4137
 3570SOL    HW222170   4.211   3.712   5.199 -1.0395  1.8748 -0.1271
 3571SOL     OW22171   1.567   4.538   3.521 -0.1359 -0.0770 -0.3525
 3571SOL    HW122172   1.551   4.513   3.430 -0.5284  1.3099 -0.6594
 3571SOL    HW222173   1.543   4.630   3.533 -1.0286 -0.2273 -1.0646
 3572SOL     OW22174   2.397   3.480   6.856 -0.0644 -0.5143  0.4494
 3572SOL    HW122175   2.452   3.523   6.790 -0.5743 -0.5404  0.0122
 3572SOL    HW222176   2.431   3.392   6.836 -0.8545 -0.3028 -1.7876
 3573SOL     OW22177   1.511   1.977   3.327 -0.0830 -0.3233 -0.1605
 3573SOL    HW122178   1.505   1.887   3.357 -0.2985 -0.4291 -0.5272
 3573SOL    HW222179   1.517   1.964   3.232  0.9858 -0.5937 -0.0579
 3574SOL     OW22180   0.843   3.145   3.756 -0.2458  0.4764  0.0693
 3574SOL    HW122181   0.805   3.131   3.669  0.2363  0.5558 -0.1581
 3574SOL    HW222182   0.796   3.087   3.815  0.8159  0.8415  1.2695
 3575SOL     OW22183   2.464   1.694   2.401 -0.5554 -0.4882 -0.1068
 3575SOL    HW122184   2.519   1.615   2.399 -0.1246 -0.1493 -1.9009
 3575SOL    HW222185   2.454   1.713   2.494 -0.1997  0.2973 -0.2263
 3576SOL     OW22186   2.847   2.554  10.907 -0.1401 -0.2361  0.2635
 3576SOL    HW122187   2.842   2.461  10.927  1.0691 -0.6512 -1.3806
 3576SOL    HW222188   2.755   2.580  10.902  0.3176  1.3331 -0.1240
 3577SOL     OW22189   1.581   2.410   6.085  0.0117 -0.2893 -0.0389
 3577SOL    HW122190   1.498   2.363   6.081 -0.1095  0.0321 -1.2178
 3577SOL    HW222191   1.626   2.364   6.014  0.8450  1.7479 -0.8030
 3578SOL     OW22192   1.312   4.083   1.874 -0.4304 -0.2963  0.2269
 3578SOL    HW122193   1.242   4.089   1.809  0.0596 -0.5890 -0.3273
 3578SOL    HW222194   1.349   4.170   1.858  1.2567 -1.4162 -2.0058
 3579SOL     OW22195   3.065   1.851  10.241 -0.2750  0.4331  0.2575
 3579SOL    HW122196   3.114   1.927  10.208  0.0321  0.8044  1.5490
 3579SOL    HW222197   3.005   1.830  10.169  0.5944 -0.3156 -0.2454
 3580SOL     OW22198   3.620   1.160   3.586  0.0686  0.3017 -0.2389
 3580SOL    HW122199   3.692   1.148   3.524 -0.9709  0.1167 -1.4060
 3580SOL    HW222200   3.661   1.115   3.660 -1.4467 -0.5480  0.0739
 3581SOL     OW22201   0.509   3.826   7.125 -0.3472 -0.0427 -0.1534
 3581SOL    HW122202   0.450   3.831   7.051 -1.4221 -1.4597  0.6095
 3581SOL    HW222203   0.580   3.769   7.096 -0.2551  0.6431 -1.2617
 3582SOL     OW22204   1.001   1.129  15.915  0.2791  0.3515 -0.0773
 3582SOL    HW122205   0.914   1.138  15.876  0.0072  0.7277  0.6338
 3582SOL    HW222206   1.024   1.221  15.925 -1.3585  0.5480  1.7550
 3583SOL     OW22207   2.734   0.737   1.250 -0.6467  0.3377 -0.2533
 3583SOL    HW122208   2.772   0.799   1.188 -0.7900  0.3252 -0.3534
 3583SOL    HW222209   2.645   0.729   1.215  0.1940  1.3272 -2.5729
 3584SOL     OW22210   3.467   3.447   5.096  0.8987 -0.0538  0.0172
 3584SOL    HW122211   3.554   3.415   5.074  1.2502 -0.6924  2.3783
 3584SOL    HW222212   3.428   3.369   5.135  1.3145 -0.2571  0.0270
 3585SOL     OW22213   1.455   2.824   4.989 -0.6329  0.6693 -0.0357
 3585SOL    HW122214   1.501   2.908   4.984 -1.4166  1.0855 -0.2737
 3585SOL    HW222215   1.500   2.777   4.919  0.8115  1.7024  0.2011
 3586SOL     OW22216   0.242   4.674   2.184  0.0805  0.6379  0.1647
 3586SOL    HW122217   0.254   4.688   2.090 -0.2452 -1.1055 -0.1365
 3586SOL    HW222218   0.320   4.628   2.216 -1.0773 -1.2922  0.2213
 3587SOL     OW22219   0.783   1.301   6.872 -0.0087 -0.6607 -0.2803
 3587SOL    HW122220   0.720   1.353   6.922  1.9198  1.5469 -0.1868
 3587SOL    HW222221   0.732   1.220   6.864 -2.1343  0.5530  0.7576
 3588SOL     OW22222   3.617   2.670  13.603 -0.1725 -0.1181  0.0550
 3588SOL    HW122223   3.653   2.748  13.560 -2.4270  0.9542  0.1182
 3588SOL    HW222224   3.535   2.702  13.639  0.2746 -1.8307  2.5429
 3589SOL     OW22225   2.068   3.157   4.429 -0.0383  0.0216 -0.2975
 3589SOL    HW122226   2.000   3.121   4.371 -0.0926  0.8406 -0.7314
 3589SOL    HW222227   2.115   3.075   4.447 -1.0652 -0.1983  1.3001
 3590SOL     OW22228   4.056   4.450   2.034  0.0357 -0.0048 -0.0602
 3590SOL    HW122229   4.031   4.449   2.127  0.6971  1.8739  0.1347
 3590SOL    HW222230   4.141   4.407   2.037  0.4851  0.8547 -0.6713
 3591SOL     OW22231   0.355   2.463   8.286  0.0095  0.4297  0.4514
 3591SOL    HW122232   0.360   2.448   8.381  0.8240  0.3921  0.4070
 3591SOL    HW222233   0.385   2.554   8.282 -0.7401  0.6910  0.6548
 3592SOL     OW22234   2.696   3.890  14.924 -0.2524  0.2481  0.1788
 3592SOL    HW122235   2.738   3.858  14.844 -0.9703  0.6247 -0.3524
 3592SOL    HW222236   2.625   3.827  14.934 -0.5911  0.4583 -0.9427
 3593SOL     OW22237   1.760   4.209   8.278 -0.3989 -0.3904  0.0355
 3593SOL    HW122238   1.772   4.288   8.330  0.2873  0.2222 -1.0555
 3593SOL    HW222239   1.738   4.142   8.342  0.3049  0.9397  1.6755
 3594SOL     OW22240   4.685   2.113  13.910  0.4815 -0.6936 -0.6393
 3594SOL    HW122241   0.050   2.109  13.948  0.3474 -2.5932 -0.5401
 3594SOL    HW222242   4.622   2.146  13.974 -1.5342 -0.1662 -2.8510
 3595SOL     OW22243   0.634   2.151   5.124  0.3030 -0.0832 -0.4069
 3595SOL    HW122244   0.682   2.115   5.199  0.2078 -0.6573 -0.6217
 3595SOL    HW222245   0.699   2.118   5.062 -0.6195 -0.3499 -1.2335
 3596SOL     OW22246   2.342   2.838  14.063  0.0956 -0.1151  0.1048
 3596SOL    HW122247   2.305   2.767  14.116  0.3421 -0.2977  0.0336
 3596SOL    HW222248   2.289   2.913  14.090  0.4986 -0.3108  1.4555
 3597SOL     OW22249   3.705   1.625   4.094 -0.3581 -0.0923  0.1772
 3597SOL    HW122250   3.744   1.561   4.154 -1.6499  0.8321  2.0098
 3597SOL    HW222251   3.665   1.568   4.029 -0.2760 -0.8441  0.7901
 3598SOL     OW22252   4.546   3.315  14.793  0.1674 -0.4145 -0.1523
 3598SOL    HW122253   4.571   3.349  14.879  1.2005 -2.9104  0.5407
 3598SOL    HW222254   4.553   3.397  14.743 -0.1766  0.1574  0.7318
 3599SOL     OW22255   3.433   3.176  16.911  0.0951 -0.1127 -0.3878
 3599SOL    HW122256   3.364   3.226  16.866 -0.9127  0.0690  1.3949
 3599SOL    HW222257   3.444   3.102  16.851  0.2729  0.1604 -0.6984
 3600SOL     OW22258   1.039   0.732   2.000  0.4469 -0.3580  0.5579
 3600SOL    HW122259   0.979   0.674   1.954  0.8102  0.3815 -0.8427
 3600SOL    HW222260   1.123   0.705   1.963  0.2676  0.6914 -0.6121
 3601SOL     OW22261   0.299   4.440   6.553  0.1058 -0.2678  0.9125
 3601SOL    HW122262   0.334   4.508   6.495  1.6892 -1.2491  0.7186
 3601SOL    HW222263   0.370   4.441   6.616  0.4358  1.5851  0.5193
 3602SOL     OW22264   1.713   2.178  12.305  0.5657 -0.0931  0.5710
 3602SOL    HW122265   1.619   2.166  12.292  0.7445 -0.3744 -0.4754
 3602SOL    HW222266   1.726   2.224  12.388 -1.1050  1.5301 -0.0681
 3603SOL     OW22267   0.250   1.354   1.302  0.2092  0.6250  0.9159
 3603SOL    HW122268   0.267   1.263   1.326 -1.5166 -0.2595 -1.2702
 3603SOL    HW222269   0.241   1.401   1.385 -2.8538 -0.1412  1.0079
 3604SOL     OW22270   0.422   3.848   4.796 -0.2513  0.3489 -0.2679
 3604SOL    HW122271   0.385   3.914   4.854  1.4578  1.5791 -0.5955
 3604SOL    HW222272   0.349   3.848   4.735  0.0978  2.6648 -0.6862
 3605SOL     OW22273   4.025   3.450   3.493  0.2204  0.1185 -0.4998
 3605SOL    HW122274   3.990   3.527   3.537  2.0597  0.8176 -0.2920
 3605SOL    HW222275   4.083   3.404   3.554  0.3937 -0.5859 -1.1968
 3606SOL     OW22276   1.570   1.030   5.736  0.1014 -0.7498 -0.0338
 3606SOL    HW122277   1.595   0.989   5.653 -1.1710 -0.9642 -0.3174
 3606SOL    HW222278   1.540   1.117   5.710  0.2585 -1.0156 -1.1106
 3607SOL     OW22279   1.303   0.237   3.646 -0.0360  0.4596 -0.3354
 3607SOL    HW122280   1.343   0.166   3.595  0.3281  0.4834 -0.0841
 3607SOL    HW222281   1.335   0.222   3.735  1.2100  2.7117 -0.4084
 3608SOL     OW22282   3.995   0.394   9.571 -0.3246 -0.8338 -0.3694
 3608SOL    HW122283   3.923   0.413   9.632 -1.3563 -2.3697 -1.0945
 3608SOL    HW222284   4.019   0.481   9.542 -0.8891 -0.6833 -0.3927
 3609SOL     OW22285   3.313   0.868   1.824  0.3332 -0.3380  0.4107
 3609SOL    HW122286   3.224   0.904   1.832  0.4961  0.4879 -1.4589
 3609SOL    HW222287   3.296   0.774   1.819 -0.3787 -0.1506 -0.7032
 3610SOL     OW22288   1.987   2.705   7.309 -0.2775 -0.1016  0.2939
 3610SOL    HW122289   2.033   2.785   7.334  0.5241 -1.1392  2.1348
 3610SOL    HW222290   1.939   2.725   7.228  0.0353  1.1661  0.4285
 3611SOL     OW22291   4.268   4.710   9.720 -0.0194 -0.5040  0.2759
 3611SOL    HW122292   4.358   4.685   9.741  0.4456  0.7501 -0.2000
 3611SOL    HW222293   4.282   0.075   9.684  0.3810 -1.0569 -0.9083
 3612SOL     OW22294   3.445   2.369   1.627 -0.2482 -0.5031  0.5914
 3612SOL    HW122295   3.406   2.384   1.541  0.8879  0.7377  0.3109
 3612SOL    HW222296   3.394   2.290   1.647  0.9464 -1.2200  0.8274
 3613SOL     OW22297   0.584   3.762   4.054  0.1198 -0.0620 -0.2031
 3613SOL    HW122298   0.613   3.671   4.044 -1.0606 -0.4403 -0.1416
 3613SOL    HW222299   0.498   3.749   4.094 -0.7626  2.2077 -1.3452
 3614SOL     OW22300   4.325   2.328   3.340 -0.5048  0.1038 -0.6301
 3614SOL    HW122301   4.294   2.419   3.334 -0.6178  0.0745 -0.4851
 3614SOL    HW222302   4.380   2.324   3.418 -1.3799 -1.8287 -0.1213
 3615SOL     OW22303   1.885   0.597   1.617  0.3731 -0.0520  0.3396
 3615SOL    HW122304   1.891   0.638   1.530 -0.0420  0.6202  0.6248
 3615SOL    HW222305   1.904   0.665   1.682  1.7849 -1.2226  1.1382
 3616SOL     OW22306   3.065   0.250   3.123 -0.5229  0.3423 -0.5643
 3616SOL    HW122307   3.118   0.325   3.098  0.0325 -0.0482 -0.5742
 3616SOL    HW222308   3.030   0.218   3.040 -1.6300  0.2136 -0.0399
 3617SOL     OW22309   3.155   0.636   2.191 -0.5224 -0.5436  0.1182
 3617SOL    HW122310   3.209   0.681   2.256 -0.5237 -0.5579  0.1292
 3617SOL    HW222311   3.223   0.628   2.124  0.4320  0.9954  0.9018
 3618SOL     OW22312   2.855   2.868   4.441  0.0662  0.3012 -0.3339
 3618SOL    HW122313   2.865   2.844   4.349 -0.5579  1.6847 -0.7706
 3618SOL    HW222314   2.761   2.875   4.453  0.0425  1.6787 -1.3561
 3619SOL     OW22315   2.471   0.457   4.624 -0.1615  0.1832  0.0309
 3619SOL    HW122316   2.400   0.396   4.643  0.7396 -0.7976  0.2770
 3619SOL    HW222317   2.519   0.452   4.707 -1.2906 -0.3017  0.6569
 3620SOL     OW22318   1.393   3.136  12.522 -0.0417 -0.6806 -0.0408
 3620SOL    HW122319   1.361   3.221  12.490 -0.4051 -0.6655  0.3635
 3620SOL    HW222320   1.460   3.121  12.455  0.7846  0.2403  0.5719
 3621SOL     OW22321   2.292   4.636   8.122 -0.5809 -0.2051  0.0331
 3621SOL    HW122322   2.205   4.598   8.113 -0.5544 -0.5557  1.2484
 3621SOL    HW222323   2.267   4.710   8.177 -0.0794 -0.3700  0.4828
 3622SOL     OW22324   0.323   3.196   8.607 -0.1310  0.7947 -1.2177
 3622SOL    HW122325   0.412   3.231   8.600  0.5832 -0.9562 -0.8218
 3622SOL    HW222326   0.273   3.267   8.567 -1.7366 -0.2867 -1.1240
 3623SOL     OW22327   0.157   2.355  14.156 -0.2428  0.3534  0.7020
 3623SOL    HW122328   0.074   2.308  14.163  0.5360 -0.9410  1.4979
 3623SOL    HW222329   0.132   2.437  14.113 -0.5188 -0.4876 -0.7325
 3624SOL     OW22330   2.968   0.116   9.266 -0.5777 -0.4229 -0.0513
 3624SOL    HW122331   2.898   0.181   9.274 -0.3290  0.0743 -1.8842
 3624SOL    HW222332   2.989   0.124   9.172  0.2423  1.0201  0.2455
 3625SOL     OW22333   1.251   0.215   6.279 -0.5427 -0.0584  0.3225
 3625SOL    HW122334   1.302   0.214   6.360 -1.2579 -0.2834  0.7696
 3625SOL    HW222335   1.249   0.309   6.260 -1.4052 -0.2587 -0.5673
 3626SOL     OW22336   0.370   2.995  16.243  0.6207 -0.4781  0.1506
 3626SOL    HW122337   0.281   3.000  16.278  0.2964  0.4887 -0.8213
 3626SOL    HW222338   0.354   3.034  16.158 -0.1983  1.1834  1.0810
 3627SOL     OW22339   3.116   1.660   3.278  0.1070  0.7662  0.2521
 3627SOL    HW122340   3.126   1.601   3.203 -2.5662 -1.1593  1.4099
 3627SOL    HW222341   3.028   1.641   3.310  0.3865  0.2909  0.7410
 3628SOL     OW22342   1.986   3.915   8.804 -0.1259  0.6612  0.2204
 3628SOL    HW122343   2.047   3.842   8.792  0.7383  1.3999  0.1283
 3628SOL    HW222344   2.003   3.969   8.727  0.2493 -0.0982 -0.2400
 3629SOL     OW22345   0.005   0.422   5.868  0.0965 -0.1879  0.1923
 3629SOL    HW122346   4.668   0.392   5.937 -0.6338 -1.2474 -0.8909
 3629SOL    HW222347   4.689   0.401   5.782  0.1885 -1.9127  0.5894
 3630SOL     OW22348   1.245   1.677  10.785  0.0975 -0.0612 -0.0042
 3630SOL    HW122349   1.327   1.718  10.814 -0.2095  0.4380  0.1505
 3630SOL    HW222350   1.226   1.725  10.704  2.4523  1.4071  0.3197
 3631SOL     OW22351   3.858   0.530  16.724 -0.3073 -0.1036 -0.2077
 3631SOL    HW122352   3.900   0.610  16.694 -1.3688 -0.2065 -2.0053
 3631SOL    HW222353   3.875   0.478  16.645 -1.4945 -1.6112  0.5184
 3632SOL     OW22354   1.471   0.532  16.145 -0.1758  0.2855  0.4948
 3632SOL    HW122355   1.391   0.543  16.197 -0.8048  0.2063 -0.4549
 3632SOL    HW222356   1.467   0.440  16.119 -2.1499  0.3196  0.6374
 3633SOL     OW22357   0.673   0.089   4.247  0.1684  0.0321  0.8464
 3633SOL    HW122358   0.761   0.075   4.211  0.3458 -0.3887  1.4471
 3633SOL    HW222359   0.683   0.074   4.341 -0.5820 -2.8435  0.4727
 3634SOL     OW22360   1.471   3.229  13.017 -0.3088  0.2383 -0.1379
 3634SOL    HW122361   1.444   3.236  13.109 -0.2676  2.4550 -0.2785
 3634SOL    HW222362   1.528   3.154  13.030  2.3601  2.5186  1.3429
 3635SOL     OW22363   1.895   4.656   6.131  0.2431 -0.6031 -0.2314
 3635SOL    HW122364   1.971   4.664   6.189 -0.2212 -0.9033  0.4113
 3635SOL    HW222365   1.911   0.015   6.083  0.3503 -0.2435  0.4108
 3636SOL     OW22366   1.957   0.911   2.059  0.5529  0.2004 -0.1151
 3636SOL    HW122367   1.930   1.002   2.046  1.1391  0.4441  0.3291
 3636SOL    HW222368   1.886   0.878   2.114 -1.1494 -1.1500 -3.1761
 3637SOL     OW22369   0.351   4.561   8.533  0.0804 -0.3633 -0.2841
 3637SOL    HW122370   0.385   4.477   8.566 -0.4020  0.0318  1.2233
 3637SOL    HW222371   0.393   4.618   8.597  0.7194  0.0442 -1.0612
 3638SOL     OW22372   2.722   3.508   4.910 -0.2248 -0.2834 -1.0004
 3638SOL    HW122373   2.759   3.441   4.852 -0.7568 -1.2003 -0.2970
 3638SOL    HW222374   2.672   3.562   4.850  0.8215  1.5977 -0.1605
 3639SOL     OW22375   3.419   0.487   0.292  0.1523 -0.1894 -0.1399
 3639SOL    HW122376   3.355   0.536   0.241 -0.5386 -0.8000  0.1296
 3639SOL    HW222377   3.383   0.475   0.380 -0.6287  0.8233 -0.3222
 3640SOL     OW22378   0.116   0.653   5.945 -0.4131  0.0740  0.1718
 3640SOL    HW122379   0.053   0.713   5.984  0.0601 -0.8230  2.2958
 3640SOL    HW222380   0.066   0.576   5.919 -3.0893  1.5282  0.9840
 3641SOL     OW22381   3.931   1.711  15.882 -0.5276 -0.0340  0.4033
 3641SOL    HW122382   3.878   1.708  15.962 -2.8529 -2.9514 -1.2355
 3641SOL    HW222383   4.023   1.708  15.907 -1.0710 -0.5366  2.3593
 3642SOL     OW22384   3.945   2.762   0.418 -0.4676  0.1378 -0.7601
 3642SOL    HW122385   3.918   2.755   0.510 -1.6383  1.6759 -1.0056
 3642SOL    HW222386   3.875   2.814   0.380  0.5635  2.1895  0.1206
 3643SOL     OW22387   0.509   3.492  10.971 -0.3575 -0.5958  0.4386
 3643SOL    HW122388   0.451   3.499  10.895  1.1357  0.9741 -0.5529
 3643SOL    HW222389   0.461   3.425  11.020  0.2395 -1.7935 -0.6161
 3644SOL     OW22390   4.327   0.645   9.673  0.0923  0.0763  0.0990
 3644SOL    HW122391   4.310   0.642   9.767  0.9929 -0.5116  0.2458
 3644SOL    HW222392   4.334   0.740   9.665  0.7389  0.1987  2.2047
 3645SOL     OW22393   4.442   2.928   5.033  0.4411 -0.3612  0.5578
 3645SOL    HW122394   4.358   2.952   4.993  0.6046  0.7979  0.9162
 3645SOL    HW222395   4.412   2.855   5.087 -1.6835 -0.1760 -0.3764
 3646SOL     OW22396   2.605   4.710   1.817 -0.2934  0.5403  0.2199
 3646SOL    HW122397   2.564   4.666   1.743 -2.8337  0.3043  1.7811
 3646SOL    HW222398   2.639   0.063   1.769 -0.7829  1.1523  0.8493
 3647SOL     OW22399   3.509   2.748   1.111 -0.1078 -0.8580 -0.2678
 3647SOL    HW122400   3.570   2.778   1.179 -0.3440 -1.8408  0.3763
 3647SOL    HW222401   3.500   2.660   1.147  2.1106 -1.0398 -0.1458
 3648SOL     OW22402   2.274   3.093   1.368  0.2933 -0.5524 -0.0698
 3648SOL    HW122403   2.255   3.120   1.458 -1.2159 -2.2076  0.1165
 3648SOL    HW222404   2.301   3.001   1.377 -0.3795 -0.6323  1.2473
 3649SOL     OW22405   3.549   2.831   8.462  0.4009 -0.6526 -0.1169
 3649SOL    HW122406   3.591   2.901   8.512  1.1552 -1.2372  0.0805
 3649SOL    HW222407   3.484   2.881   8.413 -0.9293 -1.2416  1.0636
 3650SOL     OW22408   1.474   0.130   5.033 -0.4515 -0.2261  0.2797
 3650SOL    HW122409   1.454   0.127   4.939  0.2121  1.5092  0.0704
 3650SOL    HW222410   1.391   0.157   5.072  0.0959  1.5991  0.1795
 3651SOL     OW22411   1.629   2.208   8.446 -0.9869  0.1675  0.2753
 3651SOL    HW122412   1.637   2.258   8.365 -2.3579  1.5551  1.0018
 3651SOL    HW222413   1.545   2.163   8.435 -1.8938  2.4808 -2.1050
 3652SOL     OW22414   0.160   1.629  10.899  0.2329  1.0045  0.1317
 3652SOL    HW122415   0.163   1.687  10.823  0.2981  2.7741  1.4819
 3652SOL    HW222416   0.081   1.657  10.946 -2.0078 -0.1530 -2.9909
 3653SOL     OW22417   0.746   3.464  11.400  0.1419  0.4069 -0.7624
 3653SOL    HW122418   0.766   3.370  11.401  0.8646  0.5611 -0.7438
 3653SOL    HW222419   0.816   3.504  11.348  0.0274  0.0703 -1.1755
 3654SOL     OW22420   4.041   1.531   4.605  0.0667  0.3331 -0.0439
 3654SOL    HW122421   4.078   1.618   4.616  0.6536  0.2076 -0.9760
 3654SOL    HW222422   4.015   1.502   4.693 -0.5585  2.4830  0.4701
 3655SOL     OW22423   1.153   1.835  16.282  0.5562 -0.2025 -0.3626
 3655SOL    HW122424   1.097   1.866  16.353  2.1464  0.1183  0.7688
 3655SOL    HW222425   1.238   1.874  16.306  0.2272  0.7501 -0.7723
 3656SOL     OW22426   3.337   0.131  12.653  0.0771  0.0560  0.0246
 3656SOL    HW122427   3.377   0.077  12.584  2.9728  1.6642  0.4607
 3656SOL    HW222428   3.413   0.147  12.708  0.1977 -3.3605  0.8473
 3657SOL     OW22429   1.214   2.996   8.022  0.4475 -0.3329 -0.2095
 3657SOL    HW122430   1.248   3.050   7.951  0.3512  0.9528  0.7181
 3657SOL    HW222431   1.124   3.028   8.021  0.6665  0.3120  0.5739
 3658SOL     OW22432   3.808   1.809   5.082 -0.2946 -0.3063  0.2193
 3658SOL    HW122433   3.775   1.894   5.111 -0.9637 -0.5306  0.1066
 3658SOL    HW222434   3.733   1.750   5.077  0.2796 -0.8640 -1.7126
 3659SOL     OW22435   3.926   0.570   5.924 -0.4807 -1.1168 -0.7600
 3659SOL    HW122436   3.923   0.610   6.011 -0.0860  0.7267 -1.5901
 3659SOL    HW222437   3.890   0.639   5.868 -0.5162 -0.1428  0.4542
 3660SOL     OW22438   0.001   2.929   5.036 -0.6071 -0.2467  0.6966
 3660SOL    HW122439   4.630   2.917   5.023 -0.7488 -0.3175  1.7663
 3660SOL    HW222440   0.010   2.935   5.131 -0.7875  0.1311  0.6887
 3661SOL     OW22441   3.042   3.029   7.616 -0.4043  0.0676  0.6101
 3661SOL    HW122442   3.060   2.998   7.527  0.5970  1.2110  0.4120
 3661SOL    HW222443   3.095   2.963   7.661  0.7177  0.4321 -0.1813
 3662SOL     OW22444   3.107   0.718   3.412 -0.1830 -0.0249 -0.4322
 3662SOL    HW122445   3.038   0.778   3.382  0.9702  1.0405 -0.9390
 3662SOL    HW222446   3.182   0.774   3.392  0.8548 -1.7769 -1.3935
 3663SOL     OW22447   3.169   1.881  11.072 -0.0717  0.4421 -0.5296
 3663SOL    HW122448   3.203   1.820  11.137  0.4737  0.3684 -0.8911
 3663SOL    HW222449   3.238   1.947  11.073 -0.8406  1.1897  1.8725
 3664SOL     OW22450   2.371   3.173   2.533  0.3835  0.2122 -0.0521
 3664SOL    HW122451   2.408   3.217   2.609  1.7824 -0.5563 -0.2785
 3664SOL    HW222452   2.278   3.192   2.544  0.3536  0.0026  0.0621
 3665SOL     OW22453   3.037   4.107   7.274  0.1944  0.7507  0.0124
 3665SOL    HW122454   3.079   4.192   7.286  0.5340  0.6584 -0.5353
 3665SOL    HW222455   3.071   4.079   7.189  0.9620  1.0235  0.2324
 3666SOL     OW22456   2.293   2.311   7.397  0.2041  0.8134 -0.3923
 3666SOL    HW122457   2.228   2.265   7.451 -1.4406  2.9977 -0.5135
 3666SOL    HW222458   2.235   2.371   7.351  0.0328  0.6093 -0.4417
 3667SOL     OW22459   2.306   2.751  13.479  0.1553  0.3535 -0.2013
 3667SOL    HW122460   2.336   2.678  13.426 -2.0158 -0.3093 -0.5222
 3667SOL    HW222461   2.262   2.805  13.413 -0.2818  0.1951 -0.0370
 3668SOL     OW22462   1.369   3.685   4.482 -0.4096  0.5750 -0.1269
 3668SOL    HW122463   1.297   3.650   4.430 -1.5851  2.6859  0.0585
 3668SOL    HW222464   1.445   3.648   4.437 -0.4554  0.5788 -0.2073
 3669SOL     OW22465   0.056   3.182   7.256  0.0396  0.2327  0.3638
 3669SOL    HW122466   4.695   3.217   7.224 -0.3108  0.3337  1.4197
 3669SOL    HW222467   0.111   3.242   7.204 -0.5165 -0.3779 -0.9421
 3670SOL     OW22468   0.191   1.421   6.445  0.0254  0.0420 -0.3259
 3670SOL    HW122469   0.167   1.496   6.499  2.8152  1.3384 -0.9075
 3670SOL    HW222470   0.284   1.438   6.434  0.3712 -0.9816  1.0042
 3671SOL     OW22471   0.421   1.259   4.144 -0.2950 -0.4921 -0.1912
 3671SOL    HW122472   0.438   1.353   4.137 -1.2137 -0.3362 -0.3275
 3671SOL    HW222473   0.458   1.246   4.231  0.9394  1.9286 -0.3666
 3672SOL     OW22474   4.187   0.508   5.055 -0.1592 -0.5066  0.4620
 3672SOL    HW122475   4.135   0.487   5.133 -3.0616  0.7825 -1.1168
 3672SOL    HW222476   4.246   0.434   5.062  0.4275  0.1494  2.6746
 3673SOL     OW22477   4.088   1.402   7.235 -0.0519  0.7175  0.2062
 3673SOL    HW122478   4.041   1.393   7.318  2.1815  2.5668  1.6597
 3673SOL    HW222479   4.052   1.483   7.198 -1.7724  1.0652  2.6437
 3674SOL     OW22480   1.335   0.958   3.370  0.6338 -0.3234 -0.2288
 3674SOL    HW122481   1.248   0.935   3.401  0.0823  1.1440 -0.6977
 3674SOL    HW222482   1.374   0.871   3.377 -0.8759 -0.9031  0.7283
 3675SOL     OW22483   1.662   3.980   5.270  0.0002  0.1602  0.1070
 3675SOL    HW122484   1.694   3.910   5.214  0.7995  0.5186  0.1146
 3675SOL    HW222485   1.740   4.031   5.293  0.0215  0.7956 -1.3538
 3676SOL     OW22486   3.926   2.635   0.960  0.3589 -0.3670 -0.3103
 3676SOL    HW122487   3.896   2.548   0.987 -0.0118  0.3038  1.4648
 3676SOL    HW222488   3.898   2.677   1.041 -0.5822 -0.3574 -0.6463
 3677SOL     OW22489   2.942   1.119   9.485 -0.4138  0.1278 -0.0661
 3677SOL    HW122490   3.035   1.132   9.504 -0.9999  1.5795  1.7202
 3677SOL    HW222491   2.952   1.104   9.391 -1.0792  1.1740 -0.2980
 3678SOL     OW22492   2.575   4.635  15.569 -0.0238  0.1182 -0.3022
 3678SOL    HW122493   2.584   4.544  15.598  0.4860  0.7370  1.4545
 3678SOL    HW222494   2.660   4.661  15.534 -0.1026  1.2674  0.3792
 3679SOL     OW22495   3.843   0.257   9.045 -0.8618 -0.6055 -0.4751
 3679SOL    HW122496   3.804   0.224   8.964 -1.9817  1.7271 -0.8691
 3679SOL    HW222497   3.872   0.347   9.029  0.3739 -0.9446 -0.1997
 3680SOL     OW22498   4.291   1.853   2.924  0.3291 -0.0714 -0.0592
 3680SOL    HW122499   4.225   1.784   2.920  0.6149 -0.2168 -2.5164
 3680SOL    HW222500   4.366   1.796   2.939  2.1970  2.6533  0.8368
 3681SOL     OW22501   0.119   2.511   6.210 -0.0772 -0.1686  0.5466
 3681SOL    HW122502   0.123   2.564   6.130 -2.0450  0.3542  0.7804
 3681SOL    HW222503   0.023   2.501   6.212  0.0853 -2.1815 -1.1087
 3682SOL     OW22504   2.637   0.799   3.644  0.1849 -0.0169  0.1896
 3682SOL    HW122505   2.706   0.745   3.607 -1.9912 -3.2174  0.7693
 3682SOL    HW222506   2.615   0.748   3.722 -0.9724 -0.4509 -0.4308
 3683SOL     OW22507   3.123   0.516   4.941 -0.1280 -0.4433  0.7505
 3683SOL    HW122508   3.089   0.462   5.013  0.3461  0.1718  1.4473
 3683SOL    HW222509   3.155   0.587   4.996 -0.6537 -0.3920  0.9904
 3684SOL     OW22510   4.453   0.594  17.636 -0.2059  0.1356 -0.3271
 3684SOL    HW122511   4.549   0.595  17.639 -0.3137  0.7757  2.3498
 3684SOL    HW222512   4.434   0.501  17.626  0.4018  0.1052 -1.2493
 3685SOL     OW22513   0.186   3.754   6.255 -0.0080 -0.0061 -0.0274
 3685SOL    HW122514   0.187   3.693   6.329 -0.8816  0.1663  0.1267
 3685SOL    HW222515   0.129   3.712   6.190  2.7414 -1.0867 -1.7393
 3686SOL     OW22516   0.922   3.031   2.432  0.0312  0.4665 -0.0653
 3686SOL    HW122517   0.827   3.022   2.429  0.4115 -3.3121 -1.9208
 3686SOL    HW222518   0.924   3.118   2.393  2.9826  0.3953 -0.0727
 3687SOL     OW22519   4.386   3.000  11.519 -0.5685 -0.6271 -0.0669
 3687SOL    HW122520   4.421   3.051  11.446  2.0132 -1.3853  0.6398
 3687SOL    HW222521   4.460   2.944  11.544 -1.2934 -1.0802  1.0620
 3688SOL     OW22522   1.549   0.049   8.302  0.3268 -0.5733  0.4159
 3688SOL    HW122523   1.584   4.692   8.261  0.2271 -0.5370  0.2575
 3688SOL    HW222524   1.547   0.108   8.226 -1.2050 -0.7531  0.3202
 3689SOL     OW22525   4.489   2.371   2.492  0.0353 -0.3026  0.0246
 3689SOL    HW122526   4.407   2.397   2.535  1.5055  1.3000  1.8606
 3689SOL    HW222527   4.508   2.448   2.439  1.2840  0.6230  1.8439
 3690SOL     OW22528   1.251   2.231   3.391  0.2859  0.3048  0.0372
 3690SOL    HW122529   1.197   2.231   3.470  1.0588 -2.6713  0.5456
 3690SOL    HW222530   1.277   2.140   3.384 -2.3177 -0.6463  2.5533
 3691SOL     OW22531   0.797   4.061  10.245  0.3289  0.1220  0.3505
 3691SOL    HW122532   0.773   4.144  10.204 -2.3518  0.1990  2.0582
 3691SOL    HW222533   0.712   4.024  10.270  0.8262 -1.7084 -0.6334
 3692SOL     OW22534   0.278   2.362   3.921 -0.1261 -0.3632  0.0229
 3692SOL    HW122535   0.319   2.418   3.986  1.4781  0.0749 -1.3600
 3692SOL    HW222536   0.192   2.403   3.914  0.4842  1.0005  0.3567
 3693SOL     OW22537   3.402   2.853   2.012 -0.4292 -0.6249 -0.1095
 3693SOL    HW122538   3.396   2.772   2.062  0.0982 -0.0138  0.9371
 3693SOL    HW222539   3.313   2.888   2.019  0.4950  2.0929 -1.9020
 3694SOL     OW22540   1.996   3.506   6.524 -0.0782  0.1310  0.0966
 3694SOL    HW122541   2.066   3.531   6.584  1.0253 -2.0672 -0.2649
 3694SOL    HW222542   2.018   3.414   6.506  0.6805 -0.0735  2.1191
 3695SOL     OW22543   0.507   1.533   4.970  0.0416 -0.1943 -0.2294
 3695SOL    HW122544   0.568   1.502   4.904  1.1734 -2.1106  1.6998
 3695SOL    HW222545   0.557   1.588   5.031 -1.4059  0.5963  0.2530
 3696SOL     OW22546   0.673   2.500   8.832 -0.0808  0.1402 -0.0705
 3696SOL    HW122547   0.578   2.507   8.834  0.0256  1.1767  1.0357
 3696SOL    HW222548   0.693   2.438   8.762 -0.3859  1.4089 -1.2796
 3697SOL     OW22549   0.613   4.215  11.950 -0.5532 -0.0649 -0.4277
 3697SOL    HW122550   0.590   4.130  11.911  1.5196 -0.6340 -0.4170
 3697SOL    HW222551   0.547   4.213  12.019  0.4572 -0.6594  0.5233
 3698SOL     OW22552   0.865   0.395   1.197 -0.4816  0.2326  0.4006
 3698SOL    HW122553   0.896   0.485   1.192 -1.1264  0.3572 -1.2176
 3698SOL    HW222554   0.770   0.402   1.197 -0.3806  1.4491  3.8994
 3699SOL     OW22555   2.205   3.342   4.286 -0.1118  0.4719 -0.1102
 3699SOL    HW122556   2.287   3.301   4.257  0.7025  1.1646  1.2345
 3699SOL    HW222557   2.182   3.290   4.362  1.0536 -2.7224 -1.9391
 3700SOL     OW22558   3.359   4.157   2.883  0.2915  0.5935 -0.4161
 3700SOL    HW122559   3.414   4.080   2.867 -0.7036 -0.1332 -0.3388
 3700SOL    HW222560   3.352   4.156   2.979 -0.1429  1.3012 -0.4418
 3701SOL     OW22561   0.111   3.027  16.265  0.2487 -0.0118 -0.4160
 3701SOL    HW122562   0.071   2.941  16.279  0.2290  0.2517  1.2071
 3701SOL    HW222563   0.044   3.085  16.302  2.3347  1.9314  0.2839
 3702SOL     OW22564   2.916   4.282   5.899 -0.3653  0.4553  0.3986
 3702SOL    HW122565   2.979   4.210   5.907 -1.1498 -0.2776 -0.1366
 3702SOL    HW222566   2.964   4.349   5.850 -2.1201  0.9542 -0.6012
 3703SOL     OW22567   2.140   3.405  10.419 -0.0822 -0.3499  0.2630
 3703SOL    HW122568   2.130   3.434  10.510  0.4833  0.8271 -0.0473
 3703SOL    HW222569   2.139   3.493  10.382  0.4356 -1.0959 -1.4815
 3704SOL     OW22570   1.998   0.989   7.062 -0.8519  0.0301 -1.4176
 3704SOL    HW122571   2.057   0.972   7.135  1.2459  0.7812 -2.9179
 3704SOL    HW222572   2.010   1.084   7.062  1.8772 -0.2989  0.8461
 3705SOL     OW22573   2.800   0.034   5.838 -0.1906 -0.4230  0.0534
 3705SOL    HW122574   2.790   4.703   5.760 -0.3763  1.3944 -1.1599
 3705SOL    HW222575   2.895   0.043   5.848 -0.0956 -1.9138  0.4222
 3706SOL     OW22576   0.944   4.208   4.798 -0.5848 -0.1429 -0.1163
 3706SOL    HW122577   0.874   4.213   4.864 -0.2563  2.3624  0.0515
 3706SOL    HW222578   0.904   4.145   4.738 -0.1852  0.0897 -0.6251
 3707SOL     OW22579   2.105   0.118  14.928  0.2239 -0.4647 -0.4910
 3707SOL    HW122580   2.049   0.168  14.868 -0.5042  1.2380  1.6056
 3707SOL    HW222581   2.039   0.065  14.972  1.2330  0.8661  2.6671
 3708SOL     OW22582   3.879   2.264   5.094  0.6148  0.0204 -0.5113
 3708SOL    HW122583   3.911   2.321   5.164  0.8929 -0.6466 -0.0964
 3708SOL    HW222584   3.841   2.192   5.145 -1.6270  0.5285 -1.4745
 3709SOL     OW22585   2.925   3.266   7.635  0.1302  0.0883  0.1066
 3709SOL    HW122586   2.948   3.174   7.646  0.8807  0.4038  1.1510
 3709SOL    HW222587   2.974   3.301   7.561  1.9227 -3.0263 -0.1711
 3710SOL     OW22588   1.913   2.022   3.642 -0.2224 -0.8258  0.4985
 3710SOL    HW122589   1.919   1.933   3.679  0.3897  0.2437  2.9955
 3710SOL    HW222590   1.966   2.075   3.702  1.3392 -0.4827 -1.2059
 3711SOL     OW22591   1.578   1.996  11.667  0.0449 -0.2314  0.3908
 3711SOL    HW122592   1.507   2.003  11.731 -0.6702 -1.1562 -0.3225
 3711SOL    HW222593   1.540   2.044  11.594  0.6565 -1.8207 -0.9711
 3712SOL     OW22594   1.890   2.798   7.067 -0.0678 -0.0408 -0.1332
 3712SOL    HW122595   1.837   2.865   7.024 -0.2850 -0.3423 -0.3354
 3712SOL    HW222596   1.955   2.775   7.001  0.1093  1.0226 -0.3239
 3713SOL     OW22597   2.416   2.443   4.447  0.3928  0.5366  0.4217
 3713SOL    HW122598   2.511   2.452   4.449  0.3422  1.2480 -0.4068
 3713SOL    HW222599   2.394   2.444   4.540  0.3369  0.6700  0.4061
 3714SOL     OW22600   1.609   1.265   8.905 -0.2758  0.2396 -0.1367
 3714SOL    HW122601   1.646   1.247   8.818 -0.5267 -0.5183 -0.0920
 3714SOL    HW222602   1.534   1.320   8.882 -1.2607 -1.0452  0.0098
 3715SOL     OW22603   0.845   3.681  16.090 -0.1277 -0.6996 -0.0054
 3715SOL    HW122604   0.864   3.751  16.152 -1.1153  1.1920 -1.7973
 3715SOL    HW222605   0.926   3.678  16.038 -1.2323 -0.1526 -1.7628
 3716SOL     OW22606   2.760   3.592   4.498  0.3401  0.4636  1.0668
 3716SOL    HW122607   2.814   3.590   4.577  3.2825 -2.1006 -0.9774
 3716SOL    HW222608   2.744   3.685   4.486 -0.7410  0.4659  2.5081
 3717SOL     OW22609   0.922   3.968   7.901 -0.3216 -0.4393 -0.1487
 3717SOL    HW122610   0.913   3.874   7.883  0.8087  0.0332 -3.1450
 3717SOL    HW222611   1.012   3.987   7.876 -0.0073 -1.4791  0.1740
 3718SOL     OW22612   0.224   1.042   2.650  0.0490 -0.1007 -0.7805
 3718SOL    HW122613   0.159   1.097   2.606 -1.7631 -0.7616  1.1008
 3718SOL    HW222614   0.230   1.083   2.736 -0.6694 -0.5968 -0.5007
 3719SOL     OW22615   3.811   2.886   8.276  0.5227  0.5511  0.0548
 3719SOL    HW122616   3.850   2.868   8.361 -2.7706  3.4256  2.1605
 3719SOL    HW222617   3.722   2.905   8.302  0.5150 -0.4581  0.7546
 3720SOL     OW22618   4.089   1.039   7.020 -0.2108 -0.0769 -0.6634
 3720SOL    HW122619   4.136   1.002   6.945  2.5576 -0.9493  1.5134
 3720SOL    HW222620   4.152   1.100   7.059 -0.5635  0.0436 -0.2825
 3721SOL     OW22621   0.057   3.514  11.560  1.0203 -0.1273 -0.1032
 3721SOL    HW122622   0.047   3.609  11.559  2.9208  0.0834  0.1710
 3721SOL    HW222623   4.689   3.485  11.554  0.5278  1.8360 -2.0132
 3722SOL     OW22624   1.636   2.042   0.948 -1.1843 -0.1231  0.3382
 3722SOL    HW122625   1.642   2.002   1.035  0.1461 -1.0009 -0.1630
 3722SOL    HW222626   1.549   2.083   0.940 -1.0138 -0.4357 -2.8677
 3723SOL     OW22627   3.983   3.523   6.302 -0.0637  0.5448  0.0060
 3723SOL    HW122628   3.983   3.569   6.217  1.2522 -0.6681 -0.6419
 3723SOL    HW222629   3.889   3.528   6.320  0.0311 -0.5237  0.7259
 3724SOL     OW22630   4.571   4.660   2.725 -0.4247  0.2881 -0.2516
 3724SOL    HW122631   4.589   4.584   2.670  2.4506  1.6110 -1.1075
 3724SOL    HW222632   4.491   4.627   2.767 -0.7179  0.3348 -0.7660
 3725SOL     OW22633   0.643   2.567   6.059 -0.0689 -0.4206 -0.7482
 3725SOL    HW122634   0.679   2.649   6.093 -0.4948 -1.4994  2.3259
 3725SOL    HW222635   0.704   2.543   5.990  1.4146 -0.9304  0.7377
 3726SOL     OW22636   1.041   3.094  10.943 -0.0687 -0.2474 -0.3135
 3726SOL    HW122637   0.997   3.065  11.023 -1.3729 -0.8697 -1.2648
 3726SOL    HW222638   1.013   3.033  10.876 -0.7779 -0.4730  0.1887
 3727SOL     OW22639   2.205   3.319   0.972  0.1237 -0.3632  0.2255
 3727SOL    HW122640   2.144   3.296   1.043  0.1341 -1.7354 -0.2139
 3727SOL    HW222641   2.262   3.243   0.961  1.0543  0.5469 -1.0962
 3728SOL     OW22642   3.158   0.513   5.233 -0.2486  0.1817  0.1954
 3728SOL    HW122643   3.118   0.597   5.211  2.4171  1.8461  1.7193
 3728SOL    HW222644   3.209   0.541   5.309 -2.8650 -0.3340  2.1253
 3729SOL     OW22645   0.730   2.188   4.075 -0.2585  0.4416  0.2230
 3729SOL    HW122646   0.670   2.172   4.148  1.5162 -0.1272  1.5475
 3729SOL    HW222647   0.762   2.098   4.070 -1.5219 -0.1576  2.9026
 3730SOL     OW22648   0.456   1.417   3.877  0.0055 -0.4216 -0.1794
 3730SOL    HW122649   0.369   1.437   3.911  0.3847 -1.3653  1.3454
 3730SOL    HW222650   0.508   1.445   3.952 -0.2637  0.7590 -0.4420
 3731SOL     OW22651   1.991   3.144   8.285  0.5337 -0.1060 -0.1593
 3731SOL    HW122652   1.934   3.146   8.209 -0.2792  0.2344  0.4514
 3731SOL    HW222653   1.953   3.080   8.345 -2.2814  1.3355 -0.4151
 3732SOL     OW22654   2.319   1.387  12.363  0.0234  0.2272 -0.0791
 3732SOL    HW122655   2.306   1.444  12.288 -0.9195 -0.4842 -0.4562
 3732SOL    HW222656   2.291   1.449  12.431 -1.5884 -1.3622  0.7263
 3733SOL     OW22657   2.678   3.390   3.586 -0.7333  0.5453 -0.1983
 3733SOL    HW122658   2.745   3.449   3.621 -1.1736 -1.5915  4.2867
 3733SOL    HW222659   2.681   3.311   3.641 -0.1520  0.8927  0.2681
 3734SOL     OW22660   0.863   1.640  11.841 -0.2839  0.7234  0.2603
 3734SOL    HW122661   0.907   1.567  11.885  1.3189  1.0138 -0.8600
 3734SOL    HW222662   0.917   1.664  11.766 -0.0317  0.0482  0.2289
 3735SOL     OW22663   4.153   2.053   3.044  0.3609  0.2106 -0.2825
 3735SOL    HW122664   4.188   1.982   2.990  3.0373  2.9320 -2.1205
 3735SOL    HW222665   4.137   1.998   3.120  0.0171  0.1572 -0.3930
 3736SOL     OW22666   0.586   0.367   8.647  0.1197  0.1696  0.1132
 3736SOL    HW122667   0.559   0.432   8.582  1.0720 -0.4283 -0.8948
 3736SOL    HW222668   0.617   0.423   8.717 -0.8723  1.1394 -0.2398
 3737SOL     OW22669   4.541   2.383  12.215  0.3096  0.3235 -0.4042
 3737SOL    HW122670   4.538   2.435  12.295 -2.2680  1.9706 -1.5821
 3737SOL    HW222671   4.564   2.300  12.256 -1.8653 -0.8225 -1.4836
 3738SOL     OW22672   2.702   0.508   0.317  0.3478  0.3756  0.0048
 3738SOL    HW122673   2.738   0.476   0.400  2.6860  2.2412 -0.2568
 3738SOL    HW222674   2.661   0.437   0.268  2.2061  0.3905 -1.5833
 3739SOL     OW22675   2.465   3.931  15.419  0.1720  0.2763 -0.3468
 3739SOL    HW122676   2.536   3.913  15.358  0.2093  0.7402 -0.4424
 3739SOL    HW222677   2.391   3.906  15.363 -0.7954  0.1290  0.9915
 3740SOL     OW22678   2.969   0.439   9.596  0.5613 -0.4484  0.0545
 3740SOL    HW122679   2.944   0.347   9.592 -3.4142  0.6570 -0.0138
 3740SOL    HW222680   2.887   0.469   9.634  0.6365 -1.9478  1.4109
 3741SOL     OW22681   4.522   2.329   1.841  0.2918 -0.0621 -0.4884
 3741SOL    HW122682   4.612   2.340   1.870  0.6863 -0.4678 -1.5699
 3741SOL    HW222683   4.535   2.311   1.748  0.0879  1.7843 -0.8642
 3742SOL     OW22684   1.390   2.069  10.359  0.1769 -0.0431 -0.1448
 3742SOL    HW122685   1.333   2.065  10.435  2.7640  2.5723  1.9137
 3742SOL    HW222686   1.478   2.045  10.388  0.1306  0.3235  0.2911
 3743SOL     OW22687   4.011   4.617  10.561  0.3783 -0.7741 -0.3355
 3743SOL    HW122688   4.086   4.576  10.519  0.7046  0.0958 -0.6027
 3743SOL    HW222689   3.964   4.542  10.597  0.9668 -0.9711  0.0193
 3744SOL     OW22690   3.540   3.374   2.898 -0.0256  0.7720  0.2346
 3744SOL    HW122691   3.476   3.434   2.859 -0.3426 -0.7921 -1.6239
 3744SOL    HW222692   3.596   3.430   2.951  0.9327  0.2601 -0.2336
 3745SOL     OW22693   1.786   1.088   6.149  0.4031 -0.6698  0.5302
 3745SOL    HW122694   1.799   1.001   6.113  0.5991 -0.9728  1.3268
 3745SOL    HW222695   1.711   1.074   6.206 -0.6776 -0.1726 -0.7743
 3746SOL     OW22696   1.911   3.755  15.624  0.4287  0.3052 -0.4932
 3746SOL    HW122697   1.993   3.746  15.575 -0.4447 -1.8757 -1.5694
 3746SOL    HW222698   1.880   3.667  15.600 -0.6414  0.5571 -0.0467
 3747SOL     OW22699   0.105   2.226  11.331  0.3829  0.0587 -0.5923
 3747SOL    HW122700   0.130   2.299  11.274 -0.7892 -0.8252 -2.2389
 3747SOL    HW222701   0.121   2.153  11.272 -0.1053  1.6074 -2.6231
 3748SOL     OW22702   2.783   1.041   4.956 -0.3325  0.3199  0.3361
 3748SOL    HW122703   2.854   0.982   4.931  0.1551 -0.1152  2.7354
 3748SOL    HW222704   2.792   1.116   4.897 -2.6478  0.4620  0.1803
 3749SOL     OW22705   3.351   1.656   6.308 -0.3499  0.7075  0.1543
 3749SOL    HW122706   3.346   1.588   6.242 -1.3289  0.5640  0.3735
 3749SOL    HW222707   3.339   1.608   6.390  1.3773  1.0525  0.6075
 3750SOL     OW22708   3.705   1.085   6.455 -0.5329  0.0821  0.1577
 3750SOL    HW122709   3.766   1.153   6.484  1.8492 -1.8527 -0.3555
 3750SOL    HW222710   3.618   1.126   6.450 -0.8108 -0.9464 -3.0971
 3751SOL     OW22711   2.565   2.225   8.407 -0.0107  0.0392  0.1406
 3751SOL    HW122712   2.506   2.178   8.349 -0.7841 -0.5727  1.4232
 3751SOL    HW222713   2.511   2.242   8.484  1.2953 -0.4647  1.1736
 3752SOL     OW22714   4.260   1.015   3.997  0.1896  0.3780 -0.1980
 3752SOL    HW122715   4.291   0.936   4.042  0.2208 -0.0762 -1.0173
 3752SOL    HW222716   4.194   0.978   3.939  0.7250  1.6115 -1.5730
 3753SOL     OW22717   2.235   0.489   6.353  0.0101 -0.3137 -0.0838
 3753SOL    HW122718   2.234   0.463   6.261 -0.6820  1.1357 -0.4744
 3753SOL    HW222719   2.239   0.584   6.346  3.6216 -0.5505 -1.1285
 3754SOL     OW22720   0.356   0.301   8.775 -0.5181 -0.5358  0.3745
 3754SOL    HW122721   0.434   0.321   8.724  0.4226  0.5074  2.1994
 3754SOL    HW222722   0.388   0.290   8.865  0.7712  1.2182  0.1160
 3755SOL     OW22723   2.003   2.538   6.108  0.5253  0.4436  0.1066
 3755SOL    HW122724   2.019   2.471   6.175 -1.1391 -1.8618 -1.7961
 3755SOL    HW222725   1.989   2.480   6.033 -3.1175  2.0501 -0.4570
 3756SOL     OW22726   2.249   3.630  14.797 -0.3617  0.6260  0.2555
 3756SOL    HW122727   2.323   3.636  14.737 -0.6236  1.2791 -0.0022
 3756SOL    HW222728   2.189   3.689  14.752 -0.5102  0.7600  0.6301
 3757SOL     OW22729   2.815   4.166   6.966 -0.2009 -0.0878  0.1701
 3757SOL    HW122730   2.906   4.192   6.958  0.2022 -1.6488 -0.3559
 3757SOL    HW222731   2.784   4.155   6.875  3.4204  0.8050 -1.1672
 3758SOL     OW22732   0.710   4.082   5.197  0.6373  0.3936  0.3137
 3758SOL    HW122733   0.730   4.003   5.148  0.6758 -0.2866  1.4161
 3758SOL    HW222734   0.624   4.057   5.231 -0.7278  2.2190 -1.8352
 3759SOL     OW22735   4.715   3.073   2.826  0.0537 -0.1290  0.3648
 3759SOL    HW122736   0.011   3.034   2.741  0.0327  0.4208  0.1063
 3759SOL    HW222737   4.620   3.072   2.829  0.0688 -1.1639  0.5967
 3760SOL     OW22738   4.525   1.930   7.687  0.4849 -0.2105  0.6772
 3760SOL    HW122739   4.561   1.996   7.747 -0.9535 -0.8019  2.1988
 3760SOL    HW222740   4.606   1.881   7.671  0.1340 -0.1907 -1.1431
 3761SOL     OW22741   2.339   1.700   0.781  0.0618 -0.0869 -0.3892
 3761SOL    HW122742   2.406   1.731   0.719  1.7263 -3.4867 -0.2915
 3761SOL    HW222743   2.361   1.607   0.788 -2.8024 -0.6339  1.2233
 3762SOL     OW22744   2.239   0.032  16.587  0.2325 -0.0529 -0.1875
 3762SOL    HW122745   2.260   0.006  16.676  0.0959 -0.5865 -0.3087
 3762SOL    HW222746   2.326   0.024  16.547 -0.6981 -3.6460 -1.4680
 3763SOL     OW22747   1.007   2.784  11.115 -0.3208 -0.1753  0.1993
 3763SOL    HW122748   0.932   2.732  11.144 -0.2494 -0.0289  0.6378
 3763SOL    HW222749   0.966   2.871  11.113  1.6186  0.7311 -0.1941
 3764SOL     OW22750   1.083   2.121   0.058  0.7522 -0.0344 -0.0795
 3764SOL    HW122751   1.095   2.203   0.009  1.1770 -0.0398  0.0130
 3764SOL    HW222752   0.988   2.115   0.065  0.6033  2.4730 -0.1495
 3765SOL     OW22753   4.217   4.027   7.744 -0.3788  0.4662 -0.2297
 3765SOL    HW122754   4.190   4.009   7.834 -2.7792 -0.1235 -1.0550
 3765SOL    HW222755   4.139   4.002   7.695  1.4190 -0.2833 -2.6843
 3766SOL     OW22756   4.576   0.313   5.635 -0.6799  0.5362 -0.4070
 3766SOL    HW122757   4.530   0.234   5.605  2.4414 -1.2576 -0.5558
 3766SOL    HW222758   4.650   0.316   5.574 -1.3993  1.5400 -1.2169
 3767SOL     OW22759   3.135   1.470   2.042  0.4371  0.2395 -0.5310
 3767SOL    HW122760   3.097   1.415   1.972 -0.0558 -0.7045  0.4720
 3767SOL    HW222761   3.074   1.439   2.109  1.6424  0.7513  0.7771
 3768SOL     OW22762   1.448   0.282   6.032  0.0985 -0.5935  0.2700
 3768SOL    HW122763   1.461   0.366   6.076 -0.9362  0.5069 -1.5067
 3768SOL    HW222764   1.492   0.223   6.093  1.3240 -0.7058 -0.7080
 3769SOL     OW22765   1.100   2.928   5.471  0.7233  0.1568 -0.1411
 3769SOL    HW122766   1.152   2.906   5.393  2.3768  0.8351  0.7797
 3769SOL    HW222767   1.043   2.852   5.480 -1.0859  1.5088 -0.2529
 3770SOL     OW22768   3.553   2.269  11.160 -0.2089 -0.3061 -0.1356
 3770SOL    HW122769   3.617   2.340  11.158 -0.7522  0.2768  3.3045
 3770SOL    HW222770   3.533   2.260  11.067 -0.2736  0.7642 -0.2212
 3771SOL     OW22771   4.505   4.210   6.782 -0.1312  0.3606  0.1168
 3771SOL    HW122772   4.502   4.296   6.740  1.2408 -0.4462 -1.6585
 3771SOL    HW222773   4.554   4.168   6.712 -1.5442 -0.3463 -0.4476
 3772SOL     OW22774   3.203   2.659   0.530 -0.1357  0.0722 -0.2158
 3772SOL    HW122775   3.113   2.629   0.522 -0.6381  1.0433  1.7334
 3772SOL    HW222776   3.255   2.587   0.494 -1.4402 -0.3057 -1.3428
 3773SOL     OW22777   1.490   1.981   8.435 -0.3261  0.2278  0.4054
 3773SOL    HW122778   1.401   1.954   8.409 -0.0158 -2.5942  2.2967
 3773SOL    HW222779   1.512   1.896   8.474 -0.2830 -0.9926 -2.2531
 3774SOL     OW22780   0.178   1.416  14.868  0.6306 -0.1064  0.1399
 3774SOL    HW122781   0.249   1.387  14.810  0.6895  1.8152 -0.7688
 3774SOL    HW222782   0.143   1.495  14.825 -0.5489 -0.0580  1.1848
 3775SOL     OW22783   0.867   1.735   7.279  0.1247  0.0748 -0.6586
 3775SOL    HW122784   0.948   1.785   7.295 -0.7050  1.5391 -1.0026
 3775SOL    HW222785   0.806   1.794   7.235 -1.0939  2.0571  3.6454
 3776SOL     OW22786   4.286   3.789   9.582  0.0794 -0.3536 -0.1554
 3776SOL    HW122787   4.201   3.766   9.546 -0.3769  2.4075 -0.8459
 3776SOL    HW222788   4.330   3.826   9.505 -1.8338  1.4808 -0.3671
 3777SOL     OW22789   2.057   0.712   7.424 -0.3555  0.1129  0.4131
 3777SOL    HW122790   2.047   0.799   7.463  2.0799 -0.2168  1.7783
 3777SOL    HW222791   2.141   0.684   7.461  0.1019  0.3290 -0.4621
 3778SOL     OW22792   3.959   0.613   6.206  0.0272  0.8270  0.4943
 3778SOL    HW122793   3.980   0.561   6.284  0.0742  0.2861  0.1207
 3778SOL    HW222794   3.876   0.654   6.228 -0.5937 -0.8901  1.3601
 3779SOL     OW22795   4.324   4.193  11.760 -0.4317 -0.0324  0.2779
 3779SOL    HW122796   4.295   4.279  11.791  0.8125  0.4286  0.1576
 3779SOL    HW222797   4.284   4.134  11.823  1.3278  0.2047  1.6176
 3780SOL     OW22798   0.878   0.435   4.199  0.7802  0.1872  0.2587
 3780SOL    HW122799   0.861   0.479   4.116  1.9071  0.2493  0.0651
 3780SOL    HW222800   0.940   0.364   4.183 -0.1076 -0.6229  0.4525
 3781SOL     OW22801   0.769   3.428   9.299  0.1554  0.6911  0.3446
 3781SOL    HW122802   0.810   3.343   9.313  0.2489  0.6846  0.0217
 3781SOL    HW222803   0.796   3.481   9.374 -0.1109 -0.5998  1.3525
 3782SOL     OW22804   2.761   0.560  15.777  0.4135  0.0963  0.1247
 3782SOL    HW122805   2.822   0.495  15.742  0.2422 -0.5645  1.0709
 3782SOL    HW222806   2.747   0.614  15.699  1.6178 -0.2172 -0.3143
 3783SOL     OW22807   1.732   0.323   9.462 -0.2066 -0.4080 -0.1780
 3783SOL    HW122808   1.794   0.387   9.428  0.7042 -0.5045  1.2727
 3783SOL    HW222809   1.788   0.249   9.437 -0.8507 -1.5647  1.7753
 3784SOL     OW22810   3.988   3.797   9.224 -0.1842 -0.0638  0.2275
 3784SOL    HW122811   3.979   3.796   9.129  1.1639  3.4319  0.0880
 3784SOL    HW222812   3.894   3.781   9.239 -0.2469  0.3349  0.2501
 3785SOL     OW22813   1.714   3.791   4.516  0.0228  0.1330 -0.8267
 3785SOL    HW122814   1.666   3.723   4.469  0.6410 -0.2104 -0.9600
 3785SOL    HW222815   1.706   3.853   4.442 -1.1596  0.9630  0.0082
 3786SOL     OW22816   0.686   0.935   3.015 -0.0940  0.1193 -0.0577
 3786SOL    HW122817   0.629   0.931   2.938 -0.9805  2.2717  0.4832
 3786SOL    HW222818   0.676   1.030   3.021  1.3397  0.2706 -0.0133
 3787SOL     OW22819   2.281   1.111   2.262  0.9784  0.3323 -0.1982
 3787SOL    HW122820   2.333   1.182   2.299  1.3135 -0.7501  1.3722
 3787SOL    HW222821   2.352   1.050   2.240  0.1712 -0.7859  0.2985
 3788SOL     OW22822   0.797   3.203   6.530 -0.0015  0.1242 -0.0070
 3788SOL    HW122823   0.760   3.136   6.588 -2.0826  0.3928 -0.9973
 3788SOL    HW222824   0.715   3.243   6.500 -0.7494 -1.6598 -0.3318
 3789SOL     OW22825   0.429   0.995   3.388  0.0959 -0.1868 -0.4028
 3789SOL    HW122826   0.510   0.965   3.347  0.2729  0.9725 -0.8740
 3789SOL    HW222827   0.365   0.924   3.387 -1.4718  1.1757  2.9195
 3790SOL     OW22828   2.915   3.493   5.223 -0.5711 -0.1629 -0.1888
 3790SOL    HW122829   2.887   3.424   5.283  3.5294 -0.3555  1.4912
 3790SOL    HW222830   2.831   3.509   5.179 -1.4595 -0.7151  1.2927
 3791SOL     OW22831   1.938   1.799  17.286  0.4360  0.2900  0.0760
 3791SOL    HW122832   1.955   1.707  17.270  1.2351  0.6791 -1.3336
 3791SOL    HW222833   2.029   1.827  17.279  0.2362  1.0527  0.5535
 3792SOL     OW22834   1.985   2.196  11.434  0.3536 -0.1557 -0.1421
 3792SOL    HW122835   1.924   2.124  11.424 -1.2735  1.3677 -1.1388
 3792SOL    HW222836   1.970   2.251  11.357  1.7848 -2.0222 -1.7723
 3793SOL     OW22837   3.925   1.099  14.060 -0.3805 -0.3465 -0.1215
 3793SOL    HW122838   3.926   1.151  14.140  1.0941 -2.2802  1.1041
 3793SOL    HW222839   3.932   1.011  14.095  1.0988 -0.4731 -0.7502
 3794SOL     OW22840   3.493   3.063   5.232  0.5511  0.6351 -0.1153
 3794SOL    HW122841   3.417   3.006   5.219  0.1841  0.8587  1.0748
 3794SOL    HW222842   3.447   3.146   5.245  1.1269  1.1783 -1.4894
 3795SOL     OW22843   2.489   2.318   2.875 -0.1973 -0.4395 -0.7612
 3795SOL    HW122844   2.550   2.312   2.802  2.6829 -0.2262  1.6616
 3795SOL    HW222845   2.405   2.326   2.830 -0.8739 -1.2737  0.3387
 3796SOL     OW22846   3.971   3.123   1.922 -0.0434  0.3388 -0.2291
 3796SOL    HW122847   3.895   3.120   1.980 -1.5978 -1.8769 -2.4203
 3796SOL    HW222848   4.015   3.187   1.979 -0.7184 -0.9146  1.6999
 3797SOL     OW22849   2.158   0.875   5.510  0.0941  0.0044  0.2640
 3797SOL    HW122850   2.211   0.886   5.589 -0.4293  0.1784  0.5929
 3797SOL    HW222851   2.099   0.818   5.560 -0.8937  0.9953  0.2326
 3798SOL     OW22852   0.693   2.924   1.933  0.2896  0.2335  0.1116
 3798SOL    HW122853   0.658   2.922   2.022 -0.3077  1.8284 -0.0902
 3798SOL    HW222854   0.688   3.017   1.913 -1.0596  0.6609  2.4505
 3799SOL     OW22855   3.475   0.073   2.164 -0.7333  0.0197 -0.0138
 3799SOL    HW122856   3.522   0.062   2.081 -1.4628  0.1395 -0.4534
 3799SOL    HW222857   3.390   0.108   2.137 -0.9953 -0.1815  0.5548
 3800SOL     OW22858   1.159   4.515   8.992  0.3769 -0.4409  0.3425
 3800SOL    HW122859   1.074   4.538   9.030  0.2132 -0.6056  0.0753
 3800SOL    HW222860   1.172   4.425   9.024  1.4721 -0.3685  0.0968
 3801SOL     OW22861   3.944   4.144   2.676 -0.8617  0.0380 -0.0017
 3801SOL    HW122862   3.939   4.228   2.631 -1.6497 -0.3744 -0.7010
 3801SOL    HW222863   4.003   4.094   2.619  3.1162  2.7705  1.7732
 3802SOL     OW22864   2.831   2.328   2.857 -0.4319 -0.6395 -0.5923
 3802SOL    HW122865   2.758   2.334   2.795 -1.4500 -1.8321  0.5131
 3802SOL    HW222866   2.807   2.401   2.914 -0.5083 -0.5720 -0.7101
 3803SOL     OW22867   3.831   2.380   1.831 -0.2805 -0.6522  0.7914
 3803SOL    HW122868   3.831   2.316   1.902 -0.4594 -0.3344  1.0795
 3803SOL    HW222869   3.855   2.325   1.757  0.7385  0.0600  0.5923
 3804SOL     OW22870   1.953   1.448   4.273 -0.0096  0.6610 -0.2989
 3804SOL    HW122871   1.860   1.471   4.275 -0.0726  0.4705 -1.2206
 3804SOL    HW222872   1.988   1.535   4.292  0.1784  1.0480 -2.4430
 3805SOL     OW22873   2.468   4.417   8.887  0.1592 -0.4492 -0.1473
 3805SOL    HW122874   2.422   4.373   8.959  1.8090  0.8470  1.6905
 3805SOL    HW222875   2.539   4.464   8.931 -0.1046 -2.8540  2.8580
 3806SOL     OW22876   0.968   2.458  16.646 -0.0977  0.4296  0.0517
 3806SOL    HW122877   1.054   2.464  16.607 -0.5548 -2.9757 -1.5180
 3806SOL    HW222878   0.940   2.549  16.640 -2.8745 -0.3384  0.9948
 3807SOL     OW22879   0.565   3.871   5.547  0.8036  0.0462  0.4649
 3807SOL    HW122880   0.653   3.909   5.537  0.7157 -0.3868 -1.9456
 3807SOL    HW222881   0.583   3.786   5.588  0.2131 -0.2932  0.0011
 3808SOL     OW22882   2.127   2.120  11.655 -0.4206 -0.0262  0.0317
 3808SOL    HW122883   2.086   2.159  11.577 -0.6398  1.3508  0.8409
 3808SOL    HW222884   2.100   2.029  11.643 -0.0948  0.0287 -1.1344
 3809SOL     OW22885   4.360   0.214   7.257  0.3991 -0.5279 -0.0186
 3809SOL    HW122886   4.312   0.264   7.192  0.1486 -1.4510 -0.5473
 3809SOL    HW222887   4.390   0.285   7.314 -0.4214 -1.3830  1.4714
 3810SOL     OW22888   2.780   0.613   4.347 -0.4622  0.0940 -0.3643
 3810SOL    HW122889   2.785   0.654   4.261 -1.6150 -1.6366 -1.2519
 3810SOL    HW222890   2.712   0.548   4.331  0.4818 -1.3380  1.4551
 3811SOL     OW22891   1.418   0.794   3.023 -0.1793 -0.1055  0.4378
 3811SOL    HW122892   1.440   0.876   2.980 -1.4159  0.1830  0.3568
 3811SOL    HW222893   1.498   0.772   3.070 -0.7944 -0.4360  1.3356
 3812SOL     OW22894   3.794   1.507   7.340  0.0951  0.1214 -0.2822
 3812SOL    HW122895   3.872   1.554   7.369  0.1345 -0.2396  0.1819
 3812SOL    HW222896   3.761   1.459   7.416  3.2018 -0.3765  0.7297
 3813SOL     OW22897   0.494   1.000   2.008 -0.0994 -0.1331  0.5769
 3813SOL    HW122898   0.431   1.010   2.080 -2.0434 -1.2392 -0.9658
 3813SOL    HW222899   0.563   1.052   2.049  2.6644 -0.6406 -3.4383
 3814SOL     OW22900   0.955   3.195   9.352  0.5868 -0.5275  0.0466
 3814SOL    HW122901   1.037   3.228   9.315  1.3230 -4.3000 -1.6521
 3814SOL    HW222902   0.933   3.124   9.292  0.6623 -0.1911 -0.3707
 3815SOL     OW22903   2.939   2.786   0.679 -0.3301  0.2506  0.3000
 3815SOL    HW122904   3.031   2.812   0.684  0.0656 -1.1662  0.1347
 3815SOL    HW222905   2.918   2.807   0.588  2.0484  0.8332 -0.1024
 3816SOL     OW22906   4.463   3.585   9.242 -0.2386 -0.4768 -0.1435
 3816SOL    HW122907   4.545   3.610   9.200 -0.3079 -1.3831 -0.8043
 3816SOL    HW222908   4.416   3.662   9.276  0.9396  0.5202 -0.7946
 3817SOL     OW22909   0.183   0.843   3.622 -0.3510  0.7511  0.0034
 3817SOL    HW122910   0.238   0.907   3.666 -0.5171  1.3375 -0.6519
 3817SOL    HW222911   0.236   0.765   3.639  1.0514  1.5910 -0.5601
 3818SOL     OW22912   0.668   0.603   2.742 -0.9380  0.1801 -0.3716
 3818SOL    HW122913   0.661   0.544   2.667 -1.2280  1.0381 -1.0137
 3818SOL    HW222914   0.706   0.683   2.706  0.8193  0.9681  3.2043
 3819SOL     OW22915   2.977   0.893   2.747 -0.2112  0.3704  0.0608
 3819SOL    HW122916   3.011   0.826   2.688  0.0443 -0.7067  1.4264
 3819SOL    HW222917   2.888   0.857   2.752 -0.4254  0.9424  0.4378
 3820SOL     OW22918   1.079   2.874   9.554  0.1815  0.1097 -0.1707
 3820SOL    HW122919   1.081   2.825   9.636 -2.6518 -1.2268 -0.9010
 3820SOL    HW222920   0.998   2.853   9.508  0.2260  1.8240 -1.0157
 3821SOL     OW22921   1.060   2.372   8.271  0.1301 -0.4189  0.6360
 3821SOL    HW122922   1.129   2.379   8.337  0.1769 -1.9492  0.7482
 3821SOL    HW222923   1.069   2.279   8.251  0.6286 -0.8936  3.0172
 3822SOL     OW22924   3.987   1.993   8.122  0.2049  0.1186 -0.2235
 3822SOL    HW122925   4.008   1.900   8.115  0.9085  0.3755 -1.5683
 3822SOL    HW222926   3.916   2.006   8.060 -0.0822  0.3146  0.1503
 3823SOL     OW22927   3.479   3.199   9.209 -0.3939  0.0172  0.5580
 3823SOL    HW122928   3.447   3.146   9.282  1.2819  1.7487  2.5344
 3823SOL    HW222929   3.445   3.286   9.231  0.9653  0.5338  0.5707
 3824SOL     OW22930   1.625   4.267   1.577  0.4634 -0.0799  0.5168
 3824SOL    HW122931   1.645   4.229   1.491  1.7186  0.0489  0.7472
 3824SOL    HW222932   1.568   4.344   1.566  0.5347  0.1981  2.0346
 3825SOL     OW22933   0.428   3.696   4.546  0.4475 -0.1995 -0.2869
 3825SOL    HW122934   0.349   3.747   4.565 -0.3937 -1.5782 -0.0560
 3825SOL    HW222935   0.436   3.638   4.622  2.7609  0.3256 -0.1152
 3826SOL     OW22936   1.554   3.915   1.813  0.6158  0.3393 -0.4732
 3826SOL    HW122937   1.597   3.994   1.779  1.1621 -0.2688 -1.2015
 3826SOL    HW222938   1.465   3.948   1.800  0.2729 -0.2654  0.3610
 3827SOL     OW22939   1.067   1.219   4.694 -0.4495 -0.2021  0.0598
 3827SOL    HW122940   1.065   1.277   4.770  2.4133  1.5929 -1.2815
 3827SOL    HW222941   1.155   1.190   4.716 -0.7158 -0.3647  0.8993
 3828SOL     OW22942   1.470   2.575   2.999 -0.5008 -0.2664 -0.0804
 3828SOL    HW122943   1.504   2.490   3.025  0.1690  0.1601  0.4426
 3828SOL    HW222944   1.377   2.572   3.021 -0.3649  1.0636  0.7320
 3829SOL     OW22945   2.139   1.939   8.248  0.3376 -0.0262  0.9341
 3829SOL    HW122946   2.195   1.870   8.211 -0.5040 -0.6393  0.7987
 3829SOL    HW222947   2.069   1.883   8.283 -0.4393  0.2375 -0.1970
 3830SOL     OW22948   4.208   4.546   2.384 -0.6867 -0.3576  0.0130
 3830SOL    HW122949   4.295   4.548   2.345 -0.8577 -1.4522 -0.4302
 3830SOL    HW222950   4.212   4.625   2.437  1.5105 -1.1877  1.0959
 3831SOL     OW22951   0.274   1.525   9.111  0.1684 -0.1830 -0.5348
 3831SOL    HW122952   0.297   1.597   9.170 -0.3449 -0.9030  0.5306
 3831SOL    HW222953   0.317   1.454   9.158  0.4056  0.3694  0.0787
 3832SOL     OW22954   0.450   1.349  14.752  0.7895 -0.1809  0.4042
 3832SOL    HW122955   0.507   1.420  14.780 -0.2656  1.7664 -2.3659
 3832SOL    HW222956   0.507   1.305  14.690 -0.0190  0.4641 -0.7927
 3833SOL     OW22957   1.882   2.561   4.946  0.3727 -0.2814 -0.0735
 3833SOL    HW122958   1.879   2.600   4.859 -1.4191  1.2069  0.6524
 3833SOL    HW222959   1.818   2.492   4.932  0.7348 -0.6211 -0.0456
 3834SOL     OW22960   0.649   2.446   6.306  0.3089 -0.5441  0.0479
 3834SOL    HW122961   0.637   2.508   6.234  1.4508  1.0655  1.2599
 3834SOL    HW222962   0.644   2.364   6.257 -0.2694 -1.0842  1.0145
 3835SOL     OW22963   0.929   2.545   9.635  0.4855  0.1675  0.0140
 3835SOL    HW122964   0.976   2.465   9.658  0.3595  0.3674  0.9588
 3835SOL    HW222965   0.923   2.604   9.711 -0.1058  0.0521  0.0590
 3836SOL     OW22966   4.613   1.346   3.393  0.7639  0.0067 -0.0264
 3836SOL    HW122967   4.591   1.369   3.303 -2.6405  1.3204  1.1384
 3836SOL    HW222968   4.688   1.404   3.406 -0.5383  1.7451 -0.3893
 3837SOL     OW22969   1.082   0.316  16.178 -0.2651 -0.4430 -0.0227
 3837SOL    HW122970   1.117   0.402  16.201  0.0194 -0.5712  0.0169
 3837SOL    HW222971   1.003   0.330  16.125 -0.3119 -0.4695  0.0396
 3838SOL     OW22972   1.933   2.454   2.637  0.0378 -0.0644 -1.0537
 3838SOL    HW122973   1.905   2.524   2.695  0.6839  1.0898 -2.1398
 3838SOL    HW222974   1.883   2.382   2.676  0.2822 -1.2066 -2.8720
 3839SOL     OW22975   3.361   1.500   6.541  0.3155  0.5061  0.6103
 3839SOL    HW122976   3.378   1.409   6.519 -0.8523 -0.0041  1.7985
 3839SOL    HW222977   3.425   1.515   6.611 -0.2370  2.5491  0.6799
 3840SOL     OW22978   2.001   1.649  10.515  0.3749 -0.0970 -0.2253
 3840SOL    HW122979   2.069   1.717  10.520  0.7419 -0.6343  2.0119
 3840SOL    HW222980   2.029   1.591  10.585  0.2115 -0.8972 -0.8307
 3841SOL     OW22981   2.166   1.908   2.604 -0.2872 -0.3240 -0.3977
 3841SOL    HW122982   2.227   1.934   2.535 -1.5632 -0.3364 -1.5097
 3841SOL    HW222983   2.225   1.902   2.680 -0.3332 -0.1194 -0.3453
 3842SOL     OW22984   1.406   2.980   4.558 -0.4101  0.4784 -0.1143
 3842SOL    HW122985   1.374   3.064   4.591 -0.6944  0.0408  0.7290
 3842SOL    HW222986   1.393   2.992   4.464 -0.2851 -0.4581 -0.2501
 3843SOL     OW22987   4.025   4.139   4.343 -0.6968  0.4260  0.2859
 3843SOL    HW122988   3.971   4.059   4.341 -1.9467  1.2525  0.9389
 3843SOL    HW222989   3.958   4.192   4.299  0.1718  1.6232  0.4235
 3844SOL     OW22990   0.758   4.377   3.423 -0.5040 -0.1688 -0.1696
 3844SOL    HW122991   0.799   4.375   3.337  0.5039 -0.6007  0.3256
 3844SOL    HW222992   0.844   4.385   3.464 -0.7991  1.8203  0.0677
 3845SOL     OW22993   1.494   2.070   2.987 -0.0222 -0.0988  0.0777
 3845SOL    HW122994   1.400   2.090   2.981  0.2364  1.1342 -0.0596
 3845SOL    HW222995   1.526   2.155   3.019 -0.0333  0.4247 -1.2662
 3846SOL     OW22996   0.025   3.006  13.276  0.4221  0.2315 -0.3934
 3846SOL    HW122997   0.040   3.055  13.196  0.1273  0.8629 -0.0596
 3846SOL    HW222998   0.112   2.969  13.294 -0.1740 -0.2788  1.4477
 3847SOL     OW22999   0.028   2.274   6.472  0.8347 -0.2942 -0.3728
 3847SOL    HW123000   0.074   2.283   6.389 -0.0877 -0.1584 -0.8701
 3847SOL    HW223001   0.071   2.345   6.521  0.3473 -0.5733  0.4593
 3848SOL     OW23002   2.316   4.376   9.108 -0.5958  0.2929  0.1591
 3848SOL    HW123003   2.357   4.400   9.191  1.9751 -1.7022 -0.5189
 3848SOL    HW223004   2.269   4.296   9.130  0.7716 -0.9663 -1.5500
 3849SOL     OW23005   2.260   3.964  15.813 -0.2470  0.1091 -0.7596
 3849SOL    HW123006   2.343   4.006  15.788  0.5444 -0.0838  1.4939
 3849SOL    HW223007   2.204   4.040  15.800 -2.0733 -1.1585 -0.3460
 3850SOL     OW23008   1.735   0.730   6.733  0.4983  0.3476 -0.0765
 3850SOL    HW123009   1.766   0.738   6.823  0.3413  0.7080 -0.0542
 3850SOL    HW223010   1.662   0.791   6.738 -0.0334 -0.2896 -0.1197
 3851SOL     OW23011   3.477   2.234   3.280 -0.3514 -0.0886  0.8042
 3851SOL    HW123012   3.391   2.272   3.264  0.7965  1.5467 -1.3884
 3851SOL    HW223013   3.538   2.300   3.248 -0.9186  0.3471  0.6422
 3852SOL     OW23014   1.461   1.001  11.568 -0.2999 -0.2684 -0.1936
 3852SOL    HW123015   1.437   0.909  11.563  0.5973 -0.3887 -2.1482
 3852SOL    HW223016   1.381   1.043  11.599 -0.2227  1.5206 -2.3474
 3853SOL     OW23017   3.498   3.087  14.382 -1.0358 -0.0001  0.0141
 3853SOL    HW123018   3.448   3.053  14.456  1.0207 -1.1925  0.8702
 3853SOL    HW223019   3.584   3.053  14.407 -1.1863 -1.5681 -1.5998
 3854SOL     OW23020   2.655   4.157   5.953  0.8208 -0.1335 -0.2627
 3854SOL    HW123021   2.726   4.215   5.923 -0.4048  0.2414 -2.3583
 3854SOL    HW223022   2.700   4.073   5.941  0.5383 -0.0790 -1.6998
 3855SOL     OW23023   4.675   0.856   5.326  0.1656 -0.3912  0.4878
 3855SOL    HW123024   4.614   0.883   5.395  0.5381  0.0677  0.6459
 3855SOL    HW223025   4.645   0.768   5.308  0.7424 -0.6773  0.8963
 3856SOL     OW23026   3.565   0.756   5.936 -0.3742 -0.3464  0.0315
 3856SOL    HW123027   3.557   0.692   5.866  0.2644  0.2512 -0.5877
 3856SOL    HW223028   3.489   0.812   5.920  0.5716  1.3132  1.3030
 3857SOL     OW23029   2.314   0.463   8.459  0.8590 -0.7214 -0.0921
 3857SOL    HW123030   2.293   0.485   8.550 -1.5192  0.3943 -0.9329
 3857SOL    HW223031   2.337   0.545   8.416 -2.4508  0.9318  1.2686
 3858SOL     OW23032   0.899   1.198   3.711  0.6638 -0.0053 -0.0506
 3858SOL    HW123033   0.942   1.127   3.758 -1.5671 -1.7755 -0.6710
 3858SOL    HW223034   0.855   1.250   3.778  0.4633 -0.9161  0.5284
 3859SOL     OW23035   4.088   3.437   3.212  0.2509 -0.4743 -0.0394
 3859SOL    HW123036   4.035   3.436   3.292 -1.6400 -1.0419 -1.2825
 3859SOL    HW223037   4.019   3.423   3.147  0.5269  0.4573 -0.5304
 3860SOL     OW23038   2.702   1.985   8.820 -0.1451  0.0244 -0.0590
 3860SOL    HW123039   2.776   1.960   8.875 -0.1697  2.5152  1.0972
 3860SOL    HW223040   2.630   1.933   8.856  1.7066 -3.3260 -1.1531
 3861SOL     OW23041   3.831   3.934   4.318  0.1971 -0.3522 -0.1666
 3861SOL    HW123042   3.860   3.843   4.310  0.8046 -0.2569  0.9110
 3861SOL    HW223043   3.803   3.924   4.409  3.2004  1.0185  0.9340
 3862SOL     OW23044   2.241   0.183   7.851  0.2390 -0.0976  0.3224
 3862SOL    HW123045   2.261   0.188   7.758 -0.6699 -0.5751  0.1045
 3862SOL    HW223046   2.316   0.133   7.884  1.5506 -0.1520 -2.7124
 3863SOL     OW23047   1.641   2.752   5.442 -0.2379  0.1320 -0.3920
 3863SOL    HW123048   1.658   2.659   5.426  1.7316  0.3829  0.2646
 3863SOL    HW223049   1.573   2.750   5.508 -0.1953  4.1067 -0.2290
 3864SOL     OW23050   4.316   4.599   8.641 -0.3070 -0.3997 -0.2339
 3864SOL    HW123051   4.286   4.684   8.609  0.2122  0.3564  1.2546
 3864SOL    HW223052   4.236   4.546   8.642 -0.8709  0.4456 -1.5216
 3865SOL     OW23053   3.845   2.673   0.650 -0.0106  0.0130  0.0531
 3865SOL    HW123054   3.760   2.704   0.682  0.2991 -0.2535  1.1175
 3865SOL    HW223055   3.829   2.579   0.652 -1.8543  0.3924  2.0489
 3866SOL     OW23056   0.973   0.698   5.834  0.3473 -0.6697  0.0649
 3866SOL    HW123057   1.057   0.670   5.872  0.1744  0.2220  1.1038
 3866SOL    HW223058   0.953   0.620   5.782  0.6315 -0.0455 -0.9609
 3867SOL     OW23059   0.088   3.355  14.145  0.5091 -0.0241 -0.5316
 3867SOL    HW123060   0.104   3.269  14.106  0.0129  0.1685 -1.1533
 3867SOL    HW223061   0.016   3.393  14.094 -0.9628 -0.7090  1.0441
 3868SOL     OW23062   2.231   3.607   1.912 -0.0691  0.0958  1.0465
 3868SOL    HW123063   2.225   3.602   1.817  0.1540 -1.7924  1.1176
 3868SOL    HW223064   2.269   3.694   1.925 -0.2216  0.4050 -0.7128
 3869SOL     OW23065   4.190   3.744   3.556  0.4377  0.1360  0.1350
 3869SOL    HW123066   4.210   3.733   3.463 -1.2457 -0.5723 -0.1479
 3869SOL    HW223067   4.177   3.838   3.562 -2.1684 -0.1723 -0.5302
 3870SOL     OW23068   4.147   0.559   4.507 -0.7470  0.0272  0.0438
 3870SOL    HW123069   4.099   0.640   4.526  0.3385  0.4791  0.8933
 3870SOL    HW223070   4.095   0.521   4.436  1.3081  1.5175 -2.2565
 3871SOL     OW23071   4.515   3.820   3.822  0.4793  0.3693 -0.1416
 3871SOL    HW123072   4.558   3.870   3.892 -1.0701  0.4659  0.7443
 3871SOL    HW223073   4.445   3.782   3.875  0.5398  0.8659  0.3000
 3872SOL     OW23074   0.955   2.701   5.490  0.2127 -0.3818  0.1592
 3872SOL    HW123075   0.996   2.628   5.444  1.2114 -0.1678  0.7251
 3872SOL    HW223076   0.969   2.658   5.574 -0.2332 -0.0074  0.4276
 3873SOL     OW23077   1.934   0.886   2.634 -0.1915  0.2652 -0.2955
 3873SOL    HW123078   2.007   0.915   2.689  0.4043 -2.2137  0.2279
 3873SOL    HW223079   1.938   0.790   2.644  2.4600  0.0985 -2.7651
 3874SOL     OW23080   1.501   3.368   7.430 -1.1838  0.3475 -0.1242
 3874SOL    HW123081   1.568   3.343   7.495 -1.6029 -1.6959 -0.4985
 3874SOL    HW223082   1.418   3.349   7.472 -1.3695 -1.6376 -1.4031
 3875SOL     OW23083   4.694   1.232   0.041 -0.6829  0.1914 -0.1490
 3875SOL    HW123084   4.639   1.188  17.669  3.6247 -0.1568 -3.6714
 3875SOL    HW223085   4.629   1.257   0.106  0.0340  4.0335 -0.9342
 3876SOL     OW23086   3.418   4.483   8.276 -0.3436  0.2366 -0.3203
 3876SOL    HW123087   3.481   4.437   8.221  1.2989  0.3935  1.3959
 3876SOL    HW223088   3.399   4.560   8.223  0.1332  0.0506 -0.7588
 3877SOL     OW23089   0.828   1.613   0.057  0.2120 -0.0585 -0.0670
 3877SOL    HW123090   0.761   1.678   0.077  0.2503 -0.3119  0.8603
 3877SOL    HW223091   0.912   1.656   0.040 -0.7835  1.0350 -2.3184
 3878SOL     OW23092   0.323   4.189   8.867  0.0365 -0.3677  0.4784
 3878SOL    HW123093   0.390   4.246   8.829  2.2635 -1.4390  2.7809
 3878SOL    HW223094   0.300   4.130   8.796 -0.9396  0.9168 -0.2914
 3879SOL     OW23095   4.040   1.396  15.925  0.6365  0.2309 -0.2365
 3879SOL    HW123096   4.050   1.485  15.893  2.5200 -0.2343 -0.9873
 3879SOL    HW223097   3.967   1.376  15.866 -0.0517  0.8851  0.3924
 3880SOL     OW23098   2.834   2.926  12.007  0.0548  0.3517  0.1856
 3880SOL    HW123099   2.897   2.910  12.077 -0.9910  0.7864  1.2174
 3880SOL    HW223100   2.766   2.973  12.054  0.2174 -0.9568  1.7277
 3881SOL     OW23101   1.174   0.636   8.122  0.3044  0.0875  0.7607
 3881SOL    HW123102   1.111   0.702   8.151  1.3030  0.2508  2.5439
 3881SOL    HW223103   1.250   0.647   8.179  2.0232  0.0999 -1.5305
 3882SOL     OW23104   1.415   0.707  11.578 -0.0325 -0.5326  0.4044
 3882SOL    HW123105   1.435   0.615  11.561  0.1188 -0.5395  0.6155
 3882SOL    HW223106   1.406   0.704  11.673  2.2006 -0.3146  0.6422
 3883SOL     OW23107   1.068   2.516   0.356 -0.0218 -0.3749  0.7388
 3883SOL    HW123108   1.041   2.560   0.276  0.0444  0.0868  0.9721
 3883SOL    HW223109   1.147   2.569   0.366  0.2824 -0.8250  0.7625
 3884SOL     OW23110   2.543   1.137   7.341 -0.1288 -0.4051  0.0325
 3884SOL    HW123111   2.476   1.070   7.327  1.2942 -1.0960 -3.3791
 3884SOL    HW223112   2.626   1.093   7.325  0.4876  0.9339 -0.3981
 3885SOL     OW23113   1.451   3.372  16.822 -0.2871  0.3066  0.8600
 3885SOL    HW123114   1.478   3.461  16.847  1.0177  0.2821 -0.4659
 3885SOL    HW223115   1.420   3.333  16.904  0.6393  0.6390  1.3706
 3886SOL     OW23116   1.587   4.041   2.651  0.0421 -0.0776 -0.0155
 3886SOL    HW123117   1.672   3.998   2.639 -0.6100 -0.8799 -1.7630
 3886SOL    HW223118   1.566   3.994   2.731  0.0591 -0.4439 -0.2270
 3887SOL     OW23119   2.846   1.802   9.782 -0.7443  0.1033 -0.1782
 3887SOL    HW123120   2.864   1.725   9.729  2.2447  0.5474  0.2081
 3887SOL    HW223121   2.774   1.835   9.728 -0.6711 -0.5358 -0.6592
 3888SOL     OW23122   3.849   3.818   2.236 -0.4790  0.0982  0.2373
 3888SOL    HW123123   3.943   3.833   2.244 -0.5253  0.6004 -0.1987
 3888SOL    HW223124   3.829   3.770   2.156  1.0438 -1.8098  1.0113
 3889SOL     OW23125   4.423   0.899   4.358  0.2840  0.6630  0.3221
 3889SOL    HW123126   4.411   0.864   4.270  0.1060 -0.8603  0.9494
 3889SOL    HW223127   4.513   0.934   4.358 -0.3624  2.3214  1.8085
 3890SOL     OW23128   2.824   3.220   5.008 -0.3154 -0.5834 -0.4230
 3890SOL    HW123129   2.730   3.203   4.999 -0.3401 -0.2227 -0.8424
 3890SOL    HW223130   2.836   3.309   4.976  1.2468 -0.3323  0.8800
 3891SOL     OW23131   4.709   1.977   6.889  0.0033 -0.4526 -0.1233
 3891SOL    HW123132   4.659   2.053   6.919  0.9936  1.2029 -2.7363
 3891SOL    HW223133   0.060   2.018   6.844  0.4912 -0.0625  1.0268
 3892SOL     OW23134   1.031   2.721  13.235 -0.0298 -0.3251 -0.4436
 3892SOL    HW123135   1.105   2.731  13.176  0.1507  0.7213 -0.0317
 3892SOL    HW223136   1.047   2.803  13.282 -0.0494  0.6097 -2.1039
 3893SOL     OW23137   1.964   2.605  10.473 -0.1399 -0.1070  0.8075
 3893SOL    HW123138   2.011   2.625  10.554 -1.2387  1.1214  1.1447
 3893SOL    HW223139   1.917   2.526  10.502  0.8575  0.0878  2.9544
 3894SOL     OW23140   1.096   3.071   2.653 -0.2176 -0.1734  0.0623
 3894SOL    HW123141   1.024   3.049   2.594 -0.1102  0.3675 -0.2707
 3894SOL    HW223142   1.048   3.118   2.721  1.2743 -0.0511  1.0284
 3895SOL     OW23143   4.272   4.465   6.196 -0.3483 -0.9033 -0.0205
 3895SOL    HW123144   4.348   4.407   6.204  1.1315  1.0101  0.0781
 3895SOL    HW223145   4.204   4.415   6.240  1.5738 -0.5907  3.3140
 3896SOL     OW23146   0.084   3.161   5.868 -0.0537  0.4405  0.3983
 3896SOL    HW123147   0.070   3.073   5.834 -0.9314 -0.1865  2.3826
 3896SOL    HW223148   0.131   3.198   5.793  0.8268 -0.7889  0.3423
 3897SOL     OW23149   1.677   0.842  11.297  0.0318 -0.1193  0.0818
 3897SOL    HW123150   1.771   0.824  11.307 -0.1968 -0.2326  2.1866
 3897SOL    HW223151   1.664   0.836  11.203 -0.1655 -0.6124  0.1400
 3898SOL     OW23152   0.305   1.468   4.375 -0.2366  0.3876 -0.1936
 3898SOL    HW123153   0.380   1.410   4.363 -0.5208  0.2166 -1.1123
 3898SOL    HW223154   0.301   1.516   4.292  0.4492  0.7609 -0.0088
 3899SOL     OW23155   1.430   0.434   4.274 -0.1165 -0.0798  0.2893
 3899SOL    HW123156   1.403   0.342   4.264 -0.7543  0.1710 -0.3523
 3899SOL    HW223157   1.345   0.477   4.285 -0.7959 -0.8487 -1.9722
 3900SOL     OW23158   4.386   0.127  13.917  0.2825 -0.8633  0.0820
 3900SOL    HW123159   4.290   0.134  13.925  0.2521 -1.8747  0.6988
 3900SOL    HW223160   4.395   0.154  13.826  0.3589 -2.2263 -0.3136
 3901SOL     OW23161   1.004   4.122   3.937  0.2517 -0.5314 -0.1492
 3901SOL    HW123162   0.983   4.180   3.865 -2.3220 -0.6639  0.4824
 3901SOL    HW223163   0.965   4.039   3.911 -1.4073  0.5153 -1.0193
 3902SOL     OW23164   2.894   1.847  10.972  0.2169 -0.6467 -0.5482
 3902SOL    HW123165   2.971   1.846  11.028  1.5792 -1.5658 -2.4034
 3902SOL    HW223166   2.897   1.755  10.944 -0.8558 -1.4722  2.0987
 3903SOL     OW23167   4.218   3.807   6.058 -0.5080 -0.1886  0.1232
 3903SOL    HW123168   4.279   3.809   6.131 -0.5979 -1.0160  0.2154
 3903SOL    HW223169   4.258   3.744   5.998  1.7754  1.3051  0.0951
 3904SOL     OW23170   1.476   1.546   4.134 -0.5155  0.3374 -0.2989
 3904SOL    HW123171   1.559   1.542   4.087 -0.7014  4.3233 -0.9409
 3904SOL    HW223172   1.415   1.565   4.064 -0.5992  3.1634  0.5298
 3905SOL     OW23173   2.786   3.183   3.330  0.1884  0.3078  0.5485
 3905SOL    HW123174   2.819   3.268   3.357  0.8691  0.5361 -1.0079
 3905SOL    HW223175   2.695   3.180   3.361  0.0516 -0.3484  0.0929
 3906SOL     OW23176   2.348   1.678   7.860 -0.5932 -0.5308 -0.3085
 3906SOL    HW123177   2.409   1.607   7.838  1.0032  0.7800 -0.0984
 3906SOL    HW223178   2.348   1.726   7.777  3.1113 -2.6003 -1.5233
 3907SOL     OW23179   3.101   2.177   7.657 -0.6383  0.5822  0.0925
 3907SOL    HW123180   3.129   2.141   7.573 -1.5157  0.1103  0.0064
 3907SOL    HW223181   3.164   2.150   7.724  0.0045  1.9261  0.0347
 3908SOL     OW23182   1.435   1.573   9.430 -0.4804  0.3095  0.5727
 3908SOL    HW123183   1.458   1.482   9.448  2.4691  0.8633 -0.5487
 3908SOL    HW223184   1.512   1.618   9.395 -1.8658  0.4032 -2.3314
 3909SOL     OW23185   1.811   1.044   4.046 -0.1312 -0.2824  0.0910
 3909SOL    HW123186   1.725   1.039   4.087 -0.0387  1.2501  0.4676
 3909SOL    HW223187   1.870   1.099   4.097 -2.5152  2.9581 -0.6287
 3910SOL     OW23188   2.518   4.552   1.613  0.3940 -0.2299  0.5195
 3910SOL    HW123189   2.475   4.495   1.676  0.8914  0.0441  1.1093
 3910SOL    HW223190   2.508   4.500   1.534  0.5598  0.7091 -0.1137
 3911SOL     OW23191   4.517   1.771   2.134  0.1925  0.2134 -0.2449
 3911SOL    HW123192   4.517   1.676   2.143 -3.7008  0.0082 -2.5393
 3911SOL    HW223193   4.449   1.793   2.197  1.0767 -0.4757  0.9565
 3912SOL     OW23194   4.299   1.996   6.866  0.2684  0.0121 -0.3305
 3912SOL    HW123195   4.325   1.961   6.781 -0.3998 -2.1438  0.3450
 3912SOL    HW223196   4.253   2.078   6.850 -0.4817 -0.3701 -0.1511
 3913SOL     OW23197   1.133   2.690   4.488 -0.0046  0.6099 -0.3811
 3913SOL    HW123198   1.077   2.612   4.483  2.3698 -1.0209 -1.3166
 3913SOL    HW223199   1.073   2.756   4.455  0.5192  2.0269  1.5159
 3914SOL     OW23200   4.354   2.375   6.884 -0.1307  0.3392  0.3954
 3914SOL    HW123201   4.288   2.391   6.951 -2.6249  0.9201 -2.1787
 3914SOL    HW223202   4.417   2.322   6.933  1.1570  0.5474 -1.0211
 3915SOL     OW23203   3.306   1.853   5.420  0.1782 -0.1406 -0.6240
 3915SOL    HW123204   3.210   1.859   5.416  0.0025 -1.6375  1.2898
 3915SOL    HW223205   3.318   1.758   5.420  3.0667  0.2340 -0.2426
 3916SOL     OW23206   0.326   2.854  12.065 -0.0479 -0.0461 -0.0647
 3916SOL    HW123207   0.261   2.798  12.023 -0.2089  1.2172 -1.5275
 3916SOL    HW223208   0.338   2.812  12.150  0.1942  1.5454  0.6978
 3917SOL     OW23209   2.753   4.205   2.334 -0.0342  0.2190  0.6652
 3917SOL    HW123210   2.661   4.180   2.335 -0.6149  2.4317  1.8404
 3917SOL    HW223211   2.785   4.181   2.247 -0.6240 -2.1060  1.0782
 3918SOL     OW23212   0.083   1.812  10.698  0.1646  0.1399  0.2378
 3918SOL    HW123213   0.010   1.873  10.710 -1.5036 -1.5070 -1.5187
 3918SOL    HW223214   0.047   1.749  10.635  1.2765  0.3231 -0.5890
 3919SOL     OW23215   3.725   0.998   8.044 -0.2108 -0.1202  0.4466
 3919SOL    HW123216   3.728   0.943   7.966 -0.6172  0.7330 -0.1621
 3919SOL    HW223217   3.804   0.982   8.096 -0.3337 -0.5567  0.4972
 3920SOL     OW23218   3.702   1.255   2.880 -0.0071 -0.0992  0.0644
 3920SOL    HW123219   3.671   1.170   2.911 -2.3653  1.5735  2.3644
 3920SOL    HW223220   3.633   1.312   2.915  1.0560  1.1879  0.0642
 3921SOL     OW23221   1.342   3.394   6.925  0.3667 -0.7933  0.5432
 3921SOL    HW123222   1.416   3.441   6.886  0.2096  0.5706  1.8882
 3921SOL    HW223223   1.278   3.464   6.928 -1.1618 -2.2462  1.9631
 3922SOL     OW23224   4.672   1.010  16.862  0.5380 -0.1944 -0.0237
 3922SOL    HW123225   0.012   0.939  16.880 -0.5669 -1.3787 -0.8043
 3922SOL    HW223226   4.717   1.064  16.797  0.0202  4.0971  3.2436
 3923SOL     OW23227   2.359   3.957   9.288 -0.0539 -0.0302  0.1274
 3923SOL    HW123228   2.395   3.907   9.362  0.3189  1.8151  1.1700
 3923SOL    HW223229   2.303   3.890   9.247 -1.2751 -0.1730  2.0424
 3924SOL     OW23230   2.979   4.376  17.545  0.6841 -0.1328 -0.4368
 3924SOL    HW123231   3.073   4.383  17.530  0.7678 -0.9860 -0.2956
 3924SOL    HW223232   2.978   4.331  17.629 -0.9716  2.1181  0.7494
 3925SOL     OW23233   0.298   2.603   9.870 -0.1023 -0.6819  0.4237
 3925SOL    HW123234   0.241   2.529   9.891 -0.7927 -0.0228  0.8864
 3925SOL    HW223235   0.384   2.566   9.891  0.8707  0.2881 -1.8511
 3926SOL     OW23236   0.846   1.081   2.784 -0.3909  0.5890 -0.6047
 3926SOL    HW123237   0.820   1.126   2.704  2.1737  2.9003 -0.1392
 3926SOL    HW223238   0.774   1.103   2.843 -0.1620 -0.7721  0.1892
 3927SOL     OW23239   3.830   3.433  10.395 -0.4247 -0.0758  0.1808
 3927SOL    HW123240   3.832   3.474  10.481  1.8651 -0.2719  0.2340
 3927SOL    HW223241   3.879   3.492  10.338  0.3249 -0.7592  0.1145
 3928SOL     OW23242   0.457   3.560  14.264 -0.8385 -0.4807  0.4778
 3928SOL    HW123243   0.476   3.497  14.333 -0.8455 -0.6134  0.3591
 3928SOL    HW223244   0.363   3.570  14.253 -0.8813 -0.4282  0.8942
 3929SOL     OW23245   1.887   1.319   6.873 -0.3771 -0.6983  0.2298
 3929SOL    HW123246   1.806   1.343   6.918 -1.3676 -1.1191 -1.3520
 3929SOL    HW223247   1.935   1.278   6.945  1.9749  1.0211 -0.3424
 3930SOL     OW23248   0.156   1.539   9.463  0.5769 -0.6262  0.5323
 3930SOL    HW123249   0.062   1.555   9.463  1.0268  2.2310  1.8184
 3930SOL    HW223250   0.194   1.623   9.490 -1.7114  1.2482 -2.1494
 3931SOL     OW23251   4.577   0.660   2.689 -0.4801  0.2214 -0.2292
 3931SOL    HW123252   4.541   0.580   2.727  1.4110 -0.9383 -0.8118
 3931SOL    HW223253   4.531   0.655   2.605 -0.7870  0.3103 -0.0642
 3932SOL     OW23254   1.152   1.437   4.064 -0.2519 -0.4416 -0.1200
 3932SOL    HW123255   1.168   1.368   3.999 -0.7986 -1.4018  0.7563
 3932SOL    HW223256   1.185   1.514   4.018  1.8156 -1.4932 -0.4224
 3933SOL     OW23257   2.587   1.795   9.248  0.4465  0.2451 -0.2722
 3933SOL    HW123258   2.574   1.701   9.237 -1.2834  0.5370 -0.6832
 3933SOL    HW223259   2.499   1.823   9.273  0.4413  0.4355 -0.4924
 3934SOL     OW23260   4.218   3.695   0.424 -0.1879  0.6291  0.1495
 3934SOL    HW123261   4.136   3.649   0.440  1.1688 -1.9380 -0.3582
 3934SOL    HW223262   4.212   3.703   0.329 -1.2395  0.9609  0.2477
 3935SOL     OW23263   2.781   1.809   3.040  0.6353  0.0938  0.6862
 3935SOL    HW123264   2.772   1.903   3.024 -2.0170 -0.2214  0.1703
 3935SOL    HW223265   2.872   1.792   3.017 -0.1452 -0.4475 -1.9630
 3936SOL     OW23266   2.249   4.286   1.977 -0.4090 -0.2092 -0.0314
 3936SOL    HW123267   2.283   4.367   1.940 -2.7771  0.5883 -0.4526
 3936SOL    HW223268   2.291   4.224   1.917 -0.4744  1.6680 -2.0429
 3937SOL     OW23269   1.448   3.063   6.228  0.4027  0.2879 -0.8816
 3937SOL    HW123270   1.437   3.070   6.133 -1.5093  0.8940 -0.6300
 3937SOL    HW223271   1.401   2.985   6.257 -2.7212  1.4662 -2.7974
 3938SOL     OW23272   1.221   3.494   4.745 -0.0716 -0.3808 -0.2013
 3938SOL    HW123273   1.254   3.414   4.786  0.5004 -1.0544 -1.9623
 3938SOL    HW223274   1.231   3.561   4.813 -1.4809  0.4630 -0.8428
 3939SOL     OW23275   3.949   4.317   5.113 -0.5668 -0.8038  0.2107
 3939SOL    HW123276   3.915   4.407   5.119  2.6402  0.5743 -2.5903
 3939SOL    HW223277   3.909   4.280   5.192  0.7024 -1.2214  0.6507
 3940SOL     OW23278   0.629   1.059   6.971 -0.6124 -0.3950  0.0614
 3940SOL    HW123279   0.662   1.088   7.056  1.2272 -0.4723 -0.6236
 3940SOL    HW223280   0.537   1.058   6.995 -1.0846 -0.4437 -1.7369
 3941SOL     OW23281   3.184   0.171  15.481 -0.4954 -0.2424 -0.1446
 3941SOL    HW123282   3.158   0.263  15.475 -1.9892 -0.7745 -1.9212
 3941SOL    HW223283   3.113   0.131  15.530 -2.4043 -0.0372 -2.7118
 3942SOL     OW23284   0.957   0.999  10.211  0.5785  0.0424  0.5356
 3942SOL    HW123285   0.912   1.082  10.231 -0.4067 -0.4939  0.5614
 3942SOL    HW223286   1.013   0.991  10.288 -0.5842  0.3574  1.4302
 3943SOL     OW23287   0.084   3.002   8.036  0.7967  0.4353 -0.8820
 3943SOL    HW123288   0.110   2.972   7.949 -0.4162 -0.3631 -0.9717
 3943SOL    HW223289   0.165   2.988   8.085  0.6206  0.2496 -0.6455
 3944SOL     OW23290   1.290   2.117   7.938  0.0925  0.2709  0.1149
 3944SOL    HW123291   1.303   2.058   8.012 -1.1944  0.9887  0.9008
 3944SOL    HW223292   1.205   2.087   7.908 -0.1630  1.0232  0.0826
 3945SOL     OW23293   0.801   0.265  12.494 -0.3374 -0.0991  0.0337
 3945SOL    HW123294   0.840   0.352  12.491  2.0528 -1.2246 -0.8847
 3945SOL    HW223295   0.775   0.264  12.587 -0.7611 -0.7163 -0.0896
 3946SOL     OW23296   3.732   1.691  10.813  0.3339  0.2469  0.3147
 3946SOL    HW123297   3.754   1.735  10.731 -1.3205 -0.3673 -0.4651
 3946SOL    HW223298   3.792   1.739  10.870  0.9262  0.6592 -0.6767
 3947SOL     OW23299   1.389   0.519   4.749 -0.5465 -0.5628 -0.4604
 3947SOL    HW123300   1.405   0.613   4.757 -0.3056 -0.7824  1.4514
 3947SOL    HW223301   1.423   0.481   4.830 -1.2923 -2.3100 -0.9686
 3948SOL     OW23302   4.544   2.933  15.519 -0.1025 -0.5178  0.0806
 3948SOL    HW123303   4.624   2.937  15.467  0.2532  0.2363  0.6753
 3948SOL    HW223304   4.563   2.987  15.596  0.6366 -1.6952  0.7083
 3949SOL     OW23305   2.407   0.373   9.849 -0.1445 -0.3092  0.8997
 3949SOL    HW123306   2.466   0.312   9.891  2.4895  1.9242  0.4541
 3949SOL    HW223307   2.404   0.334   9.762  4.2831  2.5195 -0.5162
 3950SOL     OW23308   0.878   0.347  15.992 -0.4191 -0.4723  0.3737
 3950SOL    HW123309   0.813   0.389  15.936  0.3126 -0.8938 -0.7818
 3950SOL    HW223310   0.894   0.268  15.940 -0.5556 -1.1344  1.3370
 3951SOL     OW23311   1.563   1.824   9.901  0.0553 -0.4303 -0.2933
 3951SOL    HW123312   1.547   1.832   9.995 -0.7660 -1.8368 -0.3040
 3951SOL    HW223313   1.627   1.754   9.896  1.6568  1.0475 -0.3584
 3952SOL     OW23314   4.166   0.754   3.828 -0.2508  0.2369  0.2347
 3952SOL    HW123315   4.125   0.706   3.901 -0.4602 -0.0330 -0.0599
 3952SOL    HW223316   4.254   0.717   3.828 -0.1125  0.5759 -1.3782
 3953SOL     OW23317   3.388   1.118  13.275  0.3830  0.2921 -0.2311
 3953SOL    HW123318   3.460   1.146  13.331 -0.2269  0.8048  0.3015
 3953SOL    HW223319   3.429   1.105  13.190 -0.1332 -0.0517 -0.4246
 3954SOL     OW23320   3.803   0.638  15.867  0.2341 -0.1435 -0.0434
 3954SOL    HW123321   3.832   0.672  15.952 -2.3324  1.6963  0.1001
 3954SOL    HW223322   3.882   0.624  15.814 -0.1662 -0.2243 -0.6160
 3955SOL     OW23323   1.413   2.547   5.359  0.1789 -0.1893 -0.0436
 3955SOL    HW123324   1.356   2.477   5.328 -0.5090  1.2331 -1.9260
 3955SOL    HW223325   1.428   2.522   5.450  0.6168  0.6085  0.1039
 3956SOL     OW23326   1.206   3.961  15.083 -1.0024  0.3341  0.4087
 3956SOL    HW123327   1.297   3.958  15.113 -0.4369 -0.1482 -1.3624
 3956SOL    HW223328   1.176   4.046  15.116 -2.7723 -0.5979  1.2010
 3957SOL     OW23329   4.622   3.588  10.766 -0.3454 -0.1341 -0.5673
 3957SOL    HW123330   4.661   3.675  10.765 -0.7660  0.0592  0.1062
 3957SOL    HW223331   4.698   3.535  10.742 -1.6236 -1.2733 -2.1508
 3958SOL     OW23332   2.452   1.561   5.696 -0.6677  0.1846  0.3790
 3958SOL    HW123333   2.534   1.611   5.697  0.1913 -1.2016 -0.6207
 3958SOL    HW223334   2.395   1.626   5.737  0.3957  1.5250 -0.2790
 3959SOL     OW23335   0.961   0.696  10.871 -0.2096 -0.0197 -0.8520
 3959SOL    HW123336   0.874   0.721  10.901  1.1843  0.7442  2.5516
 3959SOL    HW223337   0.943   0.613  10.826 -0.5140 -0.5018  0.1548
 3960SOL     OW23338   2.977   0.583   8.577 -1.0086  0.5344  0.5032
 3960SOL    HW123339   2.983   0.566   8.483  0.4556  1.6244  0.4037
 3960SOL    HW223340   3.014   0.671   8.568  1.5158 -0.3601  2.3183
 3961SOL     OW23341   1.914   4.344   2.575 -0.1949 -0.4846  0.0937
 3961SOL    HW123342   2.004   4.332   2.606 -0.2487 -0.7744  0.1336
 3961SOL    HW223343   1.912   4.271   2.513 -0.6403 -1.5310  1.3257
 3962SOL     OW23344   1.157   3.204   7.847  0.2924  0.0239 -0.0560
 3962SOL    HW123345   1.161   3.280   7.790 -0.5331  0.7940  0.9060
 3962SOL    HW223346   1.154   3.244   7.934 -0.0217  0.2780 -0.1837
 3963SOL     OW23347   1.788   3.271   2.158 -0.1036  0.1973  0.0795
 3963SOL    HW123348   1.700   3.243   2.182 -0.4431 -0.4256 -1.8711
 3963SOL    HW223349   1.771   3.312   2.073  1.3704  0.5633 -0.0573
 3964SOL     OW23350   0.415   4.132   6.124 -0.5557 -0.2838  0.0956
 3964SOL    HW123351   0.419   4.164   6.214  2.7962  0.2325 -0.2317
 3964SOL    HW223352   0.346   4.066   6.126  0.9327 -1.8767 -1.0971
 3965SOL     OW23353   3.767   2.435  11.097 -0.8457 -0.2586 -0.4233
 3965SOL    HW123354   3.790   2.430  11.005 -0.2025 -2.7959 -0.1236
 3965SOL    HW223355   3.775   2.528  11.117 -4.5138  0.0804 -0.6611
 3966SOL     OW23356   1.723   4.587   1.289  0.3476  0.2323 -0.2511
 3966SOL    HW123357   1.775   4.592   1.369 -0.4737  2.3230  0.1660
 3966SOL    HW223358   1.660   4.659   1.298  0.1773  0.2198 -1.3937
 3967SOL     OW23359   2.515   3.904   9.004  0.2310 -0.3936  0.6690
 3967SOL    HW123360   2.568   3.963   8.951 -1.8555  0.4422 -0.4957
 3967SOL    HW223361   2.543   3.817   8.977 -0.6128 -1.3101  2.7604
 3968SOL     OW23362   1.639   3.384   1.663  0.0500  0.6098 -0.1575
 3968SOL    HW123363   1.563   3.441   1.654 -2.8471 -3.6267 -2.5353
 3968SOL    HW223364   1.609   3.317   1.602  0.1780  1.0731 -0.7319
 3969SOL     OW23365   3.757   0.299   4.667  0.5486 -0.2108 -0.4651
 3969SOL    HW123366   3.685   0.238   4.676  0.6388 -0.2662 -0.1347
 3969SOL    HW223367   3.716   0.375   4.709  0.2227 -0.0694 -1.0366
 3970SOL     OW23368   0.555   1.708  16.677 -0.5630  0.6966  0.0431
 3970SOL    HW123369   0.631   1.765  16.691 -1.3032  1.3980  1.2057
 3970SOL    HW223370   0.479   1.765  16.687 -0.6889  0.2986  1.3524
 3971SOL     OW23371   4.381   1.695   4.833  0.1198 -0.5322 -0.2335
 3971SOL    HW123372   4.405   1.771   4.886  0.4711 -1.7162  1.3129
 3971SOL    HW223373   4.465   1.652   4.821 -0.3678 -1.2431 -1.1513
 3972SOL     OW23374   1.987   0.636   8.745  0.0168  0.2660 -0.2284
 3972SOL    HW123375   2.071   0.594   8.726  0.2145 -0.4391  2.2419
 3972SOL    HW223376   1.989   0.614   8.838 -1.1503 -0.1944 -0.3180
 3973SOL     OW23377   0.448   2.788   4.542 -0.4603  0.1288  0.0452
 3973SOL    HW123378   0.424   2.774   4.451  0.4875 -0.7896 -0.0647
 3973SOL    HW223379   0.478   2.704   4.577  0.8203  1.1500  1.4208
 3974SOL     OW23380   2.187   4.557  11.867  0.1193 -0.0019 -0.3958
 3974SOL    HW123381   2.234   4.627  11.822 -0.1031 -0.3491 -1.1672
 3974SOL    HW223382   2.127   4.526  11.800 -2.0784  2.9159  0.1961
 3975SOL     OW23383   4.106   0.878   1.801 -0.1377  0.5543 -0.2864
 3975SOL    HW123384   4.031   0.829   1.766  0.0504  1.0471 -1.3670
 3975SOL    HW223385   4.069   0.902   1.886  2.2921 -0.7301  1.1205
 3976SOL     OW23386   1.719   3.872  12.268  0.0200  0.8554 -0.1964
 3976SOL    HW123387   1.650   3.842  12.328 -0.8508  0.6097 -1.3099
 3976SOL    HW223388   1.701   3.814  12.194  1.1313  0.2279  0.0232
 3977SOL     OW23389   1.968   4.153   0.676  0.3613  0.3362 -0.3203
 3977SOL    HW123390   2.061   4.128   0.669  0.4230  0.9079 -1.5444
 3977SOL    HW223391   1.974   4.227   0.736 -1.7611  0.9117 -0.8359
 3978SOL     OW23392   4.408   1.945   4.227 -0.0620  0.0441 -0.2139
 3978SOL    HW123393   4.379   1.999   4.153  0.1788  0.8960  0.3046
 3978SOL    HW223394   4.498   1.919   4.208  0.1165  0.9017 -0.5492
 3979SOL     OW23395   0.519   4.441  10.917  0.5652 -0.2485  0.2947
 3979SOL    HW123396   0.574   4.366  10.941 -3.2701 -3.6176 -1.2913
 3979SOL    HW223397   0.573   4.510  10.954 -1.7231  1.5673  0.2165
 3980SOL     OW23398   0.252   0.891   6.126 -0.7157 -0.0662  0.4357
 3980SOL    HW123399   0.264   0.798   6.144  0.0625 -0.1744 -0.6676
 3980SOL    HW223400   0.175   0.875   6.072 -0.7457  1.6232 -0.0314
 3981SOL     OW23401   3.184   2.635  10.471  0.1709 -0.3955 -0.2299
 3981SOL    HW123402   3.229   2.705  10.519 -0.2591  0.1966 -0.6939
 3981SOL    HW223403   3.220   2.557  10.513  0.6750  0.0489  0.1641
 3982SOL     OW23404   4.561   0.163   2.259  0.6429 -0.1624  0.3082
 3982SOL    HW123405   4.508   0.242   2.275  0.7551  0.1656 -0.9005
 3982SOL    HW223406   4.630   0.200   2.204  1.4459  0.8772  2.0001
 3983SOL     OW23407   3.500   1.006   0.984  0.9897 -0.3449  0.3573
 3983SOL    HW123408   3.544   1.076   1.031  1.0216  0.1222 -0.3713
 3983SOL    HW223409   3.542   0.930   1.025  2.0082  0.1347  0.1960
 3984SOL     OW23410   3.699   1.109  13.400 -0.8286 -0.0321 -0.1884
 3984SOL    HW123411   3.723   1.016  13.397  0.0984  0.0645  3.3373
 3984SOL    HW223412   3.632   1.100  13.468 -0.3523  0.4242  0.3457
 3985SOL     OW23413   3.828   4.648   8.633  0.0811 -0.2033  0.2049
 3985SOL    HW123414   3.740   4.626   8.662 -0.1066  0.2440 -0.0227
 3985SOL    HW223415   3.874   4.593   8.696 -0.3742 -2.4811 -1.4389
 3986SOL     OW23416   0.943   3.854  14.946 -0.1635  0.3033  0.3262
 3986SOL    HW123417   0.914   3.937  14.983  0.6842  1.2148 -1.1014
 3986SOL    HW223418   0.891   3.788  14.993  1.1940 -0.4394  0.7839
 3987SOL     OW23419   1.034   2.252   4.437 -0.0503 -0.4553  0.0646
 3987SOL    HW123420   1.061   2.236   4.346 -1.2020 -0.2132 -0.3167
 3987SOL    HW223421   1.030   2.162   4.471  0.7633 -0.1167  1.0663
 3988SOL     OW23422   2.136   4.482   3.690  0.0364 -0.3202 -0.4456
 3988SOL    HW123423   2.094   4.445   3.612 -2.1280  0.0462  0.5391
 3988SOL    HW223424   2.174   4.404   3.730  3.2891  0.4422 -2.0906
 3989SOL     OW23425   3.888   0.498   5.462  0.3318  0.1454 -0.2370
 3989SOL    HW123426   3.825   0.522   5.530  0.5604  1.3284 -0.4429
 3989SOL    HW223427   3.895   0.405   5.481  0.7449  0.0748 -0.7637
 3990SOL     OW23428   3.902   3.603   6.044 -0.1781 -0.3793  0.4485
 3990SOL    HW123429   3.897   3.691   6.006 -0.4967  0.3555  2.2048
 3990SOL    HW223430   3.811   3.592   6.074 -1.2344  2.1737 -1.8305
 3991SOL     OW23431   3.010   1.763   1.873  0.3178  0.2405  0.8060
 3991SOL    HW123432   3.057   1.701   1.817  0.7991  1.1246  0.2235
 3991SOL    HW223433   2.977   1.813   1.798 -0.4568  0.5073  1.3224
 3992SOL     OW23434   4.637   4.428   3.931  0.6068 -0.3445 -0.3980
 3992SOL    HW123435   4.633   4.511   3.979 -2.0184 -2.3913  2.9602
 3992SOL    HW223436   4.545   4.399   3.933  0.2642  0.8062  1.0857
 3993SOL     OW23437   0.576   4.168   3.520  0.2225 -0.2065  0.0308
 3993SOL    HW123438   0.494   4.156   3.472 -1.1769  2.3927  1.7393
 3993SOL    HW223439   0.615   4.230   3.459  2.1145  0.7576  2.2216
 3994SOL     OW23440   0.667   4.239   4.072  0.1575  0.1708 -0.7229
 3994SOL    HW123441   0.631   4.154   4.048 -2.3410  1.1683 -0.5309
 3994SOL    HW223442   0.611   4.269   4.144 -0.2373  3.0668 -2.2163
 3995SOL     OW23443   3.507   2.400   8.042  0.3290  0.4896 -0.0809
 3995SOL    HW123444   3.521   2.410   7.947  0.6886  1.7570  0.1134
 3995SOL    HW223445   3.592   2.434   8.069 -0.6213  2.0954  0.8811
 3996SOL     OW23446   3.474   0.017   6.534 -0.2874 -0.2118 -0.1533
 3996SOL    HW123447   3.378   0.017   6.531 -0.3201  0.0554  1.0592
 3996SOL    HW223448   3.489   0.067   6.454  0.9033  0.4199  0.4727
 3997SOL     OW23449   4.597   3.840   0.002 -0.4771  0.2278  0.4298
 3997SOL    HW123450   4.541   3.915   0.025  0.2795  1.0645 -0.5005
 3997SOL    HW223451   4.584   3.791   0.084 -0.7717 -0.0211  0.2346
 3998SOL     OW23452   2.212   0.127   3.244 -0.1905  0.0978 -0.2418
 3998SOL    HW123453   2.148   0.068   3.206  1.2361 -1.2212 -0.6071
 3998SOL    HW223454   2.159   0.199   3.279 -0.2134  0.2186 -0.5297
 3999SOL     OW23455   2.030   4.214   8.100  0.3950  0.4247 -0.3936
 3999SOL    HW123456   1.951   4.195   8.050  0.2132  1.5715 -0.5470
 3999SOL    HW223457   2.001   4.185   8.187  0.3973  1.5732 -0.0136
 4000SOL     OW23458   4.183   1.537   2.530  1.0620  0.1360 -0.3698
 4000SOL    HW123459   4.149   1.467   2.585 -1.1777  1.3593 -0.2312
 4000SOL    HW223460   4.121   1.532   2.457  0.4707  2.0090  0.0168
 4001SOL     OW23461   0.406   0.284   5.068 -0.1315  0.1504 -0.2594
 4001SOL    HW123462   0.394   0.360   5.011  0.5023  0.1229 -0.4193
 4001SOL    HW223463   0.496   0.259   5.049 -0.6141 -1.4972 -0.3408
 4002SOL     OW23464   2.707   0.284   3.086  0.3574  0.0929 -0.1001
 4002SOL    HW123465   2.665   0.199   3.099 -1.5843  0.9991 -0.3039
 4002SOL    HW223466   2.799   0.260   3.080 -0.1117 -1.3729 -1.5110
 4003SOL     OW23467   3.582   0.198   2.716 -0.2458  0.0450 -0.4680
 4003SOL    HW123468   3.493   0.193   2.681  0.0333 -0.9806 -1.0262
 4003SOL    HW223469   3.637   0.158   2.649 -0.4625 -2.1508  0.6614
 4004SOL     OW23470   1.952   0.537   3.644 -1.4272  0.0421  0.3137
 4004SOL    HW123471   1.889   0.526   3.715 -0.4655 -2.0813  0.8261
 4004SOL    HW223472   2.022   0.480   3.675  1.6880  2.9159 -1.4669
 4005SOL     OW23473   0.474   1.576  13.331  0.1581  0.5604 -0.1524
 4005SOL    HW123474   0.468   1.521  13.253 -0.5599 -0.6045  0.7417
 4005SOL    HW223475   0.559   1.620  13.327  0.3292 -0.0246 -3.1130
 4006SOL     OW23476   1.149   1.517  15.653  0.1779 -0.0586 -0.7169
 4006SOL    HW123477   1.114   1.544  15.569 -1.4561 -1.2706 -0.4288
 4006SOL    HW223478   1.244   1.516  15.642  0.2941 -2.1703  0.4770
 4007SOL     OW23479   0.024   4.236   8.076  0.2496 -0.3673  0.3095
 4007SOL    HW123480   4.690   4.260   8.003  1.5445 -0.5490 -0.7465
 4007SOL    HW223481   4.720   4.304   8.138  1.2992  3.2062 -3.2055
 4008SOL     OW23482   0.236   3.271   2.903 -0.1316 -0.1006  0.1527
 4008SOL    HW123483   0.215   3.270   2.809 -0.0371 -0.5332  0.1385
 4008SOL    HW223484   0.184   3.194   2.925  0.6833 -0.7346 -0.1642
 4009SOL     OW23485   0.237   0.062  16.947 -0.3136 -0.0636  0.2510
 4009SOL    HW123486   0.236   4.712  17.009  0.8278 -1.1867 -1.0416
 4009SOL    HW223487   0.148   0.097  16.956  0.0310  1.3549 -1.7104
 4010SOL     OW23488   2.770   2.179  14.146 -0.3671  0.3225 -0.4222
 4010SOL    HW123489   2.780   2.093  14.187 -0.0611  0.6076  0.1033
 4010SOL    HW223490   2.681   2.171  14.111 -0.3488 -3.3087  0.3809
 4011SOL     OW23491   0.430   0.153  12.549 -0.6614 -0.4735  0.5394
 4011SOL    HW123492   0.491   0.196  12.609  0.5408 -0.9661 -0.3329
 4011SOL    HW223493   0.358   0.132  12.608 -1.3087  1.7494  0.5633
 4012SOL     OW23494   0.960   1.717  13.560 -0.6325  0.6535 -0.4236
 4012SOL    HW123495   0.958   1.800  13.512  0.3967  1.1540  0.3971
 4012SOL    HW223496   1.054   1.702  13.571 -1.0398 -0.8221  1.2533
 4013SOL     OW23497   0.441   4.059   9.119  0.4746 -0.4950  0.3464
 4013SOL    HW123498   0.449   4.003   9.042  3.1218 -1.3068  1.2333
 4013SOL    HW223499   0.507   4.122   9.090  2.0360 -1.2408  2.2692
 4014SOL     OW23500   4.345   2.823  15.390 -0.3805  0.1627 -0.3351
 4014SOL    HW123501   4.414   2.870  15.437  0.1650 -1.2669  0.2996
 4014SOL    HW223502   4.294   2.787  15.463 -1.4559 -0.7992 -1.5615
 4015SOL     OW23503   1.340   3.317   8.295  0.2723  0.8023  0.8494
 4015SOL    HW123504   1.404   3.251   8.326 -0.7112 -0.9067 -0.7745
 4015SOL    HW223505   1.268   3.311   8.358 -0.7540 -0.3032 -0.4304
 4016SOL     OW23506   4.099   4.051   0.853  0.1557  0.1966  0.1227
 4016SOL    HW123507   4.187   4.015   0.846 -0.0157 -0.0680 -0.6893
 4016SOL    HW223508   4.046   3.971   0.857 -1.7476  1.6307  3.3864
 4017SOL     OW23509   3.951   3.064  15.203  0.2962 -0.3225 -0.2983
 4017SOL    HW123510   4.035   3.020  15.192 -0.3772 -2.1924  1.9243
 4017SOL    HW223511   3.900   3.000  15.253  0.4517  1.6637  2.4128
 4018SOL     OW23512   4.314   3.353   3.107 -0.4689  0.1058  0.1039
 4018SOL    HW123513   4.367   3.411   3.052 -0.9686  0.3001 -0.1767
 4018SOL    HW223514   4.232   3.403   3.110  0.5761  1.8270 -0.0639
 4019SOL     OW23515   2.348   0.073  15.680 -0.3926 -0.7169 -0.1873
 4019SOL    HW123516   2.387   0.160  15.688 -0.2582 -0.6711 -1.2892
 4019SOL    HW223517   2.426   0.039  15.637 -0.2302 -0.3130 -0.2128
 4020SOL     OW23518   3.077   3.947   3.645 -0.3147 -0.4178  0.5152
 4020SOL    HW123519   3.059   3.875   3.585 -0.3153 -0.3154  0.3929
 4020SOL    HW223520   3.166   3.953   3.610 -0.2247  0.2871  0.8651
 4021SOL     OW23521   3.581   2.005  14.601 -0.3327 -0.0960  0.1135
 4021SOL    HW123522   3.520   1.932  14.597 -0.2158 -0.0970 -1.5132
 4021SOL    HW223523   3.606   1.999  14.694  1.6881  0.0491 -0.4180
 4022SOL     OW23524   0.208   3.996   0.057  0.0276  0.0308 -0.0554
 4022SOL    HW123525   0.283   3.940   0.035 -0.5011 -1.1647  1.1750
 4022SOL    HW223526   0.156   3.935   0.109 -0.5407  0.9286  0.4395
 4023SOL     OW23527   3.831   3.379   4.681  0.4004 -0.2847  0.0556
 4023SOL    HW123528   3.843   3.380   4.586 -1.1699  0.5133 -0.1344
 4023SOL    HW223529   3.922   3.355   4.698  0.0889 -0.8248  0.9165
 4024SOL     OW23530   1.387   0.303   7.741 -0.0461 -0.2502 -0.7290
 4024SOL    HW123531   1.314   0.316   7.681  0.8270 -0.5168 -1.8353
 4024SOL    HW223532   1.365   0.377   7.797  0.6341  0.9057 -2.0007
 4025SOL     OW23533   1.170   3.346   8.094  0.0302 -0.2507 -0.4446
 4025SOL    HW123534   1.216   3.424   8.064 -0.7706  1.2381  2.2254
 4025SOL    HW223535   1.215   3.321   8.174 -3.1697  1.2804  1.8304
 4026SOL     OW23536   0.839   2.293   1.046  0.6766  0.2232 -0.0691
 4026SOL    HW123537   0.798   2.211   1.017 -1.7842  1.0301  1.0913
 4026SOL    HW223538   0.839   2.344   0.965  2.6857 -0.0028 -0.2015
 4027SOL     OW23539   2.855   3.167   0.853  0.2821  0.0541  0.3758
 4027SOL    HW123540   2.868   3.190   0.945 -0.2044 -1.8745  0.9200
 4027SOL    HW223541   2.933   3.198   0.807  0.2685  2.1833  1.8013
 4028SOL     OW23542   0.704   1.675   6.403 -0.6511 -0.1604 -0.1680
 4028SOL    HW123543   0.729   1.657   6.312 -1.5558 -0.4860 -0.3566
 4028SOL    HW223544   0.755   1.608   6.449 -2.0850  0.9758  3.0903
 4029SOL     OW23545   1.805   3.382   4.460 -0.2796 -0.3889 -0.3182
 4029SOL    HW123546   1.877   3.322   4.443 -0.9468 -1.7653  1.6370
 4029SOL    HW223547   1.738   3.319   4.485 -1.3405  0.0918 -1.9493
 4030SOL     OW23548   2.979   4.361   2.426 -0.3657 -0.3995  0.4400
 4030SOL    HW123549   3.015   4.300   2.492 -1.3698  0.3809  1.7171
 4030SOL    HW223550   2.913   4.313   2.377  0.1188  0.7531 -1.3383
 4031SOL     OW23551   2.305   0.271   0.676 -0.0264 -0.6288  0.0392
 4031SOL    HW123552   2.360   0.246   0.602  0.2862  0.2434 -0.0259
 4031SOL    HW223553   2.278   0.354   0.637  1.1125 -0.1805  0.2076
 4032SOL     OW23554   0.882   0.023  16.379 -0.0103 -0.2969  0.1870
 4032SOL    HW123555   0.828   4.670  16.355  1.9088 -0.5728 -3.4518
 4032SOL    HW223556   0.924   0.034  16.293 -0.7429 -3.1637 -0.5523
 4033SOL     OW23557   4.408   2.465   2.957  0.0768 -0.2132  0.4139
 4033SOL    HW123558   4.489   2.488   2.913 -0.9741  0.0806 -1.3723
 4033SOL    HW223559   4.415   2.396   3.023 -0.7426  0.5402  1.3071
 4034SOL     OW23560   0.296   2.115   4.361 -0.2229 -0.5455  0.0563
 4034SOL    HW123561   0.203   2.132   4.376  0.0987  2.2271 -0.9618
 4034SOL    HW223562   0.306   2.044   4.424  2.1080  1.5937  2.1139
 4035SOL     OW23563   3.827   2.966   3.771 -0.0039  0.3921  0.6307
 4035SOL    HW123564   3.892   2.896   3.767  1.1132  1.3423  2.1164
 4035SOL    HW223565   3.882   3.032   3.814  0.5745 -0.1465  0.7098
 4036SOL     OW23566   1.934   0.288   7.542  0.4823 -0.2311 -0.5252
 4036SOL    HW123567   2.019   0.282   7.586 -0.7158  1.6672  2.0098
 4036SOL    HW223568   1.877   0.331   7.606 -0.1810 -0.0845 -1.2187
 4037SOL     OW23569   0.972   2.720   8.082  0.2046  0.5510  0.6320
 4037SOL    HW123570   1.041   2.762   8.132  0.1179  0.6148  0.6969
 4037SOL    HW223571   1.015   2.693   8.001 -0.8059 -1.8332  0.8759
 4038SOL     OW23572   3.325   4.345   9.925 -0.0887  0.0306 -0.2362
 4038SOL    HW123573   3.285   4.408   9.864  1.6272  0.8255 -0.5256
 4038SOL    HW223574   3.373   4.294   9.860 -1.5919 -0.5473 -0.9095
 4039SOL     OW23575   4.335   1.833   5.437  0.2802 -0.1132  0.2072
 4039SOL    HW123576   4.332   1.751   5.389 -1.1916  0.0431  0.0422
 4039SOL    HW223577   4.291   1.894   5.377  0.9639  0.2260  0.0537
 4040SOL     OW23578   1.902   1.549  13.952 -0.2695 -0.5211 -0.3924
 4040SOL    HW123579   1.823   1.500  13.975  0.3226 -1.1018  0.3996
 4040SOL    HW223580   1.968   1.479  13.957 -1.0303 -1.3704 -2.1077
 4041SOL     OW23581   4.452   2.045  14.158 -0.1400 -0.2081 -0.0407
 4041SOL    HW123582   4.479   1.968  14.208  1.4812  0.7497  0.5492
 4041SOL    HW223583   4.429   2.007  14.073 -0.8676 -1.2426  0.6247
 4042SOL     OW23584   0.997   0.873   6.466 -0.2876 -0.0489  0.4109
 4042SOL    HW123585   0.992   0.791   6.515 -1.9580  0.0110  0.3348
 4042SOL    HW223586   0.924   0.870   6.405 -0.3711 -0.8342  0.5579
 4043SOL     OW23587   0.954   3.974   3.501  0.2399 -0.2585 -0.4695
 4043SOL    HW123588   1.025   3.937   3.554 -0.5610  1.4957  1.8254
 4043SOL    HW223589   0.936   4.046   3.561  1.3106 -2.0309  2.0083
 4044SOL     OW23590   1.246   0.525   7.885 -0.5381 -0.0201 -0.4633
 4044SOL    HW123591   1.215   0.556   7.970 -0.3838 -0.3943 -0.2686
 4044SOL    HW223592   1.218   0.601   7.834 -1.4692  0.3023  0.5280
 4045SOL     OW23593   3.871   1.006   4.463  0.2750 -0.3776  0.0468
 4045SOL    HW123594   3.811   1.079   4.447  0.9716  0.2149  0.1596
 4045SOL    HW223595   3.953   1.052   4.444  0.2877 -0.4743 -0.1325
 4046SOL     OW23596   1.883   0.129  15.990  0.6334 -0.1664  0.2541
 4046SOL    HW123597   1.897   0.050  16.041  0.1540  1.2574  2.6116
 4046SOL    HW223598   1.898   0.193  16.060 -1.5698 -1.2099  1.6769
 4047SOL     OW23599   3.771   2.624   3.272 -0.3441 -0.1775  0.0466
 4047SOL    HW123600   3.677   2.615   3.284 -0.1270 -1.5349  0.8917
 4047SOL    HW223601   3.788   2.549   3.215 -0.8455 -0.6894  0.5612
 4048SOL     OW23602   2.908   3.347  15.450 -0.8750  0.5326  0.3614
 4048SOL    HW123603   2.814   3.355  15.466 -0.7562  1.3294  0.6426
 4048SOL    HW223604   2.940   3.419  15.503 -0.8140  0.2021  0.7709
 4049SOL     OW23605   3.965   0.748  16.600  0.4999 -0.0702 -0.1743
 4049SOL    HW123606   4.016   0.680  16.556 -0.2181 -1.5330  1.2703
 4049SOL    HW223607   4.041   0.793  16.635 -0.0704  0.2310  0.6728
 4050SOL     OW23608   2.617   0.602   6.258  0.1472 -0.4272  0.3489
 4050SOL    HW123609   2.582   0.555   6.182  0.5424 -3.1570  1.8256
 4050SOL    HW223610   2.612   0.544   6.334  2.0806 -0.2760  0.5867
 4051SOL     OW23611   2.879   0.291  13.515 -0.3908 -0.2564  0.3856
 4051SOL    HW123612   2.809   0.351  13.490  0.3939  0.9177  1.0099
 4051SOL    HW223613   2.825   0.213  13.523 -1.3515  0.2531 -1.1244
 4052SOL     OW23614   3.429   0.387  13.510 -0.2536 -0.1275 -0.5654
 4052SOL    HW123615   3.452   0.459  13.569 -0.1665  0.4822 -1.3421
 4052SOL    HW223616   3.349   0.424  13.473 -0.6287 -0.8737 -0.4913
 4053SOL     OW23617   3.755   2.455   7.866 -0.2411  0.2142  0.2301
 4053SOL    HW123618   3.712   2.449   7.780 -1.2792  1.5034  0.6557
 4053SOL    HW223619   3.801   2.371   7.869 -0.3852  0.1268 -0.0250
 4054SOL     OW23620   4.487   0.727  10.711 -0.5657 -0.0645  0.5819
 4054SOL    HW123621   4.425   0.671  10.664  0.3311  0.3223 -1.0462
 4054SOL    HW223622   4.500   0.707  10.804 -0.9037 -0.1608  0.6113
 4055SOL     OW23623   2.128   3.371  14.923 -0.2352 -0.3793 -0.3165
 4055SOL    HW123624   2.176   3.441  14.878  1.1788 -1.0644  0.1132
 4055SOL    HW223625   2.195   3.339  14.983  0.7351  0.9145 -0.7200
 4056SOL     OW23626   2.607   4.529   1.213  0.5223  0.7264  0.7270
 4056SOL    HW123627   2.549   4.480   1.271  0.0967 -0.4734 -0.7050
 4056SOL    HW223628   2.680   4.467   1.209  1.6226  2.1794 -1.5522
 4057SOL     OW23629   2.617   2.075  13.136  0.7586 -0.2483 -0.1070
 4057SOL    HW123630   2.645   2.091  13.046 -0.2252  0.4368 -0.2910
 4057SOL    HW223631   2.703   2.059  13.174  0.6888  2.3693  1.1212
 4058SOL     OW23632   3.168   1.548   1.643  0.3349  0.7766 -0.2069
 4058SOL    HW123633   3.180   1.564   1.550  1.2821  1.5961  0.0529
 4058SOL    HW223634   3.085   1.501   1.648  0.3148  0.6582 -1.8572
 4059SOL     OW23635   2.339   0.565   3.950  0.6873 -0.3447  0.0665
 4059SOL    HW123636   2.263   0.509   3.965  0.3298 -0.2565 -1.3564
 4059SOL    HW223637   2.406   0.505   3.979 -0.5302 -1.5540  0.3561
 4060SOL     OW23638   4.584   0.909   0.748  0.5300  0.2189 -0.4254
 4060SOL    HW123639   4.539   0.949   0.823 -1.4758 -2.1985 -0.3531
 4060SOL    HW223640   4.668   0.893   0.791  0.2620 -0.2062 -0.0642
 4061SOL     OW23641   0.036   1.733   9.004 -0.0636 -0.3571  0.4251
 4061SOL    HW123642   0.032   1.645   9.041 -0.0027 -0.9478 -0.9762
 4061SOL    HW223643   4.700   1.781   9.062 -0.6733  0.1750 -0.6253
 4062SOL     OW23644   0.744   3.553  14.492  0.3649  0.0355  0.2442
 4062SOL    HW123645   0.697   3.591  14.418  1.2855 -0.7541 -0.7296
 4062SOL    HW223646   0.803   3.622  14.524  2.1270 -1.3508 -0.0279
 4063SOL     OW23647   0.583   2.841  12.001 -0.6356 -0.4725  0.1146
 4063SOL    HW123648   0.585   2.921  11.949 -0.6309 -0.3572  0.2921
 4063SOL    HW223649   0.490   2.825  12.019 -0.8015 -0.1648 -0.4701
 4064SOL     OW23650   4.104   4.006   2.514 -0.0161 -0.4843  0.1360
 4064SOL    HW123651   4.098   3.968   2.427 -0.2870 -0.7004  0.2477
 4064SOL    HW223652   4.200   4.015   2.516 -0.0494 -0.5302  3.0700
 4065SOL     OW23653   4.148   1.133   1.743 -0.4132 -0.2376  0.5407
 4065SOL    HW123654   4.127   1.040   1.750  1.6106 -0.5860  1.9125
 4065SOL    HW223655   4.073   1.157   1.689 -0.2463  1.7615  1.2024
 4066SOL     OW23656   2.552   3.256   6.988 -0.1601  0.2369  0.2172
 4066SOL    HW123657   2.606   3.335   6.989  1.2345 -0.7279  0.8217
 4066SOL    HW223658   2.535   3.235   7.079  0.8082  1.5120  0.6946
 4067SOL     OW23659   1.798   1.393   5.845 -0.4363 -0.1046 -0.1752
 4067SOL    HW123660   1.874   1.382   5.788 -0.5862  0.1891 -0.4351
 4067SOL    HW223661   1.726   1.363   5.790 -1.0903  3.7217 -1.4506
 4068SOL     OW23662   0.892   2.302   2.661 -0.2005 -0.3465 -0.5880
 4068SOL    HW123663   0.843   2.384   2.655 -2.3864 -1.5218  1.2778
 4068SOL    HW223664   0.821   2.242   2.683 -0.3023 -1.1018 -2.8807
 4069SOL     OW23665   3.750   1.446   2.362  0.2458  0.0704  0.0569
 4069SOL    HW123666   3.662   1.414   2.344 -0.2162  1.9598 -1.0787
 4069SOL    HW223667   3.744   1.439   2.457  0.2852  1.5638  0.1645
 4070SOL     OW23668   1.175   1.340   9.884 -0.1114 -0.1944 -0.3171
 4070SOL    HW123669   1.152   1.343   9.791  0.0839 -0.5382 -0.3751
 4070SOL    HW223670   1.126   1.263   9.910 -2.4045  1.5386  0.5162
 4071SOL     OW23671   1.467   0.425   3.328 -0.6474  0.0360  0.0024
 4071SOL    HW123672   1.459   0.349   3.386  2.1086 -0.7690 -0.6827
 4071SOL    HW223673   1.416   0.395   3.253 -0.7382 -1.6510  0.7334
 4072SOL     OW23674   2.698   0.078   3.377  0.6160 -0.1859 -0.0308
 4072SOL    HW123675   2.655   0.150   3.423  0.4353  0.0862 -0.6329
 4072SOL    HW223676   2.645   0.081   3.297  1.2598  1.1487 -0.4141
 4073SOL     OW23677   0.138   0.899   9.191  0.2321  0.0978  0.3856
 4073SOL    HW123678   0.186   0.923   9.271 -0.0388  1.2534  0.1886
 4073SOL    HW223679   0.052   0.880   9.229 -1.2141  0.6214 -2.6962
 4074SOL     OW23680   0.318   1.976   2.110 -0.5169  0.1719 -0.3345
 4074SOL    HW123681   0.240   1.928   2.140 -0.0456 -1.0097 -1.0111
 4074SOL    HW223682   0.354   1.899   2.067 -0.7692 -0.4458  0.5429
 4075SOL     OW23683   3.474   1.897   6.334  0.3249  0.2692 -0.4538
 4075SOL    HW123684   3.421   1.972   6.306  0.3411 -0.0337 -1.2773
 4075SOL    HW223685   3.407   1.829   6.328  1.2085 -0.5916 -0.4958
 4076SOL     OW23686   2.413   2.077   8.260 -0.2417  0.0639  0.1566
 4076SOL    HW123687   2.454   2.015   8.200 -0.2614  0.9481 -0.7631
 4076SOL    HW223688   2.321   2.067   8.237 -0.2050  2.5354 -1.0182
 4077SOL     OW23689   1.504   3.954  17.047  0.0419 -0.0213  0.2228
 4077SOL    HW123690   1.527   3.927  17.136  0.2929  2.4257  0.9172
 4077SOL    HW223691   1.426   3.903  17.027 -0.2582  0.4971  0.0889
 4078SOL     OW23692   3.309   4.368   6.958 -0.4781  0.3352  0.1732
 4078SOL    HW123693   3.227   4.415   6.945  1.2956  3.4216  0.2595
 4078SOL    HW223694   3.364   4.420   6.900 -0.5146  1.1144  0.8300
 4079SOL     OW23695   3.756   3.289   3.487  0.3176 -0.3199 -0.2454
 4079SOL    HW123696   3.696   3.214   3.488  0.5805 -0.5025  2.1928
 4079SOL    HW223697   3.764   3.324   3.576 -1.5077  0.5579 -0.4157
 4080SOL     OW23698   3.890   4.259   2.423  0.3692  0.0593  0.3789
 4080SOL    HW123699   3.815   4.203   2.406 -0.5805  2.0475 -1.9309
 4080SOL    HW223700   3.866   4.341   2.381 -1.2404 -0.6301 -0.0136
 4081SOL     OW23701   2.561   4.103   6.325 -0.1392 -0.7016  0.3065
 4081SOL    HW123702   2.650   4.077   6.351  0.5157  0.8453 -0.3622
 4081SOL    HW223703   2.571   4.198   6.327 -2.3455 -0.4366 -1.2782
 4082SOL     OW23704   1.312   3.283  16.570 -0.0643 -0.0528  0.4593
 4082SOL    HW123705   1.343   3.360  16.619 -1.1249 -0.4161  1.6974
 4082SOL    HW223706   1.384   3.249  16.518 -0.0822 -0.1200  0.4795
 4083SOL     OW23707   1.200   1.583   9.546 -0.2061  0.0982  0.0108
 4083SOL    HW123708   1.287   1.586   9.505  0.5696  0.2321  1.6596
 4083SOL    HW223709   1.166   1.667   9.516 -2.0772 -0.3615  0.8666
 4084SOL     OW23710   1.539   4.180   9.439  0.0734  0.4933  0.2964
 4084SOL    HW123711   1.494   4.244   9.494 -0.6845 -0.4458  0.7591
 4084SOL    HW223712   1.604   4.239   9.400  0.0028 -0.5148 -1.3312
 4085SOL     OW23713   1.315   3.193  17.682 -0.0556  0.0919 -0.5880
 4085SOL    HW123714   1.407   3.169  17.670 -0.0467 -1.0508  1.8371
 4085SOL    HW223715   1.315   3.286  17.657  2.6674  0.8614  2.1579
 4086SOL     OW23716   3.822   3.272   6.725 -0.6422 -0.1884  0.3446
 4086SOL    HW123717   3.827   3.235   6.637 -1.2283 -2.5979  1.3212
 4086SOL    HW223718   3.887   3.217   6.768  1.3988  1.2692 -0.8386
 4087SOL     OW23719   1.371   0.750   8.253  0.2031 -0.4219 -0.4240
 4087SOL    HW123720   1.395   0.843   8.258 -1.7134  0.0456 -0.0776
 4087SOL    HW223721   1.426   0.698   8.312 -0.9825  0.4477  1.4778
 4088SOL     OW23722   1.968   2.102   1.500  0.0952  0.5243  1.0211
 4088SOL    HW123723   1.924   2.019   1.520 -0.5023  0.4486 -0.5587
 4088SOL    HW223724   1.996   2.133   1.586 -1.8618  4.1177  0.3774
 4089SOL     OW23725   2.331   0.058   5.971  0.9247  0.5325 -0.2362
 4089SOL    HW123726   2.276   0.056   5.892 -2.3386 -2.1351  2.1038
 4089SOL    HW223727   2.356   4.689   5.987 -0.7128  0.0867 -0.1761
 4090SOL     OW23728   3.438   1.837  13.897 -0.4058 -0.2062  0.3641
 4090SOL    HW123729   3.370   1.893  13.935 -1.8714 -2.3852  0.9797
 4090SOL    HW223730   3.401   1.750  13.917 -4.8859  2.3694  3.2938
 4091SOL     OW23731   4.299   3.947   9.077  0.3173  0.5544 -0.1378
 4091SOL    HW123732   4.312   4.036   9.109 -2.3761  1.6374 -2.0868
 4091SOL    HW223733   4.234   3.962   9.008 -0.8651 -0.6864  0.6949
 4092SOL     OW23734   2.111   0.978   9.880 -0.0146  0.4439  0.1751
 4092SOL    HW123735   2.032   1.016   9.918 -0.4760  2.1492 -2.4883
 4092SOL    HW223736   2.151   1.057   9.843  1.2036 -1.4083 -2.4368
 4093SOL     OW23737   3.273   0.063   3.265 -0.1309  0.0016 -0.6111
 4093SOL    HW123738   3.241   0.153   3.263  1.2283  0.4690 -1.2346
 4093SOL    HW223739   3.368   0.067   3.257 -0.2741  0.9495 -1.8285
 4094SOL     OW23740   0.731   2.016   1.238 -0.1345  0.2411  0.1878
 4094SOL    HW123741   0.744   1.924   1.215 -0.4818  0.5175 -1.1233
 4094SOL    HW223742   0.815   2.035   1.279  1.7704 -0.5627 -3.3881
 4095SOL     OW23743   0.578   3.041  16.406  0.0773  0.7366 -0.3596
 4095SOL    HW123744   0.522   3.022  16.331 -0.0575 -0.5139  0.0523
 4095SOL    HW223745   0.513   3.088  16.458 -0.1309  1.0044 -0.8615
 4096SOL     OW23746   0.624   3.020  10.387 -0.4385  0.1421  0.7613
 4096SOL    HW123747   0.568   3.041  10.461  0.3666 -0.8962  1.6501
 4096SOL    HW223748   0.704   3.005  10.436 -0.1129  1.2201  0.5716
 4097SOL     OW23749   1.873   1.490   7.802  0.5300 -0.1344 -0.0865
 4097SOL    HW123750   1.923   1.472   7.882  0.6531 -1.7868 -0.5266
 4097SOL    HW223751   1.942   1.531   7.750  0.7524 -1.2710 -0.7044
 4098SOL     OW23752   1.026   2.568  16.971 -0.0888  0.5755 -0.1854
 4098SOL    HW123753   1.033   2.473  16.985 -0.8285  0.7183  1.2115
 4098SOL    HW223754   0.967   2.566  16.897  1.0971 -2.9607 -1.0253
 4099SOL     OW23755   1.324   1.155   9.038 -0.5226  0.2148 -0.2259
 4099SOL    HW123756   1.335   1.245   9.007  0.3729 -0.6406 -2.3969
 4099SOL    HW223757   1.318   1.174   9.131  0.7039  0.0617 -0.1193
 4100SOL     OW23758   2.443   2.680   1.121 -0.5519  0.1189  0.2382
 4100SOL    HW123759   2.419   2.606   1.177  2.0638  0.2485  1.5167
 4100SOL    HW223760   2.530   2.657   1.087 -1.3076 -0.4178 -1.3520
 4101SOL     OW23761   1.078   1.715  11.670 -0.1714  0.1990 -0.2264
 4101SOL    HW123762   1.171   1.696  11.676  0.0199  0.6995 -1.6788
 4101SOL    HW223763   1.074   1.716  11.574  0.2651  1.2527 -0.2289
 4102SOL     OW23764   0.718   2.475   3.689  0.5168  0.0152 -0.0628
 4102SOL    HW123765   0.664   2.410   3.734  1.7219 -0.1751  1.1154
 4102SOL    HW223766   0.750   2.419   3.619  1.3602  0.6740 -0.2073
 4103SOL     OW23767   4.721   2.614   3.098 -0.4388  0.2200 -0.2196
 4103SOL    HW123768   4.680   2.632   3.183 -1.0737  1.0367 -0.6950
 4103SOL    HW223769   0.035   2.528   3.118 -2.0530 -0.7721 -1.5983
 4104SOL     OW23770   2.078   2.927  12.760  0.3480  0.3668  0.0122
 4104SOL    HW123771   2.034   2.969  12.686 -0.8767 -1.0162 -0.0456
 4104SOL    HW223772   2.142   2.992  12.789  0.5111 -0.0647  0.6052
 4105SOL     OW23773   0.163   2.061  13.084  0.4106  0.4559 -0.0091
 4105SOL    HW123774   0.163   2.151  13.118  1.7798  0.0655  1.0148
 4105SOL    HW223775   0.117   2.010  13.151  0.4159  0.6856  0.1750
 4106SOL     OW23776   4.480   1.508   3.929  0.0704  0.5125 -0.1777
 4106SOL    HW123777   4.394   1.549   3.926 -0.4461 -0.5608 -0.0610
 4106SOL    HW223778   4.450   1.417   3.929  3.3278 -0.5683  1.8062
 4107SOL     OW23779   3.928   1.911   0.486 -0.0164 -0.3650 -0.1689
 4107SOL    HW123780   3.931   1.931   0.580 -2.2116  1.2306 -0.4421
 4107SOL    HW223781   3.846   1.862   0.490  0.8061 -1.6560  0.8655
 4108SOL     OW23782   4.528   4.536  14.344 -0.4800 -0.2735 -0.5715
 4108SOL    HW123783   4.482   4.550  14.261 -2.3959  0.8734  0.6700
 4108SOL    HW223784   4.480   4.592  14.405 -1.6621  0.4090 -2.1465
 4109SOL     OW23785   3.272   2.286  10.851 -0.2152  0.3540 -0.3307
 4109SOL    HW123786   3.365   2.265  10.862  0.1980  2.7320  0.6728
 4109SOL    HW223787   3.236   2.207  10.892 -2.3424  2.1789  1.3056
 4110SOL     OW23788   1.655   2.346   0.682 -0.5003  0.1970 -0.1565
 4110SOL    HW123789   1.579   2.329   0.737 -1.4669  2.9451 -0.6221
 4110SOL    HW223790   1.664   2.439   0.706 -1.5764  0.1579  0.4157
 4111SOL     OW23791   4.698   1.700  16.943 -0.2489  0.1735  0.5575
 4111SOL    HW123792   4.618   1.724  16.989 -1.2379  1.1364 -1.6727
 4111SOL    HW223793   0.018   1.654  17.016 -0.3795  0.1132  0.5945
 4112SOL     OW23794   2.871   4.296   8.109  0.3942 -0.1852 -0.2083
 4112SOL    HW123795   2.921   4.294   8.027 -0.1227 -0.3605 -0.5203
 4112SOL    HW223796   2.878   4.206   8.141 -2.5475 -0.9254 -1.6526
 4113SOL     OW23797   0.045   3.368   6.612  0.0610  0.1008  0.3228
 4113SOL    HW123798   0.038   3.279   6.645  1.5070 -0.2958 -0.4346
 4113SOL    HW223799   0.070   3.414   6.693 -1.5752  1.0963  0.2611
 4114SOL     OW23800   3.505   0.236   0.473  0.1587 -0.0254  0.2241
 4114SOL    HW123801   3.433   0.176   0.455 -1.7458  3.2840 -2.9630
 4114SOL    HW223802   3.456   0.309   0.510  1.8192 -0.6975  3.7369
 4115SOL     OW23803   3.836   0.233   5.579  0.7158  0.3609  0.3331
 4115SOL    HW123804   3.811   0.141   5.579  0.5145  0.4100 -1.3153
 4115SOL    HW223805   3.851   0.247   5.672 -0.4718  1.2646  0.3772
 4116SOL     OW23806   4.242   2.966   5.414 -0.2165 -0.4236 -0.3478
 4116SOL    HW123807   4.272   3.022   5.342 -1.1483 -1.9185 -1.8944
 4116SOL    HW223808   4.311   2.900   5.411  0.7951  0.5995  0.3808
 4117SOL     OW23809   0.643   1.953   2.007  0.3458  0.4376 -0.0571
 4117SOL    HW123810   0.732   1.983   2.023  0.4154 -0.8441  1.8414
 4117SOL    HW223811   0.630   1.990   1.919  1.9647 -1.1412 -0.9460
 4118SOL     OW23812   1.213   3.421   0.888 -0.2925 -0.0860  0.8951
 4118SOL    HW123813   1.295   3.470   0.885 -0.4669  0.1664  0.1691
 4118SOL    HW223814   1.254   3.335   0.901  1.8402  1.0079  1.3821
 4119SOL     OW23815   4.005   2.391   5.314  0.4126  0.3682  0.6145
 4119SOL    HW123816   4.015   2.485   5.300  2.6281  0.2865  1.7396
 4119SOL    HW223817   4.097   2.367   5.307  0.2853  0.3144 -1.0033
 4120SOL     OW23818   4.650   0.680  11.264 -0.1833  0.1796 -0.1689
 4120SOL    HW123819   4.608   0.611  11.213 -2.2239  1.0617  0.3203
 4120SOL    HW223820   0.022   0.663  11.263 -1.0001 -4.0344 -1.4452
 4121SOL     OW23821   4.461   2.911   8.441 -0.1045  0.2956 -0.4566
 4121SOL    HW123822   4.518   2.834   8.448 -1.2244 -0.3591  1.3214
 4121SOL    HW223823   4.493   2.958   8.363  2.5979 -0.9608 -0.1021
 4122SOL     OW23824   2.110   1.643  11.250  0.1004  0.3036 -0.0850
 4122SOL    HW123825   2.106   1.588  11.172  0.0799  0.3916 -0.1457
 4122SOL    HW223826   2.048   1.601  11.310  0.2106  1.8071  1.0639
 4123SOL     OW23827   3.278   0.323  17.374  0.5002  0.0505 -0.9785
 4123SOL    HW123828   3.265   0.371  17.292 -0.4669  0.5665 -0.5195
 4123SOL    HW223829   3.286   0.402  17.427  1.1672 -1.0415  0.5352
 4124SOL     OW23830   0.274   4.053   9.344  0.4508 -0.0717 -0.3410
 4124SOL    HW123831   0.284   3.964   9.378  0.2534 -0.8531 -2.3246
 4124SOL    HW223832   0.328   4.053   9.264  0.6163  0.5215 -0.2319
 4125SOL     OW23833   3.245   1.079   6.510 -0.4468  0.1043  0.0665
 4125SOL    HW123834   3.256   1.001   6.566  1.6651  0.1291 -0.3231
 4125SOL    HW223835   3.213   1.052   6.424  1.7083 -0.6739 -0.4895
 4126SOL     OW23836   3.718   0.450  11.100  0.3654  0.2621 -0.5916
 4126SOL    HW123837   3.639   0.398  11.084  0.0099  1.0744 -1.4770
 4126SOL    HW223838   3.720   0.437  11.195  2.5472  3.7453 -0.1863
 4127SOL     OW23839   1.673   4.652   2.090 -0.2906  0.2992  0.0939
 4127SOL    HW123840   1.655   4.672   2.182  1.7548  4.0630 -0.3484
 4127SOL    HW223841   1.584   4.619   2.078 -0.8578  1.2465  1.6234
 4128SOL     OW23842   1.019   2.464   6.202  0.0734 -0.2788  0.2092
 4128SOL    HW123843   0.955   2.524   6.164 -0.1459  0.2187  1.3797
 4128SOL    HW223844   0.976   2.382   6.225 -0.2089  0.1802  1.2908
 4129SOL     OW23845   3.541   0.767   5.274  0.0956  0.4171  0.1221
 4129SOL    HW123846   3.573   0.814   5.197 -2.8142  0.4252 -1.0672
 4129SOL    HW223847   3.570   0.677   5.257 -2.3558 -0.4105  0.3747
 4130SOL     OW23848   0.777   3.338   7.614 -0.1609  0.1317 -0.1107
 4130SOL    HW123849   0.761   3.250   7.649  1.3056  0.8860  2.4627
 4130SOL    HW223850   0.770   3.316   7.521 -0.2664  0.9243 -0.2892
 4131SOL     OW23851   0.567   1.476   8.660  0.1610  0.0957 -0.0442
 4131SOL    HW123852   0.506   1.421   8.711  0.4319 -2.0346 -2.0087
 4131SOL    HW223853   0.518   1.557   8.646 -1.9398 -1.2791 -0.7140
 4132SOL     OW23854   1.298   3.049   2.005 -0.5541  0.6060 -0.1543
 4132SOL    HW123855   1.298   2.953   1.997  2.3492  0.6391 -0.8328
 4132SOL    HW223856   1.337   3.087   1.927 -1.3297 -0.5127 -1.0823
 4133SOL     OW23857   1.015   4.611   1.730  0.2952 -0.4999  0.0884
 4133SOL    HW123858   0.942   4.568   1.685  1.0806 -1.1880 -0.5390
 4133SOL    HW223859   1.025   4.570   1.816 -0.9903 -0.2702  0.3320
 4134SOL     OW23860   3.032   2.389   2.417 -0.0959  0.0931  0.6055
 4134SOL    HW123861   3.048   2.308   2.465 -1.7153 -0.2299  0.6058
 4134SOL    HW223862   2.949   2.367   2.373 -0.7901  0.3790  1.7881
 4135SOL     OW23863   3.032   1.447   5.856  0.0039 -0.6290  0.6939
 4135SOL    HW123864   2.945   1.446   5.896  0.4189  0.9294  1.6019
 4135SOL    HW223865   3.008   1.407   5.772  2.2287  1.3743 -0.8638
 4136SOL     OW23866   3.653   1.480   9.199 -0.5495  0.7167 -0.8479
 4136SOL    HW123867   3.612   1.539   9.263  0.1079  0.6448 -0.3558
 4136SOL    HW223868   3.745   1.488   9.224 -0.6254  2.9190 -1.2604
 4137SOL     OW23869   0.244   4.631   7.742 -0.1813 -0.2736 -0.1210
 4137SOL    HW123870   0.261   4.627   7.836 -0.2949 -0.6652 -0.1179
 4137SOL    HW223871   0.218   0.001   7.745  0.1064 -0.2061  0.3205
 4138SOL     OW23872   1.407   4.443   5.411  0.3497  0.0301 -0.0524
 4138SOL    HW123873   1.444   4.445   5.322 -1.5001  0.5735 -0.8310
 4138SOL    HW223874   1.384   4.351   5.422 -0.1055  0.0831 -0.5217
 4139SOL     OW23875   2.532   0.505   6.023 -0.4596  0.1548 -0.2619
 4139SOL    HW123876   2.582   0.559   5.962 -3.6093  0.8807 -2.1463
 4139SOL    HW223877   2.565   0.419   5.998 -1.0504  0.7201 -2.9544
 4140SOL     OW23878   3.589   0.492   2.757 -0.9550  0.5844  0.3293
 4140SOL    HW123879   3.676   0.519   2.784 -0.0436 -0.5036 -1.5129
 4140SOL    HW223880   3.595   0.396   2.751 -0.3986  0.6564 -0.2191
 4141SOL     OW23881   2.322   0.020   2.217  0.5959  0.3091 -0.2397
 4141SOL    HW123882   2.368   0.036   2.299  4.6307  1.8879 -2.8443
 4141SOL    HW223883   2.398   0.012   2.160  0.7555 -0.8018  0.1380
 4142SOL     OW23884   3.150   1.347   6.335  0.1447  0.2332 -0.0227
 4142SOL    HW123885   3.160   1.376   6.426 -0.0110 -1.2189  0.4486
 4142SOL    HW223886   3.066   1.385   6.307  0.0590 -0.9425 -1.3233
 4143SOL     OW23887   2.891   0.742   5.886  0.0304 -0.6491 -0.0246
 4143SOL    HW123888   2.890   0.668   5.826  0.5474 -1.7418  1.3352
 4143SOL    HW223889   2.874   0.689   5.964 -0.8433 -1.1977 -0.5905
 4144SOL     OW23890   2.787   0.531  14.900 -0.0568  0.4375 -0.5895
 4144SOL    HW123891   2.824   0.512  14.813 -0.8866  0.8261 -1.0231
 4144SOL    HW223892   2.740   0.449  14.911 -0.7460  0.9551  0.2712
 4145SOL     OW23893   3.959   4.096   8.664  0.1508  0.2748  0.1668
 4145SOL    HW123894   3.941   4.168   8.604  2.1867 -1.4800 -2.5157
 4145SOL    HW223895   4.035   4.056   8.622 -0.7680 -0.9916 -0.2880
 4146SOL     OW23896   4.611   2.424  11.117  0.1465  0.2335 -0.4212
 4146SOL    HW123897   4.706   2.429  11.106  0.2478 -0.2209  0.2931
 4146SOL    HW223898   4.594   2.513  11.147  4.5434  0.7043  0.6563
 4147SOL     OW23899   3.674   4.442   6.342 -0.0882 -0.3446 -0.0180
 4147SOL    HW123900   3.702   4.526   6.379 -0.1557 -0.7619  0.9640
 4147SOL    HW223901   3.609   4.479   6.282  0.4700 -0.6790 -0.8197
 4148SOL     OW23902   4.697   2.462   4.000 -1.1648  0.0770 -0.2564
 4148SOL    HW123903   4.662   2.374   3.989  0.5884 -0.7055  0.5472
 4148SOL    HW223904   4.680   2.462   4.094 -0.4091 -2.6192 -0.1261
 4149SOL     OW23905   3.155   3.039   8.432 -0.3013  0.4376 -0.1333
 4149SOL    HW123906   3.135   2.995   8.514  2.1712 -1.1156 -0.3819
 4149SOL    HW223907   3.128   2.971   8.371 -0.1054  1.5794 -1.4861
 4150SOL     OW23908   1.565   1.341   4.937 -0.1932 -0.5450  0.1332
 4150SOL    HW123909   1.619   1.393   4.879 -1.0264 -0.0303 -0.1808
 4150SOL    HW223910   1.629   1.275   4.965 -1.8795 -0.7991  3.4304
 4151SOL     OW23911   1.490   0.654  15.470  0.8895  0.1630  0.1132
 4151SOL    HW123912   1.427   0.696  15.411  1.2107  0.2717 -0.1485
 4151SOL    HW223913   1.474   0.698  15.553 -1.2946 -3.1685  1.4545
 4152SOL     OW23914   3.209   0.490  16.952  0.6002 -0.4042  0.4247
 4152SOL    HW123915   3.298   0.455  16.954  0.2564 -1.4414 -2.6745
 4152SOL    HW223916   3.178   0.494  17.042 -0.4546 -1.2752  0.0867
 4153SOL     OW23917   4.452   2.224   7.341 -0.1632  0.2588  0.7105
 4153SOL    HW123918   4.380   2.202   7.284  0.8221  0.8017 -0.7395
 4153SOL    HW223919   4.504   2.259   7.268  2.2324 -1.2826  1.6626
 4154SOL     OW23920   1.188   2.381   4.887 -0.1615 -0.7155 -0.0971
 4154SOL    HW123921   1.280   2.403   4.904 -0.1752  0.9497 -2.3024
 4154SOL    HW223922   1.206   2.317   4.819  0.1780 -1.2496  0.4881
 4155SOL     OW23923   3.034   2.863   8.254  0.0287 -0.1775  0.6755
 4155SOL    HW123924   2.973   2.896   8.189  1.2704 -1.0374 -0.9361
 4155SOL    HW223925   2.977   2.793   8.286 -2.6555  1.9740  0.5037
 4156SOL     OW23926   2.836   3.303   7.905 -0.0735 -0.0853 -0.0930
 4156SOL    HW123927   2.756   3.356   7.906 -0.5859 -0.9542  3.1032
 4156SOL    HW223928   2.870   3.338   7.823 -1.2530 -0.2333 -0.6549
 4157SOL     OW23929   4.110   2.699   7.969  0.1075  0.6053  0.0779
 4157SOL    HW123930   4.092   2.611   8.004  0.7323 -0.2217 -1.6698
 4157SOL    HW223931   4.185   2.720   8.024  0.4710 -2.4625  0.7717
 4158SOL     OW23932   2.970   1.618   8.257  1.2589  0.0811 -0.0567
 4158SOL    HW123933   3.046   1.572   8.295  0.9235  0.4192  1.0223
 4158SOL    HW223934   2.907   1.547   8.242  1.2885 -0.1970  1.0652
 4159SOL     OW23935   0.335   0.216  14.885 -0.1301 -0.1585 -0.0206
 4159SOL    HW123936   0.250   0.205  14.843 -0.0531  0.6664 -0.3938
 4159SOL    HW223937   0.342   0.130  14.925  0.0836 -0.2794 -0.3166
 4160SOL     OW23938   2.092   2.919   6.136  0.0684 -0.6231 -0.4372
 4160SOL    HW123939   2.124   2.828   6.138  0.6756 -0.4110 -0.4898
 4160SOL    HW223940   2.041   2.935   6.215  0.7512 -0.9077  0.0615
 4161SOL     OW23941   1.812   1.630  12.783  0.3474 -0.2311 -1.1032
 4161SOL    HW123942   1.827   1.535  12.787 -2.2700 -0.6377 -0.8609
 4161SOL    HW223943   1.717   1.639  12.791  0.7421  2.1229  0.8220
 4162SOL     OW23944   4.720   2.745  11.156  0.1185  0.1160 -0.7298
 4162SOL    HW123945   0.021   2.837  11.156  0.2585  0.1061 -3.4919
 4162SOL    HW223946   0.068   2.704  11.105 -1.0427 -0.4059 -1.9429
 4163SOL     OW23947   3.869   2.781   2.749 -0.3938 -0.2350 -0.0515
 4163SOL    HW123948   3.865   2.784   2.654 -0.1313  0.9176 -0.0296
 4163SOL    HW223949   3.774   2.787   2.764 -0.0102  0.7278  2.0415
 4164SOL     OW23950   2.316   0.177  15.288  0.2308  0.4566  0.0676
 4164SOL    HW123951   2.311   0.248  15.224 -0.6297  1.1891  0.9575
 4164SOL    HW223952   2.237   0.192  15.340 -0.1596  0.4297 -0.5185
 4165SOL     OW23953   0.049   1.758   5.790  0.1794 -0.1226  0.0429
 4165SOL    HW123954   4.700   1.740   5.852  0.6183  0.1986  0.6497
 4165SOL    HW223955   0.054   1.671   5.753  0.8601 -0.8868  1.9201
 4166SOL     OW23956   4.085   1.540   4.326 -0.4690 -0.4590  1.0353
 4166SOL    HW123957   4.080   1.469   4.389  0.3383  0.3916  2.0588
 4166SOL    HW223958   4.179   1.552   4.313  0.2480 -2.7170  4.1349
 4167SOL     OW23959   1.245   3.446   5.951  1.0179 -0.0266 -0.0674
 4167SOL    HW123960   1.226   3.372   5.893 -0.8274  0.6750 -0.3645
 4167SOL    HW223961   1.168   3.503   5.949  0.2978 -1.0222 -1.1448
 4168SOL     OW23962   3.651   0.586  10.863  0.4718 -0.5134  0.7885
 4168SOL    HW123963   3.718   0.650  10.883  0.1245  0.0748  0.0668
 4168SOL    HW223964   3.664   0.522  10.933  1.8229  0.5781  1.5151
 4169SOL     OW23965   4.068   4.267   0.222 -0.1824 -0.2814  0.0379
 4169SOL    HW123966   4.068   4.323   0.299 -0.8955  0.6164 -0.6159
 4169SOL    HW223967   4.081   4.336   0.157  0.7125  0.4014  0.9461
 4170SOL     OW23968   0.312   0.539   5.220 -0.7466 -0.2995  0.5505
 4170SOL    HW123969   0.243   0.478   5.194 -2.6485  1.9455  0.3960
 4170SOL    HW223970   0.277   0.586   5.295 -0.9297 -0.1530  0.3730
 4171SOL     OW23971   1.125   2.013   0.347  0.0728  0.4136 -0.3438
 4171SOL    HW123972   1.163   2.004   0.434 -2.2336 -1.5398  0.4599
 4171SOL    HW223973   1.150   2.104   0.331  1.6809 -0.7583 -4.6563
 4172SOL     OW23974   0.031   0.597   7.788 -0.4733  0.5287  0.6061
 4172SOL    HW123975   0.108   0.606   7.731 -1.6455  1.2321 -0.8776
 4172SOL    HW223976   0.077   0.587   7.871 -1.5427  0.4462  1.1923
 4173SOL     OW23977   4.249   2.005   8.571 -0.0205 -0.3484 -0.2257
 4173SOL    HW123978   4.265   1.951   8.494  0.0541  1.2711 -1.3451
 4173SOL    HW223979   4.271   1.950   8.646 -3.5449  0.4937  1.4523
 4174SOL     OW23980   2.859   4.120   2.627 -0.0441 -0.1905 -0.1446
 4174SOL    HW123981   2.803   4.057   2.582  0.4156 -0.2748 -0.6007
 4174SOL    HW223982   2.944   4.096   2.591 -0.1938 -0.0453 -0.6057
 4175SOL     OW23983   1.731   3.688  12.050  0.2092  0.1990  0.2863
 4175SOL    HW123984   1.775   3.681  11.965  0.0582  0.6711  0.1703
 4175SOL    HW223985   1.640   3.674  12.023  0.0671 -2.5507  2.1470
 4176SOL     OW23986   4.140   2.528  10.840 -0.1261 -0.0332 -0.1231
 4176SOL    HW123987   4.131   2.624  10.838 -0.0910 -0.0865 -2.1651
 4176SOL    HW223988   4.231   2.533  10.812 -0.2645  0.4248 -0.5049
 4177SOL     OW23989   2.348   1.832   4.522 -0.1660 -0.3973 -0.7332
 4177SOL    HW123990   2.350   1.925   4.499  0.2063  0.1529  1.5606
 4177SOL    HW223991   2.283   1.826   4.592  2.2966 -2.4833  1.3766
 4178SOL     OW23992   1.157   0.078   2.190 -1.0854  0.2001  0.1069
 4178SOL    HW123993   1.162   0.108   2.099  3.7036 -0.5329  0.1331
 4178SOL    HW223994   1.100   0.146   2.226 -1.8802 -0.9670  1.0354
 4179SOL     OW23995   0.412   0.586   4.254 -0.3494  0.4872  0.4949
 4179SOL    HW123996   0.443   0.655   4.196 -0.5781 -1.2808 -1.7027
 4179SOL    HW223997   0.466   0.511   4.230  0.3488  1.1377  0.0239
 4180SOL     OW23998   3.788   3.252   5.347 -0.2469  0.0257  0.4664
 4180SOL    HW123999   3.879   3.280   5.346 -0.4123  0.4867 -1.4812
 4180SOL    HW224000   3.781   3.221   5.437 -1.1808 -2.7147 -0.5651
 4181SOL     OW24001   1.610   0.020   4.771  0.0318  0.3947 -0.0315
 4181SOL    HW124002   1.637   4.721   4.682 -1.6781  0.7206 -0.6282
 4181SOL    HW224003   1.634   4.664   4.821  0.1353 -0.1731 -0.9778
 4182SOL     OW24004   4.477   3.544   8.866 -0.6280 -0.1264  0.1962
 4182SOL    HW124005   4.440   3.502   8.944  0.0686 -0.4192  0.3724
 4182SOL    HW224006   4.462   3.636   8.889  0.3393  0.0947 -0.0419
 4183SOL     OW24007   1.292   4.355   1.399  0.7572  0.2234 -0.3295
 4183SOL    HW124008   1.332   4.368   1.313 -0.4634 -0.4982 -1.0181
 4183SOL    HW224009   1.342   4.416   1.453  0.2159  0.4007 -0.0243
 4184SOL     OW24010   4.112   2.500  16.101 -0.0885  0.1057 -0.3556
 4184SOL    HW124011   4.122   2.584  16.146  0.5953  0.0035 -0.3177
 4184SOL    HW224012   4.031   2.467  16.140  0.9628 -1.4769  0.4994
 4185SOL     OW24013   0.527   1.060   7.406 -0.3579  0.2435  0.0148
 4185SOL    HW124014   0.562   0.979   7.369  2.8382  0.9449  1.4978
 4185SOL    HW224015   0.452   1.032   7.458 -1.1503  0.0867 -1.2163
 4186SOL     OW24016   2.626   3.507   2.759 -0.3343 -0.0773  0.1578
 4186SOL    HW124017   2.592   3.545   2.678 -1.7640 -1.6806  0.0193
 4186SOL    HW224018   2.612   3.582   2.817  0.0973  2.1430 -2.5746
 4187SOL     OW24019   1.210   0.944   5.244 -0.9983  0.2893  0.0351
 4187SOL    HW124020   1.173   1.010   5.186 -0.1461 -0.1474 -0.9886
 4187SOL    HW224021   1.234   0.879   5.178 -2.2087 -0.0745 -0.0631
 4188SOL     OW24022   1.031   4.163   2.986 -0.6110 -0.4782 -0.1369
 4188SOL    HW124023   1.022   4.068   2.989  1.5780 -0.7996 -3.2348
 4188SOL    HW224024   1.113   4.174   2.938 -0.7602  0.2609 -0.2336
 4189SOL     OW24025   1.759   2.733   5.150 -0.2147  0.5275  0.1233
 4189SOL    HW124026   1.681   2.677   5.159  1.7096 -2.2577 -0.4799
 4189SOL    HW224027   1.810   2.703   5.075  0.5226  1.9360  0.0570
 4190SOL     OW24028   2.941   3.247  15.017 -0.2777 -0.5048  0.2278
 4190SOL    HW124029   2.946   3.342  15.032 -2.3527 -0.5154  0.9851
 4190SOL    HW224030   3.034   3.228  15.029 -0.1935  0.2029  0.6665
 4191SOL     OW24031   0.541   1.354  17.267 -0.2177 -0.5085 -0.0707
 4191SOL    HW124032   0.592   1.281  17.230 -0.0007 -0.7658  0.7446
 4191SOL    HW224033   0.600   1.423  17.296 -1.0611 -0.7324  2.2058
 4192SOL     OW24034   3.939   3.318   5.983 -0.0983 -0.5069  0.2299
 4192SOL    HW124035   3.965   3.320   5.890  0.8344  0.5829  0.5208
 4192SOL    HW224036   3.904   3.407   5.993 -1.0397 -0.7213 -1.1679
 4193SOL     OW24037   3.803   1.765   7.555 -0.3186  0.1438  0.2276
 4193SOL    HW124038   3.887   1.761   7.601  1.1511 -0.3338 -2.5053
 4193SOL    HW224039   3.834   1.753   7.466 -1.1147  0.6182 -0.1134
 4194SOL     OW24040   3.297   2.959   2.992 -0.0451  0.6760  0.2787
 4194SOL    HW124041   3.303   2.977   3.086 -0.5521  0.3288  0.3722
 4194SOL    HW224042   3.316   2.867   2.972  0.6955  1.0116 -0.5764
 4195SOL     OW24043   1.554   4.253   8.079  0.5964 -0.3395  0.1977
 4195SOL    HW124044   1.544   4.159   8.067 -0.5697 -0.1900  0.0331
 4195SOL    HW224045   1.629   4.249   8.138  0.1213 -0.3830  0.7887
 4196SOL     OW24046   3.494   3.998   7.477  0.6698 -0.8197 -0.3615
 4196SOL    HW124047   3.520   4.057   7.547  0.1722 -0.8321 -0.1717
 4196SOL    HW224048   3.432   4.053   7.429 -0.1494  0.0317  1.6713
 4197SOL     OW24049   3.764   3.112   7.618  0.4060  0.0342  1.1134
 4197SOL    HW124050   3.739   3.021   7.632  1.5716 -0.7635 -2.0268
 4197SOL    HW224051   3.824   3.091   7.547  0.5708  1.9237  0.6933
 4198SOL     OW24052   3.856   4.214  14.795  0.6495  0.3589 -0.0732
 4198SOL    HW124053   3.856   4.121  14.776  1.5964  0.1922  0.7485
 4198SOL    HW224054   3.881   4.207  14.887  1.0746  0.7283 -0.1608
 4199SOL     OW24055   4.213   1.427   2.179 -0.5335  0.4978 -0.1613
 4199SOL    HW124056   4.146   1.443   2.246 -0.0386 -0.7182  0.6292
 4199SOL    HW224057   4.160   1.395   2.106  0.6058  1.2007 -1.2852
 4200SOL     OW24058   2.977   2.840   4.969  0.3717 -0.0958  0.1686
 4200SOL    HW124059   2.976   2.746   4.989 -1.9772 -0.0689  0.2116
 4200SOL    HW224060   3.034   2.844   4.892  2.6007 -2.4280  1.6788
 4201SOL     OW24061   1.222   3.765   2.305  0.0902  0.1102  0.1404
 4201SOL    HW124062   1.272   3.786   2.384  1.2526  2.1779 -1.1153
 4201SOL    HW224063   1.284   3.776   2.233  1.7040 -2.1493  1.1978
 4202SOL     OW24064   4.230   3.482   8.014  0.3110  0.6195  0.7079
 4202SOL    HW124065   4.229   3.492   8.110  3.1262  0.5033  0.7594
 4202SOL    HW224066   4.316   3.517   7.990 -0.2467  1.9857  0.7088
 4203SOL     OW24067   3.881   0.734   2.287  0.5786  0.0902  0.1363
 4203SOL    HW124068   3.830   0.806   2.249  1.0034  1.7083  2.6211
 4203SOL    HW224069   3.824   0.657   2.282  0.1309  0.4990 -1.0654
 4204SOL     OW24070   4.022   0.235   6.793  0.1182  0.2357 -0.2982
 4204SOL    HW124071   4.114   0.263   6.790 -0.6327  2.6276 -0.2756
 4204SOL    HW224072   3.985   0.311   6.838  1.2324  1.4357 -1.4066
 4205SOL     OW24073   1.315   4.690  12.391 -0.1833 -0.0744 -0.1296
 4205SOL    HW124074   1.299   4.714  12.483 -0.9869  0.8779 -0.5119
 4205SOL    HW224075   1.236   4.722  12.347 -1.3999 -0.1179  1.9816
 4206SOL     OW24076   3.831   2.753   2.491 -0.1761 -0.1936 -0.1248
 4206SOL    HW124077   3.738   2.746   2.471 -0.3727  0.9220  0.4433
 4206SOL    HW224078   3.865   2.730   2.405 -0.0257 -1.3170  0.2320
 4207SOL     OW24079   1.365   3.540  15.223 -0.5570  0.2396  0.1365
 4207SOL    HW124080   1.381   3.451  15.194 -1.9383 -0.2785  0.9777
 4207SOL    HW224081   1.337   3.586  15.144  1.4167 -0.3655 -0.9112
 4208SOL     OW24082   2.743   3.911   2.507 -0.2482 -0.0968 -0.0433
 4208SOL    HW124083   2.748   3.897   2.412  0.2673 -0.6270  0.0585
 4208SOL    HW224084   2.792   3.844   2.555 -1.6519 -0.6546  0.6041
 4209SOL     OW24085   0.980   1.093   7.182  0.2226  0.0452  0.2740
 4209SOL    HW124086   0.889   1.125   7.179  0.2006  0.1013  1.4886
 4209SOL    HW224087   1.007   1.181   7.210 -0.5685  0.2489  0.4067
 4210SOL     OW24088   3.601   4.404  14.735 -0.7877  0.9677 -0.1890
 4210SOL    HW124089   3.562   4.317  14.737 -1.4873  1.2137 -3.8747
 4210SOL    HW224090   3.519   4.452  14.752 -2.2113 -1.4554 -0.1465
 4211SOL     OW24091   4.078   3.030  10.594  0.5797 -0.4252 -0.1305
 4211SOL    HW124092   4.071   3.076  10.677  0.1076  0.9021 -0.9034
 4211SOL    HW224093   4.149   3.082  10.555 -0.8334  0.7546 -1.1331
 4212SOL     OW24094   4.126   2.734  16.234  0.2577  0.1015 -0.1024
 4212SOL    HW124095   4.087   2.805  16.285 -1.7648  0.2800 -1.8985
 4212SOL    HW224096   4.167   2.688  16.307 -0.1451 -0.3559 -0.1626
 4213SOL     OW24097   1.944   0.633   9.855  0.3811 -0.8490  0.7724
 4213SOL    HW124098   1.945   0.540   9.877  0.3746 -0.8096  0.9341
 4213SOL    HW224099   2.015   0.643   9.792 -0.8237  1.0936 -0.2761
 4214SOL     OW24100   0.878   2.375   2.269  0.0645 -0.5254  0.2594
 4214SOL    HW124101   0.877   2.307   2.202 -2.0002  0.0487 -0.3150
 4214SOL    HW224102   0.785   2.397   2.281 -0.3800 -2.9872  1.3122
 4215SOL     OW24103   2.285   2.301   3.481  0.5197  0.2990  0.0622
 4215SOL    HW124104   2.242   2.296   3.566 -0.1746  2.1445 -0.1822
 4215SOL    HW224105   2.222   2.247   3.432 -0.0251 -0.5327  1.6777
 4216SOL     OW24106   3.032   4.340   8.366 -0.0357  0.4000  0.1514
 4216SOL    HW124107   2.947   4.384   8.356 -0.2019  0.1103  0.2864
 4216SOL    HW224108   3.071   4.324   8.280 -0.5341  0.5288 -0.0983
 4217SOL     OW24109   0.274   1.121  14.747  0.8429  0.0445  0.5531
 4217SOL    HW124110   0.347   1.182  14.761  0.9947 -0.1129  0.4526
 4217SOL    HW224111   0.320   1.049  14.790 -0.1413 -1.3291 -0.7087
 4218SOL     OW24112   0.537   0.616  14.011 -0.3525  0.0338 -0.2062
 4218SOL    HW124113   0.460   0.653  14.055 -0.0410  0.4693 -0.0181
 4218SOL    HW224114   0.492   0.555  13.954 -1.0832  1.1363 -0.8055
 4219SOL     OW24115   2.286   1.587   4.978  0.1336 -0.2105  0.3337
 4219SOL    HW124116   2.358   1.544   4.932  0.7252  0.9357  0.1697
 4219SOL    HW224117   2.316   1.678   4.969 -0.4314  0.0570  1.1589
 4220SOL     OW24118   1.462   2.698   6.500 -0.1597  0.1758  0.0173
 4220SOL    HW124119   1.502   2.650   6.427  0.4057  0.7385 -0.0408
 4220SOL    HW224120   1.550   2.709   6.537  0.7926 -0.6046 -1.9799
 4221SOL     OW24121   1.023   3.385  10.062 -0.8627  0.1308  0.6587
 4221SOL    HW124122   1.060   3.359   9.978 -1.6031 -3.2685  1.4035
 4221SOL    HW224123   0.982   3.307  10.100 -0.0866 -0.6315 -0.0760
 4222SOL     OW24124   2.666   4.323   6.717  0.1694  0.2793 -0.1852
 4222SOL    HW124125   2.699   4.378   6.646 -0.9511 -1.6448 -2.1864
 4222SOL    HW224126   2.678   4.375   6.796 -3.1541 -0.0133  0.5269
 4223SOL     OW24127   3.736   3.827   4.561 -0.3710 -0.3027 -0.1488
 4223SOL    HW124128   3.787   3.768   4.617  0.0077  0.5395  0.4080
 4223SOL    HW224129   3.711   3.889   4.630  2.2480 -0.0026  0.5522
 4224SOL     OW24130   0.877   3.736   7.276 -0.6705 -0.3521  0.1814
 4224SOL    HW124131   0.961   3.735   7.323 -1.0807  1.6734  0.9872
 4224SOL    HW224132   0.814   3.739   7.348 -0.6797  1.7828  0.0863
 4225SOL     OW24133   3.660   3.166   6.241 -0.0135 -0.7063 -0.1774
 4225SOL    HW124134   3.602   3.237   6.212 -2.1326 -2.8950 -1.2928
 4225SOL    HW224135   3.730   3.220   6.276 -0.6225 -1.5096  2.2590
 4226SOL     OW24136   2.582   0.307   0.177 -0.0496 -0.5199 -0.3427
 4226SOL    HW124137   2.503   0.325   0.126  0.1393  2.1594  0.3513
 4226SOL    HW224138   2.612   0.223   0.140  0.6450 -0.1644 -0.5875
 4227SOL     OW24139   3.710   0.747   6.176  0.8248  0.0251  0.0003
 4227SOL    HW124140   3.677   0.772   6.090 -0.6538  0.6577  0.7522
 4227SOL    HW224141   3.657   0.670   6.195 -0.1704  0.4062 -1.2251
 4228SOL     OW24142   1.087   0.732   3.972  0.2059 -0.6489 -0.3313
 4228SOL    HW124143   0.996   0.704   3.982  0.3899 -1.4857 -0.9064
 4228SOL    HW224144   1.120   0.723   4.061 -0.1805  3.2612  0.1877
 4229SOL     OW24145   3.103   0.495  17.205  0.2073  0.1135  0.2926
 4229SOL    HW124146   3.042   0.421  17.201  0.9055 -0.5060  0.9725
 4229SOL    HW224147   3.038   0.559  17.176 -0.1103  0.0631  0.8714
 4230SOL     OW24148   3.276   0.343  10.925  0.1379  0.5688 -0.2177
 4230SOL    HW124149   3.323   0.397  10.861 -0.3855  0.3414 -0.7988
 4230SOL    HW224150   3.199   0.313  10.876  0.8443 -2.5567  0.5966
 4231SOL     OW24151   2.183   3.533   4.601  0.5485  0.5075  0.1032
 4231SOL    HW124152   2.245   3.527   4.529 -0.7493 -0.4116 -0.9220
 4231SOL    HW224153   2.107   3.581   4.569 -0.2748 -0.4123  0.6766
 4232SOL     OW24154   3.756   4.320   7.449 -0.0816  0.0607  0.3942
 4232SOL    HW124155   3.781   4.321   7.542  0.8664  0.0534  0.1385
 4232SOL    HW224156   3.820   4.259   7.413  0.0224  0.9257 -0.8826
 4233SOL     OW24157   4.297   1.077   7.735  0.1214 -0.1201 -0.0273
 4233SOL    HW124158   4.207   1.091   7.706 -0.6674 -0.9344  1.9842
 4233SOL    HW224159   4.267   1.037   7.817 -1.0407  0.6925 -0.0507
 4234SOL     OW24160   3.621   3.676   2.322 -0.5596 -0.1246  0.0338
 4234SOL    HW124161   3.700   3.731   2.324 -1.7053  1.5332 -0.6076
 4234SOL    HW224162   3.576   3.726   2.255  0.4414  0.3309 -0.3073
 4235SOL     OW24163   1.583   3.442   4.945  0.4555 -0.3960 -0.0094
 4235SOL    HW124164   1.487   3.436   4.944  0.6667 -3.8997  0.1000
 4235SOL    HW224165   1.611   3.459   4.855 -2.2937 -0.2284 -0.8400
 4236SOL     OW24166   3.215   2.230   5.223  0.1791  0.3266  0.2693
 4236SOL    HW124167   3.272   2.182   5.284  0.2455 -1.6616 -1.3240
 4236SOL    HW224168   3.215   2.171   5.147  1.3894 -0.1304  0.6198
 4237SOL     OW24169   2.537   1.969   4.362  0.5711 -0.1139 -0.5688
 4237SOL    HW124170   2.480   2.045   4.351 -0.4170 -1.0465 -1.8844
 4237SOL    HW224171   2.521   1.934   4.449  1.4872  2.0247  0.4593
 4238SOL     OW24172   3.264   2.753   6.972 -0.0667 -0.4020 -0.3474
 4238SOL    HW124173   3.315   2.833   6.956 -0.5041 -0.3195 -1.3148
 4238SOL    HW224174   3.305   2.713   7.049  0.8298  0.1748 -0.5224
 4239SOL     OW24175   2.641   3.916   3.130  0.1518  0.1943  0.0314
 4239SOL    HW124176   2.580   3.889   3.198  0.0458  0.6734  0.1288
 4239SOL    HW224177   2.715   3.858   3.150 -0.7333 -0.0802  2.3932
 4240SOL     OW24178   2.226   1.863   3.450  0.3278 -0.0965  0.3978
 4240SOL    HW124179   2.281   1.940   3.466  1.8759 -1.4324  1.5399
 4240SOL    HW224180   2.149   1.912   3.420 -1.0652 -2.5464  0.0185
 4241SOL     OW24181   2.984   3.586   7.139  0.4301 -0.1419  0.2886
 4241SOL    HW124182   3.031   3.640   7.203 -0.1152  0.4364  0.2026
 4241SOL    HW224183   2.970   3.648   7.068  1.9396 -0.8360 -0.6085
 4242SOL     OW24184   0.027   3.469   3.387  0.0452 -0.0088  0.0051
 4242SOL    HW124185   4.678   3.527   3.413  1.0554  1.3038 -0.0963
 4242SOL    HW224186   0.051   3.420   3.466 -0.9633 -1.9083 -0.8927
 4243SOL     OW24187   1.766   1.991   5.785  0.3732  0.1907 -0.4859
 4243SOL    HW124188   1.773   1.961   5.694  1.7764 -2.5865  0.5179
 4243SOL    HW224189   1.672   2.008   5.778  0.3357 -0.7037 -2.1682
 4244SOL     OW24190   3.581   0.618   4.009  0.2801 -0.1289 -0.1422
 4244SOL    HW124191   3.603   0.579   3.924  2.1107  1.4373 -0.3959
 4244SOL    HW224192   3.667   0.642   4.043  0.4677 -0.4353 -0.3921
 4245SOL     OW24193   2.965   3.449   6.018 -0.1962 -0.2231  0.3909
 4245SOL    HW124194   2.886   3.472   6.067 -0.2232 -0.0615  0.2704
 4245SOL    HW224195   2.919   3.380   5.970 -4.0437  2.3887  0.3224
 4246SOL     OW24196   1.847   1.358   2.254 -0.1960  0.4292  1.1773
 4246SOL    HW124197   1.891   1.440   2.276 -0.8263  1.0270  0.1799
 4246SOL    HW224198   1.903   1.297   2.303 -1.8064 -1.7038  0.3608
 4247SOL     OW24199   3.276   1.213  15.625 -0.6281  0.1346  0.0668
 4247SOL    HW124200   3.308   1.301  15.641  0.2223 -0.0826 -0.4066
 4247SOL    HW224201   3.354   1.177  15.581 -0.0097  1.1471  0.3466
 4248SOL     OW24202   4.031   3.783   2.720 -0.4356  0.4530  0.5308
 4248SOL    HW124203   4.052   3.853   2.659 -2.5702  0.3745 -0.3082
 4248SOL    HW224204   4.094   3.721   2.683  0.4208  1.4368  0.3617
 4249SOL     OW24205   1.007   0.858  11.510  0.3578  0.3285  0.1938
 4249SOL    HW124206   1.086   0.828  11.465  0.6043  2.1855 -0.6276
 4249SOL    HW224207   1.051   0.930  11.556  0.5653 -0.1295  0.7047
 4250SOL     OW24208   1.613   0.121  15.022 -0.4040  0.0364 -0.4317
 4250SOL    HW124209   1.699   0.154  14.998 -0.5423  0.3551 -0.4927
 4250SOL    HW224210   1.610   0.142  15.115  2.0737  1.5412 -0.6999
 4251SOL     OW24211   3.648   3.558   3.084  0.2557  0.3974 -0.5098
 4251SOL    HW124212   3.717   3.597   3.029  0.8427  0.9412  0.6026
 4251SOL    HW224213   3.699   3.539   3.163 -0.8981 -1.1383 -0.1545
 4252SOL     OW24214   4.308   0.294  15.692 -0.7731  0.0541 -0.9850
 4252SOL    HW124215   4.259   0.358  15.640 -0.6641  0.1350 -0.9889
 4252SOL    HW224216   4.242   0.233  15.724  0.4059 -0.6779  0.0462
 4253SOL     OW24217   0.119   3.388   8.538 -0.1843  0.3474  0.2255
 4253SOL    HW124218   0.053   3.320   8.552  1.9185 -1.7577  0.1260
 4253SOL    HW224219   0.105   3.441   8.617  2.3968  0.2851  0.7481
 4254SOL     OW24220   3.215   2.086   1.992  0.4978  0.2316  0.5248
 4254SOL    HW124221   3.130   2.044   1.982  0.9713 -0.4883 -0.5027
 4254SOL    HW224222   3.200   2.111   2.083 -0.5749 -1.9137  0.9262
 4255SOL     OW24223   0.383   0.958   8.042  0.0759  0.0602 -0.0535
 4255SOL    HW124224   0.347   1.046   8.029 -2.0503 -0.5325  1.8364
 4255SOL    HW224225   0.441   0.980   8.115 -0.1403 -0.6303  0.3226
 4256SOL     OW24226   3.633   2.885   0.280  0.6185 -0.0416  0.1425
 4256SOL    HW124227   3.682   2.917   0.356 -1.8329  3.5379  0.1882
 4256SOL    HW224228   3.604   2.799   0.309 -0.9073  0.4943  0.1737
 4257SOL     OW24229   4.489   3.192   4.035  0.0587  0.0528  0.0439
 4257SOL    HW124230   4.442   3.258   4.085  1.3237  1.7351 -1.0211
 4257SOL    HW224231   4.579   3.223   4.026  0.2501 -0.4603  0.1544
 4258SOL     OW24232   3.201   3.700   6.387 -0.0279  0.2166  0.2637
 4258SOL    HW124233   3.185   3.613   6.352  0.6777 -1.0068  2.9725
 4258SOL    HW224234   3.220   3.690   6.481  0.8711  0.2576  0.0839
 4259SOL     OW24235   1.636   2.808  10.861 -0.1842  0.1751 -0.3300
 4259SOL    HW124236   1.619   2.808  10.767  0.7988 -3.3132 -0.4913
 4259SOL    HW224237   1.721   2.853  10.862 -0.8029  1.3376  1.3418
 4260SOL     OW24238   2.856   2.156   3.848  0.0790  0.4728 -0.0843
 4260SOL    HW124239   2.791   2.093   3.879 -0.7226  0.3497 -2.0116
 4260SOL    HW224240   2.838   2.147   3.755 -0.0090 -2.6994  0.2411
 4261SOL     OW24241   4.043   0.270  16.652  0.4123  0.1500  0.2764
 4261SOL    HW124242   3.980   0.296  16.584 -0.0552 -2.5245 -0.2913
 4261SOL    HW224243   4.036   0.175  16.655 -0.0043  0.2671  2.8479
 4262SOL     OW24244   2.152   3.366   5.610 -0.8048  0.3044  0.1695
 4262SOL    HW124245   2.158   3.274   5.637  1.7690  0.2796 -0.5039
 4262SOL    HW224246   2.115   3.402   5.690  0.8510 -0.1341  1.1177
 4263SOL     OW24247   0.293   0.455   6.423 -0.0517  0.7855  0.1971
 4263SOL    HW124248   0.316   0.362   6.420  0.0475  0.7521  2.2257
 4263SOL    HW224249   0.249   0.466   6.338  1.6962 -1.2292 -0.9548
 4264SOL     OW24250   3.558   2.523  17.146  0.4945 -0.4369 -0.4996
 4264SOL    HW124251   3.584   2.605  17.104 -0.8551 -0.1725 -0.8277
 4264SOL    HW224252   3.587   2.529  17.237 -1.0444  0.0616 -0.0415
 4265SOL     OW24253   3.564   1.040   8.477 -0.0962 -0.0606 -0.3776
 4265SOL    HW124254   3.656   1.039   8.449 -0.2529  3.1090 -0.9906
 4265SOL    HW224255   3.565   1.095   8.555  0.5081  0.9285 -1.0829
 4266SOL     OW24256   2.118   2.990  11.702  0.2114  0.0240  0.0779
 4266SOL    HW124257   2.093   3.082  11.706 -1.1017 -0.2970 -0.6383
 4266SOL    HW224258   2.172   2.980  11.780 -1.1619 -2.0239  0.7765
 4267SOL     OW24259   0.798   2.082   0.054  0.0676  0.6023 -0.5459
 4267SOL    HW124260   0.791   2.080   0.149  0.5004 -1.2423 -0.5551
 4267SOL    HW224261   0.716   2.126   0.033 -1.1247 -1.8222 -0.9602
 4268SOL     OW24262   2.988   3.397  17.390  0.3738 -0.0143  0.0396
 4268SOL    HW124263   3.021   3.407  17.479  0.9960 -0.9726 -0.0688
 4268SOL    HW224264   2.900   3.432  17.399  1.3017  2.5691 -1.0392
 4269SOL     OW24265   4.650   1.757   6.192  0.0223  0.1294 -0.2575
 4269SOL    HW124266   4.642   1.814   6.116 -1.3344 -0.0229 -0.2267
 4269SOL    HW224267   4.576   1.791   6.243  1.0829 -1.0515  2.0695
 4270SOL     OW24268   0.902   0.418   6.024 -0.1560 -0.4803  0.3650
 4270SOL    HW124269   0.851   0.414   5.943 -1.1974 -0.2034  0.9998
 4270SOL    HW224270   0.837   0.451   6.086  0.0577 -0.2279  0.4525
 4271SOL     OW24271   3.664   2.459   5.539 -0.5465 -0.5094 -0.0737
 4271SOL    HW124272   3.637   2.550   5.527 -1.0011 -0.8491 -1.5840
 4271SOL    HW224273   3.630   2.447   5.628  0.8679 -0.0608  0.5372
 4272SOL     OW24274   3.037   3.044   9.688 -0.3595  0.3212  0.6164
 4272SOL    HW124275   3.046   2.949   9.695  0.6135  0.4710  1.4025
 4272SOL    HW224276   3.053   3.084   9.602  3.4068  0.4858  1.3659
 4273SOL     OW24277   0.728   0.662   4.267 -0.6206 -0.0237 -0.1119
 4273SOL    HW124278   0.734   0.571   4.237  0.7759  0.1312 -0.3087
 4273SOL    HW224279   0.672   0.649   4.344 -2.6867 -1.9685 -1.9502
 4274SOL     OW24280   1.124   0.338  12.269 -0.2811  0.2436  0.1640
 4274SOL    HW124281   1.089   0.250  12.254 -0.4677  0.4593 -0.6426
 4274SOL    HW224282   1.155   0.323  12.359 -1.2498  0.5513  0.5468
 4275SOL     OW24283   4.324   0.770   7.543  0.1963  0.4488  0.1543
 4275SOL    HW124284   4.231   0.770   7.563  0.7110 -1.3745  2.5808
 4275SOL    HW224285   4.363   0.698   7.595  2.0705 -0.2071 -2.1540
 4276SOL     OW24286   0.744   2.413   4.716  0.4166  0.1121 -0.3524
 4276SOL    HW124287   0.706   2.328   4.736  0.7224 -0.2437 -1.2909
 4276SOL    HW224288   0.662   2.458   4.736 -0.9673 -2.5884 -0.0244
 4277SOL     OW24289   2.124   0.472   1.978  0.2031  0.5090  0.9511
 4277SOL    HW124290   2.146   0.388   2.019 -2.1609 -0.9035 -0.6403
 4277SOL    HW224291   2.038   0.453   1.940  2.1280 -2.5179 -1.9310
 4278SOL     OW24292   4.299   3.665   6.668  0.0220  0.0972  0.1204
 4278SOL    HW124293   4.323   3.689   6.757 -3.7460 -0.9233  1.4022
 4278SOL    HW224294   4.353   3.721   6.612  1.0651  0.7157  1.7630
 4279SOL     OW24295   1.044   1.010   9.013 -0.2137 -0.0533 -0.3246
 4279SOL    HW124296   1.022   1.013   8.920  1.4750 -1.5193 -0.7743
 4279SOL    HW224297   1.128   1.052   8.996  0.1164 -0.2880  0.7106
 4280SOL     OW24298   3.775   2.824  16.417 -0.3916 -0.3774  0.3504
 4280SOL    HW124299   3.693   2.852  16.376 -0.4106 -0.5650  0.2635
 4280SOL    HW224300   3.770   2.822  16.512  2.4845 -0.7968  0.4806
 4281SOL     OW24301   0.089   0.606  13.806  0.4973 -0.6625  0.4995
 4281SOL    HW124302   0.068   0.569  13.720 -2.1591  2.0681 -0.0271
 4281SOL    HW224303   0.060   0.529  13.855  1.1255 -0.1172  1.7267
 4282SOL     OW24304   1.322   0.406  16.761 -0.2900  0.4689  0.2433
 4282SOL    HW124305   1.233   0.418  16.726 -0.3456 -0.9950 -0.1587
 4282SOL    HW224306   1.351   0.488  16.799  3.9630  0.3939 -2.8706
 4283SOL     OW24307   1.378   2.646  11.858 -0.2757  0.2415  0.0571
 4283SOL    HW124308   1.439   2.610  11.794 -2.6835  1.0256 -2.6702
 4283SOL    HW224309   1.300   2.666  11.806  0.3743 -0.7312 -1.2752
 4284SOL     OW24310   1.428   3.443   3.864 -0.1825  0.8691  0.6651
 4284SOL    HW124311   1.387   3.364   3.827 -0.1911  1.0811  0.2231
 4284SOL    HW224312   1.349   3.481   3.902  1.2646  3.5171  0.9829
 4285SOL     OW24313   0.261   0.846   5.028  0.5741  0.1351 -0.2899
 4285SOL    HW124314   0.344   0.891   5.042 -0.1663  1.0870  1.1620
 4285SOL    HW224315   0.201   0.903   5.077  1.2669  1.8402 -1.4284
 4286SOL     OW24316   2.129   4.236  17.438  0.1975  0.0703  0.4021
 4286SOL    HW124317   2.057   4.300  17.438 -0.4134 -0.6272 -1.3964
 4286SOL    HW224318   2.146   4.231  17.344  0.1703  1.2079  0.3354
 4287SOL     OW24319   2.208   4.133   4.098  0.1933  0.2519 -0.0713
 4287SOL    HW124320   2.229   4.207   4.154 -0.6476  0.4153  0.0273
 4287SOL    HW224321   2.150   4.082   4.154  1.3623 -0.3103  0.6436
 4288SOL     OW24322   2.825   4.256   9.717 -0.0907 -0.1216  0.3129
 4288SOL    HW124323   2.895   4.243   9.653 -1.1148 -1.3477 -0.5502
 4288SOL    HW224324   2.842   4.350   9.726  1.6238 -0.8275  4.3333
 4289SOL     OW24325   2.539   1.828   0.954 -0.1461 -0.8854  0.0268
 4289SOL    HW124326   2.449   1.794   0.951 -1.3390  2.2241 -0.2842
 4289SOL    HW224327   2.519   1.918   0.926 -1.1087 -0.6032  1.6392
 4290SOL     OW24328   2.929   0.793   4.848  0.2364  0.2325 -0.0073
 4290SOL    HW124329   2.994   0.754   4.790  2.6580  0.3578  2.6438
 4290SOL    HW224330   2.847   0.756   4.816  0.0994  0.9851 -0.5282
 4291SOL     OW24331   2.185   1.250   9.910  0.0758  1.0730  0.1793
 4291SOL    HW124332   2.203   1.330   9.861 -0.2656  2.4669  2.3723
 4291SOL    HW224333   2.169   1.284   9.997  0.5699  1.1316  0.2439
 4292SOL     OW24334   0.191   0.072   2.973 -0.7083 -0.0697  0.1613
 4292SOL    HW124335   0.209   0.083   2.879 -0.5530  2.2608  0.4657
 4292SOL    HW224336   0.101   0.042   2.978 -1.3531  1.7892 -0.1452
 4293SOL     OW24337   3.023   3.718  16.345  0.4256  0.0578  0.1653
 4293SOL    HW124338   3.100   3.706  16.289  1.5970  0.8269  1.6163
 4293SOL    HW224339   3.041   3.810  16.361  0.1271  0.0709  0.4121
 4294SOL     OW24340   0.001   1.201   5.591  0.3730 -0.7175 -0.9409
 4294SOL    HW124341   4.704   1.199   5.497  2.6393  0.4888 -1.4249
 4294SOL    HW224342   4.656   1.265   5.617  0.5956 -1.0647  0.4702
 4295SOL     OW24343   0.660   2.551  13.733 -0.6589 -0.1684 -0.3554
 4295SOL    HW124344   0.698   2.585  13.652 -0.0719  0.4672  0.1844
 4295SOL    HW224345   0.583   2.512  13.692 -1.3093 -0.6359  1.2917
 4296SOL     OW24346   2.378   4.018   5.904  0.2825  0.4539 -0.0864
 4296SOL    HW124347   2.450   4.079   5.922  2.3761 -1.7251 -1.1296
 4296SOL    HW224348   2.304   4.076   5.920  0.2908  0.0211  1.6078
 4297SOL     OW24349   3.084   1.262   5.169 -0.1123  0.2724 -0.1891
 4297SOL    HW124350   3.102   1.170   5.188 -3.3160 -0.6614 -1.7961
 4297SOL    HW224351   3.028   1.250   5.093 -1.9109  0.2302  1.1581
 4298SOL     OW24352   4.437   1.748  17.025 -0.2038 -0.6435 -0.1354
 4298SOL    HW124353   4.398   1.716  16.944 -1.6766 -0.6030  0.5680
 4298SOL    HW224354   4.397   1.835  17.034  1.0818 -0.0179 -0.4243
 4299SOL     OW24355   2.988   2.786   7.143 -0.4329  0.2120 -0.8374
 4299SOL    HW124356   2.930   2.724   7.186 -1.8724  1.8221 -0.4553
 4299SOL    HW224357   3.056   2.739   7.095 -0.4863 -2.6764  1.9446
 4300SOL     OW24358   3.343   2.851   2.540 -0.3959 -0.0582  0.2454
 4300SOL    HW124359   3.257   2.852   2.498  0.2106  1.1851 -0.9751
 4300SOL    HW224360   3.331   2.784   2.607  1.9890  0.7179  1.4396
 4301SOL     OW24361   1.026   1.365   7.261 -0.3669  0.3526  0.1462
 4301SOL    HW124362   1.101   1.423   7.268  0.5397 -0.8130  0.1088
 4301SOL    HW224363   0.970   1.404   7.328  1.3478 -0.0008  1.7822
 4302SOL     OW24364   4.714   4.602   7.570  0.2048  0.0638  0.1051
 4302SOL    HW124365   4.669   4.553   7.501  1.3949 -0.6369 -0.1745
 4302SOL    HW224366   0.009   4.530   7.631  0.5680  0.7669  0.8279
 4303SOL     OW24367   2.674   1.579   8.932  0.5858  0.1631 -0.8059
 4303SOL    HW124368   2.694   1.663   8.890 -2.3532  1.6991  0.8507
 4303SOL    HW224369   2.739   1.571   9.001  0.9869  0.7335 -1.1148
 4304SOL     OW24370   0.542   1.471   3.545  0.5477  0.1043  0.0404
 4304SOL    HW124371   0.500   1.523   3.613 -1.5722  0.1924 -1.2987
 4304SOL    HW224372   0.470   1.408   3.532  0.7246 -0.3200  1.1734
 4305SOL     OW24373   2.887   0.578  12.951  0.3032 -0.5760  0.0664
 4305SOL    HW124374   2.864   0.666  12.981  1.8632 -0.4674  0.8874
 4305SOL    HW224375   2.932   0.597  12.869  0.8494  0.8389  0.7002
 4306SOL     OW24376   2.167   0.068   1.848  0.2923  0.1623  0.0040
 4306SOL    HW124377   2.134   0.106   1.766 -0.7082  1.3826  0.9701
 4306SOL    HW224378   2.086   0.028   1.879 -0.1260 -0.0594 -1.3403
 4307SOL     OW24379   2.732   0.690   8.607 -0.0012  0.0725  0.3157
 4307SOL    HW124380   2.814   0.646   8.626  0.9977  0.2274 -3.5914
 4307SOL    HW224381   2.733   0.704   8.512  3.5134  0.8726  0.4924
 4308SOL     OW24382   2.527   2.547   5.724  0.3161 -0.3738 -0.8325
 4308SOL    HW124383   2.506   2.622   5.781  0.0697 -0.8353 -0.3184
 4308SOL    HW224384   2.610   2.509   5.752 -0.6059 -0.9992  1.0865
 4309SOL     OW24385   1.245   0.191   5.206 -0.0269 -0.0383 -0.1882
 4309SOL    HW124386   1.317   0.236   5.250 -0.4580 -0.2024  0.6991
 4309SOL    HW224387   1.176   0.196   5.272 -0.2897  0.4907 -0.5017
 4310SOL     OW24388   3.350   0.520   6.203 -0.0266 -0.7242 -0.9233
 4310SOL    HW124389   3.308   0.599   6.167  0.7789 -0.5356 -1.4406
 4310SOL    HW224390   3.413   0.558   6.264 -2.1470  2.5669 -0.7535
 4311SOL     OW24391   2.659   3.526   8.929  0.1488  0.5291  0.3408
 4311SOL    HW124392   2.649   3.563   9.016 -1.7927 -1.1192  0.8320
 4311SOL    HW224393   2.637   3.433   8.939  0.7806  0.1620 -1.6974
 4312SOL     OW24394   0.559   1.528  12.233  0.0813 -0.2444 -0.3373
 4312SOL    HW124395   0.648   1.532  12.269  0.3037 -3.0797 -0.5661
 4312SOL    HW224396   0.581   1.519  12.140 -0.5059  0.2545 -0.5164
 4313SOL     OW24397   2.183   1.704   8.685 -0.4912  0.4812 -0.2225
 4313SOL    HW124398   2.095   1.734   8.706 -0.7012  0.2547 -0.7738
 4313SOL    HW224399   2.197   1.636   8.751  0.6301  1.0005  0.0697
 4314SOL     OW24400   1.701   1.904   5.514  0.5596 -0.2508 -0.2362
 4314SOL    HW124401   1.613   1.868   5.525  0.7088  0.4147  3.0854
 4314SOL    HW224402   1.728   1.865   5.431 -0.0837 -1.6622  0.2125
 4315SOL     OW24403   3.662   1.518   7.622  0.7498 -0.8901 -0.0719
 4315SOL    HW124404   3.718   1.595   7.623  1.4238 -1.3767 -0.4555
 4315SOL    HW224405   3.585   1.553   7.577  1.5150 -0.2882 -0.9117
 4316SOL     OW24406   0.046   4.395   2.157  0.6262  0.1632 -0.2684
 4316SOL    HW124407   0.105   4.320   2.155  1.1547  0.5490  0.9712
 4316SOL    HW224408   0.109   4.466   2.149  0.9602 -0.1076 -0.0164
 4317SOL     OW24409   0.270   0.694   2.025 -1.2164  0.1066  0.3601
 4317SOL    HW124410   0.200   0.631   2.044 -1.0028  0.6422  2.9545
 4317SOL    HW224411   0.240   0.746   1.951 -5.0399  0.4762  2.1307
 4318SOL     OW24412   3.718   3.685   7.813 -0.2959  0.0911  0.3789
 4318SOL    HW124413   3.782   3.636   7.865  2.0182  2.5364 -0.1619
 4318SOL    HW224414   3.758   3.692   7.727 -1.3786 -1.8474 -0.2969
 4319SOL     OW24415   2.578   4.635  12.239 -0.1870 -0.4958 -0.0643
 4319SOL    HW124416   2.594   4.614  12.147 -0.0136  0.2796 -0.2046
 4319SOL    HW224417   2.655   4.586  12.267 -0.2835 -0.5890  0.0368
 4320SOL     OW24418   1.359   3.796   5.461  0.4727  0.1081  0.5657
 4320SOL    HW124419   1.378   3.810   5.554  2.4352  0.1515  0.1642
 4320SOL    HW224420   1.353   3.888   5.434 -0.0521 -0.3879 -1.0063
 4321SOL     OW24421   2.831   1.383   7.653  0.2869 -0.3952  0.2671
 4321SOL    HW124422   2.808   1.468   7.692  0.0633  0.0060 -0.7531
 4321SOL    HW224423   2.899   1.405   7.590 -0.8070  2.5165  0.1058
 4322SOL     OW24424   4.039   4.471  14.066  0.3678  0.2058  0.2535
 4322SOL    HW124425   3.971   4.423  14.019 -1.2642  2.4594  0.3036
 4322SOL    HW224426   4.060   4.532  13.995  1.2075  1.0153  1.1977
 4323SOL     OW24427   0.934   1.558   6.783  0.5040  0.2274  0.4682
 4323SOL    HW124428   0.839   1.550   6.777  0.3759  2.1675 -0.3037
 4323SOL    HW224429   0.964   1.468   6.794 -1.0031 -0.0849  2.0556
 4324SOL     OW24430   0.416   2.016  17.215  0.7865  0.6425 -0.7538
 4324SOL    HW124431   0.337   2.069  17.207  0.1309 -0.2210 -0.0975
 4324SOL    HW224432   0.426   1.995  17.308 -1.5900  1.1371 -0.3959
 4325SOL     OW24433   4.385   1.046   7.490  0.2074  0.0426  0.5573
 4325SOL    HW124434   4.352   1.069   7.577 -2.1258  1.2769 -0.6525
 4325SOL    HW224435   4.369   0.952   7.490 -1.2269  0.2748 -0.7488
 4326SOL     OW24436   3.479   4.661   7.428  0.3538 -0.7095 -0.3835
 4326SOL    HW124437   3.389   4.688   7.407 -0.3437 -2.3423  0.5228
 4326SOL    HW224438   3.514   4.604   7.360 -0.9012 -0.0068 -1.6249
 4327SOL     OW24439   1.794   0.172   2.859 -0.4147  0.7110 -0.0349
 4327SOL    HW124440   1.855   0.152   2.788 -2.9070  0.1694 -2.0286
 4327SOL    HW224441   1.766   0.261   2.836 -0.5547  0.1356 -2.0172
 4328SOL     OW24442   2.872   0.465   8.323  0.4265 -0.0740 -0.1573
 4328SOL    HW124443   2.801   0.444   8.262  0.9045  0.0414 -0.7625
 4328SOL    HW224444   2.926   0.386   8.331 -1.9667 -1.9851 -2.9550
 4329SOL     OW24445   3.431   1.188   5.957 -0.2894 -0.2451  0.1783
 4329SOL    HW124446   3.431   1.199   5.862  0.7997 -2.0782 -0.0430
 4329SOL    HW224447   3.513   1.230   5.982 -0.6270  0.4061  0.1914
 4330SOL     OW24448   3.174   3.754   7.629 -0.1383 -0.1315  0.1223
 4330SOL    HW124449   3.160   3.844   7.598  2.1442  0.1811  0.0159
 4330SOL    HW224450   3.265   3.758   7.658 -0.4819  1.8565  0.8923
 4331SOL     OW24451   1.842   3.849   3.244  0.8983 -0.2653 -0.7830
 4331SOL    HW124452   1.761   3.797   3.238  0.7452 -0.1553  0.3789
 4331SOL    HW224453   1.829   3.886   3.331 -0.4165  0.0486 -1.1072
 4332SOL     OW24454   2.209   0.129  11.003 -0.0157 -0.1335 -0.2412
 4332SOL    HW124455   2.269   0.201  11.022  1.4162 -1.2387 -0.5608
 4332SOL    HW224456   2.232   0.072  11.077 -0.3684  0.0872  0.0365
 4333SOL     OW24457   0.048   3.096   6.658 -0.0940 -0.6249  0.2229
 4333SOL    HW124458   0.005   3.088   6.573  2.0725  3.4500 -1.3028
 4333SOL    HW224459   4.693   3.089   6.714 -1.1120  0.4640 -1.0351
 4334SOL     OW24460   4.194   2.966   1.979 -0.2844  0.3344  0.1060
 4334SOL    HW124461   4.126   3.031   1.962 -0.0665 -0.1121 -2.3947
 4334SOL    HW224462   4.160   2.891   1.930 -2.7149  0.2333  1.9313
 4335SOL     OW24463   0.718   4.239   6.381 -0.2522  0.2066  0.0595
 4335SOL    HW124464   0.634   4.194   6.388 -0.5479  0.3945 -2.5826
 4335SOL    HW224465   0.714   4.292   6.302  1.5589  0.9847  0.4848
 4336SOL     OW24466   1.614   3.649   3.463  0.5494 -0.2084 -0.4332
 4336SOL    HW124467   1.523   3.622   3.477  1.0939 -2.0679 -0.5016
 4336SOL    HW224468   1.631   3.656   3.557  1.5131  1.1169 -0.6983
 4337SOL     OW24469   3.294   2.148  13.677  0.6433 -0.0386 -0.7772
 4337SOL    HW124470   3.264   2.123  13.764  0.6960  1.9274 -0.2125
 4337SOL    HW224471   3.209   2.157  13.633 -0.5066 -0.5859  1.3588
 4338SOL     OW24472   2.309   3.806   5.697 -0.0873  0.3073 -0.6294
 4338SOL    HW124473   2.339   3.733   5.750  1.7124  0.5952 -1.2781
 4338SOL    HW224474   2.328   3.877   5.758 -0.6608 -2.1876  2.4295
 4339SOL     OW24475   2.968   3.934  10.664 -0.3428  0.1482 -0.2810
 4339SOL    HW124476   2.930   3.918  10.578 -0.3939 -1.2965  0.0265
 4339SOL    HW224477   2.924   3.864  10.711 -1.6934  0.5072 -1.0148
 4340SOL     OW24478   1.056   1.333   2.876 -0.2953 -0.2505  0.2607
 4340SOL    HW124479   1.037   1.413   2.826  0.5654 -0.2990 -0.1352
 4340SOL    HW224480   1.007   1.264   2.831  0.3691 -1.1962  0.9925
 4341SOL     OW24481   2.798   3.847   2.233  0.2489 -1.0211 -1.0924
 4341SOL    HW124482   2.790   3.936   2.199 -0.4565 -0.2857  0.9841
 4341SOL    HW224483   2.891   3.826   2.226  0.6706 -0.5962  3.0877
 4342SOL     OW24484   2.079   3.966   4.284 -0.1028 -0.7921 -0.1545
 4342SOL    HW124485   1.990   3.994   4.301 -0.1325  0.0986 -1.7917
 4342SOL    HW224486   2.107   3.911   4.357  1.1711 -2.5304 -1.9318
 4343SOL     OW24487   0.776   4.639   6.077  0.2482  0.0751  0.2513
 4343SOL    HW124488   0.870   4.637   6.095  0.5771  0.3213 -1.4819
 4343SOL    HW224489   0.767   4.614   5.985 -1.4727  1.4467  0.0641
 4344SOL     OW24490   2.904   2.822   4.189  0.4911 -0.0142  0.0906
 4344SOL    HW124491   2.902   2.884   4.117  0.3794 -1.4376 -1.1476
 4344SOL    HW224492   2.991   2.784   4.173  0.8249 -0.3536  2.8027
 4345SOL     OW24493   2.386   3.349   4.929  0.3218  0.3327  0.4266
 4345SOL    HW124494   2.424   3.357   4.842  1.3607 -0.6237  0.7962
 4345SOL    HW224495   2.370   3.442   4.944 -1.0912 -0.2514  2.6007
 4346SOL     OW24496   2.399   4.266   4.697 -0.5518  0.0288  0.4177
 4346SOL    HW124497   2.371   4.292   4.785  0.4294  1.0518  0.4246
 4346SOL    HW224498   2.470   4.330   4.690 -0.1958 -0.2463  1.4967
 4347SOL     OW24499   2.238   3.203   8.368  0.0313 -0.3970 -0.3753
 4347SOL    HW124500   2.305   3.204   8.300 -1.2860 -2.3426 -1.7131
 4347SOL    HW224501   2.166   3.171   8.314 -0.7554  0.0899  0.3704
 4348SOL     OW24502   2.135   4.313   2.978  0.2613  0.4479  0.1248
 4348SOL    HW124503   2.128   4.391   2.923 -0.3654 -1.0113 -1.8704
 4348SOL    HW224504   2.159   4.246   2.914  0.1270  1.4771 -0.9986
 4349SOL     OW24505   4.386   1.390   4.491  0.2629  0.1652  0.2471
 4349SOL    HW124506   4.433   1.358   4.414 -3.3420  0.4544 -2.0625
 4349SOL    HW224507   4.370   1.305   4.532 -0.0842  0.0752 -0.0862
 4350SOL     OW24508   0.095   2.785   7.768  0.4474  0.0096 -0.6634
 4350SOL    HW124509   0.142   2.751   7.844 -0.8225 -1.3150 -0.4537
 4350SOL    HW224510   0.032   2.716   7.745  0.9319 -0.4650 -0.5566
 4351SOL     OW24511   0.374   0.805  16.559 -0.0569  0.2910  0.0651
 4351SOL    HW124512   0.404   0.859  16.486 -0.1991  1.0854  0.5950
 4351SOL    HW224513   0.380   0.873  16.626  0.2773  0.7977 -0.4723
 4352SOL     OW24514   2.673   3.856   6.925  0.0182  0.0726  0.2557
 4352SOL    HW124515   2.597   3.869   6.981 -0.5008  1.1067 -0.6735
 4352SOL    HW224516   2.675   3.930   6.863 -1.3057  0.2314  0.4094
 4353SOL     OW24517   1.618   3.570   4.395 -0.0750  0.6131 -0.0859
 4353SOL    HW124518   1.617   3.544   4.302  1.0777  2.2751 -0.5743
 4353SOL    HW224519   1.680   3.504   4.426  2.4542  2.2528 -1.6852
 4354SOL     OW24520   3.628   3.316   0.349  0.9464 -0.4305  0.1827
 4354SOL    HW124521   3.556   3.254   0.358  1.4350 -1.1001 -0.4534
 4354SOL    HW224522   3.690   3.282   0.414 -0.9841 -1.4897  1.4740
 4355SOL     OW24523   2.916   1.470   6.296 -0.2198  0.5267 -0.8517
 4355SOL    HW124524   2.956   1.548   6.258  1.2079 -0.1483 -0.7384
 4355SOL    HW224525   2.844   1.503   6.350 -0.1569 -0.7251 -0.0199
 4356SOL     OW24526   0.386   2.112   3.951  0.2617 -0.5525  0.2096
 4356SOL    HW124527   0.355   2.050   4.016 -1.9345  0.4633  0.1247
 4356SOL    HW224528   0.333   2.189   3.975  0.6694  0.2423 -1.4024
 4357SOL     OW24529   0.687   4.202   2.497  0.6098 -0.3590 -0.2052
 4357SOL    HW124530   0.726   4.280   2.458 -0.7083  0.8034  0.7995
 4357SOL    HW224531   0.678   4.143   2.423  1.3686 -0.8541  0.0923
 4358SOL     OW24532   4.062   2.505  15.716 -0.0367 -0.0265  0.0646
 4358SOL    HW124533   4.046   2.463  15.632  0.9324 -2.1022  0.9110
 4358SOL    HW224534   4.135   2.458  15.757  1.1621  1.8335  0.0650
 4359SOL     OW24535   1.352   2.813   1.712  0.2434  0.2427  0.4766
 4359SOL    HW124536   1.272   2.766   1.693  0.4791  0.0349  0.0073
 4359SOL    HW224537   1.390   2.829   1.626 -2.2779  1.4360 -0.4099
 4360SOL     OW24538   4.605   4.106   9.287 -0.3571 -0.2602  0.0363
 4360SOL    HW124539   4.674   4.059   9.334  1.6759  1.3799 -1.2962
 4360SOL    HW224540   4.627   4.198   9.302  1.5816 -0.9148  1.1509
 4361SOL     OW24541   0.110   0.767   0.382  0.0192 -0.9832  0.1601
 4361SOL    HW124542   0.154   0.752   0.466  1.3748 -0.7841 -0.5049
 4361SOL    HW224543   0.180   0.752   0.318  0.2779  2.9601 -0.4782
 4362SOL     OW24544   2.219   1.002  12.884 -0.0080  0.0740  0.2134
 4362SOL    HW124545   2.292   0.963  12.933  0.8749  0.3838 -0.8378
 4362SOL    HW224546   2.186   1.079  12.928 -1.6084 -0.2308 -0.4746
 4363SOL     OW24547   2.493   4.110   1.852 -0.2818  0.5332  0.3718
 4363SOL    HW124548   2.546   4.147   1.922 -1.1796  1.2431  0.6891
 4363SOL    HW224549   2.537   4.155   1.779 -0.2177 -0.3541 -0.1348
 4364SOL     OW24550   1.313   2.500  17.258 -0.6262  0.4806 -0.5501
 4364SOL    HW124551   1.281   2.549  17.333 -2.5756  0.9011 -1.6452
 4364SOL    HW224552   1.396   2.539  17.229 -1.4463  3.2221  0.7925
 4365SOL     OW24553   3.521   1.212   9.436 -0.3688  0.0227  0.0448
 4365SOL    HW124554   3.592   1.187   9.376 -0.5213 -0.7146  0.1700
 4365SOL    HW224555   3.572   1.243   9.511 -1.3976  0.0833  0.7085
 4366SOL     OW24556   2.401   1.264   2.665 -0.2536  0.5712 -0.2341
 4366SOL    HW124557   2.405   1.200   2.736 -0.7392 -0.2533 -0.9414
 4366SOL    HW224558   2.413   1.342   2.720  0.6059 -0.5607  1.1791
 4367SOL     OW24559   3.199   0.225   9.480  0.3460 -0.0207 -0.0246
 4367SOL    HW124560   3.172   0.159   9.416  2.3805 -0.6014 -0.2822
 4367SOL    HW224561   3.279   0.246   9.432 -0.5141  0.3267 -1.3006
 4368SOL     OW24562   3.824   4.247   6.704 -0.0183  0.1471  0.3302
 4368SOL    HW124563   3.850   4.338   6.721 -1.0438  0.3642  0.7807
 4368SOL    HW224564   3.763   4.238   6.777 -0.3575 -0.8847 -0.0804
 4369SOL     OW24565   4.544   3.745  14.159  0.4291  0.1936  0.0182
 4369SOL    HW124566   4.587   3.783  14.236  0.9100  0.7864 -0.5463
 4369SOL    HW224567   4.593   3.783  14.086  3.0422  0.8648  2.1187
 4370SOL     OW24568   1.769   2.540   0.326 -0.1207 -0.2370  0.3824
 4370SOL    HW124569   1.827   2.594   0.380  2.5257 -1.3082 -1.3730
 4370SOL    HW224570   1.768   2.452   0.363  0.8986  0.3809  1.8643
 4371SOL     OW24571   2.234   2.805   4.755  0.1379 -0.3870 -0.3509
 4371SOL    HW124572   2.279   2.774   4.834 -0.5648  1.3757  0.7352
 4371SOL    HW224573   2.148   2.829   4.790 -0.3649 -0.3243 -1.6520
 4372SOL     OW24574   4.267   0.522   3.241  0.0271  0.1007 -0.4361
 4372SOL    HW124575   4.173   0.506   3.241  0.2516 -1.1782  2.0830
 4372SOL    HW224576   4.278   0.588   3.173  0.9170  0.2084 -0.1923
 4373SOL     OW24577   2.104   4.421   8.515 -0.0915 -0.2285 -0.1839
 4373SOL    HW124578   2.156   4.369   8.576  0.0185  0.2489  0.1278
 4373SOL    HW224579   2.176   4.436   8.454  0.3835 -2.3494 -0.1593
 4374SOL     OW24580   0.641   3.636   6.610 -0.6416  0.2295 -0.2974
 4374SOL    HW124581   0.601   3.595   6.534 -1.0398  1.5691 -0.8179
 4374SOL    HW224582   0.615   3.728   6.597 -0.7282 -0.0549 -2.0215
 4375SOL     OW24583   0.668   2.397  14.187 -0.6237 -0.0593 -0.1703
 4375SOL    HW124584   0.586   2.381  14.140  0.4772 -2.2964 -1.3679
 4375SOL    HW224585   0.645   2.467  14.247  1.0116 -0.0492  0.4405
 4376SOL     OW24586   1.999   2.096   5.569  0.4120  0.5069 -0.2632
 4376SOL    HW124587   2.062   2.061   5.633  0.0935  0.5714  0.0844
 4376SOL    HW224588   1.997   2.024   5.506 -0.8376 -0.2316  0.6175
 4377SOL     OW24589   1.949   1.491   0.010 -0.2937 -0.4809  0.2703
 4377SOL    HW124590   1.982   1.491  17.612  0.2637 -1.0441  0.4736
 4377SOL    HW224591   1.872   1.434   0.006 -0.2374 -0.4752 -1.0342
 4378SOL     OW24592   3.268   1.563   8.328 -0.3003 -0.2415  0.3008
 4378SOL    HW124593   3.260   1.526   8.240  2.4802 -1.8899  0.7761
 4378SOL    HW224594   3.308   1.489   8.372 -1.6685 -1.2409 -0.1311
 4379SOL     OW24595   0.020   2.545   7.214 -0.0433  0.2647  0.2526
 4379SOL    HW124596   4.691   2.599   7.275  1.0703  1.7557 -0.1462
 4379SOL    HW224597   0.086   2.507   7.272  0.8274 -1.6951 -2.0368
 4380SOL     OW24598   1.000   4.452  10.647  0.2736 -0.1773 -0.2156
 4380SOL    HW124599   0.919   4.496  10.619  0.5064 -0.4832 -1.3564
 4380SOL    HW224600   0.983   4.358  10.639 -1.5172  0.0510  0.8661
 4381SOL     OW24601   1.552   3.530  17.430 -0.5206 -0.3591 -0.9572
 4381SOL    HW124602   1.576   3.552  17.520 -0.1081 -0.5567 -1.0158
 4381SOL    HW224603   1.635   3.495  17.397  0.7466  0.5159  1.3243
 4382SOL     OW24604   0.580   3.151  11.189  0.0222 -0.0939  0.1327
 4382SOL    HW124605   0.545   3.227  11.235  0.1633  0.3235 -0.4506
 4382SOL    HW224606   0.674   3.157  11.209  0.0864 -0.1023 -0.1672
 4383SOL     OW24607   3.192   0.278   8.317 -0.6197  0.4980 -0.1789
 4383SOL    HW124608   3.236   0.199   8.347 -1.7247 -0.0532 -0.0150
 4383SOL    HW224609   3.229   0.337   8.381  2.0417 -0.5257 -0.7897
 4384SOL     OW24610   1.236   1.497   5.597  0.7252  0.0518  0.0133
 4384SOL    HW124611   1.262   1.406   5.610  0.7229 -0.0137 -0.4520
 4384SOL    HW224612   1.226   1.503   5.502  2.1596  1.0199 -0.0809
 4385SOL     OW24613   0.259   1.820   5.963 -0.1525  0.1132  0.3915
 4385SOL    HW124614   0.262   1.725   5.968 -1.3030  0.0716  0.4155
 4385SOL    HW224615   0.177   1.810   5.915 -0.7186  0.9792  1.1765
 4386SOL     OW24616   2.982   1.058   2.087  0.8549 -0.1584  0.0447
 4386SOL    HW124617   2.905   1.098   2.127  0.2919 -0.6004 -0.6043
 4386SOL    HW224618   2.987   0.976   2.137  2.9427 -1.6454 -2.6280
 4387SOL     OW24619   4.298   0.105   5.901  0.0379 -0.1729  0.4211
 4387SOL    HW124620   4.372   0.045   5.892  1.8190  1.8053  1.9660
 4387SOL    HW224621   4.337   0.191   5.886 -0.9377 -0.0853 -1.5371
 4388SOL     OW24622   2.912   3.128  11.021  0.6718 -0.3429  0.3054
 4388SOL    HW124623   2.921   3.038  11.051 -0.6769 -1.1933 -1.8457
 4388SOL    HW224624   2.888   3.106  10.931 -1.0194 -1.6114  1.0893
 4389SOL     OW24625   0.842   1.980   3.845  0.3216 -0.0757 -0.0333
 4389SOL    HW124626   0.751   1.952   3.832 -0.1030  0.9595  0.6998
 4389SOL    HW224627   0.882   1.947   3.764 -0.8863 -1.6053 -0.0131
 4390SOL     OW24628   2.283   2.104   4.432  0.4647  0.3723 -1.2974
 4390SOL    HW124629   2.195   2.065   4.427 -0.4018  1.8064  3.3301
 4390SOL    HW224630   2.256   2.193   4.412  0.4413  0.1597 -2.2416
 4391SOL     OW24631   2.394   0.068   1.513  0.3157  0.5069 -0.2711
 4391SOL    HW124632   2.427   0.067   1.423 -2.0239  0.9491 -1.1375
 4391SOL    HW224633   2.419   4.703   1.543 -0.7475  0.3841  0.2501
 4392SOL     OW24634   0.841   1.319   1.690  0.4207 -0.0547 -0.6470
 4392SOL    HW124635   0.909   1.309   1.757  1.1547  0.5052 -1.3114
 4392SOL    HW224636   0.843   1.410   1.663 -0.0445 -0.3815 -1.7659
 4393SOL     OW24637   1.296   3.014   3.251 -0.6479  0.0872 -0.3685
 4393SOL    HW124638   1.385   2.982   3.237  0.3001  1.5492  2.2021
 4393SOL    HW224639   1.238   2.947   3.214 -0.7705  0.4975 -0.9125
 4394SOL     OW24640   4.502   1.304  13.395  0.6053 -0.1826  0.1854
 4394SOL    HW124641   4.563   1.255  13.449  0.9057 -0.5401 -0.4703
 4394SOL    HW224642   4.467   1.370  13.455  2.4147 -0.8650  1.9927
 4395SOL     OW24643   2.203   0.889   2.765 -0.6363  0.3967 -0.3079
 4395SOL    HW124644   2.228   0.808   2.810  1.6744  1.6392  0.6315
 4395SOL    HW224645   2.273   0.902   2.700 -0.0599  0.4947  0.3379
 4396SOL     OW24646   1.205   4.331   4.765 -0.2803  0.2303  0.1988
 4396SOL    HW124647   1.252   4.249   4.746  0.0299  0.2230  0.9903
 4396SOL    HW224648   1.135   4.292   4.817 -1.3451 -1.2512 -2.3253
 4397SOL     OW24649   2.849   3.206   8.575 -0.5078  0.2000 -0.5469
 4397SOL    HW124650   2.830   3.113   8.574  2.2137 -0.3712  2.3422
 4397SOL    HW224651   2.872   3.232   8.486  1.8870 -0.5872 -0.1534
 4398SOL     OW24652   1.913   3.699   0.927  0.1985  0.2115 -0.1447
 4398SOL    HW124653   1.875   3.635   0.866 -0.0165  1.3396 -1.1882
 4398SOL    HW224654   1.883   3.778   0.883  0.1048  0.4374  0.3273
 4399SOL     OW24655   3.518   0.162   4.646 -0.0913 -0.2605 -0.1960
 4399SOL    HW124656   3.485   0.215   4.574  2.3477  0.8524 -0.4645
 4399SOL    HW224657   3.453   0.185   4.713 -1.1038 -0.4661 -1.1026
 4400SOL     OW24658   3.649   4.258   9.570  0.5836 -0.3621 -0.0378
 4400SOL    HW124659   3.726   4.314   9.559 -0.0076  0.5018  0.1332
 4400SOL    HW224660   3.592   4.319   9.522  1.2050  1.5951  1.7150
 4401SOL     OW24661   3.007   2.304   6.437  0.0805 -0.1336  0.0689
 4401SOL    HW124662   3.089   2.331   6.395 -1.2273 -1.6812 -3.4935
 4401SOL    HW224663   3.026   2.305   6.531  2.7003 -2.6340 -0.4195
 4402SOL     OW24664   0.255   1.934   4.099  0.4042 -0.5504 -0.1152
 4402SOL    HW124665   0.174   1.936   4.149 -0.3601 -0.5663 -1.3396
 4402SOL    HW224666   0.240   1.849   4.057  0.0317  0.5317 -2.2023
 4403SOL     OW24667   0.464   4.322   5.792  0.1893 -0.4351 -0.3193
 4403SOL    HW124668   0.459   4.255   5.723  3.3593 -0.6672 -0.2987
 4403SOL    HW224669   0.518   4.285   5.861 -0.4491  0.2251  0.5433
 4404SOL     OW24670   2.211   1.099   4.283  0.4255  0.1961  0.2805
 4404SOL    HW124671   2.156   1.122   4.207  0.5587  1.6179  0.6160
 4404SOL    HW224672   2.158   1.137   4.353 -0.5693 -1.0677  0.2145
 4405SOL     OW24673   1.663   4.354   1.194 -0.5875  0.0310  0.0035
 4405SOL    HW124674   1.677   4.441   1.231  0.8673  0.3991 -1.4356
 4405SOL    HW224675   1.717   4.307   1.258  0.0891 -0.3676 -0.8732
 4406SOL     OW24676   1.943   0.508   9.419 -0.0495  0.2193 -0.2144
 4406SOL    HW124677   1.949   0.568   9.344 -1.2756  0.2014 -0.3238
 4406SOL    HW224678   1.894   0.565   9.478 -1.3852  0.4830 -1.5663
 4407SOL     OW24679   1.214   2.034  17.428 -0.0319  0.3235 -0.4641
 4407SOL    HW124680   1.162   2.013  17.351  1.1287 -1.4708 -0.7640
 4407SOL    HW224681   1.145   2.070  17.483  1.5586  0.9103  1.1496
 4408SOL     OW24682   2.458   0.219   0.445  0.4481  0.0831  0.6433
 4408SOL    HW124683   2.403   0.162   0.390 -1.0534  0.5589  1.6624
 4408SOL    HW224684   2.518   0.237   0.373 -0.9510 -1.1157 -0.8183
 4409SOL     OW24685   0.837   0.409   2.210 -0.1637  0.5129 -0.2895
 4409SOL    HW124686   0.928   0.384   2.193 -0.3297 -0.8452  0.8975
 4409SOL    HW224687   0.851   0.492   2.256  3.2420 -0.8930  1.1343
 4410SOL     OW24688   4.399   2.797   4.624  0.3538 -0.2380  0.5273
 4410SOL    HW124689   4.370   2.723   4.570  1.9742 -0.3151 -0.2268
 4410SOL    HW224690   4.477   2.761   4.666  1.5875  0.9926 -0.7007
 4411SOL     OW24691   0.533   2.237   4.255  0.4114 -0.0709 -0.2666
 4411SOL    HW124692   0.453   2.205   4.295  1.3138 -0.9827  0.8019
 4411SOL    HW224693   0.596   2.226   4.326 -1.3538  0.1215  1.3122
 4412SOL     OW24694   4.137   0.933  16.701  0.0636  0.1477  0.3596
 4412SOL    HW124695   4.101   0.904  16.785 -1.9242  1.0324 -0.1690
 4412SOL    HW224696   4.228   0.909  16.714 -0.2790 -0.4550  1.6306
 4413SOL     OW24697   4.082   4.190   1.126 -0.0282 -0.5195  0.4588
 4413SOL    HW124698   4.147   4.122   1.143 -1.0574 -1.8415 -0.7810
 4413SOL    HW224699   4.034   4.145   1.056 -1.9054  1.1965  0.6434
 4414SOL     OW24700   0.985   0.153   8.651  0.3029 -0.2703 -0.1669
 4414SOL    HW124701   0.988   0.090   8.723  1.4822  2.1209  1.8986
 4414SOL    HW224702   0.903   0.197   8.677  0.7290  0.1789  0.4246
 4415SOL     OW24703   2.650   0.736   6.836 -0.0324 -0.0807  0.0206
 4415SOL    HW124704   2.680   0.710   6.923 -1.4293  0.4314  0.6430
 4415SOL    HW224705   2.578   0.796   6.853  0.7532  1.2392 -1.3170
 4416SOL     OW24706   3.048   2.430   5.857  0.1994  0.2011 -0.0462
 4416SOL    HW124707   3.032   2.350   5.808  0.8590  1.0118 -1.5945
 4416SOL    HW224708   3.144   2.429   5.861  0.2768 -0.2818 -2.4738
 4417SOL     OW24709   4.000   1.446  11.235 -0.1106  0.0560  0.2015
 4417SOL    HW124710   3.985   1.537  11.259  0.8371  0.9329 -2.5892
 4417SOL    HW224711   3.910   1.413  11.232 -0.2040  0.3332 -0.0133
 4418SOL     OW24712   4.016   2.932  16.394  0.0253  0.8231 -0.6186
 4418SOL    HW124713   3.936   2.881  16.380  0.7246 -1.3315  3.1137
 4418SOL    HW224714   3.983   2.987  16.465 -0.7988 -0.0535 -0.3205
 4419SOL     OW24715   0.760   3.184   5.075 -0.2401  0.3783 -0.1900
 4419SOL    HW124716   0.807   3.176   4.993 -0.2727  0.8862 -0.2568
 4419SOL    HW224717   0.812   3.131   5.136 -1.7010 -0.4976  0.2958
 4420SOL     OW24718   3.684   2.512   2.210  0.0505 -0.2183  0.2070
 4420SOL    HW124719   3.608   2.568   2.227  0.9296  1.5150 -1.5330
 4420SOL    HW224720   3.732   2.579   2.161  1.9534  0.0450  2.4393
 4421SOL     OW24721   2.949   2.294  15.778 -0.0095 -0.1841  0.2302
 4421SOL    HW124722   2.927   2.205  15.805 -0.5685  0.3115  1.4040
 4421SOL    HW224723   3.044   2.294  15.787  0.0081  1.0080  0.1402
 4422SOL     OW24724   2.146   0.855   9.624 -0.2631 -0.1227 -0.6855
 4422SOL    HW124725   2.191   0.778   9.660  0.6851  1.1015  0.7239
 4422SOL    HW224726   2.118   0.890   9.709  0.7929  3.1497 -1.6925
 4423SOL     OW24727   3.980   1.362   8.093 -0.1551  0.6805 -0.0038
 4423SOL    HW124728   3.885   1.368   8.086 -0.3648 -0.2012  1.9883
 4423SOL    HW224729   4.006   1.407   8.013  0.1945 -1.6976 -1.2079
 4424SOL     OW24730   0.917   4.706   7.482  0.4499 -0.2718 -0.2780
 4424SOL    HW124731   0.881   4.636   7.538 -2.0810 -0.5312 -2.2064
 4424SOL    HW224732   0.971   0.029   7.546  2.3216  1.4076 -3.0777
 4425SOL     OW24733   3.731   0.754   4.419  0.0177 -0.2347  0.2419
 4425SOL    HW124734   3.767   0.841   4.432  0.4383 -0.4243  0.3468
 4425SOL    HW224735   3.722   0.726   4.510  0.6107  0.7243  0.5965
 4426SOL     OW24736   2.339   4.044   1.632 -0.0526 -0.5506  0.2377
 4426SOL    HW124737   2.370   4.103   1.701 -2.6345  1.5426 -0.4050
 4426SOL    HW224738   2.366   4.090   1.553  2.6329 -2.5139  0.0026
 4427SOL     OW24739   1.272   4.562   7.273  0.0309  0.7491 -0.5072
 4427SOL    HW124740   1.285   4.538   7.181 -0.3733 -2.3171  0.2343
 4427SOL    HW224741   1.190   4.611   7.269 -1.3412 -1.6054 -0.6842
 4428SOL     OW24742   2.740   2.265  15.335 -0.0075  0.7477 -0.2847
 4428SOL    HW124743   2.748   2.322  15.412  2.3907 -1.9215  1.4360
 4428SOL    HW224744   2.719   2.323  15.261  1.2535  0.3014 -1.0022
 4429SOL     OW24745   3.771   3.785   5.079  0.0032 -0.5022  0.2299
 4429SOL    HW124746   3.676   3.793   5.066  0.4941  0.5243 -2.6214
 4429SOL    HW224747   3.788   3.691   5.088  1.7355 -0.3319 -1.4123
 4430SOL     OW24748   2.458   2.480   7.106 -0.3068  0.7984 -0.6173
 4430SOL    HW124749   2.542   2.518   7.076  0.9726 -2.0262 -0.6123
 4430SOL    HW224750   2.404   2.559   7.099 -0.8666  0.2982 -1.9526
 4431SOL     OW24751   2.629   4.257   2.027  0.2594  0.3899  0.1124
 4431SOL    HW124752   2.704   4.314   2.040  1.0438 -0.5234 -0.4589
 4431SOL    HW224753   2.566   4.305   2.081  0.7286  1.1178  0.0065
 4432SOL     OW24754   3.928   2.700   2.229  0.8068 -0.5669 -0.0496
 4432SOL    HW124755   3.904   2.735   2.143 -0.3960 -0.4429  0.3426
 4432SOL    HW224756   3.964   2.615   2.204 -0.4504 -1.1766  0.2100
 4433SOL     OW24757   2.688   3.650   8.063 -0.3456  0.2879 -0.1398
 4433SOL    HW124758   2.693   3.684   8.152 -1.0686  0.2909 -0.1061
 4433SOL    HW224759   2.778   3.617   8.055 -0.6418  0.4157 -4.1059
 4434SOL     OW24760   4.342   3.609   4.908 -0.2120  0.5919 -0.1881
 4434SOL    HW124761   4.258   3.641   4.943 -0.3820  0.4448 -0.4658
 4434SOL    HW224762   4.364   3.542   4.973 -0.5714 -0.0458 -0.7226
 4435SOL     OW24763   4.247   0.124   7.842 -1.2181 -0.4103 -0.3647
 4435SOL    HW124764   4.326   0.082   7.878 -0.7316  0.4076 -0.4735
 4435SOL    HW224765   4.204   0.160   7.920  0.0624 -1.3753  0.8052
 4436SOL     OW24766   1.621   0.189   4.082  0.2925 -0.2672 -0.0805
 4436SOL    HW124767   1.716   0.183   4.072  0.2659 -0.3679 -0.2644
 4436SOL    HW224768   1.608   0.198   4.177  2.9494  0.2774  0.2306
 4437SOL     OW24769   1.173   2.308   5.137  0.0287 -0.0829  0.7619
 4437SOL    HW124770   1.261   2.269   5.144 -0.4021 -1.1950  0.0107
 4437SOL    HW224771   1.176   2.336   5.045 -0.5903 -0.9500  0.4720
 4438SOL     OW24772   3.400   2.987   6.860 -0.5989  0.7881  0.3577
 4438SOL    HW124773   3.429   3.010   6.772 -0.4497  0.8300  0.4164
 4438SOL    HW224774   3.482   2.966   6.906 -1.5763  1.0454  2.1981
 4439SOL     OW24775   0.655   4.155   4.903 -0.5394  0.7532  0.1049
 4439SOL    HW124776   0.654   4.188   4.993 -2.4983 -0.4524  0.5408
 4439SOL    HW224777   0.592   4.084   4.915  0.1219  0.3800  1.3491
 4440SOL     OW24778   3.021   0.884   6.921 -0.4520  0.4318  0.0707
 4440SOL    HW124779   2.955   0.856   6.985  0.9747 -2.2428  0.3827
 4440SOL    HW224780   2.983   0.962   6.882  2.3795  1.5230 -0.5227
 4441SOL     OW24781   0.355   0.680  17.004  0.0295  0.3604  0.0342
 4441SOL    HW124782   0.369   0.693  17.098  2.9670 -0.2589 -0.3188
 4441SOL    HW224783   0.440   0.653  16.970 -0.7358 -0.8164 -0.9268
 4442SOL     OW24784   2.476   1.381   7.548  0.8038  0.0596  0.2198
 4442SOL    HW124785   2.472   1.298   7.500 -0.5757 -0.2470  0.8416
 4442SOL    HW224786   2.475   1.351   7.639 -2.6739 -0.8785 -0.1320
 4443SOL     OW24787   0.640   1.202   2.955 -0.6717 -0.4575 -0.0997
 4443SOL    HW124788   0.682   1.288   2.948 -0.7593 -0.4280 -0.2554
 4443SOL    HW224789   0.553   1.226   2.986 -0.3053  0.0056  0.5916
 4444SOL     OW24790   1.995   2.367   5.880  0.6348 -0.3497 -0.6341
 4444SOL    HW124791   2.027   2.278   5.898  0.2131  0.6493  5.2645
 4444SOL    HW224792   2.074   2.413   5.852  1.2161 -0.6316  0.5124
 4445SOL     OW24793   1.663   4.700  11.513  0.6568 -0.0303  0.1488
 4445SOL    HW124794   1.703   4.672  11.431 -0.5840 -0.9535 -0.1257
 4445SOL    HW224795   1.724   4.658  11.574  0.2231 -3.1697 -1.5778
 4446SOL     OW24796   0.731   0.098  16.075 -0.1117  0.2688  0.2130
 4446SOL    HW124797   0.801   0.087  16.011 -0.9428 -0.4018 -0.5828
 4446SOL    HW224798   0.698   0.008  16.079 -0.9958  0.6587  1.6630
 4447SOL     OW24799   3.260   1.234  12.935  0.3386 -0.6983  0.0079
 4447SOL    HW124800   3.205   1.270  13.004 -1.3217 -0.1045 -1.6426
 4447SOL    HW224801   3.213   1.153  12.915 -0.8226 -0.2838  1.0996
 4448SOL     OW24802   1.923   4.283   4.091  0.3976  0.1968  0.2260
 4448SOL    HW124803   1.905   4.313   4.180  0.5131 -0.5605  0.5065
 4448SOL    HW224804   2.008   4.239   4.100  0.9068  1.0183 -0.6056
 4449SOL     OW24805   4.611   0.948   0.382  0.0667 -0.0300  0.1512
 4449SOL    HW124806   4.603   0.957   0.287  1.0233 -2.0940 -0.1257
 4449SOL    HW224807   4.695   0.904   0.372  0.4071  0.4658  0.7982
 4450SOL     OW24808   3.864   4.435   8.227  0.0073  0.0504 -0.0286
 4450SOL    HW124809   3.945   4.461   8.272 -1.6082  1.0513  2.2800
 4450SOL    HW224810   3.798   4.497   8.258  0.7044  1.6177 -1.6737
 4451SOL     OW24811   3.552   0.793   1.170 -0.3034  0.1909  0.0433
 4451SOL    HW124812   3.598   0.709   1.169  1.6633  1.2637  0.4492
 4451SOL    HW224813   3.467   0.771   1.133 -0.7104  1.3606  0.2739
 4452SOL     OW24814   4.655   0.972  13.020  0.4559  0.6188 -0.1074
 4452SOL    HW124815   4.659   0.905  13.088 -1.7785  0.1440 -0.4164
 4452SOL    HW224816   4.690   1.044  13.072 -0.7974  0.9758  0.2470
 4453SOL     OW24817   3.023   1.691   6.177  0.1334  0.1746 -0.2227
 4453SOL    HW124818   3.107   1.692   6.132 -0.4191 -1.9743 -1.2990
 4453SOL    HW224819   2.961   1.663   6.110 -2.3504  1.5934  1.4511
 4454SOL     OW24820   1.875   0.170   5.956  0.0576  0.5698 -0.7294
 4454SOL    HW124821   1.928   0.195   5.880 -2.6176  1.2878 -2.3544
 4454SOL    HW224822   1.814   0.119   5.902  4.0265 -2.8521 -1.9655
 4455SOL     OW24823   4.165   1.865   3.229 -0.1004  0.3251 -0.0978
 4455SOL    HW124824   4.144   1.772   3.228  2.8027 -0.3339 -0.5772
 4455SOL    HW224825   4.259   1.858   3.244 -0.2797 -2.3324 -0.2327
 4456SOL     OW24826   3.354   3.727   8.420  0.0817  0.0958  0.0669
 4456SOL    HW124827   3.311   3.772   8.348  0.8761  0.4633 -0.1740
 4456SOL    HW224828   3.437   3.722   8.373  0.4447 -1.6939  0.8837
 4457SOL     OW24829   2.226   2.348   5.232 -0.6067 -0.0745 -0.1859
 4457SOL    HW124830   2.180   2.320   5.311 -0.7768  0.7071 -0.0119
 4457SOL    HW224831   2.191   2.436   5.220 -0.9517  0.0645  1.8181
 4458SOL     OW24832   3.436   0.603   3.675  0.1747 -0.1780 -0.1399
 4458SOL    HW124833   3.351   0.584   3.636 -1.6953 -0.3701  4.0986
 4458SOL    HW224834   3.473   0.515   3.669 -2.1206 -1.2132  1.3619
 4459SOL     OW24835   0.118   3.886   2.370  0.0215 -0.2063  0.1016
 4459SOL    HW124836   0.100   3.897   2.463 -0.7757  0.5484 -0.1360
 4459SOL    HW224837   0.037   3.916   2.328  0.2578  0.0706 -0.1590
 4460SOL     OW24838   1.007   4.696   8.853  0.0970  0.1595  0.3672
 4460SOL    HW124839   1.064   4.620   8.868 -0.1998 -0.1946 -0.2926
 4460SOL    HW224840   0.949   4.676   8.927  0.1918  0.1569  0.4402
 4461SOL     OW24841   3.842   3.802  13.253 -0.0807  0.2635  0.0775
 4461SOL    HW124842   3.820   3.799  13.160 -0.9332 -1.0854  0.3187
 4461SOL    HW224843   3.826   3.895  13.268  1.8049  0.2737  2.0480
 4462SOL     OW24844   0.622   2.174   6.239 -0.3764  0.4252  0.3427
 4462SOL    HW124845   0.602   2.146   6.328  0.7367  3.0238  1.4045
 4462SOL    HW224846   0.558   2.126   6.187  1.2708  0.5636 -1.8258
 4463SOL     OW24847   1.079   2.689   7.112  0.2761 -0.3729  0.1461
 4463SOL    HW124848   1.084   2.678   7.017 -0.9970  0.7474 -0.0462
 4463SOL    HW224849   1.082   2.785   7.112  0.6918 -0.3695  3.1236
 4464SOL     OW24850   3.026   4.524   0.256  0.5041  0.3664 -0.3989
 4464SOL    HW124851   3.065   4.509   0.342  0.0220  0.3110 -0.1950
 4464SOL    HW224852   2.933   4.524   0.276 -0.0015 -2.4024 -2.6537
 4465SOL     OW24853   0.435   2.044   1.541  0.4371 -0.3931  0.1201
 4465SOL    HW124854   0.403   2.111   1.601 -1.1836 -0.8816 -0.2026
 4465SOL    HW224855   0.350   2.016   1.507 -0.9575  1.5922  1.8968
 4466SOL     OW24856   2.054   2.575   5.179 -0.2260 -0.0563  0.0830
 4466SOL    HW124857   2.019   2.616   5.258 -0.6407 -0.4503  0.1036
 4466SOL    HW224858   2.010   2.617   5.106 -2.3378 -1.1929  0.6895
 4467SOL     OW24859   1.125   4.702   5.004 -0.1384  0.4397 -0.0047
 4467SOL    HW124860   1.199   4.663   4.957  0.9048  3.6444 -0.9751
 4467SOL    HW224861   1.158   0.002   5.091  0.5927 -1.4821  0.2333
 4468SOL     OW24862   4.310   0.398  16.079 -0.6047 -0.4160 -0.5272
 4468SOL    HW124863   4.312   0.492  16.092 -0.3854 -0.6653  1.2471
 4468SOL    HW224864   4.369   0.369  16.148  0.9808  0.3682 -1.5666
 4469SOL     OW24865   2.918   0.719   6.725 -0.2768 -0.0664 -0.2467
 4469SOL    HW124866   2.943   0.779   6.796 -3.0190 -0.4857  1.0462
 4469SOL    HW224867   2.826   0.721   6.750 -0.3952 -0.8053 -0.6347
 4470SOL     OW24868   1.339   3.873   3.919 -0.3974  0.5763 -0.2729
 4470SOL    HW124869   1.296   3.833   3.994 -1.1683  1.5160 -0.2100
 4470SOL    HW224870   1.266   3.868   3.858  1.4061 -0.9058 -2.3225
 4471SOL     OW24871   3.964   4.722   7.964 -0.1689  0.0509  0.0379
 4471SOL    HW124872   3.869   0.008   7.960 -0.0285 -0.1226 -3.4483
 4471SOL    HW224873   3.974   4.662   7.890 -1.1927 -0.2712  0.1555
 4472SOL     OW24874   1.244   1.559   7.246  0.8839  0.0752 -0.0193
 4472SOL    HW124875   1.214   1.615   7.174  0.1316 -1.7503 -1.1189
 4472SOL    HW224876   1.311   1.514   7.195  0.1283 -2.1261  0.9129
 4473SOL     OW24877   3.963   0.497  16.961 -0.6690 -0.0453  0.0232
 4473SOL    HW124878   3.921   0.512  16.876 -0.9963 -0.7706  0.0578
 4473SOL    HW224879   4.040   0.452  16.925 -0.3338 -0.1243  0.8295
 4474SOL     OW24880   3.336   4.507  14.627  0.2189 -0.4663 -0.3551
 4474SOL    HW124881   3.310   4.415  14.616 -3.4100  0.5888 -0.3957
 4474SOL    HW224882   3.281   4.548  14.560  0.9784  0.8328 -0.1725
 4475SOL     OW24883   0.100   3.814   5.792 -0.1728 -0.1599 -0.5301
 4475SOL    HW124884   0.162   3.745   5.814  1.4496  0.6009 -2.8065
 4475SOL    HW224885   0.163   3.879   5.760  0.7565  0.1069  1.8581
 4476SOL     OW24886   0.362   2.613  14.260 -0.1679  0.3089 -0.2984
 4476SOL    HW124887   0.410   2.597  14.341 -0.7710  1.7624  0.3416
 4476SOL    HW224888   0.307   2.534  14.265 -0.4343  0.4793 -0.4989
 4477SOL     OW24889   0.023   0.046  10.418 -0.4539  0.0404 -0.1802
 4477SOL    HW124890   4.651   0.040  10.401 -0.5310 -1.1949  0.7030
 4477SOL    HW224891   0.028   4.690  10.472 -0.9975 -0.2362 -0.5269
 4478SOL     OW24892   0.296   2.525   4.154  0.2263 -0.0795 -0.3440
 4478SOL    HW124893   0.271   2.453   4.212 -1.2636 -0.7538 -1.8076
 4478SOL    HW224894   0.224   2.587   4.156 -1.0842 -1.5359 -1.9900
 4479SOL     OW24895   2.624   3.401   8.317 -0.0930 -0.1564  0.0330
 4479SOL    HW124896   2.688   3.338   8.286 -0.1685  0.9447 -2.3629
 4479SOL    HW224897   2.619   3.367   8.406 -2.2878 -0.1598 -0.0847
 4480SOL     OW24898   2.471   0.107   4.809 -0.4620  0.2058  0.3310
 4480SOL    HW124899   2.456   0.125   4.902 -0.6865  1.7877 -0.0154
 4480SOL    HW224900   2.566   0.108   4.797 -0.5424 -0.0776 -0.3007
 4481SOL     OW24901   3.240   4.534   2.658 -0.9189 -0.8976 -0.7206
 4481SOL    HW124902   3.200   4.563   2.576 -0.5151  0.0155 -0.6026
 4481SOL    HW224903   3.177   4.464   2.671 -1.5240  0.0708  1.6187
 4482SOL     OW24904   4.495   0.165  14.340  0.4090  0.6140  0.4719
 4482SOL    HW124905   4.568   0.159  14.402  1.3825 -1.4213 -0.8691
 4482SOL    HW224906   4.451   0.088  14.375 -3.6817  2.1613 -1.2415
 4483SOL     OW24907   2.894   4.438  15.872 -0.1494  0.6355  0.4667
 4483SOL    HW124908   2.975   4.430  15.821 -0.4307  2.2682 -0.2438
 4483SOL    HW224909   2.915   4.370  15.935 -2.6131  0.4134  1.0507
 4484SOL     OW24910   2.254   0.560   3.209  0.0294  0.1677  0.0253
 4484SOL    HW124911   2.232   0.583   3.299 -1.3654 -0.6879 -0.0890
 4484SOL    HW224912   2.180   0.506   3.181 -0.8517  1.1747  0.4017
 4485SOL     OW24913   3.676   1.981   9.420 -0.2970  0.0413 -0.0022
 4485SOL    HW124914   3.722   2.065   9.412 -0.7699  0.1486 -1.6105
 4485SOL    HW224915   3.748   1.926   9.389 -0.7090 -1.1062  1.0769
 4486SOL     OW24916   1.130   3.227   9.590 -0.0654 -0.0081 -0.1316
 4486SOL    HW124917   1.052   3.198   9.543 -0.3583  1.1319 -0.3369
 4486SOL    HW224918   1.197   3.179   9.540  1.6262  0.2651  1.8758
 4487SOL     OW24919   1.292   1.841  10.585  0.2733  0.6651 -0.2903
 4487SOL    HW124920   1.253   1.929  10.578 -0.2988  0.4274 -0.0716
 4487SOL    HW224921   1.366   1.866  10.641  0.0232  1.3561 -0.2670
 4488SOL     OW24922   1.070   3.033  12.815 -0.3129  0.2073 -0.2447
 4488SOL    HW124923   1.157   3.067  12.796 -0.5630  0.6584 -0.5927
 4488SOL    HW224924   1.068   3.023  12.910 -2.0249 -0.5587 -0.3519
 4489SOL     OW24925   1.163   0.550   4.275  0.2184  0.5556 -0.0943
 4489SOL    HW124926   1.133   0.640   4.282 -1.6410 -0.2351  1.9424
 4489SOL    HW224927   1.079   0.506   4.286  0.0617  0.9716  0.3503
 4490SOL     OW24928   1.732   4.394   1.965  0.5252 -0.0907  0.4373
 4490SOL    HW124929   1.814   4.363   2.003  0.0309  0.2484  1.7785
 4490SOL    HW224930   1.726   4.487   1.988  0.5062 -0.0399  0.2285
 4491SOL     OW24931   0.362   0.203   6.347 -0.4845 -0.2247  0.3293
 4491SOL    HW124932   0.287   0.169   6.298 -1.6775 -0.1280  2.0519
 4491SOL    HW224933   0.434   0.184   6.288 -0.4445  0.9987 -0.0313
 4492SOL     OW24934   2.809   2.380   8.193  0.6323 -0.1338 -0.7718
 4492SOL    HW124935   2.760   2.423   8.123 -1.4331 -1.0943  0.0691
 4492SOL    HW224936   2.779   2.290   8.180  2.2283 -0.7287 -0.2817
 4493SOL     OW24937   2.825   2.244   7.241  0.2098 -0.2243  0.5229
 4493SOL    HW124938   2.734   2.263   7.265 -0.0478  0.3881 -0.9317
 4493SOL    HW224939   2.799   2.184   7.172  0.0364  1.1715 -0.6319
 4494SOL     OW24940   1.878   0.656   3.303  0.5954 -0.1825  0.4254
 4494SOL    HW124941   1.821   0.584   3.279 -1.7707  1.1153  2.1591
 4494SOL    HW224942   1.857   0.665   3.396 -0.1325 -2.1854  0.4541
 4495SOL     OW24943   2.616   1.630   4.607  0.1771  0.7129 -0.4666
 4495SOL    HW124944   2.691   1.574   4.591  1.6192  2.6808 -0.5643
 4495SOL    HW224945   2.646   1.709   4.563  1.0772 -0.0913 -1.2749
 4496SOL     OW24946   1.646   3.478   4.150  0.0452 -0.0756 -0.3386
 4496SOL    HW124947   1.602   3.521   4.076 -0.0256  0.5688  0.0803
 4496SOL    HW224948   1.737   3.489   4.121 -0.9761  0.6852 -3.2840
 4497SOL     OW24949   1.669   3.764   8.173  0.3303 -0.4224  0.0851
 4497SOL    HW124950   1.705   3.729   8.092  0.8480 -0.1851  0.2081
 4497SOL    HW224951   1.628   3.845   8.146 -0.8596 -1.9392 -2.6125
 4498SOL     OW24952   0.344   2.610   5.579  0.0277  0.0837 -0.6464
 4498SOL    HW124953   0.420   2.629   5.634 -1.0549 -1.7069  1.4923
 4498SOL    HW224954   0.289   2.560   5.639  1.5349  0.0484  0.7303
 4499SOL     OW24955   0.823   3.252   5.909 -0.9486  0.2220 -0.0323
 4499SOL    HW124956   0.757   3.297   5.962 -2.8562 -0.9260 -1.4505
 4499SOL    HW224957   0.907   3.266   5.953 -0.4976  1.6398 -1.3395
 4500SOL     OW24958   3.996   0.935   2.038 -0.1764  0.0227  0.6607
 4500SOL    HW124959   3.906   0.915   2.063 -0.2410 -2.6830 -1.7860
 4500SOL    HW224960   4.017   1.012   2.091  1.8049  0.9356 -1.4416
 4501SOL     OW24961   3.450   3.950   8.582  0.4270 -0.6103 -0.1165
 4501SOL    HW124962   3.394   3.919   8.653  2.0213 -2.3313  0.3859
 4501SOL    HW224963   3.408   3.901   8.512  0.6887 -0.7743 -0.1571
 4502SOL     OW24964   4.327   2.471   8.696  0.2328  0.1406  0.1679
 4502SOL    HW124965   4.265   2.426   8.754 -0.8067  1.1091 -0.1769
 4502SOL    HW224966   4.289   2.437   8.615  2.3977  0.3542 -0.9408
 4503SOL     OW24967   0.178   3.996   6.112  0.2016 -0.3961  0.5537
 4503SOL    HW124968   0.116   4.056   6.154  0.0422 -0.7209  0.7830
 4503SOL    HW224969   0.186   3.930   6.181  0.3367 -0.9198  0.0361
 4504SOL     OW24970   2.458   3.853   7.096 -0.4149  0.5772  0.6012
 4504SOL    HW124971   2.428   3.933   7.139 -1.0914  1.1683 -0.9438
 4504SOL    HW224972   2.377   3.802   7.096  0.9820 -1.6318 -0.7973
 4505SOL     OW24973   3.322   2.099  11.181 -0.2268 -0.5124  0.6913
 4505SOL    HW124974   3.390   2.165  11.187  1.5435 -2.1519 -1.3337
 4505SOL    HW224975   3.319   2.065  11.271 -0.9693 -0.5211  0.6611
 4506SOL     OW24976   0.525   0.587  14.938 -0.4045  0.5759  0.1499
 4506SOL    HW124977   0.559   0.521  14.878 -1.2175  0.7724 -0.5264
 4506SOL    HW224978   0.439   0.555  14.963 -0.4102 -1.4015 -2.3718
 4507SOL     OW24979   4.692   2.420  10.182  0.0578  0.1908 -0.0581
 4507SOL    HW124980   4.700   2.431  10.277  0.7941  2.6148 -0.4087
 4507SOL    HW224981   0.056   2.433  10.144  1.0711 -2.9691  1.1225
 4508SOL     OW24982   1.600   3.781   8.678 -0.1439  0.2518 -0.3651
 4508SOL    HW124983   1.613   3.860   8.626 -0.0816  0.4901  0.0162
 4508SOL    HW224984   1.572   3.723   8.607 -0.3857  0.3587 -0.3575
 4509SOL     OW24985   4.365   0.572  16.465  0.2043  0.1287 -0.8477
 4509SOL    HW124986   4.418   0.493  16.452  1.1809  0.3749  1.7900
 4509SOL    HW224987   4.394   0.607  16.549  1.3178 -0.1745 -1.1142
 4510SOL     OW24988   2.740   1.765  10.037  0.2671  0.2487 -0.1973
 4510SOL    HW124989   2.773   1.757   9.948 -0.1974 -1.2683 -0.2278
 4510SOL    HW224990   2.697   1.679  10.042  0.4130  0.0109 -3.2007
 4511SOL     OW24991   1.112   2.398  14.312  0.6064  0.0696  0.4076
 4511SOL    HW124992   1.052   2.337  14.356 -1.3950  2.2993  0.7534
 4511SOL    HW224993   1.087   2.472  14.368 -1.1985 -0.2424  0.0169
 4512SOL     OW24994   3.017   2.743  15.089  0.0010  0.1281 -0.1810
 4512SOL    HW124995   3.080   2.794  15.038 -1.9036  3.1574  0.5457
 4512SOL    HW224996   2.941   2.801  15.090 -1.6446 -1.9994 -0.5667
 4513SOL     OW24997   2.438   4.689   2.891  0.5397 -0.5833  0.1903
 4513SOL    HW124998   2.357   0.013   2.870 -0.2147 -1.7152  0.5843
 4513SOL    HW224999   2.500   0.027   2.850  2.0476 -2.1250  0.2067
 4514SOL     OW25000   0.301   0.683   0.206 -0.4468  0.0466 -0.8019
 4514SOL    HW125001   0.347   0.764   0.182 -0.0542  0.0932  0.1241
 4514SOL    HW225002   0.337   0.611   0.155  0.3313  0.7082 -1.1797
 4515SOL     OW25003   1.511   0.349   1.171  0.4081 -0.8306  0.2135
 4515SOL    HW125004   1.490   0.399   1.092 -3.0250 -0.5178  1.3188
 4515SOL    HW225005   1.530   0.423   1.229  1.5405 -0.6002 -0.4535
 4516SOL     OW25006   3.688   2.845   6.446 -0.1417  0.1741  0.2556
 4516SOL    HW125007   3.757   2.788   6.411  0.8275 -1.3455  4.6503
 4516SOL    HW225008   3.689   2.919   6.386 -0.2017  0.7532  0.9710
 4517SOL     OW25009   1.364   3.563   0.611 -0.1457 -0.1396 -0.6651
 4517SOL    HW125010   1.276   3.553   0.575 -0.3604  0.9798 -0.4455
 4517SOL    HW225011   1.393   3.474   0.593  1.8260  0.2901  0.3975
 4518SOL     OW25012   1.049   3.377   4.328  0.5509  0.0689  0.3402
 4518SOL    HW125013   1.070   3.431   4.404  0.4334  0.1930  0.2834
 4518SOL    HW225014   1.058   3.293   4.373  1.1828 -0.8642 -1.5218
 4519SOL     OW25015   4.043   0.026   5.841 -0.0821  0.1349 -0.5104
 4519SOL    HW125016   4.037   0.121   5.834  0.3520  0.1923 -0.0945
 4519SOL    HW225017   4.136   0.020   5.861  0.2913  1.0498 -2.0221
 4520SOL     OW25018   1.282   3.842  16.974 -0.3754 -0.4485  0.3424
 4520SOL    HW125019   1.212   3.843  16.910  0.3401 -3.7599 -0.4768
 4520SOL    HW225020   1.242   3.846  17.061 -1.8710 -1.0799 -0.3174
 4521SOL     OW25021   1.346   4.699   2.410  0.3540 -0.4907  0.8359
 4521SOL    HW125022   1.310   4.663   2.492  1.5676  1.8620  2.4047
 4521SOL    HW225023   1.260   4.713   2.370  0.2686  2.0001  1.8715
 4522SOL     OW25024   1.021   2.374   7.107  0.7025  0.1781 -0.3308
 4522SOL    HW125025   1.010   2.468   7.115 -0.1062 -0.1016  1.7985
 4522SOL    HW225026   1.114   2.368   7.131  0.5523  2.1740  0.7114
 4523SOL     OW25027   1.238   0.005  13.753  0.1930 -0.2265  0.6726
 4523SOL    HW125028   1.268   4.642  13.785  1.8655 -0.5616 -1.7727
 4523SOL    HW225029   1.145   4.710  13.767 -0.0361 -1.3757 -2.4849
 4524SOL     OW25030   0.429   3.141   7.508  0.4969  0.1775 -0.3481
 4524SOL    HW125031   0.346   3.151   7.461  1.2887  1.2113 -1.5411
 4524SOL    HW225032   0.483   3.114   7.434 -0.1443  1.6241 -1.3610
 4525SOL     OW25033   1.957   0.597   2.557  0.4042  0.3900 -0.5144
 4525SOL    HW125034   1.921   0.512   2.584 -2.1251  2.3981  2.4319
 4525SOL    HW225035   1.880   0.651   2.539  1.5976  2.4081  0.4207
 4526SOL     OW25036   4.457   1.543   2.555  0.2180  0.1776 -0.1655
 4526SOL    HW125037   4.363   1.561   2.555 -0.3196 -2.5987 -1.1501
 4526SOL    HW225038   4.464   1.473   2.490  0.4674  0.3460 -0.3183
 4527SOL     OW25039   1.333   1.852   7.107 -0.6237 -0.4162 -0.3256
 4527SOL    HW125040   1.241   1.851   7.083 -1.4096 -2.5380  2.8195
 4527SOL    HW225041   1.346   1.945   7.122 -1.2965 -0.1860 -1.1840
 4528SOL     OW25042   1.186   0.659  12.058  0.0615  0.2799  0.3187
 4528SOL    HW125043   1.223   0.746  12.072  1.8309 -0.8579  2.6067
 4528SOL    HW225044   1.140   0.664  11.974  0.5537 -0.1571  0.0241
 4529SOL     OW25045   3.601   2.433  10.697  0.4473  0.1499 -0.7433
 4529SOL    HW125046   3.631   2.524  10.700 -0.3229  0.4178 -1.1376
 4529SOL    HW225047   3.511   2.451  10.670 -0.0477 -1.9813 -0.5199
 4530SOL     OW25048   1.447   2.916  14.144 -0.7041 -0.3286  0.1574
 4530SOL    HW125049   1.382   2.852  14.114 -1.8673  1.2836 -0.7489
 4530SOL    HW225050   1.383   2.970  14.190  0.2047  1.9968 -1.2740
 4531SOL     OW25051   2.962   2.974  10.520 -0.0617  0.4420 -0.1090
 4531SOL    HW125052   2.913   2.907  10.473  1.1933 -0.4573 -0.1381
 4531SOL    HW225053   3.052   2.959  10.491 -0.3582  0.0445 -0.8191
 4532SOL     OW25054   0.536   3.778  15.338 -0.1178 -0.5679  0.1111
 4532SOL    HW125055   0.538   3.753  15.431  0.6170  2.2736  0.8800
 4532SOL    HW225056   0.443   3.800  15.329  0.2948  1.2928  0.4196
 4533SOL     OW25057   0.292   2.743  15.715  0.2231 -0.1779  0.0363
 4533SOL    HW125058   0.247   2.716  15.635  2.5685 -0.2867 -1.2429
 4533SOL    HW225059   0.386   2.740  15.699  0.2252 -0.2572  0.0624
 4534SOL     OW25060   4.711   0.906   2.074  0.1657 -0.2911 -0.2966
 4534SOL    HW125061   4.628   0.953   2.077 -0.0589 -0.6927 -0.2768
 4534SOL    HW225062   0.042   0.980   2.045  0.7389 -0.3588  0.6167
 4535SOL     OW25063   1.476   4.482   4.573 -0.4150  0.4162  0.3635
 4535SOL    HW125064   1.516   4.536   4.505  1.2534 -0.7949  0.3786
 4535SOL    HW225065   1.401   4.452   4.522 -1.8946 -0.4752  3.0423
 4536SOL     OW25066   4.495   1.917   4.966  0.5367 -0.3304  0.3617
 4536SOL    HW125067   4.495   2.003   4.923  0.6838  0.1843  1.3727
 4536SOL    HW225068   4.475   1.944   5.056 -1.1057 -1.3999  0.3087
 4537SOL     OW25069   4.556   3.022  16.118 -0.4344  0.4596  0.0481
 4537SOL    HW125070   4.499   2.946  16.121 -1.1971  1.0330 -0.0886
 4537SOL    HW225071   4.513   3.069  16.046  1.4638  0.3609 -1.1504
 4538SOL     OW25072   0.261   2.296   5.702  0.4058  0.2693 -0.2256
 4538SOL    HW125073   0.237   2.231   5.768 -2.7254  1.1432 -0.5125
 4538SOL    HW225074   0.353   2.281   5.681  0.4449  1.3735 -0.8234
 4539SOL     OW25075   3.928   2.839   7.135  0.5255 -1.2198 -0.8467
 4539SOL    HW125076   3.847   2.818   7.181  0.7742  0.5026  0.3866
 4539SOL    HW225077   3.995   2.806   7.196 -0.2603 -1.8308 -0.3106
 4540SOL     OW25078   0.299   0.930  15.456 -0.9442 -0.0676  0.5898
 4540SOL    HW125079   0.345   0.944  15.538  1.0531 -1.2382 -0.3211
 4540SOL    HW225080   0.240   1.004  15.446 -0.1804  0.5920  0.9290
 4541SOL     OW25081   1.648   0.924  16.795  0.3604  0.2807 -0.0262
 4541SOL    HW125082   1.654   0.962  16.883  2.4401 -0.5970  0.2075
 4541SOL    HW225083   1.729   0.873  16.794 -0.2997 -0.7542 -0.0495
 4542SOL     OW25084   4.176   1.262  14.764  0.1266 -0.8988 -0.0393
 4542SOL    HW125085   4.148   1.262  14.672 -1.4360 -0.4286  0.4379
 4542SOL    HW225086   4.239   1.332  14.778 -0.4831 -0.0892 -1.3858
 4543SOL     OW25087   2.701   0.167   4.283  0.1869 -0.4700 -0.2014
 4543SOL    HW125088   2.659   0.250   4.262 -0.2513 -0.4566  0.7117
 4543SOL    HW225089   2.792   0.189   4.302 -0.9727  1.0890  3.6033
 4544SOL     OW25090   4.606   1.821   4.060  0.1757  0.3310 -0.6247
 4544SOL    HW125091   4.667   1.867   4.117  1.2978 -0.0821 -1.4905
 4544SOL    HW225092   4.640   1.732   4.067 -1.9509 -0.3461  1.1245
 4545SOL     OW25093   4.656   0.710   1.894 -0.6585 -0.3153 -0.2031
 4545SOL    HW125094   4.657   0.768   1.970 -1.2023  0.5056 -0.8211
 4545SOL    HW225095   0.014   0.739   1.850 -0.5752 -1.6852 -0.9464
 4546SOL     OW25096   0.779   1.664   9.937 -0.6338  0.3751  0.1627
 4546SOL    HW125097   0.824   1.582   9.915 -0.9051  0.1624  0.4051
 4546SOL    HW225098   0.849   1.720   9.902  1.1070 -0.6038  2.0184
 4547SOL     OW25099   1.644   0.229   8.118  0.6293  0.6172 -0.4681
 4547SOL    HW125100   1.576   0.296   8.118  1.7318  1.7082  1.9030
 4547SOL    HW225101   1.722   0.283   8.111  1.7330 -0.8441  0.4708
 4548SOL     OW25102   2.299   2.659  15.135  0.0833  0.1265  0.6346
 4548SOL    HW125103   2.345   2.646  15.052 -1.1073 -0.7351  0.1019
 4548SOL    HW225104   2.259   2.746  15.128  0.5462  0.3023  0.1885
 4549SOL     OW25105   0.081   1.696   3.761  0.1604 -0.1418  0.4306
 4549SOL    HW125106   0.106   1.639   3.834 -1.9236 -1.0754  0.4274
 4549SOL    HW225107   0.001   1.649   3.738 -0.3135  0.0620  1.6275
 4550SOL     OW25108   1.580   0.499   7.416 -0.2612  0.1811  0.2626
 4550SOL    HW125109   1.517   0.564   7.449 -2.6028 -1.8251 -0.2432
 4550SOL    HW225110   1.628   0.551   7.352  0.2233  1.8671  1.9966
 4551SOL     OW25111   3.689   4.717   4.768  0.1471 -0.2520 -0.3991
 4551SOL    HW125112   3.625   0.049   4.723 -1.4128 -1.2149  0.6581
 4551SOL    HW225113   3.638   4.635   4.770  0.7143 -0.5399  3.6417
 4552SOL     OW25114   2.373   0.183   4.112 -0.5245  0.0056  0.2388
 4552SOL    HW125115   2.302   0.150   4.058 -1.0011  0.8618  0.3462
 4552SOL    HW225116   2.323   0.206   4.191 -2.3864  1.9577 -1.5139
 4553SOL     OW25117   1.964   3.990   5.056 -0.2144 -0.4273  0.5060
 4553SOL    HW125118   1.901   3.919   5.049 -1.5217  1.0532 -2.7457
 4553SOL    HW225119   1.997   3.978   5.146  1.0300  2.4819  0.4297
 4554SOL     OW25120   1.659   3.309   0.780  0.6432  0.0774 -0.1414
 4554SOL    HW125121   1.565   3.312   0.761  0.3186 -2.4529  1.0048
 4554SOL    HW225122   1.692   3.396   0.759  2.2233 -0.8621 -1.5912
 4555SOL     OW25123   4.531   2.890   2.318 -0.1296  0.1877 -0.1643
 4555SOL    HW125124   4.545   2.983   2.303 -2.3008  0.4391 -0.5337
 4555SOL    HW225125   4.441   2.869   2.292 -1.0840  2.5677  1.3004
 4556SOL     OW25126   4.016   0.257   2.965 -0.3186  0.1734 -0.4870
 4556SOL    HW125127   4.029   0.352   2.969  0.8341 -0.1319  2.8120
 4556SOL    HW225128   4.000   0.237   3.057  2.1402  0.7531  0.0554
 4557SOL     OW25129   0.192   4.169   9.837  0.0567 -0.2172  0.1742
 4557SOL    HW125130   0.114   4.207   9.878 -1.1299 -0.7937 -1.5586
 4557SOL    HW225131   0.153   4.103   9.779  0.2700 -1.3162  1.2617
 4558SOL     OW25132   0.514   2.295   2.932 -0.2327  0.7947 -0.2103
 4558SOL    HW125133   0.472   2.351   2.867 -0.4344 -2.1705 -2.6307
 4558SOL    HW225134   0.467   2.326   3.010 -2.6465  1.4613 -1.9520
 4559SOL     OW25135   3.748   1.551   8.410 -0.6682  0.0705  0.2073
 4559SOL    HW125136   3.841   1.536   8.397 -0.1544  0.6599  3.1548
 4559SOL    HW225137   3.707   1.469   8.384 -0.9420 -0.1778  1.4042
 4560SOL     OW25138   0.442   4.497  17.242  0.0839 -0.4476 -0.0066
 4560SOL    HW125139   0.515   4.520  17.298 -0.7673  4.0086 -0.7363
 4560SOL    HW225140   0.490   4.515  17.161  0.6269  0.9365  0.6318
 4561SOL     OW25141   0.366   2.215   6.464 -0.3762  0.2269 -0.2912
 4561SOL    HW125142   0.313   2.137   6.477 -0.2670  0.2403  0.2407
 4561SOL    HW225143   0.391   2.235   6.554  0.1006 -1.6017 -0.0236
 4562SOL     OW25144   0.984   3.853   2.436  0.4994  0.6896  0.0142
 4562SOL    HW125145   1.008   3.921   2.372  0.5980  1.4036  0.8133
 4562SOL    HW225146   1.010   3.893   2.519  1.9266 -0.8191  0.2935
 4563SOL     OW25147   2.825   2.653   9.035  0.4365  0.4365 -1.2852
 4563SOL    HW125148   2.799   2.571   9.077  2.9780 -0.0471 -0.6498
 4563SOL    HW225149   2.808   2.631   8.943 -0.5804  1.6982 -1.4007
 4564SOL     OW25150   4.274   0.118   8.381  0.4450  0.0664  0.2235
 4564SOL    HW125151   4.244   0.091   8.294 -0.0329 -1.5487  0.8977
 4564SOL    HW225152   4.201   0.093   8.436  2.2236  1.0006  3.0061
 4565SOL     OW25153   4.398   1.049   5.689 -0.0692  0.4084 -0.2513
 4565SOL    HW125154   4.409   1.067   5.595 -0.6150 -0.4554 -0.4780
 4565SOL    HW225155   4.313   1.083   5.717  0.2786  1.6563 -0.6869
 4566SOL     OW25156   0.571   1.599   2.657  0.1009 -0.5957  0.1818
 4566SOL    HW125157   0.619   1.645   2.726 -0.9876  0.4600  0.2419
 4566SOL    HW225158   0.517   1.674   2.633  1.4382  0.0969 -0.6734
 4567SOL     OW25159   0.472   3.519   3.290 -0.0550  0.3792 -0.3625
 4567SOL    HW125160   0.412   3.447   3.272 -0.1206  0.3438 -0.0124
 4567SOL    HW225161   0.446   3.584   3.225  0.4487  1.6766  0.7312
 4568SOL     OW25162   2.699   1.688   7.928 -0.6541  0.4210  0.1568
 4568SOL    HW125163   2.785   1.686   7.970 -0.5898 -1.1921 -0.0377
 4568SOL    HW225164   2.713   1.734   7.845 -0.5787  0.6066  0.2739
 4569SOL     OW25165   0.321   1.510   3.280 -0.3002 -0.0932  0.1884
 4569SOL    HW125166   0.414   1.526   3.265 -0.6582 -0.6243 -2.5153
 4569SOL    HW225167   0.309   1.422   3.315 -1.3357  0.9007  2.3793
 4570SOL     OW25168   1.257   3.095  15.116 -0.3309  0.3662  0.2739
 4570SOL    HW125169   1.167   3.127  15.124  0.6168  3.1488 -0.0605
 4570SOL    HW225170   1.247   3.003  15.090 -0.4062  0.8192 -1.3403
 4571SOL     OW25171   3.708   1.535   3.080 -0.2527  0.3943 -0.3437
 4571SOL    HW125172   3.698   1.566   3.170  0.5473  1.8925 -0.7565
 4571SOL    HW225173   3.631   1.479   3.075  0.7632 -1.0386  0.2539
 4572SOL     OW25174   4.116   1.060   5.264  0.0746  0.1484  0.0382
 4572SOL    HW125175   4.043   1.010   5.301  0.1404  0.0770  0.0720
 4572SOL    HW225176   4.142   1.009   5.187  0.3397  0.0504  0.1933
 4573SOL     OW25177   0.785   4.194   2.070  0.4166  0.6518 -0.2045
 4573SOL    HW125178   0.839   4.190   1.991 -1.3533  1.2448 -1.4562
 4573SOL    HW225179   0.718   4.260   2.053 -0.0093  0.4080  0.5120
 4574SOL     OW25180   3.220   2.367  15.412  0.6389  0.2784  0.5257
 4574SOL    HW125181   3.157   2.296  15.428  2.6611 -0.8956  3.2535
 4574SOL    HW225182   3.179   2.436  15.360  1.8930  2.9712  3.1876
 4575SOL     OW25183   3.098   3.166   3.376 -0.0979  0.4993  0.4543
 4575SOL    HW125184   3.094   3.109   3.454 -0.1797  0.6983  0.5953
 4575SOL    HW225185   3.006   3.192   3.376  0.0027  0.8506 -1.5879
 4576SOL     OW25186   4.477   4.352   2.867 -0.1527  0.0370 -0.2661
 4576SOL    HW125187   4.407   4.293   2.895 -1.1842  1.6855  0.6134
 4576SOL    HW225188   4.465   4.339   2.773  0.1817  0.3026 -0.3461
 4577SOL     OW25189   0.294   1.398  15.524 -0.5810 -0.0767 -0.4879
 4577SOL    HW125190   0.286   1.303  15.514  0.0849 -0.3872  1.8356
 4577SOL    HW225191   0.286   1.396  15.619  1.3859 -1.3260 -0.3428
 4578SOL     OW25192   4.334   0.954   3.550 -0.2253  0.9321  0.4609
 4578SOL    HW125193   4.420   0.983   3.519 -0.3857  0.4048 -0.4721
 4578SOL    HW225194   4.313   1.009   3.626 -2.0402  0.0743  0.5765
 4579SOL     OW25195   0.840   0.713   8.974 -1.0491  0.2321  0.0820
 4579SOL    HW125196   0.787   0.670   9.041  0.4325 -0.3937  0.8575
 4579SOL    HW225197   0.849   0.803   9.005 -1.7539 -0.4100  2.1640
 4580SOL     OW25198   2.823   4.095   1.810 -0.3148 -0.0588 -0.2682
 4580SOL    HW125199   2.903   4.144   1.790  0.0016 -0.6142 -0.3685
 4580SOL    HW225200   2.764   4.139   1.749 -1.1000  2.2358  2.1387
 4581SOL     OW25201   4.056   0.010   4.336  0.1977 -0.3638  0.1559
 4581SOL    HW125202   4.073   0.049   4.422 -0.4793  0.5527 -0.1274
 4581SOL    HW225203   4.021   4.650   4.371  1.8293 -0.2569  2.0842
 4582SOL     OW25204   2.084   0.920   1.591  0.5161 -0.7277 -0.0456
 4582SOL    HW125205   2.150   0.851   1.588  0.5473 -0.8209  2.7173
 4582SOL    HW225206   2.062   0.925   1.498  2.2809 -0.9782 -0.4672
 4583SOL     OW25207   0.106   0.850   8.306 -0.7004  0.2672  0.0950
 4583SOL    HW125208   0.194   0.825   8.279 -1.2686  0.0922 -1.5611
 4583SOL    HW225209   0.060   0.796   8.242 -0.6093  0.5033 -0.1696
 4584SOL     OW25210   2.047   2.163   2.314 -0.6293  0.2817 -0.1748
 4584SOL    HW125211   1.995   2.156   2.395  0.3137 -1.1847  0.2862
 4584SOL    HW225212   2.037   2.076   2.276  0.6742  0.8746 -1.8698
 4585SOL     OW25213   0.151   0.393   1.497 -0.3526 -0.0451 -0.3347
 4585SOL    HW125214   0.158   0.430   1.585 -0.7113  0.2049 -0.4084
 4585SOL    HW225215   0.233   0.345   1.490 -0.9204 -1.4506  2.7598
 4586SOL     OW25216   2.636   2.867  15.474 -0.1276  0.1549 -0.0136
 4586SOL    HW125217   2.723   2.834  15.451 -0.2570 -0.0356 -0.2290
 4586SOL    HW225218   2.601   2.787  15.514 -1.4104 -0.2401 -1.9338
 4587SOL     OW25219   3.018   0.989   0.843  0.1441 -0.0148  0.1497
 4587SOL    HW125220   3.113   0.996   0.852  0.2786 -2.9770  0.9754
 4587SOL    HW225221   2.993   1.050   0.774 -1.1784 -0.8600 -0.1204
 4588SOL     OW25222   2.149   0.076   3.955 -0.4145  0.1159 -0.2240
 4588SOL    HW125223   2.210   0.003   3.939 -0.3062  0.9229 -3.4300
 4588SOL    HW225224   2.091   0.049   3.884 -0.4932 -1.1619  0.3340
 4589SOL     OW25225   1.772   2.979  15.858 -0.2370 -0.3220 -0.7768
 4589SOL    HW125226   1.821   3.007  15.936  0.6843  0.0857 -1.4893
 4589SOL    HW225227   1.705   2.918  15.889 -0.0247 -0.0426  0.2375
 4590SOL     OW25228   4.376   3.427   5.090  0.0736  0.3303 -0.9641
 4590SOL    HW125229   4.413   3.481   5.160  0.6298 -2.0344  0.5740
 4590SOL    HW225230   4.337   3.351   5.135  2.7455 -1.6827 -2.0380
 4591SOL     OW25231   0.104   2.424   5.016  0.5144 -0.4259  0.3417
 4591SOL    HW125232   0.126   2.470   5.097  0.6415 -0.9654  0.6204
 4591SOL    HW225233   0.009   2.430   5.021  0.6660  2.6189 -0.7832
 4592SOL     OW25234   3.604   1.013   1.890  0.3865 -0.0372  0.0084
 4592SOL    HW125235   3.661   1.007   1.814 -1.6791  0.9147 -1.6002
 4592SOL    HW225236   3.532   1.061   1.851  0.8599  1.2052  0.6684
 4593SOL     OW25237   1.140   0.780   6.167  0.1028 -0.5411  0.4463
 4593SOL    HW125238   1.105   0.845   6.227 -0.3484  0.3202 -0.7447
 4593SOL    HW225239   1.196   0.842   6.120  0.1423  0.3488  1.7034
 4594SOL     OW25240   3.259   0.081   6.868  0.0325  0.6969 -0.2786
 4594SOL    HW125241   3.200   0.108   6.938 -2.4239 -2.9189 -0.9774
 4594SOL    HW225242   3.346   0.073   6.908  0.5029  0.6308 -1.3099
 4595SOL     OW25243   0.650   0.056   1.182  0.0829  0.1210 -0.4121
 4595SOL    HW125244   0.573   0.081   1.131  0.7499  2.6315 -0.2139
 4595SOL    HW225245   0.633   4.687   1.205 -0.3012 -0.2805 -2.3113
 4596SOL     OW25246   2.429   0.511   0.336 -0.1260  0.1256 -0.9479
 4596SOL    HW125247   2.423   0.426   0.293 -1.5302  0.5191 -1.5392
 4596SOL    HW225248   2.521   0.518   0.363  0.4239 -1.4411 -2.4375
 4597SOL     OW25249   3.975   1.471  14.443  0.5519  0.1797  0.3319
 4597SOL    HW125250   4.044   1.437  14.500  1.2962  1.6572  0.3235
 4597SOL    HW225251   3.911   1.490  14.512  1.6404 -3.7045  2.3925
 4598SOL     OW25252   2.681   0.231   5.286 -0.3285  0.3378 -0.3020
 4598SOL    HW125253   2.694   0.325   5.275  2.1866 -0.1548 -1.5987
 4598SOL    HW225254   2.631   0.220   5.367  1.0937  0.3788  0.5864
 4599SOL     OW25255   2.400   3.631   7.610 -0.1733 -0.0045 -0.9077
 4599SOL    HW125256   2.457   3.654   7.684 -0.1212  0.6930 -1.1724
 4599SOL    HW225257   2.396   3.714   7.563 -0.2404 -0.4572 -1.6932
 4600SOL     OW25258   2.257   0.283  10.133  0.2819  0.6198  0.2181
 4600SOL    HW125259   2.337   0.239  10.160 -0.2522  1.1376  2.6063
 4600SOL    HW225260   2.204   0.292  10.212  2.1072 -0.0451  1.5124
 4601SOL     OW25261   1.049   0.806  15.473 -0.2505 -0.2622  0.1970
 4601SOL    HW125262   1.022   0.853  15.552  0.1501 -0.3287  0.3749
 4601SOL    HW225263   0.980   0.830  15.410  0.8924  0.6972 -0.7059
 4602SOL     OW25264   1.779   3.545   0.708  0.0471 -0.3304  0.0029
 4602SOL    HW125265   1.722   3.600   0.654  2.2556 -1.3386 -3.3229
 4602SOL    HW225266   1.856   3.537   0.652  1.2245  0.9369  1.4413
 4603SOL     OW25267   0.531   3.916  16.590 -0.3035 -0.2531 -0.9825
 4603SOL    HW125268   0.467   3.910  16.519 -1.3507 -1.5342  0.0680
 4603SOL    HW225269   0.473   3.884  16.659  0.7608  0.3700  0.1993
 4604SOL     OW25270   4.634   0.018   2.960  0.6867  0.2554  0.4704
 4604SOL    HW125271   4.649   4.651   2.991 -1.2917 -0.2012  0.1204
 4604SOL    HW225272   4.593   0.011   2.874  0.6990  0.6273  0.4348
 4605SOL     OW25273   3.119   0.475   7.714 -0.5459  0.4096 -0.1338
 4605SOL    HW125274   3.083   0.562   7.699  0.6716  0.8854 -0.2925
 4605SOL    HW225275   3.175   0.493   7.790  0.1454 -0.5342 -0.4157
 4606SOL     OW25276   0.579   0.278   9.209  0.4248 -1.3783  0.0862
 4606SOL    HW125277   0.590   0.324   9.292  2.4578 -0.8242 -0.5094
 4606SOL    HW225278   0.623   0.195   9.229 -0.1118 -1.8355 -0.6367
 4607SOL     OW25279   3.894   2.515   8.227  0.7141 -0.3694 -0.3425
 4607SOL    HW125280   3.906   2.467   8.309 -1.5422  1.9227  1.3419
 4607SOL    HW225281   3.804   2.548   8.228  1.7779  2.5253 -2.5723
 4608SOL     OW25282   3.253   4.215  14.971  0.3960 -0.0876 -0.0598
 4608SOL    HW125283   3.217   4.297  15.005  1.5531  0.7916 -0.9631
 4608SOL    HW225284   3.328   4.202  15.029  1.9462  2.5751 -1.5034
 4609SOL     OW25285   1.005   2.744  12.809 -0.0994 -0.5804 -0.0877
 4609SOL    HW125286   0.973   2.829  12.841 -0.5180 -0.7820  0.0244
 4609SOL    HW225287   1.097   2.759  12.787  0.3022  0.1168  2.0729
 4610SOL     OW25288   2.221   1.240   5.031  0.5125 -0.5857 -0.0263
 4610SOL    HW125289   2.316   1.233   5.045  0.7645  0.6904 -1.1362
 4610SOL    HW225290   2.206   1.303   5.101 -0.9965  2.1636 -2.8402
 4611SOL     OW25291   2.221   0.826  10.272 -0.1063 -0.0372  0.6933
 4611SOL    HW125292   2.251   0.912  10.241 -0.9320 -0.0555 -0.1587
 4611SOL    HW225293   2.145   0.810  10.216  0.5010 -1.0729  0.1572
 4612SOL     OW25294   3.071   4.003   1.937 -0.5120  0.1604  0.3345
 4612SOL    HW125295   3.086   3.983   1.844 -0.8014  1.2795  0.0536
 4612SOL    HW225296   3.030   3.920   1.960 -3.7811  1.7297  0.1623
 4613SOL     OW25297   4.561   0.748   7.883 -0.2180 -0.3508 -0.3266
 4613SOL    HW125298   4.623   0.704   7.825  0.3280 -0.1028  0.0636
 4613SOL    HW225299   4.478   0.720   7.845 -0.4870 -2.1139  1.5747
 4614SOL     OW25300   0.623   0.285   6.887 -0.3092  0.2083 -0.1264
 4614SOL    HW125301   0.640   0.230   6.811  0.0061 -1.8912  1.4609
 4614SOL    HW225302   0.570   0.354   6.847 -1.0983  0.5956  1.6056
 4615SOL     OW25303   1.886   3.134  12.162 -0.0905  0.5711 -0.1178
 4615SOL    HW125304   1.806   3.087  12.188 -0.9183  0.3663 -3.0157
 4615SOL    HW225305   1.901   3.192  12.236 -2.1703 -0.4772  1.1470
 4616SOL     OW25306   1.174   3.964  16.190  0.9565  0.2259  0.3417
 4616SOL    HW125307   1.138   3.876  16.175  1.6340  0.4658 -2.7593
 4616SOL    HW225308   1.236   3.979  16.119 -0.7010 -0.1722 -1.1857
 4617SOL     OW25309   0.780   4.184   8.033 -0.3807  0.1859  0.2747
 4617SOL    HW125310   0.751   4.156   8.120 -1.4256 -1.8788 -0.7311
 4617SOL    HW225311   0.835   4.108   8.014 -0.0153  0.4794  0.1588
 4618SOL     OW25312   4.359   4.381   5.267  0.3062  0.3123 -0.0808
 4618SOL    HW125313   4.288   4.381   5.331 -0.2677  0.7363 -0.7147
 4618SOL    HW225314   4.354   4.472   5.238 -0.3969 -0.6325 -3.0315
 4619SOL     OW25315   1.951   2.122  10.495  0.3735 -0.1442 -0.9670
 4619SOL    HW125316   1.921   2.153  10.410  0.4928  1.7651 -0.3209
 4619SOL    HW225317   1.969   2.206  10.538 -0.0870  0.7355 -2.5058
 4620SOL     OW25318   1.233   2.383  16.812 -0.6584  0.1539 -0.0622
 4620SOL    HW125319   1.237   2.438  16.733  1.3722 -0.2436 -0.2403
 4620SOL    HW225320   1.240   2.446  16.883 -0.6488  1.5910 -1.3403
 4621SOL     OW25321   0.122   0.375   8.502 -0.2894  0.0932 -0.4757
 4621SOL    HW125322   0.140   0.290   8.542 -0.9606 -0.2924 -0.9871
 4621SOL    HW225323   0.190   0.379   8.435  1.5010  2.5335  1.4813
 4622SOL     OW25324   3.421   4.558   2.871  0.5539  0.2723  0.0245
 4622SOL    HW125325   3.385   4.530   2.787  1.2057  1.8179 -0.7763
 4622SOL    HW225326   3.424   4.471   2.910  2.0483  0.8109  1.1238
 4623SOL     OW25327   2.614   0.850   7.725 -0.1595 -0.2524  0.5685
 4623SOL    HW125328   2.647   0.902   7.798 -0.6181  0.9437 -0.0738
 4623SOL    HW225329   2.654   0.896   7.651  2.1564 -2.2278  0.5919
 4624SOL     OW25330   1.280   3.591   2.061  0.5546  0.3546  0.1552
 4624SOL    HW125331   1.189   3.617   2.072 -0.2685 -1.2931 -2.7190
 4624SOL    HW225332   1.270   3.511   2.010 -3.0714  1.9061 -1.5383
 4625SOL     OW25333   1.567   2.630   8.299  0.1143  0.3882 -0.2139
 4625SOL    HW125334   1.542   2.554   8.247  1.6851 -0.9996  1.0510
 4625SOL    HW225335   1.510   2.608   8.372  2.0600  0.0135  1.2197
 4626SOL     OW25336   2.710   2.649   1.023  0.4513 -0.7976 -0.3977
 4626SOL    HW125337   2.720   2.728   0.970 -1.9725 -0.2355 -0.0013
 4626SOL    HW225338   2.794   2.606   1.008  1.2219 -0.3550  2.8343
 4627SOL     OW25339   4.135   0.652   9.477  0.2756  0.4202  0.3322
 4627SOL    HW125340   4.113   0.745   9.482  1.9593  0.8766 -0.7010
 4627SOL    HW225341   4.219   0.654   9.525  0.6035 -0.4956 -0.2050
 4628SOL     OW25342   0.274   2.613   9.390  0.1135  0.1310 -0.0983
 4628SOL    HW125343   0.222   2.624   9.469  0.4818 -3.8815  0.6917
 4628SOL    HW225344   0.256   2.520   9.379 -1.5878  0.4629 -0.1053
 4629SOL     OW25345   3.345   3.305   3.456  0.3950 -0.4099 -0.1767
 4629SOL    HW125346   3.303   3.241   3.398 -0.0033  0.0951 -0.4379
 4629SOL    HW225347   3.413   3.256   3.503  2.8203  1.5954 -1.6060
 4630SOL     OW25348   2.237   3.618   0.538  0.0343 -0.4183  0.1070
 4630SOL    HW125349   2.290   3.589   0.464  0.0750  0.4752 -0.2109
 4630SOL    HW225350   2.297   3.621   0.612  0.8956  0.6157 -0.6358
 4631SOL     OW25351   3.600   2.880   3.922  0.0344 -0.6268 -0.1987
 4631SOL    HW125352   3.664   2.909   3.857 -0.7365  1.1104 -0.1834
 4631SOL    HW225353   3.656   2.900   3.998 -1.1924 -0.5523  0.6803
 4632SOL     OW25354   0.539   1.957  13.414  0.0888  0.5056  0.3407
 4632SOL    HW125355   0.492   1.918  13.487  0.8167 -0.4912  0.2811
 4632SOL    HW225356   0.590   1.888  13.370 -2.7173 -0.5889 -1.2142
 4633SOL     OW25357   0.201   4.031   7.478 -0.2944  0.1103 -0.1978
 4633SOL    HW125358   0.212   4.106   7.536 -0.4196  0.4033 -0.5544
 4633SOL    HW225359   0.272   4.047   7.415 -0.0749 -1.0442 -0.2438
 4634SOL     OW25360   2.070   1.246   4.483  0.1619 -0.5612  0.0852
 4634SOL    HW125361   2.118   1.247   4.566 -0.8578  1.1949  0.6588
 4634SOL    HW225362   2.068   1.337   4.453 -0.5901 -1.1581 -1.6857
 4635SOL     OW25363   4.429   4.085   6.070  0.3208 -0.9389 -1.1542
 4635SOL    HW125364   4.346   4.077   6.116  0.8196 -2.9564 -0.6206
 4635SOL    HW225365   4.457   3.994   6.064 -0.2738 -1.2705  1.0967
 4636SOL     OW25366   3.156   0.471   5.887 -0.5271  0.0468  0.0654
 4636SOL    HW125367   3.076   0.430   5.855 -1.1839  0.6960  0.8675
 4636SOL    HW225368   3.186   0.396   5.938  0.2276 -1.3008 -2.3728
 4637SOL     OW25369   2.730   4.371   2.601  0.0217  0.6087  1.2002
 4637SOL    HW125370   2.736   4.364   2.506 -0.2852 -0.7716  1.2977
 4637SOL    HW225371   2.722   4.278   2.620  1.8538  0.3450  0.7134
 4638SOL     OW25372   3.086   2.680   9.105 -0.4576  0.4832 -0.3764
 4638SOL    HW125373   3.116   2.617   9.039  0.7447  1.2611 -0.5729
 4638SOL    HW225374   2.991   2.670   9.098 -0.1584 -1.8848 -1.0771
 4639SOL     OW25375   0.395   2.761   0.755 -0.3142 -0.0709 -0.7339
 4639SOL    HW125376   0.393   2.763   0.659  0.5404  1.1280 -0.7186
 4639SOL    HW225377   0.474   2.812   0.772 -0.7570 -0.3534  2.0505
 4640SOL     OW25378   1.475   1.252   1.923  0.0285 -0.0817  0.7577
 4640SOL    HW125379   1.413   1.179   1.914 -1.0791  1.0610 -1.1965
 4640SOL    HW225380   1.457   1.305   1.845 -0.7632  0.6079  1.4143
 4641SOL     OW25381   3.811   3.024   0.441  0.0265 -0.3511 -0.4897
 4641SOL    HW125382   3.907   3.028   0.437 -0.2848  4.4834 -2.9851
 4641SOL    HW225383   3.809   3.014   0.536  2.7281  0.7060 -0.3015
 4642SOL     OW25384   3.924   2.578   4.979 -0.1633  0.1754  0.1827
 4642SOL    HW125385   3.868   2.503   4.999  0.1040 -0.1846 -0.4109
 4642SOL    HW225386   3.918   2.570   4.884 -0.8102  0.3126  0.2135
 4643SOL     OW25387   2.451   4.362   3.893  0.5820  0.9211 -0.6585
 4643SOL    HW125388   2.369   4.330   3.930  1.7925 -3.2842 -1.6261
 4643SOL    HW225389   2.442   4.322   3.807  0.5188  0.0795 -0.2659
 4644SOL     OW25390   3.124   4.144   4.128  0.2045 -0.1984 -0.2773
 4644SOL    HW125391   3.136   4.063   4.078 -2.4047  0.6866 -2.3668
 4644SOL    HW225392   3.030   4.143   4.145  0.1176 -1.1161 -0.7967
 4645SOL     OW25393   0.830   1.241  14.548 -0.0575 -0.3258  0.0696
 4645SOL    HW125394   0.921   1.213  14.550  0.3216  0.7661 -1.1483
 4645SOL    HW225395   0.811   1.223  14.456 -0.6829  0.1761  0.1042
 4646SOL     OW25396   1.415   3.346   4.392  0.3800  0.0223  0.0448
 4646SOL    HW125397   1.410   3.259   4.353  1.2384 -1.7542  3.8656
 4646SOL    HW225398   1.475   3.326   4.464  1.1829 -0.6238 -0.8087
 4647SOL     OW25399   2.565   3.044  17.444  0.2318  0.8469  0.3468
 4647SOL    HW125400   2.620   3.110  17.487 -1.3352  1.9750  0.6043
 4647SOL    HW225401   2.623   2.968  17.441  0.6661  1.2040 -0.5622
 4648SOL     OW25402   0.322   1.661  14.829  0.0382 -0.0171  0.9820
 4648SOL    HW125403   0.370   1.696  14.753 -2.2446  1.4995  0.2399
 4648SOL    HW225404   0.235   1.659  14.790  0.5641  1.0258 -0.2563
 4649SOL     OW25405   2.107   3.661   8.669  0.5068  0.7304 -0.1971
 4649SOL    HW125406   2.021   3.650   8.627 -0.9064  1.3616  2.5071
 4649SOL    HW225407   2.163   3.644   8.594  1.8285 -1.4620  1.3000
 4650SOL     OW25408   1.019   0.836   8.198  0.2825 -0.2781 -0.7522
 4650SOL    HW125409   1.058   0.868   8.279 -0.3165 -2.1862  0.2895
 4650SOL    HW225410   0.964   0.909   8.170 -2.7583 -1.6528  1.5095
 4651SOL     OW25411   4.637   0.591   8.125 -0.5085 -0.2534 -0.2266
 4651SOL    HW125412   4.561   0.577   8.181  0.9047 -0.5747  1.6211
 4651SOL    HW225413   4.592   0.639   8.055  3.2211  1.6480 -1.3382
 4652SOL     OW25414   0.547   3.487  14.677  0.1293  0.1266 -0.0907
 4652SOL    HW125415   0.483   3.444  14.621  0.7926  0.1447 -0.8594
 4652SOL    HW225416   0.615   3.514  14.616  0.7824  0.5438  0.8109
 4653SOL     OW25417   3.979   2.399   4.248 -0.1986  0.3166  0.0568
 4653SOL    HW125418   3.905   2.354   4.290 -0.0192 -1.7780 -1.8653
 4653SOL    HW225419   3.941   2.388   4.161 -0.1688  1.6180 -0.1124
 4654SOL     OW25420   3.799   1.067   7.629 -0.0522  0.2332 -0.0052
 4654SOL    HW125421   3.759   0.995   7.677 -0.8954  1.7143  1.4832
 4654SOL    HW225422   3.739   1.086   7.557  0.7261 -0.7427 -0.9185
 4655SOL     OW25423   1.803   4.192   8.577  0.0772 -0.0249  0.3802
 4655SOL    HW125424   1.737   4.127   8.554  1.5255 -1.7603  1.1379
 4655SOL    HW225425   1.882   4.138   8.574 -0.9813 -1.4994 -1.2831
 4656SOL     OW25426   0.017   2.835  11.950 -0.0074 -0.2489 -0.1127
 4656SOL    HW125427   4.663   2.798  11.994  1.1444 -1.9787  0.4590
 4656SOL    HW225428   0.042   2.901  12.014 -0.9626  0.9154 -0.9271
 4657SOL     OW25429   2.619   0.590   7.680 -0.1350  0.1371 -0.0717
 4657SOL    HW125430   2.638   0.677   7.715  0.2652  1.0244 -2.5011
 4657SOL    HW225431   2.706   0.553   7.669 -0.3160 -0.2601 -0.2073
 4658SOL     OW25432   1.863   2.829   4.819  0.3787  0.1925 -0.5271
 4658SOL    HW125433   1.797   2.872   4.874 -0.7114  1.3047 -2.7342
 4658SOL    HW225434   1.819   2.756   4.777 -0.4844 -0.2918  1.2147
 4659SOL     OW25435   1.305   1.208   6.311  0.3008  0.2440 -0.9836
 4659SOL    HW125436   1.247   1.173   6.378  0.2349 -1.0693 -1.7264
 4659SOL    HW225437   1.264   1.180   6.229  1.5598 -0.7461 -1.2720
 4660SOL     OW25438   3.529   4.256  16.502 -0.0193 -0.0106  1.0714
 4660SOL    HW125439   3.595   4.211  16.449 -0.5472  0.1278  0.3016
 4660SOL    HW225440   3.511   4.335  16.450  1.4930 -0.8988 -0.8264
 4661SOL     OW25441   1.363   2.504  13.337 -0.2964 -0.3056 -0.1012
 4661SOL    HW125442   1.399   2.544  13.258 -3.4956  2.0401 -0.3542
 4661SOL    HW225443   1.439   2.455  13.369  1.0642  1.5325 -0.5064
 4662SOL     OW25444   1.421   1.163   3.513 -0.4558  0.3819 -0.0177
 4662SOL    HW125445   1.379   1.227   3.456 -1.5964 -1.6317 -1.4601
 4662SOL    HW225446   1.396   1.087   3.461 -2.3364  0.0745  1.3278
 4663SOL     OW25447   3.454   2.469  17.629  0.1242 -0.8228 -0.7311
 4663SOL    HW125448   3.491   2.556  17.619 -0.0937 -0.5831  0.5480
 4663SOL    HW225449   3.359   2.483  17.630  0.4858  1.6210 -0.3794
 4664SOL     OW25450   4.598   0.587   6.732  0.3104  0.0007  0.6277
 4664SOL    HW125451   4.529   0.588   6.798 -0.9614  1.1133 -0.6935
 4664SOL    HW225452   4.675   0.577   6.788  0.1099  0.3458  0.9645
 4665SOL     OW25453   3.676   1.187  13.940 -0.0254 -0.6040  0.5311
 4665SOL    HW125454   3.755   1.145  13.972 -0.6204 -2.3290 -0.2279
 4665SOL    HW225455   3.651   1.234  14.020 -0.7165  0.0736 -0.0703
 4666SOL     OW25456   2.682   4.653   7.791 -0.1719  0.0536 -0.1175
 4666SOL    HW125457   2.593   4.649   7.828 -0.8850  2.1929 -1.6552
 4666SOL    HW225458   2.725   4.590   7.850 -1.1717  1.6098  2.2763
 4667SOL     OW25459   1.305   1.936   4.366 -0.5336 -0.4381  0.0174
 4667SOL    HW125460   1.220   1.897   4.390 -0.0075 -2.0413 -0.7619
 4667SOL    HW225461   1.277   1.986   4.290  2.8566 -1.3000 -1.7727
 4668SOL     OW25462   3.007   4.322   6.836  0.5558 -0.3257 -0.2901
 4668SOL    HW125463   2.989   4.415   6.845  1.2850 -0.2415  0.2733
 4668SOL    HW225464   3.032   4.322   6.744 -0.2470  0.3109 -0.5120
 4669SOL     OW25465   1.545   2.324   1.504 -0.2084  0.6781  0.1754
 4669SOL    HW125466   1.551   2.345   1.411 -2.4742  2.2493  0.3866
 4669SOL    HW225467   1.558   2.229   1.501 -2.5635  0.3082  1.5401
 4670SOL     OW25468   2.048   1.530   9.976 -0.1654  0.3365  0.0622
 4670SOL    HW125469   2.142   1.540   9.964 -0.1808 -0.2754 -0.5719
 4670SOL    HW225470   2.050   1.554  10.069 -1.4411 -1.0524  0.4548
 4671SOL     OW25471   3.017   2.698   5.750  0.0072 -0.0579  0.3663
 4671SOL    HW125472   2.950   2.742   5.803  0.0691 -0.6558  0.9471
 4671SOL    HW225473   3.033   2.619   5.802 -1.6205 -0.2244  0.6028
 4672SOL     OW25474   3.246   0.501   9.573  0.0145 -0.0391  0.3094
 4672SOL    HW125475   3.218   0.416   9.538  2.0589 -1.7661  2.8235
 4672SOL    HW225476   3.161   0.544   9.567  0.7444  1.5526  1.3872
 4673SOL     OW25477   4.579   2.847   7.074  0.3396  0.0394  0.1020
 4673SOL    HW125478   4.564   2.940   7.092  1.8164 -0.3388  3.3174
 4673SOL    HW225479   4.567   2.806   7.160 -0.1924  1.2623  0.6164
 4674SOL     OW25480   2.009   1.576   5.412 -0.1662  0.1413  0.2856
 4674SOL    HW125481   1.917   1.559   5.392  0.3501 -1.8652 -0.3933
 4674SOL    HW225482   2.033   1.601   5.323  0.7756 -0.3226  0.4122
 4675SOL     OW25483   0.328   2.974   2.833  0.4205  0.2337  0.5086
 4675SOL    HW125484   0.244   2.951   2.873 -0.6378  2.3013 -0.4865
 4675SOL    HW225485   0.297   3.023   2.756  1.4001 -3.4150 -2.1951
 4676SOL     OW25486   1.986   3.960  17.667  0.1230 -0.4031  0.0238
 4676SOL    HW125487   1.989   4.055  17.681  1.6294 -0.2341 -1.5100
 4676SOL    HW225488   1.908   3.937   0.026 -0.8092  0.8368 -0.8245
 4677SOL     OW25489   3.999   0.813   3.636  0.3448  0.2946 -0.4689
 4677SOL    HW125490   3.984   0.905   3.658  1.6971  0.2671  0.5091
 4677SOL    HW225491   4.055   0.782   3.707  0.4077  0.9771 -0.2280
 4678SOL     OW25492   4.026   0.027   8.990  0.4004 -0.4911  0.2234
 4678SOL    HW125493   3.963   0.093   9.020  0.4195 -0.1178 -0.5619
 4678SOL    HW225494   4.089   0.032   9.062  0.5361 -1.8910  0.1929
 4679SOL     OW25495   4.153   2.942   3.960 -0.2653 -0.0621  0.3801
 4679SOL    HW125496   4.133   2.884   3.887 -0.0132  1.8303 -1.2028
 4679SOL    HW225497   4.147   2.884   4.036 -0.3221  0.0100  0.4303
 4680SOL     OW25498   3.798   0.633  13.864 -0.4933  0.2201 -0.3970
 4680SOL    HW125499   3.818   0.720  13.900  0.3993  0.2915 -1.0510
 4680SOL    HW225500   3.729   0.608  13.925 -0.3203 -1.0868 -0.7530
 4681SOL     OW25501   1.826   1.929   8.267  0.1495  0.1743  0.0510
 4681SOL    HW125502   1.842   2.015   8.228  0.4804 -0.6634 -1.6657
 4681SOL    HW225503   1.822   1.945   8.361 -0.2889 -0.1474  0.0870
 4682SOL     OW25504   1.861   1.691  12.522  0.0042  0.2241 -0.3830
 4682SOL    HW125505   1.854   1.694  12.617  0.2633 -0.3228 -0.3466
 4682SOL    HW225506   1.914   1.766  12.496 -1.9027  0.7692 -2.7229
 4683SOL     OW25507   1.969   0.125   8.379 -0.5728  0.4430  0.5831
 4683SOL    HW125508   1.898   0.190   8.384 -0.5840  0.6084 -2.2384
 4683SOL    HW225509   1.969   0.082   8.465 -0.4085 -2.9157 -1.0866
 4684SOL     OW25510   3.190   1.228  11.832  0.0954  0.7747 -0.0585
 4684SOL    HW125511   3.253   1.165  11.797  1.5779  2.3453 -0.2052
 4684SOL    HW225512   3.125   1.175  11.879  0.1784  0.8746  0.1691
 4685SOL     OW25513   3.393   3.818  17.261 -0.8738  0.0894  0.1604
 4685SOL    HW125514   3.392   3.730  17.298 -0.4030 -0.2518 -0.6420
 4685SOL    HW225515   3.367   3.801  17.171 -1.0814 -0.0403  0.2436
 4686SOL     OW25516   2.812   2.155   4.532 -0.3797  0.1284 -0.0591
 4686SOL    HW125517   2.831   2.154   4.439  0.1534  0.0334  0.0484
 4686SOL    HW225518   2.765   2.238   4.536 -0.5630  0.0592 -0.8178
 4687SOL     OW25519   0.775   3.047   3.507 -0.0978  0.4507  0.1054
 4687SOL    HW125520   0.699   3.055   3.449  0.6744  0.6413 -0.8724
 4687SOL    HW225521   0.850   3.060   3.450 -0.0213  2.5772  0.6664
 4688SOL     OW25522   0.136   0.656   3.051 -0.3861 -0.1421  0.0654
 4688SOL    HW125523   0.165   0.599   3.122 -1.0700  2.1735  2.1893
 4688SOL    HW225524   0.214   0.639   2.998 -0.3080 -0.3805  0.2621
 4689SOL     OW25525   2.021   2.098   3.883  0.1656 -0.3597  0.0283
 4689SOL    HW125526   2.077   2.036   3.929 -1.8702 -1.4661  1.0520
 4689SOL    HW225527   1.985   2.140   3.961  1.4754 -0.7268  0.8275
 4690SOL     OW25528   1.537   4.282   4.760 -0.4202  0.2299 -0.1726
 4690SOL    HW125529   1.596   4.218   4.721 -1.7641 -0.7189 -0.6133
 4690SOL    HW225530   1.510   4.330   4.682 -1.3561 -0.6297 -0.3759
 4691SOL     OW25531   3.521   4.457  16.318 -0.0051 -0.0224  0.2835
 4691SOL    HW125532   3.594   4.500  16.274 -2.0466  3.7971  0.6876
 4691SOL    HW225533   3.476   4.535  16.349  0.9552  0.2635  0.9175
 4692SOL     OW25534   1.259   1.223  15.649 -0.4116 -0.0670 -0.1705
 4692SOL    HW125535   1.317   1.299  15.649  0.8234 -1.0082  2.0938
 4692SOL    HW225536   1.185   1.274  15.684 -1.0386  0.1114 -1.7575
 4693SOL     OW25537   2.098   2.119   3.351 -0.0010 -0.4711  0.4872
 4693SOL    HW125538   2.003   2.108   3.343  0.1889 -1.2435 -0.7059
 4693SOL    HW225539   2.131   2.127   3.261  1.8573  0.2301  1.2314
 4694SOL     OW25540   4.243   1.986   5.233 -0.1283 -0.0844  0.0636
 4694SOL    HW125541   4.163   2.018   5.275 -0.6243 -0.5619 -0.5212
 4694SOL    HW225542   4.297   2.063   5.216  0.0480 -0.1737  0.2265
 4695SOL     OW25543   4.581   3.013  15.803 -0.4534 -0.6030 -0.0679
 4695SOL    HW125544   4.570   3.107  15.791 -1.7838 -0.8450 -0.6544
 4695SOL    HW225545   4.653   3.004  15.866  0.3747 -2.1993 -1.2596
 4696SOL     OW25546   3.464   3.354   6.219 -0.1266 -0.2993  0.0567
 4696SOL    HW125547   3.404   3.356   6.144 -0.2481 -0.5412  0.1489
 4696SOL    HW225548   3.404   3.332   6.290  1.1968 -0.1184  1.2339
 4697SOL     OW25549   4.004   2.169   5.877 -0.4338 -0.1117 -0.4581
 4697SOL    HW125550   3.973   2.109   5.945 -0.0694 -1.6928 -1.6753
 4697SOL    HW225551   3.921   2.173   5.829 -0.1353 -1.2450 -1.0653
 4698SOL     OW25552   0.049   0.931   5.935  0.5259 -0.1148 -0.0717
 4698SOL    HW125553   4.707   0.908   5.868  1.4157 -1.0514 -0.6122
 4698SOL    HW225554   0.025   1.023   5.946  2.4359  0.2916  0.6839
 4699SOL     OW25555   0.550   4.249   4.657 -0.3244  0.1319  0.0626
 4699SOL    HW125556   0.544   4.344   4.647  1.0152 -0.0386 -2.5298
 4699SOL    HW225557   0.587   4.236   4.744 -0.4800 -2.7592 -0.2878
 4700SOL     OW25558   4.261   3.212   9.686 -0.0443  0.4729  0.5817
 4700SOL    HW125559   4.322   3.159   9.737  1.3384  1.0615 -0.4638
 4700SOL    HW225560   4.326   3.246   9.625  0.7379 -0.5536  0.8512
 4701SOL     OW25561   1.399   1.651   4.771 -0.0616  0.1608  0.0844
 4701SOL    HW125562   1.340   1.635   4.697  1.7772 -0.7615 -1.1759
 4701SOL    HW225563   1.346   1.608   4.837  0.0896 -0.1973 -0.0287
 4702SOL     OW25564   4.714   3.593  13.929 -0.2148  0.5611  0.1752
 4702SOL    HW125565   0.066   3.548  13.889  0.9466  1.3937  1.4063
 4702SOL    HW225566   0.039   3.648  13.991 -0.3011  1.7211 -0.8006
 4703SOL     OW25567   0.246   0.407  10.347  0.0292  0.2304 -0.1991
 4703SOL    HW125568   0.262   0.449  10.432 -2.0567 -1.3713  0.9866
 4703SOL    HW225569   0.195   0.470  10.297 -1.0295 -0.5553 -0.1143
 4704SOL     OW25570   2.083   2.785  11.533  0.1575 -0.0380 -0.3413
 4704SOL    HW125571   2.115   2.862  11.580  1.6774 -0.3722 -0.8450
 4704SOL    HW225572   2.160   2.766  11.480 -0.5210 -3.1341 -0.2643
 4705SOL     OW25573   4.024   2.482   1.200 -0.0415 -0.9343 -0.0465
 4705SOL    HW125574   3.964   2.557   1.206 -0.7793 -1.6672  1.7898
 4705SOL    HW225575   3.995   2.427   1.273  1.0879 -0.8362  0.4687
 4706SOL     OW25576   4.428   1.981  15.401 -0.4781  0.1715 -0.1267
 4706SOL    HW125577   4.390   1.901  15.365  1.0274  0.1940 -1.7630
 4706SOL    HW225578   4.445   2.035  15.324 -0.0945 -1.3004 -1.0864
 4707SOL     OW25579   4.405   0.652   0.880 -0.2202  0.8362  0.1241
 4707SOL    HW125580   4.383   0.732   0.928 -2.4677  1.1741 -1.4752
 4707SOL    HW225581   4.499   0.667   0.883  0.5342 -3.9392 -0.0932
 4708SOL     OW25582   0.880   2.391   0.790 -0.2090 -0.2090  0.5744
 4708SOL    HW125583   0.786   2.406   0.777 -0.5266 -2.4096  0.3773
 4708SOL    HW225584   0.912   2.361   0.705 -1.5657 -0.2501  0.0827
 4709SOL     OW25585   1.051   0.781  10.595 -0.1336  0.0471 -0.0209
 4709SOL    HW125586   1.061   0.782  10.690 -1.1664  1.8743  0.0827
 4709SOL    HW225587   0.956   0.795  10.600  0.0752  1.3790  0.1972
 4710SOL     OW25588   3.607   3.555  12.037  0.3849 -0.0006  0.1795
 4710SOL    HW125589   3.514   3.577  12.032 -0.2651 -2.3750  1.8998
 4710SOL    HW225590   3.602   3.491  12.108  0.7782 -0.5147 -0.2625
 4711SOL     OW25591   0.285   0.115  10.277 -0.6516 -0.2619 -0.0835
 4711SOL    HW125592   0.209   0.081  10.324  0.1279 -1.4104  0.3527
 4711SOL    HW225593   0.266   0.204  10.306  0.2018 -0.2487  0.4375
 4712SOL     OW25594   1.686   0.570  14.501  0.3842 -0.0660 -0.3454
 4712SOL    HW125595   1.667   0.623  14.424  1.2954  1.7132  0.6298
 4712SOL    HW225596   1.607   0.586  14.553  1.1033  0.5216  0.5911
 4713SOL     OW25597   2.771   0.904   7.504  0.3166  0.0199  0.1013
 4713SOL    HW125598   2.815   0.989   7.504 -2.3060  1.3870  0.9654
 4713SOL    HW225599   2.838   0.843   7.473  0.2392 -0.6983  1.3264
 4714SOL     OW25600   2.576   1.839  15.585  0.2867 -0.6598  0.2831
 4714SOL    HW125601   2.540   1.754  15.610  2.2263 -1.4524  0.3975
 4714SOL    HW225602   2.501   1.897  15.574 -0.1306 -1.0022  1.3147
 4715SOL     OW25603   2.943   2.205   5.757 -0.1113  0.8729 -0.4373
 4715SOL    HW125604   2.864   2.205   5.811  0.2176  3.2031  0.0453
 4715SOL    HW225605   2.966   2.112   5.756  0.7583  1.0892 -0.7720
 4716SOL     OW25606   1.515   3.702  12.328 -0.0480  0.1992 -0.1450
 4716SOL    HW125607   1.536   3.635  12.263 -0.4033 -0.8677  0.8384
 4716SOL    HW225608   1.431   3.743  12.310 -1.4909 -0.8416  4.1154
 4717SOL     OW25609   0.928   3.238   3.338  0.8539 -0.4657  0.0890
 4717SOL    HW125610   0.916   3.176   3.267  0.3326 -1.4566  1.0403
 4717SOL    HW225611   0.868   3.309   3.315  0.1411 -0.0082  3.3469
 4718SOL     OW25612   2.746   2.706  12.832 -0.1685 -0.3533 -0.3400
 4718SOL    HW125613   2.734   2.761  12.909 -0.9826 -2.8320  1.3120
 4718SOL    HW225614   2.681   2.749  12.777  1.8912 -1.1673 -3.4396
 4719SOL     OW25615   0.573   4.217  12.280 -0.1910  0.2220  0.0663
 4719SOL    HW125616   0.585   4.130  12.242  0.0299 -0.1263  0.9157
 4719SOL    HW225617   0.612   4.266  12.208 -1.3736  0.8475 -0.1398
 4720SOL     OW25618   0.344   0.005   3.380 -0.6159 -0.2812  0.1555
 4720SOL    HW125619   0.333   0.072   3.312  0.8234  1.7402  1.9086
 4720SOL    HW225620   0.361   4.653   3.323  0.6456  1.4842 -1.8070
 4721SOL     OW25621   4.237   4.691  15.244  0.2120 -0.4928  0.5106
 4721SOL    HW125622   4.258   4.616  15.301  0.1120 -0.7602  0.1952
 4721SOL    HW225623   4.146   4.701  15.270  0.8146  0.9529  2.0751
 4722SOL     OW25624   1.982   2.256  16.671 -0.1694 -0.3208 -0.0636
 4722SOL    HW125625   1.929   2.323  16.713  1.4935  1.4288 -0.7414
 4722SOL    HW225626   2.036   2.304  16.608  0.8590  0.0187  1.0706
 4723SOL     OW25627   1.755   0.602   4.478  0.7580  0.7131 -0.3102
 4723SOL    HW125628   1.743   0.513   4.513 -2.1356  0.9923 -0.6159
 4723SOL    HW225629   1.813   0.636   4.546  2.4425  0.4412 -1.5844
 4724SOL     OW25630   0.598   3.379   5.481 -0.2327  0.2389  0.0959
 4724SOL    HW125631   0.578   3.321   5.555  1.6779 -1.2914 -0.5919
 4724SOL    HW225632   0.541   3.344   5.412  0.3821 -0.5899  0.0056
 4725SOL     OW25633   2.711   1.811  12.857  0.3165 -0.1696  0.2230
 4725SOL    HW125634   2.765   1.873  12.905  0.2814 -0.4848  0.6707
 4725SOL    HW225635   2.781   1.757  12.819  0.1843 -0.1946  0.0135
 4726SOL     OW25636   4.154   3.162   2.459 -0.5010  0.0874 -0.3045
 4726SOL    HW125637   4.078   3.218   2.453 -0.7435 -0.1307  0.8058
 4726SOL    HW225638   4.125   3.094   2.521  0.2014  0.3452  0.3077
 4727SOL     OW25639   1.406   2.957   7.781 -0.2756  0.2322 -0.2087
 4727SOL    HW125640   1.416   2.883   7.841 -0.3912 -0.7732 -1.4266
 4727SOL    HW225641   1.312   2.968   7.791 -0.0360 -0.1621  2.3998
 4728SOL     OW25642   4.401   2.791   6.823 -0.1109  0.0000  0.4921
 4728SOL    HW125643   4.311   2.812   6.848  0.3262  1.8263  0.5529
 4728SOL    HW225644   4.451   2.842   6.888  1.0709 -1.5176  0.7637
 4729SOL     OW25645   3.575   4.401   8.070 -0.2050 -0.0020 -0.0072
 4729SOL    HW125646   3.566   4.406   7.974  5.5624  0.0281 -0.5468
 4729SOL    HW225647   3.669   4.404   8.084  0.0408 -0.0502 -1.6395
 4730SOL     OW25648   4.299   4.172   5.544 -0.2547 -0.3801  0.1158
 4730SOL    HW125649   4.258   4.097   5.501 -1.1171 -0.6129  1.3533
 4730SOL    HW225650   4.333   4.129   5.623 -0.6874 -0.2433  0.3763
 4731SOL     OW25651   0.113   0.783   4.464  0.0940 -0.9828 -0.1019
 4731SOL    HW125652   0.206   0.801   4.475 -0.2107  0.0042  0.8906
 4731SOL    HW225653   0.110   0.689   4.480  0.7753 -0.7206  1.5530
 4732SOL     OW25654   3.505   3.448   7.894  0.5774 -0.6519  0.3088
 4732SOL    HW125655   3.469   3.362   7.874 -0.2685 -0.0368 -0.8063
 4732SOL    HW225656   3.579   3.452   7.832  2.0331  1.1556  2.1532
 4733SOL     OW25657   4.596   2.787   0.718 -0.0153 -0.1481 -0.0809
 4733SOL    HW125658   4.594   2.787   0.814  1.2120 -0.7456 -0.0600
 4733SOL    HW225659   4.513   2.833   0.706 -0.3845 -0.3902  1.5157
 4734SOL     OW25660   3.373   3.544  13.825 -0.2463  0.0584 -0.1448
 4734SOL    HW125661   3.343   3.634  13.842  0.6004  0.1090  1.0610
 4734SOL    HW225662   3.361   3.534  13.731  2.8680 -3.0228 -0.1832
 4735SOL     OW25663   1.842   3.572   8.594 -0.2018  0.2085  0.9384
 4735SOL    HW125664   1.759   3.619   8.606  0.1970  1.3979 -1.0579
 4735SOL    HW225665   1.831   3.504   8.660 -1.0427  0.1520  0.7369
 4736SOL     OW25666   2.872   3.836  12.562  0.0928 -0.0741  0.9421
 4736SOL    HW125667   2.961   3.819  12.530 -0.3725  2.9160 -2.0237
 4736SOL    HW225668   2.831   3.840  12.476 -1.2339  1.9475  1.6553
 4737SOL     OW25669   1.984   2.259   4.572  0.2721 -0.0880 -0.1836
 4737SOL    HW125670   1.985   2.347   4.609  0.4702  0.0994 -0.6278
 4737SOL    HW225671   2.053   2.275   4.508 -0.6149 -1.3259 -1.4522
 4738SOL     OW25672   4.508   3.418   7.504 -0.1607 -0.2530  0.9439
 4738SOL    HW125673   4.557   3.415   7.421  0.2691 -1.6240  1.2391
 4738SOL    HW225674   4.555   3.486   7.552 -3.5079  0.5041  3.0855
 4739SOL     OW25675   2.686   4.011   8.837  0.2900 -0.6259 -0.0280
 4739SOL    HW125676   2.661   4.062   8.760  0.4106  0.8836  0.9479
 4739SOL    HW225677   2.757   4.065   8.873  0.3249 -1.5946  1.3472
 4740SOL     OW25678   4.597   3.956  10.100 -0.0749  0.4724  0.2577
 4740SOL    HW125679   4.614   3.897  10.173  0.5547 -0.7386 -0.8761
 4740SOL    HW225680   4.636   3.912  10.025  0.2498 -0.2767  0.8615
 4741SOL     OW25681   3.712   0.343   4.390  0.2039 -0.4029  0.0449
 4741SOL    HW125682   3.622   0.369   4.368 -0.2651 -1.8628  0.2679
 4741SOL    HW225683   3.714   0.331   4.485  0.8255  1.9522  0.3375
 4742SOL     OW25684   4.164   3.428   6.716 -0.0110  0.1156  0.3508
 4742SOL    HW125685   4.091   3.477   6.753 -1.4286 -1.2736 -0.6366
 4742SOL    HW225686   4.215   3.499   6.677  1.8550 -1.9303 -0.9828
 4743SOL     OW25687   3.582   2.439  13.025  0.0302 -0.3896 -0.0363
 4743SOL    HW125688   3.524   2.363  13.013 -1.7879  0.8618  0.7083
 4743SOL    HW225689   3.642   2.441  12.951  0.7760 -1.6225  0.5293
 4744SOL     OW25690   4.356   3.849   1.588  0.8167  0.2999  0.2152
 4744SOL    HW125691   4.383   3.829   1.498  0.0683 -3.4486  0.8245
 4744SOL    HW225692   4.280   3.905   1.573 -0.0011 -0.2641  2.2009
 4745SOL     OW25693   1.329   1.126   4.464  0.5335 -0.2350  0.1802
 4745SOL    HW125694   1.359   1.040   4.433  1.3330 -0.4712  1.5652
 4745SOL    HW225695   1.248   1.101   4.507  0.3845 -1.5763 -0.8813
 4746SOL     OW25696   2.107   3.974   1.922 -0.6034  0.1075  0.4054
 4746SOL    HW125697   2.078   4.056   1.881  0.1201 -1.1996 -2.7812
 4746SOL    HW225698   2.072   3.909   1.860 -1.1314  1.5102 -0.7624
 4747SOL     OW25699   3.168   1.077   4.458  0.3325 -0.1889 -0.4196
 4747SOL    HW125700   3.181   1.011   4.389 -1.1612  1.8456 -2.6510
 4747SOL    HW225701   3.214   1.034   4.530 -0.9871  0.6142  0.8874
 4748SOL     OW25702   1.177   3.627   5.323 -0.0903 -0.1872  0.6713
 4748SOL    HW125703   1.242   3.654   5.389 -0.8646  0.2884  1.2539
 4748SOL    HW225704   1.163   3.708   5.273 -1.4325 -1.0973 -0.4253
 4749SOL     OW25705   4.649   3.873   9.452 -0.2936 -0.1786  0.4062
 4749SOL    HW125706   4.701   3.835   9.523 -0.1578  0.6064  0.7282
 4749SOL    HW225707   4.647   3.806   9.384  0.7815  1.7198 -1.4687
 4750SOL     OW25708   3.074   4.486   6.569 -0.4068 -0.1092 -0.3293
 4750SOL    HW125709   3.161   4.506   6.604 -0.1599 -1.2556 -0.2671
 4750SOL    HW225710   3.032   4.571   6.583 -1.9178 -0.8349 -0.4285
 4751SOL     OW25711   4.435   1.506  15.035 -0.5006 -0.4279 -0.4831
 4751SOL    HW125712   4.369   1.513  14.966  1.7982 -0.4516 -2.6773
 4751SOL    HW225713   4.506   1.557  14.997  0.8123 -1.0111  1.2170
 4752SOL     OW25714   0.712   4.696   2.760 -0.3961 -0.3408  0.0788
 4752SOL    HW125715   0.714   4.659   2.848  1.2534 -2.3221 -0.7777
 4752SOL    HW225716   0.620   4.712   2.737  0.1308 -0.1577 -1.8369
 4753SOL     OW25717   1.724   0.885   7.431  0.1001  0.9667  0.2377
 4753SOL    HW125718   1.774   0.921   7.505 -1.8287 -0.2849  2.1581
 4753SOL    HW225719   1.636   0.888   7.467 -1.4327 -0.5781 -3.3990
 4754SOL     OW25720   0.178   2.767   1.763 -0.3107 -0.7345  1.0029
 4754SOL    HW125721   0.109   2.768   1.697  0.2189 -1.6205  0.4357
 4754SOL    HW225722   0.195   2.858   1.787  3.3361 -0.7794 -1.3718
 4755SOL     OW25723   2.119   2.461   7.248  0.1106  0.0807 -0.4565
 4755SOL    HW125724   2.098   2.550   7.277 -1.6175 -0.5481  0.2076
 4755SOL    HW225725   2.033   2.419   7.242  0.2782 -0.5146  1.3328
 4756SOL     OW25726   4.227   4.060   4.788 -0.2878  0.2000 -0.4264
 4756SOL    HW125727   4.237   4.105   4.704  0.4903 -0.1713 -0.5305
 4756SOL    HW225728   4.169   4.120   4.835  1.4238  1.3291  0.2381
 4757SOL     OW25729   4.595   1.725  15.242  0.2423  0.0768  0.6025
 4757SOL    HW125730   4.599   1.721  15.337  0.7337  2.2094  0.6725
 4757SOL    HW225731   4.500   1.727  15.231  0.2215  0.3781  0.8543
 4758SOL     OW25732   1.051   2.780   8.789 -0.9010 -0.0072  0.5918
 4758SOL    HW125733   1.122   2.784   8.853 -0.3480 -0.0434 -0.0207
 4758SOL    HW225734   1.104   2.750   8.715 -0.6797 -0.8709  1.1090
 4759SOL     OW25735   1.155   2.677  15.095  0.0497 -0.4029 -0.2356
 4759SOL    HW125736   1.132   2.664  15.187 -1.8751 -1.1779 -0.8389
 4759SOL    HW225737   1.104   2.607  15.056 -1.3157  1.4689 -1.7715
 4760SOL     OW25738   4.541   0.518   6.219 -0.5884  0.4208 -0.7098
 4760SOL    HW125739   4.496   0.543   6.300 -0.2545 -0.4613 -0.2452
 4760SOL    HW225740   4.602   0.590   6.206 -0.6830 -0.1282 -4.1943
 4761SOL     OW25741   3.105   2.951   3.988  0.5125 -0.6926  0.2972
 4761SOL    HW125742   3.145   3.033   4.017 -0.6369 -0.1675  0.4183
 4761SOL    HW225743   3.184   2.901   3.968  1.2659  0.5631  0.1833
 4762SOL     OW25744   0.447   0.218   6.019 -0.3210  0.0261  0.7132
 4762SOL    HW125745   0.504   0.173   6.081 -0.8873 -1.0057  0.4897
 4762SOL    HW225746   0.413   0.145   5.968  0.9287  0.0720 -0.1716
 4763SOL     OW25747   1.187   4.232  16.916  0.2642 -0.2701  0.9184
 4763SOL    HW125748   1.163   4.192  17.000 -1.9152 -1.9902 -0.5131
 4763SOL    HW225749   1.189   4.152  16.863 -1.7658  1.5855 -1.9128
 4764SOL     OW25750   2.858   4.198  14.086 -0.2404  0.7111 -0.0614
 4764SOL    HW125751   2.765   4.207  14.066 -0.8996 -1.2649  2.1653
 4764SOL    HW225752   2.905   4.256  14.026  1.1878 -0.2434  0.1269
 4765SOL     OW25753   0.794   1.917   8.111  0.0875 -0.3417  0.0345
 4765SOL    HW125754   0.821   1.915   8.019  2.3618  1.1883  0.6620
 4765SOL    HW225755   0.807   1.826   8.138  0.9269 -0.8738 -2.1069
 4766SOL     OW25756   3.864   0.334   8.339 -0.1150 -0.3995  0.4880
 4766SOL    HW125757   3.831   0.274   8.406 -0.0372 -1.6162 -0.5636
 4766SOL    HW225758   3.812   0.308   8.263 -0.2622  1.6375 -0.1018
 4767SOL     OW25759   1.410   0.265   4.553  0.2032 -0.7211  0.2073
 4767SOL    HW125760   1.382   0.344   4.599  0.4213 -1.0645  0.9262
 4767SOL    HW225761   1.352   0.273   4.478 -0.5784  0.8207  0.9892
 4768SOL     OW25762   4.039   4.008   2.884 -0.1529  0.2069 -0.2283
 4768SOL    HW125763   4.001   3.931   2.841 -0.0123 -0.2525  0.4623
 4768SOL    HW225764   3.992   4.074   2.834  0.8422  0.3428 -0.9618
 4769SOL     OW25765   2.085   1.043   2.996  0.4169  0.0067 -0.0825
 4769SOL    HW125766   2.127   1.004   2.920 -0.7137  0.2592 -0.8384
 4769SOL    HW225767   1.995   1.019   2.971  0.0782  0.1621  0.9977
 4770SOL     OW25768   1.691   0.009   5.378 -0.0049 -0.0935  0.8476
 4770SOL    HW125769   1.597   4.715   5.380 -0.0492 -0.2966 -3.0057
 4770SOL    HW225770   1.710   0.018   5.284  0.8397  2.5695  1.2601
 4771SOL     OW25771   2.188   1.632   2.141  0.4588 -0.0896  0.2623
 4771SOL    HW125772   2.190   1.543   2.104 -0.2862 -0.5484  1.3290
 4771SOL    HW225773   2.158   1.680   2.064  1.3132 -0.6084 -0.3948
 4772SOL     OW25774   0.163   1.703   7.915  0.7369  0.9404  0.1735
 4772SOL    HW125775   0.078   1.659   7.924  1.7828 -1.2853 -0.9327
 4772SOL    HW225776   0.164   1.746   8.001 -1.7929  0.3348  0.5124
 4773SOL     OW25777   2.890   3.226   8.299  0.1576  0.0633 -0.4646
 4773SOL    HW125778   2.975   3.214   8.256 -0.7627 -0.4882 -2.1422
 4773SOL    HW225779   2.860   3.135   8.305  0.5687 -0.1158 -1.2016
 4774SOL     OW25780   0.153   1.155  15.460  0.0941  0.8825 -0.3766
 4774SOL    HW125781   0.077   1.206  15.487 -1.0426  0.2528 -2.3816
 4774SOL    HW225782   0.116   1.115  15.381  1.9457 -2.0864  0.2759
 4775SOL     OW25783   4.229   3.053   7.292 -0.5890 -0.1604  0.3242
 4775SOL    HW125784   4.245   3.140   7.329  0.4765 -0.0714 -0.3416
 4775SOL    HW225785   4.264   3.000   7.363 -1.1575  0.8218  1.3483
 4776SOL     OW25786   1.960   0.575   4.870 -0.0167 -0.4501 -0.1155
 4776SOL    HW125787   1.923   0.557   4.956 -0.2745 -0.2434 -0.1817
 4776SOL    HW225788   2.053   0.582   4.887 -0.8182  1.7141  3.3033
 4777SOL     OW25789   4.359   1.345   3.524 -0.3693 -0.1196 -0.0947
 4777SOL    HW125790   4.447   1.327   3.491 -0.4201 -1.0379  0.2537
 4777SOL    HW225791   4.327   1.417   3.471  0.3721  0.5401  0.3580
 4778SOL     OW25792   3.887   3.749   3.196 -0.3511 -0.8284 -0.3021
 4778SOL    HW125793   3.969   3.728   3.152 -1.8040  2.1186 -4.4333
 4778SOL    HW225794   3.865   3.665   3.236 -1.7917 -0.1245  0.3843
 4779SOL     OW25795   1.144   2.633  17.444  0.5023 -0.4990 -0.4347
 4779SOL    HW125796   1.104   2.715  17.415  1.4101 -0.2526 -1.0185
 4779SOL    HW225797   1.077   2.566  17.427  0.2078  0.5187 -3.2340
 4780SOL     OW25798   3.857   1.872   2.687 -0.8210  0.0170  0.4300
 4780SOL    HW125799   3.821   1.845   2.603 -1.8311  1.2800  0.4634
 4780SOL    HW225800   3.827   1.809   2.753 -1.0727  1.7007  1.9236
 4781SOL     OW25801   0.186   2.989   0.030  0.0501 -0.1111  0.0678
 4781SOL    HW125802   0.271   3.006  17.681 -0.8952  1.1127 -1.3703
 4781SOL    HW225803   0.128   2.953  17.656  3.1965 -2.1182 -1.6361
 4782SOL     OW25804   0.895   1.156   1.487 -0.4943 -0.3700  0.6929
 4782SOL    HW125805   0.951   1.122   1.557 -2.8523 -4.2148  0.6649
 4782SOL    HW225806   0.854   1.228   1.536 -2.3028 -0.7576 -0.3034
 4783SOL     OW25807   4.596   0.091  16.083  0.1480  0.1981  0.1367
 4783SOL    HW125808   4.606   0.182  16.112  1.3900  0.2671 -0.4961
 4783SOL    HW225809   4.638   0.090  15.998  0.4647  0.9355  0.2858
 4784SOL     OW25810   1.174   2.706   9.783 -0.5071  0.6380  0.4566
 4784SOL    HW125811   1.115   2.688   9.856  0.2388 -1.0337  0.6637
 4784SOL    HW225812   1.185   2.618   9.747 -2.6316  1.4855 -2.2413
 4785SOL     OW25813   2.073   2.137   2.752  0.9350  0.0916  0.0218
 4785SOL    HW125814   1.983   2.144   2.720  0.2729 -0.7455  1.7224
 4785SOL    HW225815   2.105   2.056   2.712 -2.1883 -0.5308 -1.1452
 4786SOL     OW25816   3.384   2.355   2.836  0.3322 -0.3146  0.4773
 4786SOL    HW125817   3.294   2.368   2.808  0.6988  0.8599 -0.1511
 4786SOL    HW225818   3.404   2.274   2.790  1.4316  0.1940  0.0500
 4787SOL     OW25819   1.771   3.316   6.747  0.0201 -0.5003  0.4246
 4787SOL    HW125820   1.761   3.319   6.652 -0.8841  1.3348  0.5745
 4787SOL    HW225821   1.836   3.246   6.753  1.7060  0.9138 -1.2384
 4788SOL     OW25822   3.104   2.295   7.994  0.2858 -0.8945  0.1962
 4788SOL    HW125823   3.154   2.377   7.995  0.8123 -1.2308  2.5175
 4788SOL    HW225824   3.148   2.245   8.063  1.4482  1.0365  0.8777
 4789SOL     OW25825   1.381   0.652   6.412  0.6642  0.2194  0.8625
 4789SOL    HW125826   1.322   0.728   6.414 -0.7237 -0.8140 -0.5483
 4789SOL    HW225827   1.465   0.697   6.406 -0.1989  1.4567 -2.0482
 4790SOL     OW25828   2.474   1.341   6.227  0.1228  0.0585 -0.0652
 4790SOL    HW125829   2.411   1.280   6.265 -1.1094 -0.2450 -2.5807
 4790SOL    HW225830   2.455   1.423   6.272 -1.5220 -0.2613 -0.1979
 4791SOL     OW25831   0.466   0.710   2.225 -0.5938 -0.2692  0.5606
 4791SOL    HW125832   0.499   0.798   2.207 -4.3296  0.5645 -1.9656
 4791SOL    HW225833   0.402   0.718   2.155  0.0762  1.8046  0.1864
 4792SOL     OW25834   1.524   0.512   7.913 -0.2736 -0.8058 -0.7762
 4792SOL    HW125835   1.435   0.498   7.882  0.3526 -2.4408 -1.8583
 4792SOL    HW225836   1.522   0.474   8.001 -1.6194 -2.0640 -1.3583
 4793SOL     OW25837   1.157   1.679   4.293  0.2143 -0.8034 -0.3008
 4793SOL    HW125838   1.218   1.606   4.301  0.8985 -0.0142  1.5126
 4793SOL    HW225839   1.135   1.675   4.199  0.6148 -2.0597 -0.3527
 4794SOL     OW25840   0.334   2.855   2.059 -0.2742 -0.3407  0.0213
 4794SOL    HW125841   0.380   2.884   1.979  1.1384 -1.5256  0.3971
 4794SOL    HW225842   0.250   2.898   2.041  0.1921  1.6442  2.5751
 4795SOL     OW25843   4.591   2.317   7.108 -0.4155  0.6915  0.5955
 4795SOL    HW125844   4.629   2.306   7.021  0.5435 -1.8225  1.3511
 4795SOL    HW225845   4.641   2.392   7.140  2.3549 -0.8472 -0.2144
 4796SOL     OW25846   1.411   4.275   0.803  0.2267  0.0148 -0.1262
 4796SOL    HW125847   1.398   4.201   0.863 -2.3962  0.2652 -0.3934
 4796SOL    HW225848   1.474   4.230   0.747  0.5766  0.8923 -0.4333
 4797SOL     OW25849   0.877   2.365   3.483 -0.6126  0.6693 -0.3697
 4797SOL    HW125850   0.936   2.317   3.541 -0.0369  2.8180  0.8287
 4797SOL    HW225851   0.911   2.453   3.464 -1.9058  1.5117  1.1506
 4798SOL     OW25852   2.110   3.396   0.730 -0.0617  0.5030 -0.3093
 4798SOL    HW125853   2.090   3.489   0.744 -2.2241  0.1453 -0.9830
 4798SOL    HW225854   2.152   3.369   0.811 -0.3341  0.4303 -0.1937
 4799SOL     OW25855   0.781   0.587   6.450  0.1706 -0.5094 -0.4417
 4799SOL    HW125856   0.688   0.578   6.470  0.4049  1.8992  1.6622
 4799SOL    HW225857   0.800   0.607   6.541 -0.8793  0.1201 -0.3698
 4800SOL     OW25858   3.331   3.732   4.702  0.2828  0.0111 -0.2053
 4800SOL    HW125859   3.242   3.742   4.670  1.0526  0.4271 -2.2492
 4800SOL    HW225860   3.325   3.693   4.789 -0.6171 -1.3271 -0.8683
 4801SOL     OW25861   2.641   3.708   4.251  0.2821  0.1535  0.4882
 4801SOL    HW125862   2.692   3.740   4.325  0.2866 -0.9647  0.9732
 4801SOL    HW225863   2.672   3.759   4.177 -3.3670  1.1511 -0.3718
 4802SOL     OW25864   2.009   1.521  10.234  0.5993 -0.2158 -0.2899
 4802SOL    HW125865   1.974   1.583  10.298 -1.7430 -1.4587 -0.4043
 4802SOL    HW225866   1.929   1.511  10.182  0.9666  2.4247 -1.3740
 4803SOL     OW25867   1.972   1.227   1.799  0.2397 -0.1590 -0.0622
 4803SOL    HW125868   1.931   1.211   1.885 -1.1090  2.0499 -0.2823
 4803SOL    HW225869   1.905   1.186   1.745 -0.9765  1.6141  0.0785
 4804SOL     OW25870   1.024   0.230   9.202 -0.2046  0.0577 -0.0462
 4804SOL    HW125871   1.094   0.259   9.143  1.4718  0.1052  1.9754
 4804SOL    HW225872   1.073   0.194   9.276  0.0225  1.5914  0.5350
 4805SOL     OW25873   1.124   3.488   6.491 -0.1175 -0.4854  0.3417
 4805SOL    HW125874   1.161   3.563   6.539 -0.0370  0.2279 -0.8444
 4805SOL    HW225875   1.179   3.478   6.414  1.1282 -0.9283  1.2757
 4806SOL     OW25876   1.286   2.712   3.647 -0.6516 -0.2968  0.0769
 4806SOL    HW125877   1.254   2.687   3.734  0.7174 -3.4650 -0.3476
 4806SOL    HW225878   1.367   2.661   3.646  0.0004  0.8447 -2.7446
 4807SOL     OW25879   2.111   4.465  11.565 -0.0474 -0.5449  0.4920
 4807SOL    HW125880   2.180   4.407  11.598  0.6910  0.0210 -0.0650
 4807SOL    HW225881   2.148   4.490  11.480 -2.1235  0.3891 -0.1266
 4808SOL     OW25882   1.902   2.059  12.505  0.3709 -0.0777  0.0477
 4808SOL    HW125883   1.969   1.998  12.475  0.5061 -0.1261  0.4515
 4808SOL    HW225884   1.825   2.004  12.489  0.5675 -0.0999 -0.7943
 4809SOL     OW25885   4.662   4.384   8.291  0.0182 -1.0601  0.0259
 4809SOL    HW125886   4.620   4.311   8.336 -0.7832 -0.9882 -0.5976
 4809SOL    HW225887   4.677   4.442   8.366 -1.1894  0.2568 -0.7624
 4810SOL     OW25888   3.780   2.182   8.003  0.4443  0.6083 -0.0770
 4810SOL    HW125889   3.767   2.162   8.096 -3.3459 -1.1962 -0.9724
 4810SOL    HW225890   3.707   2.128   7.972  0.7099 -0.4316  1.1221
 4811SOL     OW25891   3.613   0.966   2.902  0.0271 -0.0880 -0.6233
 4811SOL    HW125892   3.568   0.985   2.819 -0.8466  0.3876 -0.0363
 4811SOL    HW225893   3.695   0.929   2.868 -0.2697 -0.9056 -0.4269
 4812SOL     OW25894   1.832   4.443   3.860  0.6676 -0.0478 -0.2708
 4812SOL    HW125895   1.857   4.372   3.800 -0.7173  0.8377 -1.8767
 4812SOL    HW225896   1.840   4.397   3.943 -2.7277 -0.1837 -0.0221
 4813SOL     OW25897   2.464   4.209   5.570  0.3353  0.2351  0.3081
 4813SOL    HW125898   2.442   4.129   5.617 -0.4695 -0.3830 -1.1210
 4813SOL    HW225899   2.559   4.222   5.578  0.4399 -0.2121 -0.1344
 4814SOL     OW25900   4.225   3.226  11.507  0.2508 -0.0428  0.2460
 4814SOL    HW125901   4.258   3.139  11.533  0.1445 -0.5871 -1.4584
 4814SOL    HW225902   4.209   3.207  11.415 -1.3852  3.2621 -0.1116
 4815SOL     OW25903   1.344   1.689   3.726 -0.1667 -0.1382 -0.4357
 4815SOL    HW125904   1.317   1.637   3.651 -0.7659  0.4770 -0.6450
 4815SOL    HW225905   1.323   1.777   3.697 -0.2377  0.2517  0.7988
 4816SOL     OW25906   4.473   4.466   6.684 -0.0207 -0.2765 -0.0140
 4816SOL    HW125907   4.442   4.550   6.651 -1.1490 -1.8325 -2.9070
 4816SOL    HW225908   4.390   4.418   6.690  0.3635 -0.5339  3.2644
 4817SOL     OW25909   3.646   0.951   5.091 -0.3126  0.0233 -0.6742
 4817SOL    HW125910   3.568   0.968   5.039 -0.3895  1.7469  0.0368
 4817SOL    HW225911   3.711   0.982   5.027 -0.3514  0.3208 -0.5685
 4818SOL     OW25912   0.588   4.372   2.030  0.0135 -0.4886  0.5350
 4818SOL    HW125913   0.546   4.440   1.978  2.5678  0.9851  0.3619
 4818SOL    HW225914   0.535   4.295   2.009  0.9813 -0.6247 -1.3615
 4819SOL     OW25915   0.384   0.147   9.978 -0.3339  0.4195  0.3224
 4819SOL    HW125916   0.369   0.138  10.072 -0.2885 -0.8459  0.2129
 4819SOL    HW225917   0.478   0.165   9.977 -0.5996  1.7748  1.3363
 4820SOL     OW25918   4.006   3.800   6.419  0.7964  0.1411 -0.1235
 4820SOL    HW125919   3.996   3.707   6.397  0.9380 -0.1397  1.0063
 4820SOL    HW225920   3.969   3.800   6.507 -0.1428 -0.5401 -0.5139
 4821SOL     OW25921   3.672   3.439   5.756 -0.3405  0.5043 -0.1241
 4821SOL    HW125922   3.694   3.524   5.796  1.4257  0.1366 -0.3178
 4821SOL    HW225923   3.615   3.472   5.686 -1.4396 -1.4050 -0.1263
 4822SOL     OW25924   0.543   1.079   1.620 -0.4394  0.4831 -0.2995
 4822SOL    HW125925   0.631   1.115   1.630 -0.1742  0.2552 -1.7255
 4822SOL    HW225926   0.515   1.109   1.533  0.2764  0.9790 -0.3536
 4823SOL     OW25927   2.137   4.101   9.302  0.0147  0.0388  0.3736
 4823SOL    HW125928   2.097   4.089   9.216  0.6047  0.6062  0.0154
 4823SOL    HW225929   2.218   4.050   9.299  0.7335  1.2703 -0.8318
 4824SOL     OW25930   4.405   1.821  11.392  0.4009 -0.0499  0.1995
 4824SOL    HW125931   4.474   1.874  11.351 -0.7997  1.5978  0.3291
 4824SOL    HW225932   4.361   1.797  11.310 -1.9982  0.8192  1.2299
 4825SOL     OW25933   3.294   3.505   5.589 -1.1287  0.1214 -0.2508
 4825SOL    HW125934   3.225   3.547   5.640 -1.0204 -0.4926  0.4031
 4825SOL    HW225935   3.254   3.494   5.503 -1.0702  1.8251 -0.4976
 4826SOL     OW25936   3.327   4.010   2.029 -0.1273  0.0391 -0.2460
 4826SOL    HW125937   3.357   4.011   1.939 -1.3451 -0.7336 -0.6624
 4826SOL    HW225938   3.236   3.984   2.013 -0.2004 -1.1742  2.0789
 4827SOL     OW25939   4.481   3.806   8.923  0.0262 -0.7399  0.2940
 4827SOL    HW125940   4.555   3.845   8.970 -0.0197  1.3319 -1.3517
 4827SOL    HW225941   4.411   3.832   8.982  0.0045 -2.7261  1.1479
 4828SOL     OW25942   3.939   2.494   6.081 -0.7544  0.3598 -0.3243
 4828SOL    HW125943   3.862   2.439   6.065  0.3963 -1.1804 -0.4635
 4828SOL    HW225944   4.012   2.442   6.048 -0.2145  0.5301  0.6088
 4829SOL     OW25945   0.417   2.465   5.950  0.2427  0.0190 -0.7668
 4829SOL    HW125946   0.478   2.392   5.949 -0.0334 -0.2061 -1.0075
 4829SOL    HW225947   0.474   2.535   5.981  0.1877 -0.6252  0.8040
 4830SOL     OW25948   2.039   1.412   6.602  0.5748  0.0315  0.4203
 4830SOL    HW125949   2.067   1.406   6.511  0.2627 -2.1763  0.4767
 4830SOL    HW225950   2.089   1.484   6.642 -1.6383  1.7486  0.1404
 4831SOL     OW25951   1.318   2.089   8.248 -0.4445  0.5803 -0.2237
 4831SOL    HW125952   1.402   2.085   8.202 -1.5537  0.1952 -2.1903
 4831SOL    HW225953   1.290   1.998   8.246 -0.8150  0.7250 -1.9998
 4832SOL     OW25954   4.659   3.931   5.551 -0.0796 -0.8282 -0.0785
 4832SOL    HW125955   4.602   3.984   5.495 -0.4827  1.2026  2.2324
 4832SOL    HW225956   0.017   3.982   5.541 -0.3141 -0.1372  1.6059
 4833SOL     OW25957   2.142   3.177   2.145 -0.2301  0.1571  0.2375
 4833SOL    HW125958   2.225   3.138   2.174  0.3631  0.0511 -1.6098
 4833SOL    HW225959   2.165   3.243   2.080  2.0747 -0.6146  0.2563
 4834SOL     OW25960   4.615   3.436   2.759  0.1617 -0.1858 -0.0824
 4834SOL    HW125961   4.537   3.380   2.764 -0.0180 -0.1218 -1.9581
 4834SOL    HW225962   4.633   3.447   2.852 -0.6663 -0.1513  0.0733
 4835SOL     OW25963   1.922   4.187   4.684  0.3870  0.0809 -0.3662
 4835SOL    HW125964   1.974   4.115   4.720  0.7587 -1.2522 -3.5933
 4835SOL    HW225965   1.838   4.155   4.651 -0.0137 -0.3843  1.0761
 4836SOL     OW25966   4.281   2.313   9.010  0.1072  0.1033 -0.0897
 4836SOL    HW125967   4.233   2.271   8.939 -0.0933  1.7815 -0.9381
 4836SOL    HW225968   4.338   2.239   9.031  0.3478 -0.0407 -1.2800
 4837SOL     OW25969   3.401   3.386   2.259 -0.4873  0.5993 -0.5912
 4837SOL    HW125970   3.468   3.337   2.211 -0.6760 -0.7155  0.4960
 4837SOL    HW225971   3.323   3.334   2.237  1.0067 -2.1306  0.5545
 4838SOL     OW25972   1.928   0.500  10.518  0.0858  0.5405  0.0891
 4838SOL    HW125973   1.956   0.428  10.461  0.8241  0.0630  1.0666
 4838SOL    HW225974   2.011   0.529  10.554  0.5211 -1.6451  0.8252
 4839SOL     OW25975   3.266   3.218   6.919  0.2180 -0.3023 -0.7097
 4839SOL    HW125976   3.302   3.129   6.915 -1.7496 -1.0848 -0.6765
 4839SOL    HW225977   3.229   3.225   7.007 -1.9734 -2.2760 -1.4658
 4840SOL     OW25978   0.731   0.344   3.513  0.3666 -0.5203  0.2468
 4840SOL    HW125979   0.753   0.256   3.481 -2.3243 -1.5204  1.1688
 4840SOL    HW225980   0.788   0.361   3.588 -0.2662 -0.7759  0.7785
 4841SOL     OW25981   3.256   1.764   3.740 -0.2978  0.0944  0.3120
 4841SOL    HW125982   3.241   1.740   3.648 -0.7193  0.3256  0.3227
 4841SOL    HW225983   3.348   1.740   3.752 -0.3788 -1.5620 -2.2587
 4842SOL     OW25984   0.787   1.816   4.785  0.3953  0.1260  0.5044
 4842SOL    HW125985   0.857   1.853   4.731  0.3881 -0.3292  0.1871
 4842SOL    HW225986   0.825   1.734   4.817  0.4032 -0.6062 -1.3845
 4843SOL     OW25987   4.091   4.028   8.912 -0.5150  0.4774 -0.1582
 4843SOL    HW125988   4.014   4.044   8.858 -0.9915  0.0256  0.3823
 4843SOL    HW225989   4.104   4.118   8.943 -2.4174  1.1098 -1.2211
 4844SOL     OW25990   3.233   4.680   1.849  0.0488 -0.5209 -0.2322
 4844SOL    HW125991   3.150   4.720   1.822  0.4769  0.5745  0.0471
 4844SOL    HW225992   3.219   4.674   1.944  0.0874 -1.0158 -0.2607
 4845SOL     OW25993   1.280   2.773  14.007  0.0794 -0.2916 -0.0335
 4845SOL    HW125994   1.211   2.722  14.050 -1.2789 -0.2397 -2.1203
 4845SOL    HW225995   1.263   2.773  13.913 -0.3005 -2.3710  0.0350
 4846SOL     OW25996   2.936   2.316   6.879 -0.0311  0.0690 -0.3747
 4846SOL    HW125997   2.937   2.221   6.887 -0.6227  0.0294 -0.8019
 4846SOL    HW225998   2.987   2.317   6.798  0.2279  0.1901 -0.2104
 4847SOL     OW25999   3.864   0.406   3.169  0.1813  0.4221 -0.1326
 4847SOL    HW126000   3.846   0.339   3.235 -0.0113  0.2607 -0.3486
 4847SOL    HW226001   3.775   0.415   3.135  0.7637  1.9691 -1.2910
 4848SOL     OW26002   3.653   0.841   6.564  0.1635  0.3717 -0.4667
 4848SOL    HW126003   3.589   0.856   6.634  1.2322  1.2485  0.3134
 4848SOL    HW226004   3.679   0.928   6.532 -0.1028  1.2184  1.6170
 4849SOL     OW26005   3.422   1.664  14.710 -0.0143  0.0673  0.1901
 4849SOL    HW126006   3.397   1.746  14.669  2.0792  0.5912 -0.0615
 4849SOL    HW226007   3.378   1.599  14.655  0.3010 -0.6705  0.7962
 4850SOL     OW26008   2.287   2.791   1.417 -0.6012 -0.5518 -0.6021
 4850SOL    HW126009   2.279   2.755   1.505  0.2280 -1.1885 -0.7943
 4850SOL    HW226010   2.200   2.771   1.383  0.0807  2.4883 -4.1775
 4851SOL     OW26011   1.652   2.189   3.944 -0.5072 -0.0578  0.0225
 4851SOL    HW126012   1.589   2.224   4.008  2.0542  1.3410  1.7931
 4851SOL    HW226013   1.639   2.261   3.883  0.3796 -1.5460 -1.9151
 4852SOL     OW26014   0.122   2.398  12.927 -0.1112  0.3990 -0.5518
 4852SOL    HW126015   0.106   2.431  12.839  0.1151 -0.5997 -0.9780
 4852SOL    HW226016   0.049   2.338  12.943  0.5826 -0.8499 -2.0022
 4853SOL     OW26017   1.770   3.534   5.176  0.4582 -0.4569  0.2182
 4853SOL    HW126018   1.781   3.534   5.271  0.3758  0.0617  0.2289
 4853SOL    HW226019   1.697   3.475   5.158 -1.2156  1.0441  2.1518
 4854SOL     OW26020   1.370   3.702   7.636 -0.0223  0.2218  0.1201
 4854SOL    HW126021   1.290   3.749   7.612 -0.6496 -1.7810 -1.6522
 4854SOL    HW226022   1.357   3.664   7.723 -0.2770  1.1236  0.4844
 4855SOL     OW26023   2.596   0.209   5.541  0.0471  0.3164 -0.0213
 4855SOL    HW126024   2.666   0.187   5.602 -1.4457 -2.6409  0.6215
 4855SOL    HW226025   2.522   0.175   5.591  0.6825  1.7780  1.9086
 4856SOL     OW26026   1.153   3.182   4.737  0.1092  0.2894 -0.1952
 4856SOL    HW126027   1.071   3.231   4.736  0.5221  0.9800 -0.0972
 4856SOL    HW226028   1.136   3.136   4.655  0.8495 -1.0767  0.4314
 4857SOL     OW26029   2.259   0.840   3.886  0.5360 -0.4815  0.2782
 4857SOL    HW126030   2.282   0.748   3.874  1.6162 -0.0894 -0.6451
 4857SOL    HW226031   2.275   0.846   3.980 -1.2622  0.6445  0.5212
 4858SOL     OW26032   2.086   2.576   7.570  0.2881  0.0649 -0.2271
 4858SOL    HW126033   2.173   2.599   7.537  0.2831  0.4319  0.0065
 4858SOL    HW226034   2.030   2.627   7.511  0.5351 -1.1318 -1.4802
 4859SOL     OW26035   3.037   3.458  17.647 -0.0017 -0.2158  0.2111
 4859SOL    HW126036   3.120   3.432  17.687 -0.2623 -1.9514 -0.3915
 4859SOL    HW226037   2.992   3.502   0.027  1.4643 -0.4852  1.2704
 4860SOL     OW26038   0.157   0.618   8.034  0.4161  0.1152  0.5718
 4860SOL    HW126039   0.073   0.596   8.073  0.7992 -0.4139  1.1038
 4860SOL    HW226040   0.221   0.558   8.072  1.8101  0.3851 -1.3502
 4861SOL     OW26041   3.660   1.957   6.148  0.2065  0.0183  0.0807
 4861SOL    HW126042   3.589   1.939   6.210  0.4105 -0.2497  0.2388
 4861SOL    HW226043   3.666   1.873   6.102  3.1862 -0.1987  0.8507
 4862SOL     OW26044   3.327   0.832   7.188  0.7254 -0.4065 -0.2856
 4862SOL    HW126045   3.322   0.810   7.281 -0.8682  2.2854  0.2829
 4862SOL    HW226046   3.282   0.917   7.184  0.7568 -0.2639  3.0660
 4863SOL     OW26047   4.523   0.207   6.831  0.1500 -0.3351  0.3524
 4863SOL    HW126048   4.502   0.138   6.894  0.2680 -0.2029  0.5361
 4863SOL    HW226049   4.608   0.240   6.861 -0.1778 -1.0462  2.0716
 4864SOL     OW26050   3.254   1.939   7.817 -0.0057 -0.3922 -0.4889
 4864SOL    HW126051   3.274   1.939   7.910  1.2129  1.0810 -0.7510
 4864SOL    HW226052   3.159   1.943   7.832  0.2571 -1.0671  1.3339
 4865SOL     OW26053   3.988   0.563  17.211 -0.4893 -0.0279  0.4467
 4865SOL    HW126054   4.083   0.568  17.204 -0.6964 -0.6189 -3.1977
 4865SOL    HW226055   3.975   0.541  17.118  0.8003  1.0897  0.0000
 4866SOL     OW26056   0.900   1.849   3.574 -0.1769 -0.3156  0.0955
 4866SOL    HW126057   0.875   1.925   3.521  0.3598  0.6800  1.2750
 4866SOL    HW226058   0.869   1.778   3.518  1.0700 -0.9407  0.2080
 4867SOL     OW26059   3.704   2.104   7.227 -0.3065 -0.3015 -0.2601
 4867SOL    HW126060   3.798   2.089   7.218 -0.0341  0.9721  0.3998
 4867SOL    HW226061   3.677   2.019   7.262 -0.0415 -0.4127 -0.3282
 4868SOL     OW26062   0.917   0.350   6.535 -0.2034 -0.0663  0.1640
 4868SOL    HW126063   0.843   0.323   6.590  1.0740 -0.5465  1.6329
 4868SOL    HW226064   0.862   0.420   6.499  0.4679  1.0789  1.3658
 4869SOL     OW26065   3.005   0.130   1.518 -0.5090 -0.0755 -0.3314
 4869SOL    HW126066   2.980   0.040   1.538 -0.6341 -0.4303 -2.1437
 4869SOL    HW226067   3.099   0.121   1.531 -0.9073 -2.6101  0.6688
 4870SOL     OW26068   3.954   3.230  16.160  0.0685  0.2012  0.2316
 4870SOL    HW126069   3.921   3.153  16.207  2.0464 -0.0465  1.2283
 4870SOL    HW226070   3.888   3.240  16.091  0.1123 -2.2773 -0.1649
 4871SOL     OW26071   0.081   0.320   5.494  0.7511  0.3969 -0.2802
 4871SOL    HW126072   0.076   0.281   5.407  1.8838 -2.5657  0.9770
 4871SOL    HW226073   0.174   0.313   5.516  0.4821 -0.0709  0.7482
 4872SOL     OW26074   2.430   3.943  16.029 -0.0589  0.2672 -0.3050
 4872SOL    HW126075   2.488   3.890  15.974  2.3001  2.1377  0.3932
 4872SOL    HW226076   2.342   3.932  15.992  0.4406  0.7450 -1.6450
 4873SOL     OW26077   0.393   0.438   3.916  0.3627 -0.5904 -0.1086
 4873SOL    HW126078   0.463   0.420   3.978  1.8797 -2.6116 -2.4417
 4873SOL    HW226079   0.360   0.349   3.907 -0.8182 -0.1751  0.0003
 4874SOL     OW26080   4.007   1.370   3.735  0.1823 -0.0031 -0.6696
 4874SOL    HW126081   3.964   1.370   3.649 -1.8402 -0.7037  0.3263
 4874SOL    HW226082   3.941   1.386   3.803  0.5568 -1.0672 -0.0572
 4875SOL     OW26083   3.682   4.073   1.640 -0.9759 -0.7771  0.1449
 4875SOL    HW126084   3.686   4.144   1.704  4.6368 -0.6364 -0.3465
 4875SOL    HW226085   3.761   4.022   1.659 -1.2763 -0.8845  1.1199
 4876SOL     OW26086   0.286   4.436   1.616  0.4216 -0.3731 -0.2416
 4876SOL    HW126087   0.258   4.513   1.567  0.0973 -1.4898 -1.8066
 4876SOL    HW226088   0.361   4.410   1.563  0.7060 -0.1154  0.0355
 4877SOL     OW26089   2.044   2.249  11.030  0.2316  0.1465  0.2540
 4877SOL    HW126090   2.092   2.240  10.948 -1.5570 -0.9459 -0.6599
 4877SOL    HW226091   2.038   2.155  11.046  0.7050  0.2030  0.7831
 4878SOL     OW26092   1.471   2.286   5.461  0.3685  0.3910  0.1159
 4878SOL    HW126093   1.554   2.241   5.474  0.3279  0.6310  1.1939
 4878SOL    HW226094   1.405   2.239   5.512 -1.1487 -0.0162 -2.2490
 4879SOL     OW26095   1.456   2.453   4.886 -0.0397 -0.1132 -0.3881
 4879SOL    HW126096   1.467   2.543   4.854  1.1565 -0.5370 -1.1677
 4879SOL    HW226097   1.496   2.454   4.973  0.2004 -0.6559 -0.4940
 4880SOL     OW26098   2.112   0.889   7.651 -0.4898  0.0828  0.0212
 4880SOL    HW126099   2.158   0.818   7.695  0.3309 -1.0479 -2.6476
 4880SOL    HW226100   2.185   0.946   7.628  1.1636 -1.1216  2.2885
 4881SOL     OW26101   4.414   3.920   8.636 -0.3250  0.1430  0.3203
 4881SOL    HW126102   4.410   3.871   8.718 -2.4887 -0.6314 -0.2409
 4881SOL    HW226103   4.458   3.852   8.585  1.7179  1.4295  0.3942
 4882SOL     OW26104   0.856   2.921  11.384  0.6244 -0.1054 -0.4930
 4882SOL    HW126105   0.828   2.848  11.329 -3.5681  1.2242 -0.1558
 4882SOL    HW226106   0.926   2.876  11.432  0.2230 -1.5198 -1.2334
 4883SOL     OW26107   3.430   0.985   2.115  0.0742  0.0387 -0.0258
 4883SOL    HW126108   3.459   0.912   2.060 -0.5081  0.0008 -0.2802
 4883SOL    HW226109   3.389   1.040   2.049 -1.5747  0.0797  1.0204
 4884SOL     OW26110   2.990   2.554   1.760 -0.1954 -0.2649  0.8099
 4884SOL    HW126111   3.034   2.565   1.675  1.8146 -0.2726  1.8502
 4884SOL    HW226112   2.906   2.524   1.726  1.6432 -2.8485 -1.4893
 4885SOL     OW26113   4.441   3.179   2.583  0.4923 -0.4843 -0.4581
 4885SOL    HW126114   4.505   3.166   2.513  1.5912 -1.8021  0.7994
 4885SOL    HW226115   4.423   3.085   2.586 -2.9662  0.1138 -1.4207
 4886SOL     OW26116   0.323   1.709   2.419  0.3399  0.1409  0.0072
 4886SOL    HW126117   0.382   1.769   2.465  2.9654 -2.3795 -0.0550
 4886SOL    HW226118   0.383   1.672   2.355 -2.5676 -1.5612 -1.7309
 4887SOL     OW26119   2.796   2.591  14.579 -0.3361 -0.3453  0.3158
 4887SOL    HW126120   2.805   2.498  14.561 -0.1392 -0.3065  0.2075
 4887SOL    HW226121   2.865   2.632  14.527 -0.9288  0.0581 -0.1587
 4888SOL     OW26122   0.892   4.280  14.509 -0.0324 -0.4672 -0.2807
 4888SOL    HW126123   0.974   4.322  14.535 -0.9457  1.3367 -0.2620
 4888SOL    HW226124   0.818   4.319  14.556  0.6226 -0.1215  0.4641
 4889SOL     OW26125   1.774   1.465   4.820 -0.0074  0.0956 -0.2004
 4889SOL    HW126126   1.869   1.480   4.823 -0.0309  0.4979 -1.3748
 4889SOL    HW226127   1.765   1.475   4.725 -2.0102  0.0015 -0.0138
 4890SOL     OW26128   1.917   4.231   5.357  0.1821 -0.1708  0.2332
 4890SOL    HW126129   1.884   4.258   5.442 -0.5382  2.5406 -0.9036
 4890SOL    HW226130   1.914   4.136   5.358  0.0916 -0.1883 -1.0128
 4891SOL     OW26131   4.649   0.764   6.246  0.0612  0.2804 -0.0931
 4891SOL    HW126132   4.703   0.834   6.283  0.2534  0.3101 -0.4302
 4891SOL    HW226133   4.584   0.810   6.193  2.3218  1.4329 -1.8867
 4892SOL     OW26134   0.457   1.395   2.998 -0.3241  0.1047 -0.0535
 4892SOL    HW126135   0.438   1.457   3.068  0.6882  1.7082 -1.1912
 4892SOL    HW226136   0.543   1.432   2.976 -1.0726 -0.4000 -3.8791
 4893SOL     OW26137   3.711   1.963   1.926 -0.2987 -0.1826  0.3750
 4893SOL    HW126138   3.631   1.989   1.970 -0.3366 -0.5205  0.5106
 4893SOL    HW226139   3.704   1.868   1.938  0.1072 -0.2296  0.2303
 4894SOL     OW26140   0.449   3.653   8.090  0.1104 -0.1801 -0.0641
 4894SOL    HW126141   0.515   3.718   8.115 -1.1969  1.3989 -0.7298
 4894SOL    HW226142   0.482   3.627   8.004 -1.1561  1.4453 -1.0258
 4895SOL     OW26143   1.452   4.084   7.772 -0.2828  0.2051 -0.1815
 4895SOL    HW126144   1.435   3.991   7.759  0.8363  0.1436 -1.1608
 4895SOL    HW226145   1.451   4.106   7.679  1.1092 -2.2275 -0.7759
 4896SOL     OW26146   0.740   2.791   2.365  0.0301  0.1352 -0.3424
 4896SOL    HW126147   0.673   2.767   2.428  1.0139  1.6037  1.2601
 4896SOL    HW226148   0.693   2.848   2.304  0.9366 -0.2699 -1.4508
 4897SOL     OW26149   2.799   3.421   7.281  0.2813  0.0364 -0.1882
 4897SOL    HW126150   2.717   3.431   7.232 -0.0704  0.7387  0.5506
 4897SOL    HW226151   2.842   3.482   7.222 -1.1701  0.7799 -0.4844
 4898SOL     OW26152   4.592   1.970   4.615  0.0072 -0.3230 -0.6666
 4898SOL    HW126153   4.533   1.901   4.585 -0.2906 -0.5371  0.3961
 4898SOL    HW226154   4.643   1.922   4.680 -0.6980  1.7934  1.4874
 4899SOL     OW26155   1.907   2.279  11.761  0.2054 -0.4727 -0.9512
 4899SOL    HW126156   1.959   2.359  11.760 -1.4221  0.5983 -0.4303
 4899SOL    HW226157   1.973   2.213  11.739  1.6237  0.3094  1.0702
 4900SOL     OW26158   3.950   0.194  11.630 -0.8338 -0.4244  0.1717
 4900SOL    HW126159   3.873   0.138  11.638 -2.3659  1.7947  1.0638
 4900SOL    HW226160   3.987   0.141  11.560  0.1711 -1.4406  1.4834
 4901SOL     OW26161   3.323   1.700  14.143 -0.3466  0.0230  0.3971
 4901SOL    HW126162   3.367   1.750  14.212  0.4454 -0.6406  0.3707
 4901SOL    HW226163   3.387   1.631  14.125  1.4299  1.1915  2.2959
 4902SOL     OW26164   1.791   2.715   2.657  0.3734 -0.4999  0.0473
 4902SOL    HW126165   1.771   2.762   2.576  1.4226 -0.6074 -0.2611
 4902SOL    HW226166   1.713   2.659   2.655  1.3476 -1.8725  1.1250
 4903SOL     OW26167   1.029   4.060  15.881  0.2732 -0.1478  0.1910
 4903SOL    HW126168   1.052   3.974  15.845  0.7201 -0.5068  1.3215
 4903SOL    HW226169   1.116   4.089  15.909 -0.2955  2.7197 -1.1158
 4904SOL     OW26170   1.462   1.830  12.009 -0.3804 -0.8256 -0.5175
 4904SOL    HW126171   1.428   1.806  12.095  1.0476 -3.4207 -0.6957
 4904SOL    HW226172   1.430   1.920  11.996 -0.7306 -1.3566 -3.4524
 4905SOL     OW26173   4.449   0.830  17.495  0.3923 -0.1262  0.0445
 4905SOL    HW126174   4.433   0.738  17.514  0.4950  0.2908  2.1070
 4905SOL    HW226175   4.531   0.822  17.447  0.5788  1.4837  0.0924
 4906SOL     OW26176   0.036   1.857  13.267 -0.0678 -0.1848  0.4471
 4906SOL    HW126177   0.019   1.764  13.256  0.7264 -0.4515  1.4407
 4906SOL    HW226178   0.132   1.854  13.262 -0.2764 -2.2439 -2.0776
 4907SOL     OW26179   2.952   3.600   2.339 -0.1105  0.0891 -0.3668
 4907SOL    HW126180   2.930   3.637   2.424 -1.1148 -0.3791 -0.4181
 4907SOL    HW226181   2.998   3.522   2.370 -0.7631  0.0677  0.5366
 4908SOL     OW26182   0.739   1.237   7.181  0.3384 -0.5905 -0.3687
 4908SOL    HW126183   0.774   1.323   7.204  0.0715 -0.3707 -0.7997
 4908SOL    HW226184   0.646   1.255   7.171  0.5404  0.9069  0.4485
 4909SOL     OW26185   4.116   2.762   6.938 -0.4085  0.1888  0.4214
 4909SOL    HW126186   4.056   2.690   6.954  0.2073 -0.9262 -2.2757
 4909SOL    HW226187   4.194   2.733   6.985  0.4785  1.0092 -0.5049
 4910SOL     OW26188   0.545   4.460  12.136  0.4561  0.2661 -0.6126
 4910SOL    HW126189   0.601   4.536  12.153 -2.0511  1.7678  0.9907
 4910SOL    HW226190   0.492   4.465  12.215 -0.9747 -0.7410 -1.5117
 4911SOL     OW26191   3.694   2.925   4.799  0.1664 -0.1154 -0.3776
 4911SOL    HW126192   3.721   2.881   4.880  0.4679 -1.1426 -1.0503
 4911SOL    HW226193   3.645   3.000   4.833 -2.9812 -2.5413  0.4625
 4912SOL     OW26194   3.305   1.035   7.612 -0.3254 -0.5999 -0.2128
 4912SOL    HW126195   3.238   0.988   7.660 -2.4826  1.5626 -1.1014
 4912SOL    HW226196   3.380   0.976   7.615  0.8227  0.9066  0.5957
 4913SOL     OW26197   4.506   0.634  10.971 -0.0417 -0.1473  0.2091
 4913SOL    HW126198   4.507   0.539  10.958  1.6814 -0.1794  0.6710
 4913SOL    HW226199   4.415   0.640  11.000 -0.4796 -0.9546 -1.0174
 4914SOL     OW26200   2.459   0.444  16.051 -0.2002 -0.0733 -0.9254
 4914SOL    HW126201   2.454   0.518  15.991 -3.3434 -1.0436 -1.8798
 4914SOL    HW226202   2.398   0.473  16.118 -1.0809  0.1091 -1.8065
 4915SOL     OW26203   1.425   3.131   5.963  0.0020  0.2394 -0.7741
 4915SOL    HW126204   1.349   3.145   5.908 -0.2092  2.9667  0.2118
 4915SOL    HW226205   1.499   3.118   5.903 -0.0529 -1.3248 -0.4956
 4916SOL     OW26206   0.781   0.100   3.412 -0.0299 -0.3166  0.0450
 4916SOL    HW126207   0.864   0.053   3.407  1.2850  2.1587 -1.8273
 4916SOL    HW226208   0.726   0.036   3.456  0.4505 -1.5637 -1.1623
 4917SOL     OW26209   3.123   2.304   2.774 -0.5542  0.2742 -0.0308
 4917SOL    HW126210   3.056   2.354   2.822 -1.6730 -0.8905 -0.3852
 4917SOL    HW226211   3.108   2.211   2.788 -1.7964  0.3399 -0.8619
 4918SOL     OW26212   0.444   0.184   3.573 -0.0070  0.5560 -0.0246
 4918SOL    HW126213   0.533   0.177   3.608 -0.6076 -1.2648  1.1450
 4918SOL    HW226214   0.456   0.115   3.508 -0.4226  0.7009 -0.2528
 4919SOL     OW26215   2.820   1.351   2.878  0.1746  0.1914  0.4117
 4919SOL    HW126216   2.766   1.327   2.954  2.2759 -1.2320  1.4492
 4919SOL    HW226217   2.904   1.373   2.918  0.4838  0.5021 -0.4164
 4920SOL     OW26218   0.284   2.001  17.459  0.0317 -0.0068  0.5243
 4920SOL    HW126219   0.230   2.038  17.389 -0.4867 -0.4826  0.6698
 4920SOL    HW226220   0.246   1.913  17.461  2.2213 -0.9242  1.4460
 4921SOL     OW26221   3.602   0.533   3.117  0.0506 -0.7140  0.5766
 4921SOL    HW126222   3.521   0.575   3.088 -0.1545 -0.0414  2.1379
 4921SOL    HW226223   3.644   0.531   3.031 -2.9312 -0.4127 -0.9251
 4922SOL     OW26224   4.458   2.039   7.071 -0.0260  0.3070  0.1942
 4922SOL    HW126225   4.384   2.100   7.073  0.2973  0.6962  0.2415
 4922SOL    HW226226   4.425   1.989   6.997 -0.4057  0.0635  0.5249
 4923SOL     OW26227   1.066   0.692   3.612  0.4773  0.0680  0.5712
 4923SOL    HW126228   1.095   0.718   3.524 -1.5454 -0.3973 -0.2189
 4923SOL    HW226229   1.126   0.621   3.635  1.1623  0.4010 -0.1579
 4924SOL     OW26230   3.352   4.337  15.623  0.3173  0.3274  0.4025
 4924SOL    HW126231   3.279   4.374  15.672 -0.2672 -3.1987  2.1621
 4924SOL    HW226232   3.344   4.385  15.540  2.3570 -0.7082 -0.3975
 4925SOL     OW26233   4.341   0.509   0.646 -0.0773  0.1143 -0.2525
 4925SOL    HW126234   4.396   0.551   0.579  0.1140 -1.7189 -1.2472
 4925SOL    HW226235   4.356   0.576   0.713  1.1000  0.2764 -0.6733
 4926SOL     OW26236   0.380   1.932   2.783 -0.0954 -0.1493 -0.9388
 4926SOL    HW126237   0.300   1.910   2.736  0.4938  2.9519 -3.4480
 4926SOL    HW226238   0.427   1.987   2.720 -0.4350  0.7342 -0.4233
 4927SOL     OW26239   4.677   2.902  16.537 -0.2027 -0.2539  0.0380
 4927SOL    HW126240   4.605   2.842  16.519 -1.1817  1.3515 -1.4262
 4927SOL    HW226241   4.634   2.988  16.534 -1.9450 -1.1371  0.0215
 4928SOL     OW26242   2.756   3.622   3.371  0.1752  0.6048  0.2837
 4928SOL    HW126243   2.767   3.702   3.319  2.6757 -0.7192 -1.2003
 4928SOL    HW226244   2.723   3.658   3.454 -2.1357 -0.0967 -0.3281
 4929SOL     OW26245   2.315   3.350  12.047  0.4019  0.0906 -0.4962
 4929SOL    HW126246   2.321   3.307  12.133  1.3265 -0.3906 -0.8003
 4929SOL    HW226247   2.408   3.364  12.030  0.4666  2.5261  1.8111
 4930SOL     OW26248   0.932   0.051   6.491 -0.5741  0.2111  0.4711
 4930SOL    HW126249   0.912   4.702   6.431 -2.5956  0.2678  1.0694
 4930SOL    HW226250   0.918   0.133   6.444 -1.2864  0.1257  0.5319
 4931SOL     OW26251   1.877   3.061   9.329 -0.2348 -0.4465 -0.3425
 4931SOL    HW126252   1.931   2.988   9.358 -0.0964 -1.2902 -2.6843
 4931SOL    HW226253   1.846   3.076   9.418 -1.1242 -0.7597 -0.5963
 4932SOL     OW26254   1.137   4.655   5.327 -0.2389 -0.2954  0.1617
 4932SOL    HW126255   1.230   4.674   5.339 -0.6599  0.5567  2.0003
 4932SOL    HW226256   1.117   4.573   5.373 -1.7737  0.2056  0.3744
 4933SOL     OW26257   1.520   0.177  16.897  0.8785  0.5654  0.3490
 4933SOL    HW126258   1.573   0.256  16.899  0.4893  0.7901  1.8024
 4933SOL    HW226259   1.553   0.119  16.966 -0.4852 -1.4632 -0.6851
 4934SOL     OW26260   0.624   2.691   5.156 -0.2848 -0.2421 -0.1601
 4934SOL    HW126261   0.675   2.609   5.157 -1.3783 -0.9302 -1.3850
 4934SOL    HW226262   0.659   2.734   5.234  0.5629 -0.6268 -0.3218
 4935SOL     OW26263   4.569   0.226  14.073  0.0220  0.0312  0.7472
 4935SOL    HW126264   4.496   0.198  14.019  1.8665 -2.0961 -0.6556
 4935SOL    HW226265   4.551   0.178  14.154 -0.4477  0.6370  0.9989
 4936SOL     OW26266   3.894   4.444   5.416 -0.0364  0.0435 -0.4163
 4936SOL    HW126267   3.929   4.520   5.369 -0.1882  0.2088 -0.2626
 4936SOL    HW226268   3.812   4.424   5.372 -1.2305  0.6541  1.4965
 4937SOL     OW26269   3.805   0.419   8.737  0.1385  0.1573  0.6577
 4937SOL    HW126270   3.816   0.432   8.832 -1.5044  0.9380  0.7502
 4937SOL    HW226271   3.893   0.441   8.707  0.7437 -1.3735  1.2692
 4938SOL     OW26272   2.267   0.624   4.927 -0.5434 -0.7685  0.0015
 4938SOL    HW126273   2.238   0.657   5.012 -2.5088  1.4146 -1.5220
 4938SOL    HW226274   2.360   0.640   4.944 -0.4004 -1.2859 -0.2771
 4939SOL     OW26275   1.766   1.277   6.561  0.3924 -0.3151  0.3925
 4939SOL    HW126276   1.701   1.345   6.577 -0.2748 -1.0575  0.8233
 4939SOL    HW226277   1.793   1.305   6.474 -0.5228  0.2843  0.2975
 4940SOL     OW26278   1.115   0.922   1.350  0.2924 -0.1041 -0.4941
 4940SOL    HW126279   1.034   0.961   1.317 -1.2729 -2.1311  0.8905
 4940SOL    HW226280   1.070   0.875   1.421  0.7622 -1.4472 -1.0850
 4941SOL     OW26281   0.700   0.152   3.140 -0.1008 -0.2260  0.3053
 4941SOL    HW126282   0.788   0.142   3.103 -0.5327  0.0492 -0.8086
 4941SOL    HW226283   0.719   0.131   3.231 -0.0934 -0.0838  0.3355
 4942SOL     OW26284   2.195   0.589   5.208 -0.7595 -0.5164 -0.1487
 4942SOL    HW126285   2.146   0.672   5.208  0.5811  0.2851 -2.3521
 4942SOL    HW226286   2.281   0.614   5.244  0.1014  0.1503 -2.6099
 4943SOL     OW26287   4.145   3.146   4.268 -0.1441 -0.7492  0.1814
 4943SOL    HW126288   4.198   3.072   4.297  0.8139 -0.7647 -1.6411
 4943SOL    HW226289   4.206   3.207   4.227 -0.6809  0.5972  1.3672
 4944SOL     OW26290   3.689   2.201  14.447 -0.0392  0.6445 -0.0821
 4944SOL    HW126291   3.634   2.279  14.455 -1.1957 -0.1914  0.2015
 4944SOL    HW226292   3.653   2.143  14.515  0.2534  0.0361 -0.4463
 4945SOL     OW26293   0.885   3.323   4.088 -0.3767 -0.5751  0.3683
 4945SOL    HW126294   0.945   3.337   4.161 -0.2434  0.2600  0.1000
 4945SOL    HW226295   0.819   3.277   4.139  0.3904  0.3109  2.1632
 4946SOL     OW26296   4.252   0.226  13.162  0.0261  0.3882 -0.4510
 4946SOL    HW126297   4.249   0.174  13.242  3.0513  0.1303 -0.4955
 4946SOL    HW226298   4.252   0.157  13.095 -0.6819 -1.1585  1.1676
 4947SOL     OW26299   3.539   3.005  16.556  0.8882 -0.5239  0.0914
 4947SOL    HW126300   3.537   2.973  16.646 -0.5023  0.6795  0.4816
 4947SOL    HW226301   3.445   3.016  16.539  0.5012 -3.2822  0.5188
 4948SOL     OW26302   0.405   0.287   4.738 -0.2789 -0.4574 -0.0825
 4948SOL    HW126303   0.442   0.213   4.689 -1.5314 -0.1092 -1.5690
 4948SOL    HW226304   0.311   0.267   4.747 -0.6736  1.2248 -0.5542
 4949SOL     OW26305   0.803   1.466  10.944 -0.0033  0.0999  0.7305
 4949SOL    HW126306   0.794   1.370  10.945  1.7152 -0.0516  1.6798
 4949SOL    HW226307   0.865   1.483  10.874  0.0815 -0.9520  0.5551
 4950SOL     OW26308   0.159   1.225   0.863 -0.7051  0.1331  0.3552
 4950SOL    HW126309   0.156   1.278   0.943  0.3511 -2.1660  1.9223
 4950SOL    HW226310   0.235   1.172   0.888 -0.5997  0.1042 -0.0351
 4951SOL     OW26311   2.208   1.604  15.067 -0.4387  0.0239 -0.3360
 4951SOL    HW126312   2.228   1.691  15.033 -0.7256  0.8193  1.5126
 4951SOL    HW226313   2.113   1.596  15.055 -0.2950  0.1157 -1.5604
 4952SOL     OW26314   2.773   2.730   2.833  0.1546 -0.0153 -0.6643
 4952SOL    HW126315   2.799   2.700   2.746 -0.0699  2.1349 -1.4610
 4952SOL    HW226316   2.703   2.789   2.806  1.5532  1.6904 -0.5598
 4953SOL     OW26317   3.589   4.614   8.731 -0.5400  0.5511 -0.4131
 4953SOL    HW126318   3.527   4.584   8.664  0.7701  0.2932 -1.5015
 4953SOL    HW226319   3.529   4.624   8.805 -0.5084  2.1383 -0.6043
 4954SOL     OW26320   0.044   2.875   5.885  0.4731  0.3725 -0.3952
 4954SOL    HW126321   0.106   2.808   5.915 -3.3361 -1.9330  2.2839
 4954SOL    HW226322   0.003   2.905   5.966  0.8430 -1.2185  0.3808
 4955SOL     OW26323   3.250   2.927   5.123 -0.1312  0.7227 -0.4201
 4955SOL    HW126324   3.170   2.979   5.114 -1.5357 -1.6319 -1.5800
 4955SOL    HW226325   3.289   2.939   5.036 -1.5258  2.4800 -0.8123
 4956SOL     OW26326   1.636   4.281   4.343  0.3772  0.0031 -0.5416
 4956SOL    HW126327   1.630   4.377   4.348 -1.0541  0.0136 -2.6385
 4956SOL    HW226328   1.585   4.259   4.265 -0.3402  0.9803 -0.3546
 4957SOL     OW26329   3.061   0.085   3.833  0.2258  0.2211  0.4130
 4957SOL    HW126330   3.152   0.054   3.837 -0.0633 -0.9004 -1.5875
 4957SOL    HW226331   3.062   0.151   3.764 -1.4494 -1.0047 -0.7553
 4958SOL     OW26332   1.482   4.635  10.716  0.3516 -0.1459 -0.0099
 4958SOL    HW126333   1.544   4.563  10.719  0.7317  0.1726 -0.2440
 4958SOL    HW226334   1.535   4.710  10.690  0.8710  0.3133  2.3398
 4959SOL     OW26335   3.057   2.135   2.523 -0.1409  0.0599 -0.1223
 4959SOL    HW126336   3.093   2.142   2.612 -0.7596  0.8259  0.0663
 4959SOL    HW226337   2.970   2.100   2.542  0.2987 -0.7716  0.3507
 4960SOL     OW26338   3.945   3.638   8.107 -0.1797 -0.1925 -0.2834
 4960SOL    HW126339   3.971   3.591   8.028 -0.9048  0.3635 -0.8537
 4960SOL    HW226340   3.913   3.566   8.160  1.0570 -0.8370 -0.4051
 4961SOL     OW26341   2.526   3.582   2.517 -0.0140  0.2945 -0.0657
 4961SOL    HW126342   2.479   3.659   2.486 -0.1127 -0.4125 -1.6394
 4961SOL    HW226343   2.580   3.556   2.443 -0.0126 -0.0111  0.0409
 4962SOL     OW26344   2.427   4.085   5.072 -0.3795 -0.5628 -0.3658
 4962SOL    HW126345   2.339   4.088   5.035 -1.0935  1.3167  1.4850
 4962SOL    HW226346   2.470   4.028   5.008  1.0369  1.2248 -1.0079
 4963SOL     OW26347   3.481   4.183   4.999  0.1306  0.5250 -0.2979
 4963SOL    HW126348   3.401   4.178   5.051  0.5644  1.7037  0.5009
 4963SOL    HW226349   3.536   4.144   5.067  0.4922 -0.1758 -0.9909
 4964SOL     OW26350   3.022   2.764  12.149 -0.2168 -0.0279  0.5221
 4964SOL    HW126351   2.960   2.709  12.196 -0.3240  1.3924  2.0304
 4964SOL    HW226352   3.057   2.713  12.075 -1.0843 -2.3973  1.7421
 4965SOL     OW26353   0.772   2.001   2.620  0.2220 -0.2754 -0.0394
 4965SOL    HW126354   0.868   2.001   2.618  0.2379  0.8911  1.0296
 4965SOL    HW226355   0.764   1.976   2.528  0.0769 -1.4664  0.2888
 4966SOL     OW26356   4.424   3.035   2.924 -0.0322  0.1614  1.1074
 4966SOL    HW126357   4.363   3.042   2.851  0.4625 -0.6449  0.6182
 4966SOL    HW226358   4.403   2.948   2.959 -1.7612  0.8480  1.7696
 4967SOL     OW26359   4.237   4.708   4.120  0.3588  0.2356 -0.0929
 4967SOL    HW126360   4.328   4.694   4.145  0.0507 -1.1772  0.2628
 4967SOL    HW226361   4.196   4.692   4.205 -3.5791  1.0823 -1.8408
 4968SOL     OW26362   3.941   0.977   6.005  0.5742  0.0984 -0.3366
 4968SOL    HW126363   3.861   0.992   6.056  1.0087 -1.0825  0.6911
 4968SOL    HW226364   4.011   1.013   6.060 -0.1707  0.0590  0.6340
 4969SOL     OW26365   1.702   4.708  16.717 -0.0611  0.0423 -0.2264
 4969SOL    HW126366   1.644   0.022  16.783 -0.5457  1.5993 -1.4964
 4969SOL    HW226367   1.663   4.626  16.688 -1.6938  1.0519 -0.8645
 4970SOL     OW26368   2.623   1.812   9.637  0.2984 -0.1512 -0.1790
 4970SOL    HW126369   2.607   1.793   9.545 -1.1253 -1.2814  0.3080
 4970SOL    HW226370   2.544   1.780   9.680 -1.7735  1.4837 -2.7274
 4971SOL     OW26371   1.506   4.591   5.713 -0.0567 -0.9512  0.2097
 4971SOL    HW126372   1.437   4.553   5.658 -1.6733  0.7259  1.0579
 4971SOL    HW226373   1.489   4.572   5.805  0.6700  2.5292  1.0579
 4972SOL     OW26374   3.428   0.094   9.116 -0.4616  0.1595 -0.2628
 4972SOL    HW126375   3.405   0.020   9.061  0.5766  0.1891 -0.7274
 4972SOL    HW226376   3.424   0.172   9.061  1.3395  0.7684  0.4557
 4973SOL     OW26377   2.977   4.634   3.299 -0.4358 -0.1782  0.6097
 4973SOL    HW126378   2.903   4.690   3.277 -0.9043 -0.8565  0.4439
 4973SOL    HW226379   3.000   4.595   3.214  0.8479  1.0686  0.3938
 4974SOL     OW26380   2.690   2.366  13.347 -0.2805  0.5342 -0.1119
 4974SOL    HW126381   2.704   2.318  13.428  1.1215 -0.7584 -1.1337
 4974SOL    HW226382   2.747   2.440  13.369  1.8146 -0.7708 -1.1649
 4975SOL     OW26383   2.716   0.955  11.939  0.2469 -0.4593 -0.1826
 4975SOL    HW126384   2.747   0.866  11.926  3.0985  0.6928 -1.2529
 4975SOL    HW226385   2.621   0.943  11.950  0.4046 -1.8932 -0.4200
 4976SOL     OW26386   2.237   4.226  16.361  0.5867  0.2120  0.6821
 4976SOL    HW126387   2.245   4.302  16.418  0.2875  0.0402  0.9581
 4976SOL    HW226388   2.170   4.168  16.399  1.5070 -1.3249 -0.0264
 4977SOL     OW26389   0.066   3.664   6.742  0.3602  0.3463  0.1622
 4977SOL    HW126390   4.717   3.709   6.788  0.6224  0.8140  0.1017
 4977SOL    HW226391   0.075   3.580   6.786 -4.1708  0.0345  0.5712
 4978SOL     OW26392   1.925   3.505   2.487  0.0050  0.8564 -0.5625
 4978SOL    HW126393   1.966   3.441   2.430 -0.5575  1.1044 -1.2473
 4978SOL    HW226394   2.003   3.554   2.512  0.9544  0.5128 -2.8998
 4979SOL     OW26395   1.145   3.903   5.297  0.0040  0.3703  0.6310
 4979SOL    HW126396   1.133   3.898   5.202  0.1878 -1.3181  0.7120
 4979SOL    HW226397   1.212   3.972   5.296 -1.1186  1.4376 -2.3704
 4980SOL     OW26398   0.770   3.827   9.727 -0.1254  0.1582  0.5181
 4980SOL    HW126399   0.731   3.908   9.758  1.2229  0.6426  0.9593
 4980SOL    HW226400   0.794   3.865   9.643  1.4969  1.1126  1.4027
 4981SOL     OW26401   0.781   4.270   7.519 -0.5706 -0.9461  0.4128
 4981SOL    HW126402   0.744   4.350   7.481  0.3932 -1.7298 -2.1836
 4981SOL    HW226403   0.841   4.309   7.582  0.7747 -1.1724 -0.7102
 4982SOL     OW26404   4.458   1.132   5.418  0.4963  0.5896 -0.1909
 4982SOL    HW126405   4.393   1.147   5.349 -0.3467 -2.1748 -0.0115
 4982SOL    HW226406   4.536   1.163   5.372  0.1629  2.7647  0.7301
 4983SOL     OW26407   0.519   3.424   2.341 -0.2431  0.1164  0.3901
 4983SOL    HW126408   0.560   3.463   2.418 -0.6160 -2.0933  1.6866
 4983SOL    HW226409   0.563   3.480   2.277 -1.1821 -2.1263 -2.2296
 4984SOL     OW26410   4.283   2.448   2.660 -0.2044  0.4833 -0.6364
 4984SOL    HW126411   4.238   2.530   2.641 -1.4308  0.4756  2.3002
 4984SOL    HW226412   4.264   2.428   2.751  1.8403  0.7523 -0.1472
 4985SOL     OW26413   0.534   2.319   9.727  0.0070  0.2575  0.1178
 4985SOL    HW126414   0.454   2.309   9.675  0.3431 -0.2472 -0.3050
 4985SOL    HW226415   0.598   2.348   9.662 -2.3130  3.6896 -0.6360
 4986SOL     OW26416   4.295   3.770   6.946  0.5493  0.5250  0.2207
 4986SOL    HW126417   4.291   3.815   7.031  0.8902 -0.3468  0.7003
 4986SOL    HW226418   4.309   3.850   6.896  0.7001  0.6346  0.4372
 4987SOL     OW26419   1.597   1.468   6.512 -0.3362 -0.3496  0.1880
 4987SOL    HW126420   1.556   1.457   6.426 -1.3559  1.4301  0.4554
 4987SOL    HW226421   1.623   1.559   6.498  1.4205 -1.0415 -1.1853
 4988SOL     OW26422   0.457   0.472   6.006 -0.2486 -0.3555 -0.2522
 4988SOL    HW126423   0.446   0.378   5.994 -1.3880 -0.2322 -0.1237
 4988SOL    HW226424   0.550   0.483   6.027 -0.6617  0.6624  1.0593
 4989SOL     OW26425   2.111   3.581  17.523  0.0142  0.8338 -0.3909
 4989SOL    HW126426   2.155   3.555  17.442 -0.6009 -1.7729  0.1061
 4989SOL    HW226427   2.175   3.640  17.563 -0.4145  1.6359 -0.8987
 4990SOL     OW26428   3.842   2.562   7.279 -0.3623  0.2195  0.2728
 4990SOL    HW126429   3.796   2.486   7.314 -0.6636 -0.8290 -2.4039
 4990SOL    HW226430   3.930   2.549   7.314  0.4320  2.5971 -0.8024
 4991SOL     OW26431   3.827   3.478  12.309 -0.6301  0.2100 -0.4567
 4991SOL    HW126432   3.780   3.507  12.388 -0.9066  0.6927 -0.7963
 4991SOL    HW226433   3.821   3.384  12.328 -1.7422  0.2775 -0.4604
 4992SOL     OW26434   1.159   2.950  15.758  0.8239  0.1920  0.3750
 4992SOL    HW126435   1.251   2.969  15.741  0.5913 -0.0049 -1.0892
 4992SOL    HW226436   1.121   3.031  15.793  3.8313  1.9557 -0.4575
 4993SOL     OW26437   4.336   3.224   7.775 -0.4047 -0.4727 -0.0677
 4993SOL    HW126438   4.337   3.129   7.762  2.4241 -0.3337 -0.8304
 4993SOL    HW226439   4.371   3.227   7.864  0.1231  2.1738 -0.3717
 4994SOL     OW26440   2.867   1.768   4.016  0.0590  0.4290  0.6011
 4994SOL    HW126441   2.781   1.769   3.974  1.5575 -2.4271 -2.5495
 4994SOL    HW226442   2.918   1.800   3.942  0.0711  1.2909  0.9790
 4995SOL     OW26443   2.553   0.392   7.916 -0.6971  0.1680  0.4013
 4995SOL    HW126444   2.539   0.300   7.895  2.0439  0.4136 -2.7126
 4995SOL    HW226445   2.573   0.428   7.829 -1.3982 -0.3330  0.0371
 4996SOL     OW26446   0.311   2.876  14.374 -0.5823  0.4255 -0.0398
 4996SOL    HW126447   0.316   2.789  14.336 -2.9976 -0.1976  1.0530
 4996SOL    HW226448   0.333   2.855  14.465  1.3387 -0.6193 -0.7426
 4997SOL     OW26449   3.606   2.543   1.768  0.4142  0.3836 -0.4848
 4997SOL    HW126450   3.571   2.487   1.699  1.9566 -0.6695 -0.4046
 4997SOL    HW226451   3.689   2.501   1.791 -0.2986  0.5110  2.3180
 4998SOL     OW26452   2.697   4.375  11.311  0.9997 -0.0331 -0.1281
 4998SOL    HW126453   2.738   4.461  11.305  0.5647  0.2670  1.3249
 4998SOL    HW226454   2.750   4.332  11.377 -0.3239 -2.9396 -0.9609
 4999SOL     OW26455   2.694   0.711   9.889 -0.1656 -0.4576 -0.0802
 4999SOL    HW126456   2.603   0.708   9.919  0.7959  2.3712  3.1487
 4999SOL    HW226457   2.696   0.801   9.858  0.2873 -0.9812 -1.5925
 5000SOL     OW26458   2.075   1.314   1.164  0.2861 -0.3083  0.1339
 5000SOL    HW126459   2.049   1.233   1.119 -3.0923  0.1310  1.3191
 5000SOL    HW226460   2.150   1.273   1.208 -1.5540 -2.5231  1.2380
 5001SOL     OW26461   1.569   0.433   6.769 -0.2678  0.5037 -0.1205
 5001SOL    HW126462   1.526   0.481   6.840 -2.7079  0.1445 -1.3455
 5001SOL    HW226463   1.662   0.447   6.786 -0.2699  2.8397 -2.0959
 5002SOL     OW26464   3.711   2.343   7.364 -0.4526  0.5523 -0.8273
 5002SOL    HW126465   3.740   2.309   7.449 -0.2253  0.4418 -0.9501
 5002SOL    HW226466   3.721   2.260   7.317  2.5783 -0.6626  1.9521
 5003SOL     OW26467   1.522   4.390  12.097  0.2605 -0.0731  0.7373
 5003SOL    HW126468   1.570   4.405  12.016  0.4889  1.6082  1.1833
 5003SOL    HW226469   1.444   4.446  12.091  0.7967  0.3572 -2.0566
 5004SOL     OW26470   4.362   1.900   7.414  0.2496 -0.0378  0.6806
 5004SOL    HW126471   4.442   1.876   7.368 -1.1525 -1.7478 -0.8582
 5004SOL    HW226472   4.393   1.889   7.504  3.4714 -0.4037 -0.4917
 5005SOL     OW26473   4.678   4.455   6.159 -0.6421  0.0672 -0.2365
 5005SOL    HW126474   0.040   4.496   6.177 -0.1144 -1.0339 -0.2038
 5005SOL    HW226475   4.664   4.494   6.073 -1.6938 -0.4598 -0.3062
 5006SOL     OW26476   1.934   1.773   3.769  0.4953 -0.3651 -0.0207
 5006SOL    HW126477   2.003   1.708   3.783 -1.3688 -2.4369 -0.4889
 5006SOL    HW226478   1.857   1.741   3.817  0.5955 -1.4810 -0.6239
 5007SOL     OW26479   2.171   4.419   7.134  0.3054 -0.1311  0.0711
 5007SOL    HW126480   2.093   4.471   7.150 -0.3732 -1.5869  1.4690
 5007SOL    HW226481   2.190   4.441   7.042  0.8247  0.0203  0.2132
 5008SOL     OW26482   2.090   3.745   8.242  0.2471  0.1920 -0.1194
 5008SOL    HW126483   2.023   3.678   8.248  0.4580 -0.0082  0.0178
 5008SOL    HW226484   2.095   3.744   8.146  0.9933 -0.2084 -0.0747
 5009SOL     OW26485   2.358   4.066   7.631 -0.3100 -0.0584  0.4946
 5009SOL    HW126486   2.406   4.094   7.708  2.9221 -0.2864 -1.4402
 5009SOL    HW226487   2.277   4.031   7.668 -1.9551  3.1996  0.0011
 5010SOL     OW26488   2.475   2.710   9.125 -0.2454 -0.2304  0.0455
 5010SOL    HW126489   2.445   2.655   9.198 -1.6067 -1.8088 -1.7184
 5010SOL    HW226490   2.481   2.653   9.049  0.8483  2.8747 -2.1608
 5011SOL     OW26491   0.829   3.329   5.318  0.1534 -0.3297 -0.3354
 5011SOL    HW126492   0.749   3.345   5.369  0.7861  0.8860  0.2704
 5011SOL    HW226493   0.879   3.404   5.350 -1.1190  0.4535 -0.1797
 5012SOL     OW26494   0.430   0.880  14.807  0.6875 -0.0958 -1.1415
 5012SOL    HW126495   0.479   0.855  14.886  0.2383  1.0081 -0.5174
 5012SOL    HW226496   0.355   0.825  14.828  0.1803  0.5634 -1.2551
 5013SOL     OW26497   3.135   2.263   0.694  0.1576  0.0500  0.0377
 5013SOL    HW126498   3.077   2.192   0.666  1.2972 -0.0439 -2.1515
 5013SOL    HW226499   3.145   2.309   0.611 -0.9947  1.2139  0.5591
 5014SOL     OW26500   1.014   4.646   8.018 -0.0829 -0.3759  0.4177
 5014SOL    HW126501   0.974   0.000   8.058  1.0051  0.2883  0.2390
 5014SOL    HW226502   1.023   4.589   8.095  0.2698  0.5010  1.0226
 5015SOL     OW26503   4.618   2.666   4.697  0.6430  0.1187  0.0830
 5015SOL    HW126504   4.689   2.647   4.759  0.9526 -0.4273 -0.4532
 5015SOL    HW226505   4.564   2.588   4.708 -1.3066  1.5812  1.0902
 5016SOL     OW26506   2.829   0.461   7.030  0.0223  1.1197  0.2943
 5016SOL    HW126507   2.899   0.471   6.966  0.2170 -0.8349  0.1839
 5016SOL    HW226508   2.887   0.461   7.107 -0.4845  0.9533  0.6759
 5017SOL     OW26509   2.479   1.112   8.253 -0.3314 -0.3198 -0.0382
 5017SOL    HW126510   2.506   1.182   8.314 -1.1524 -1.1724  1.3038
 5017SOL    HW226511   2.397   1.093   8.299 -0.8104  1.3401 -0.1995
 5018SOL     OW26512   0.599   4.169   3.084 -0.1176  0.0245 -0.4177
 5018SOL    HW126513   0.669   4.225   3.051 -0.1917  0.8071  0.7719
 5018SOL    HW226514   0.656   4.106   3.128 -2.5842 -0.9684  1.3602
 5019SOL     OW26515   1.600   3.632   7.030  0.4717  0.5577 -0.4625
 5019SOL    HW126516   1.642   3.677   7.103 -2.5738 -0.9916  2.2743
 5019SOL    HW226517   1.524   3.686   7.006 -0.0923  0.5873  1.3827
 5020SOL     OW26518   0.505   0.451   3.209  0.0629  0.2462 -0.6932
 5020SOL    HW126519   0.585   0.416   3.170  0.2459  0.3372 -0.3978
 5020SOL    HW226520   0.440   0.384   3.187 -1.1565  0.9321  0.8842
 5021SOL     OW26521   3.916   0.978   0.256 -0.4390 -0.2171 -0.0220
 5021SOL    HW126522   3.991   1.027   0.289  0.0249 -1.6763  1.0709
 5021SOL    HW226523   3.855   0.991   0.328  0.5544  0.3828  0.6985
 5022SOL     OW26524   3.958   1.680   3.410  0.0766  0.4036 -0.4238
 5022SOL    HW126525   4.029   1.644   3.356  0.7531  0.1019  0.6602
 5022SOL    HW226526   3.941   1.600   3.459  0.7185 -0.7652 -2.0994
 5023SOL     OW26527   3.367   1.359   8.980 -0.3808  0.5040  0.2856
 5023SOL    HW126528   3.347   1.371   9.073 -0.7307 -0.1363  0.2897
 5023SOL    HW226529   3.445   1.304   8.982  0.3116  1.5072  1.1465
 5024SOL     OW26530   1.077   2.285   2.480  1.1228 -0.0962  0.0189
 5024SOL    HW126531   1.020   2.316   2.409  1.4264 -0.1620 -0.2506
 5024SOL    HW226532   1.013   2.285   2.552  2.2667 -3.3744  0.9966
 5025SOL     OW26533   2.909   0.535   9.037 -0.1202 -0.4276 -0.6021
 5025SOL    HW126534   2.991   0.486   9.050 -0.3686 -0.2468  1.7016
 5025SOL    HW226535   2.882   0.538   9.129 -2.3473  0.2038 -1.2928
 5026SOL     OW26536   1.036   4.656   3.416  0.8369 -0.0590 -0.1542
 5026SOL    HW126537   1.069   0.022   3.431  1.7256 -0.2991 -0.6652
 5026SOL    HW226538   1.024   4.635   3.509  0.2012  2.4150  0.3191
 5027SOL     OW26539   2.269   2.348   2.681 -0.1622  0.3036 -0.4430
 5027SOL    HW126540   2.277   2.310   2.593 -0.4199  0.8524 -0.7059
 5027SOL    HW226541   2.198   2.293   2.714  0.5282  0.6213  1.5863
 5028SOL     OW26542   3.369   2.435   6.757  0.3607  0.1494 -0.5455
 5028SOL    HW126543   3.412   2.350   6.744 -0.8691 -1.2012  4.2346
 5028SOL    HW226544   3.446   2.489   6.740 -0.3191  1.4045  0.3295
 5029SOL     OW26545   0.550   2.237   5.937  0.0952 -0.5379 -0.8510
 5029SOL    HW126546   0.488   2.166   5.958 -0.1681 -0.1812 -0.4371
 5029SOL    HW226547   0.631   2.201   5.973 -0.3166 -0.0221  0.5620
 5030SOL     OW26548   3.696   3.695   6.756 -0.0681 -0.9755  0.0354
 5030SOL    HW126549   3.656   3.687   6.842  0.7752  0.8916  0.5804
 5030SOL    HW226550   3.619   3.676   6.701 -0.9964 -0.5449  1.1920
 5031SOL     OW26551   0.930   4.468  14.725  0.3587  0.5277 -0.0058
 5031SOL    HW126552   1.016   4.440  14.693 -0.4592 -1.9165 -0.0309
 5031SOL    HW226553   0.956   4.560  14.735 -3.2310  1.5972 -0.6118
 5032SOL     OW26554   4.660   0.508   3.612  0.0976 -0.0504  0.4624
 5032SOL    HW126555   4.689   0.557   3.689  0.2783 -0.7780  0.8564
 5032SOL    HW226556   4.651   0.421   3.650  0.6095 -0.1782  0.2839
 5033SOL     OW26557   0.907   2.483   4.500  0.1857 -0.6220 -0.2519
 5033SOL    HW126558   0.837   2.454   4.558  0.3352  1.5669  1.0262
 5033SOL    HW226559   0.954   2.403   4.479  0.7224 -0.8103  1.6318
 5034SOL     OW26560   0.063   3.258  16.629 -0.1116  0.1185  0.3724
 5034SOL    HW126561   0.107   3.263  16.714  0.7584  1.5573 -0.1682
 5034SOL    HW226562   0.093   3.343  16.598 -0.0294 -0.2850 -0.6445
 5035SOL     OW26563   4.456   4.240   4.480 -0.2032  0.3221  0.2211
 5035SOL    HW126564   4.366   4.257   4.510 -1.6117 -3.5492 -1.8359
 5035SOL    HW226565   4.492   4.327   4.465  1.7833 -0.3771  0.9408
 5036SOL     OW26566   1.037   0.415   8.046 -0.0227 -0.3205  0.4353
 5036SOL    HW126567   0.957   0.431   7.995  0.3019 -1.3720 -0.4213
 5036SOL    HW226568   1.075   0.500   8.064 -0.6421 -0.3939  2.0869
 5037SOL     OW26569   2.270   0.880   9.042 -0.2056  0.4084 -0.0824
 5037SOL    HW126570   2.315   0.964   9.049  0.1859  0.2490 -0.6587
 5037SOL    HW226571   2.195   0.893   9.100 -0.6050 -1.2334 -0.2207
 5038SOL     OW26572   0.227   2.078   5.881 -0.5099  0.5314  0.4912
 5038SOL    HW126573   0.137   2.081   5.915 -0.7809  0.1072 -0.1834
 5038SOL    HW226574   0.263   1.993   5.908 -1.4855 -0.1571 -0.3626
 5039SOL     OW26575   4.496   2.723   7.315 -0.1611  0.1385 -0.4053
 5039SOL    HW126576   4.499   2.659   7.386 -0.4202  0.2934 -0.2514
 5039SOL    HW226577   4.461   2.802   7.357 -1.1089 -0.0207 -0.8954
 5040SOL     OW26578   1.949   2.582   8.062  0.0464 -0.5987 -0.2653
 5040SOL    HW126579   1.878   2.536   8.018  0.3326 -0.0710 -1.2619
 5040SOL    HW226580   2.021   2.558   8.004  0.7183  0.5001  0.1123
 5041SOL     OW26581   3.636   1.981   4.479 -0.1749  0.2898 -0.0774
 5041SOL    HW126582   3.583   1.937   4.413 -0.2753 -0.2887  0.3897
 5041SOL    HW226583   3.691   1.910   4.512 -0.5596  0.3319  0.6550
 5042SOL     OW26584   2.552   1.804   8.144 -0.3145  0.2594 -0.1517
 5042SOL    HW126585   2.623   1.796   8.207 -0.7434 -0.4549  0.2375
 5042SOL    HW226586   2.582   1.768   8.061  0.5863  0.2098  0.1991
 5043SOL     OW26587   0.062   3.643  17.215 -0.4007 -0.0171  0.3225
 5043SOL    HW126588   0.135   3.659  17.274 -1.3673  0.6667  1.3440
 5043SOL    HW226589   4.709   3.662  17.272 -2.5107  1.4526 -2.9342
 5044SOL     OW26590   4.576   3.276   8.337 -0.0806 -0.3606  0.2319
 5044SOL    HW126591   4.498   3.221   8.338  1.3808 -2.5825 -4.3779
 5044SOL    HW226592   4.606   3.261   8.426  2.6108 -2.1997 -0.9791
 5045SOL     OW26593   0.362   3.063  13.078  0.1545  0.0272 -0.1999
 5045SOL    HW126594   0.322   3.069  13.165 -0.5515  1.9536 -0.6464
 5045SOL    HW226595   0.366   2.969  13.061  1.9646 -0.2239  1.5986
 5046SOL     OW26596   1.704   1.942  13.701  0.1461 -0.1331 -0.4595
 5046SOL    HW126597   1.746   1.979  13.778 -0.1877 -0.0131 -0.3338
 5046SOL    HW226598   1.623   1.926  13.749  0.4936  2.0352  0.8364
 5047SOL     OW26599   1.207   4.452   0.767  0.9053 -0.1030  0.2661
 5047SOL    HW126600   1.279   4.389   0.772  2.5878  1.8237  0.2643
 5047SOL    HW226601   1.201   4.509   0.844 -1.0442  1.1063 -0.7521
 5048SOL     OW26602   2.638   2.504   9.369  0.0149  0.3171 -0.2664
 5048SOL    HW126603   2.691   2.480   9.292  0.4639 -0.1693  0.1921
 5048SOL    HW226604   2.565   2.442   9.359  1.1966 -1.2528  0.9090
 5049SOL     OW26605   4.619   2.036   2.295 -0.1651 -0.4929 -0.0298
 5049SOL    HW126606   4.538   1.988   2.310 -0.1851 -0.5533 -0.3207
 5049SOL    HW226607   4.682   1.968   2.270  0.1044  0.2570 -1.4261
 5050SOL     OW26608   0.334   3.031  11.378  0.0680 -0.6551  0.2925
 5050SOL    HW126609   0.411   3.009  11.430  1.8533  2.1603 -1.1207
 5050SOL    HW226610   0.265   2.974  11.411 -1.2139  0.8881  0.3026
 5051SOL     OW26611   1.568   3.751  11.413  0.3379  0.2313 -0.6050
 5051SOL    HW126612   1.548   3.659  11.393 -1.4757  0.9380 -2.0060
 5051SOL    HW226613   1.640   3.749  11.476  1.4719 -0.9174 -1.9380
 5052SOL     OW26614   0.457   3.853  17.409  0.2255  0.0257  0.5760
 5052SOL    HW126615   0.533   3.829  17.357 -0.4240 -1.0236  0.0905
 5052SOL    HW226616   0.468   3.946  17.424 -1.1421  0.2295  0.3706
 5053SOL     OW26617   1.658   0.196   6.340  0.2157  0.6585 -0.3317
 5053SOL    HW126618   1.583   0.250   6.366  1.4424  1.8443  0.7339
 5053SOL    HW226619   1.726   0.217   6.405  1.3656 -0.4839 -1.1695
 5054SOL     OW26620   1.387   2.284   6.636 -0.6593 -0.6529  0.2286
 5054SOL    HW126621   1.298   2.248   6.634 -1.0891  0.4978 -1.5958
 5054SOL    HW226622   1.375   2.365   6.685 -0.1558 -0.0297 -0.6800
 5055SOL     OW26623   0.998   1.655   5.289  0.4259  0.2218 -0.6501
 5055SOL    HW126624   1.090   1.646   5.313  0.4605 -1.6988 -1.5236
 5055SOL    HW226625   0.993   1.749   5.272  0.5627  0.6194  1.4302
 5056SOL     OW26626   1.172   3.134   0.199 -0.4179 -0.2958  0.3271
 5056SOL    HW126627   1.232   3.163   0.130  0.6534 -1.8013  0.6171
 5056SOL    HW226628   1.167   3.211   0.256  1.5269 -0.3570  0.5818
 5057SOL     OW26629   1.989   1.547   6.051  0.6499 -0.1335 -0.2638
 5057SOL    HW126630   1.972   1.453   6.049 -1.3451  0.2352 -1.0579
 5057SOL    HW226631   1.913   1.588   6.009  0.2817  1.2133  1.7099
 5058SOL     OW26632   0.668   3.017   3.951  0.3172  0.1614  0.1960
 5058SOL    HW126633   0.585   2.971   3.964  1.3742 -2.4662 -2.4073
 5058SOL    HW226634   0.693   3.032   4.042  0.6956  3.0375 -0.3848
 5059SOL     OW26635   4.693   4.440   1.546  0.4294 -0.5352  0.0653
 5059SOL    HW126636   0.002   4.497   1.476  1.7836  1.2871  2.1834
 5059SOL    HW226637   4.686   4.507   1.613  0.2550 -0.7633  0.2772
 5060SOL     OW26638   3.199   2.602   8.702 -0.4444  0.3184  0.0533
 5060SOL    HW126639   3.147   2.549   8.642  1.7179 -0.5417 -1.0432
 5060SOL    HW226640   3.286   2.576   8.672 -0.9363 -1.8305  0.4671
 5061SOL     OW26641   1.971   4.635  12.027 -0.4662 -0.0835 -0.0096
 5061SOL    HW126642   2.018   4.710  12.062 -0.3088  0.1648 -0.7443
 5061SOL    HW226643   2.037   4.589  11.975 -1.5744 -1.3319 -0.3250
 5062SOL     OW26644   0.912   2.154   5.185 -0.0084 -0.1113 -0.0897
 5062SOL    HW126645   0.997   2.198   5.175 -0.6266  0.9541 -0.6854
 5062SOL    HW226646   0.900   2.108   5.102  0.5607 -0.5048  0.0446
 5063SOL     OW26647   1.793   2.192   8.140 -0.4968  0.1603  0.3236
 5063SOL    HW126648   1.878   2.225   8.168 -0.2804 -2.0594  2.2440
 5063SOL    HW226649   1.779   2.255   8.069 -0.6288  2.1667  2.1019
 5064SOL     OW26650   3.436   3.213   7.554  0.1238  0.5142  0.1812
 5064SOL    HW126651   3.381   3.234   7.629  1.4359  1.9711  0.7452
 5064SOL    HW226652   3.378   3.242   7.483  0.8311 -0.7434 -0.9129
 5065SOL     OW26653   2.597   3.856   1.582 -0.2870  0.4686 -0.1666
 5065SOL    HW126654   2.520   3.800   1.576  0.3310 -0.3439 -0.4791
 5065SOL    HW226655   2.576   3.933   1.635 -0.2829 -0.1714  0.7739
 5066SOL     OW26656   3.546   1.256   7.190 -0.4922  0.4040 -0.7810
 5066SOL    HW126657   3.622   1.205   7.165 -0.3741 -0.9592  2.3509
 5066SOL    HW226658   3.484   1.238   7.120  0.1094 -1.6880 -0.7460
 5067SOL     OW26659   3.575   0.218   6.360 -0.0285 -0.3190  0.1301
 5067SOL    HW126660   3.627   0.207   6.440  0.7761  1.5805 -0.1388
 5067SOL    HW226661   3.574   0.313   6.371  0.8029  0.1632 -3.7075
 5068SOL     OW26662   4.492   1.305   5.132  0.2564  0.0386  0.7927
 5068SOL    HW126663   4.415   1.340   5.176 -0.2036  2.0177 -1.5582
 5068SOL    HW226664   4.451   1.266   5.055 -1.5219  1.3385  1.0823
 5069SOL     OW26665   2.657   4.617   6.380  0.2660 -0.2730  0.0969
 5069SOL    HW126666   2.651   4.667   6.299  0.0422  1.2172  1.0364
 5069SOL    HW226667   2.566   4.594   6.398 -0.4913  2.5179 -0.0899
 5070SOL     OW26668   0.895   3.402  10.921 -0.0290 -0.3761  0.0557
 5070SOL    HW126669   0.951   3.330  10.948  0.9487 -0.2964 -1.7412
 5070SOL    HW226670   0.917   3.467  10.988 -1.1707  0.2097 -0.1274
 5071SOL     OW26671   4.614   2.572  11.471  0.2076  0.3895 -0.1041
 5071SOL    HW126672   4.555   2.557  11.545  0.1416  1.2958  0.0277
 5071SOL    HW226673   4.698   2.531  11.492 -0.5340 -0.9446  0.2933
 5072SOL     OW26674   3.868   2.852   8.523  0.6532  0.1417  0.1340
 5072SOL    HW126675   3.904   2.781   8.576 -0.5745  0.2029  1.0573
 5072SOL    HW226676   3.898   2.921   8.583  0.1516 -0.6052  1.2383
 5073SOL     OW26677   1.286   2.311  11.791 -0.3169  0.1994 -0.4038
 5073SOL    HW126678   1.206   2.363  11.781 -1.1671 -0.9558  0.3964
 5073SOL    HW226679   1.355   2.376  11.781  0.0537 -0.1495 -0.0993
 5074SOL     OW26680   2.208   2.540  15.362  0.4174  0.4029  0.2981
 5074SOL    HW126681   2.249   2.580  15.286 -0.1083  1.2079  0.4357
 5074SOL    HW226682   2.266   2.463  15.359  0.2268  0.1734  2.1780
 5075SOL     OW26683   0.457   2.861   4.022 -0.2429  0.9413  0.5477
 5075SOL    HW126684   0.384   2.878   3.962 -0.4521 -0.5090  0.3928
 5075SOL    HW226685   0.502   2.794   3.971 -1.2171  0.0053  0.8996
 5076SOL     OW26686   1.168   2.483  12.014  0.1363 -0.4587 -0.1423
 5076SOL    HW126687   1.121   2.566  12.023  0.3339 -0.1970 -1.4681
 5076SOL    HW226688   1.251   2.522  12.042 -0.1080  0.3061 -0.4673
 5077SOL     OW26689   3.905   4.261   0.694  0.2872  0.2982 -0.2013
 5077SOL    HW126690   3.959   4.281   0.618  0.8575  0.7006  0.3169
 5077SOL    HW226691   3.953   4.191   0.739  0.8214  1.1735  0.5663
 5078SOL     OW26692   1.642   0.823   5.555 -0.2843 -0.0301 -0.1659
 5078SOL    HW126693   1.721   0.797   5.508 -2.1893 -0.1890 -3.2787
 5078SOL    HW226694   1.584   0.757   5.517  2.4160 -1.6365 -1.5295
 5079SOL     OW26695   3.962   1.173  11.967  0.0998  0.5420 -0.0344
 5079SOL    HW126696   3.907   1.188  12.044 -1.4382 -0.5150 -0.9131
 5079SOL    HW226697   3.988   1.082  11.983  1.8450  0.9790 -0.3714
 5080SOL     OW26698   3.722   3.969   2.647 -0.1309 -0.1638 -0.2053
 5080SOL    HW126699   3.702   4.027   2.573 -1.4106  0.0089  0.2739
 5080SOL    HW226700   3.777   4.030   2.696  0.8979  0.3571 -1.9962
 5081SOL     OW26701   1.356   4.619   1.131 -0.0965  0.1861 -0.3498
 5081SOL    HW126702   1.312   4.632   1.047  0.4975  0.7828 -0.5616
 5081SOL    HW226703   1.353   4.525   1.147  1.3200  0.2237  0.0945
 5082SOL     OW26704   3.363   1.132   3.223  0.1643 -0.4243  0.1186
 5082SOL    HW126705   3.361   1.132   3.319 -1.4799  1.4443  0.0824
 5082SOL    HW226706   3.311   1.056   3.198 -1.5420  1.3893 -1.8320
 5083SOL     OW26707   3.480   3.295   5.896  0.2067 -0.0309  0.4497
 5083SOL    HW126708   3.556   3.337   5.857 -0.3515  1.2934  0.7996
 5083SOL    HW226709   3.425   3.272   5.821 -2.2961 -0.3362  2.3823
 5084SOL     OW26710   1.904   0.854   7.963 -0.6729 -0.0607  0.1281
 5084SOL    HW126711   1.835   0.919   7.951  0.1368  0.9841  1.1732
 5084SOL    HW226712   1.981   0.908   7.974 -1.3576  1.0695 -0.6667
 5085SOL     OW26713   0.857   2.332   6.465  0.4271  0.0878 -0.4006
 5085SOL    HW126714   0.781   2.376   6.429  0.5864 -0.5681 -1.5458
 5085SOL    HW226715   0.879   2.267   6.397  3.5083 -1.5436  2.1367
 5086SOL     OW26716   0.149   0.262  13.795 -0.1726 -0.3897  0.0521
 5086SOL    HW126717   0.072   0.299  13.840 -0.5923 -0.1459 -0.8527
 5086SOL    HW226718   0.147   0.302  13.708 -1.7236 -1.3746 -0.3774
 5087SOL     OW26719   3.917   1.611  16.499  0.1631 -0.4111 -0.1134
 5087SOL    HW126720   3.958   1.587  16.416  1.2478 -0.0841  0.3283
 5087SOL    HW226721   3.915   1.524  16.538 -0.0503 -0.0507  0.6760
 5088SOL     OW26722   1.461   0.099   1.874 -1.0183  0.5865  0.4501
 5088SOL    HW126723   1.480   0.120   1.783 -1.4560 -1.1360 -0.0349
 5088SOL    HW226724   1.513   0.165   1.920 -0.2493  0.3832 -0.1365
 5089SOL     OW26725   1.703   2.775   3.429 -0.2356 -0.0047  0.1031
 5089SOL    HW126726   1.624   2.827   3.441 -0.8575 -0.7092 -0.9115
 5089SOL    HW226727   1.674   2.703   3.485 -0.3364 -0.7841 -0.9514
 5090SOL     OW26728   2.337   2.736   5.638  0.2867  0.0530  0.1266
 5090SOL    HW126729   2.401   2.795   5.599  2.3821 -1.5979  1.0597
 5090SOL    HW226730   2.389   2.656   5.636  0.7647  0.4353 -2.3170
 5091SOL     OW26731   1.022   3.717   2.136  0.6656 -0.4349  0.1517
 5091SOL    HW126732   1.082   3.742   2.207 -0.1366 -2.2329  1.4578
 5091SOL    HW226733   0.955   3.680   2.193 -1.0271  2.2332 -0.0747
 5092SOL     OW26734   2.793   3.172   9.502  0.2642 -0.5623 -0.1231
 5092SOL    HW126735   2.745   3.150   9.421  0.1786  0.5676 -0.3792
 5092SOL    HW226736   2.796   3.094   9.557  0.6142 -1.0916 -0.8838
 5093SOL     OW26737   3.200   1.025   9.182  0.5585 -0.2871  0.1219
 5093SOL    HW126738   3.293   1.010   9.165  0.5443 -2.0912  1.6441
 5093SOL    HW226739   3.152   0.946   9.159  1.6714 -0.6119 -1.1624
 5094SOL     OW26740   2.994   1.913   7.888 -0.4257  0.0952 -0.0991
 5094SOL    HW126741   2.968   1.826   7.919  2.1699 -0.7013 -0.1629
 5094SOL    HW226742   2.982   1.961   7.970  1.6951 -0.1394  0.3570
 5095SOL     OW26743   0.958   1.818  12.750 -0.1495 -0.2536  0.5177
 5095SOL    HW126744   0.947   1.908  12.779 -1.5883 -0.8716  1.8511
 5095SOL    HW226745   0.997   1.830  12.663  2.2619  0.1575  1.6397
 5096SOL     OW26746   1.357   0.192   8.107  0.2369 -0.4272  0.5098
 5096SOL    HW126747   1.377   0.284   8.119 -0.2341 -0.4670  1.5654
 5096SOL    HW226748   1.276   0.186   8.157 -0.4209 -1.5310 -0.6718
 5097SOL     OW26749   1.356   1.895   2.681 -0.3436  0.0900  0.5667
 5097SOL    HW126750   1.364   1.977   2.633  0.8658 -0.0804  0.4556
 5097SOL    HW226751   1.445   1.876   2.712  0.2421 -2.4430 -2.6475
 5098SOL     OW26752   0.343   3.826   8.510 -0.2378 -0.1263  0.6653
 5098SOL    HW126753   0.431   3.789   8.501 -1.0426 -2.1422  1.0644
 5098SOL    HW226754   0.310   3.751   8.559  0.0310  0.0470  1.1098
 5099SOL     OW26755   4.031   0.705   4.868  0.5590  0.1361  0.1092
 5099SOL    HW126756   4.057   0.619   4.835  2.2795  1.1037 -1.0535
 5099SOL    HW226757   4.080   0.701   4.950 -0.2562 -1.8851  0.4928
 5100SOL     OW26758   4.487   4.668  12.566  0.5006  0.5840 -0.6873
 5100SOL    HW126759   4.457   4.706  12.483  1.1419  1.6060 -0.4452
 5100SOL    HW226760   4.402   4.637  12.597  0.2940  2.2233  0.4104
 5101SOL     OW26761   1.845   1.371   8.356  0.2650 -0.3610 -0.2759
 5101SOL    HW126762   1.861   1.369   8.261  2.4489  0.7360  0.0626
 5101SOL    HW226763   1.929   1.406   8.387 -0.7899 -0.3773  2.5499
 5102SOL     OW26764   3.847   1.021   2.556  0.0479 -0.1814 -0.6375
 5102SOL    HW126765   3.924   0.992   2.508 -1.2049 -1.5391 -1.8532
 5102SOL    HW226766   3.817   1.077   2.485 -2.0283 -0.8673 -0.3066
 5103SOL     OW26767   2.129   4.608  15.722 -0.4187 -0.6510  0.4020
 5103SOL    HW126768   2.147   4.514  15.717 -2.6524 -1.0275 -0.4880
 5103SOL    HW226769   2.220   4.639  15.714 -0.4937 -0.4311  0.4121
 5104SOL     OW26770   1.485   0.400   6.466 -0.0779  0.2284  0.1984
 5104SOL    HW126771   1.553   0.420   6.531  0.2418 -1.4393  0.3791
 5104SOL    HW226772   1.457   0.488   6.441 -0.2577  0.4531  1.1597
 5105SOL     OW26773   2.415   0.657  10.352 -0.1642  1.0503 -0.2231
 5105SOL    HW126774   2.342   0.718  10.342 -0.8006  0.3397  0.0710
 5105SOL    HW226775   2.417   0.612  10.268 -3.3224  0.7797 -0.1613
 5106SOL     OW26776   1.284   4.590  13.458  0.4769  0.1652 -0.2457
 5106SOL    HW126777   1.325   4.527  13.517 -0.8535  0.5936  1.1332
 5106SOL    HW226778   1.325   4.564  13.375  1.7865 -1.7022  0.9884
 5107SOL     OW26779   4.334   0.497   8.002  0.0512 -0.2932 -0.0279
 5107SOL    HW126780   4.420   0.460   7.981 -0.5067 -2.4727  1.5531
 5107SOL    HW226781   4.336   0.518   8.095  1.0989 -3.8891  0.7527
 5108SOL     OW26782   2.895   1.650  10.768 -0.2677  0.2449  0.0086
 5108SOL    HW126783   2.884   1.572  10.821 -3.0722 -0.0837 -1.0213
 5108SOL    HW226784   2.803   1.677  10.767  0.9666  4.5063 -0.0887
 5109SOL     OW26785   2.759   4.563   5.599 -0.0268 -0.3148 -0.4526
 5109SOL    HW126786   2.682   4.597   5.555 -0.6841  1.2354  1.8654
 5109SOL    HW226787   2.757   4.468   5.585  2.8192 -0.5274  0.4727
 5110SOL     OW26788   0.102   1.168  10.664 -0.3829  0.2104  0.3512
 5110SOL    HW126789   0.027   1.116  10.695 -0.7841 -0.3097 -1.5252
 5110SOL    HW226790   0.119   1.125  10.581  0.0914 -0.8760  1.0078
 5111SOL     OW26791   2.192   4.089   4.943  0.7629 -0.2379 -0.8437
 5111SOL    HW126792   2.174   4.070   4.851 -2.0293 -3.0642  0.2905
 5111SOL    HW226793   2.116   4.051   4.986  0.7248 -1.4907 -2.0249
 5112SOL     OW26794   3.323   2.205   8.135 -0.1190 -0.2357 -0.9027
 5112SOL    HW126795   3.384   2.271   8.102 -1.7519  2.0163  0.5918
 5112SOL    HW226796   3.310   2.245   8.221  0.3401  3.2606 -2.4738
 5113SOL     OW26797   0.361   4.324   0.826 -0.2262  0.3416 -0.1620
 5113SOL    HW126798   0.401   4.409   0.843 -1.5170  1.1320 -1.0296
 5113SOL    HW226799   0.340   4.349   0.736  1.9191 -2.1294 -1.3427
 5114SOL     OW26800   3.648   1.710   6.023  0.5329  0.3398 -0.1459
 5114SOL    HW126801   3.568   1.723   5.973 -0.7330 -0.7128  1.6076
 5114SOL    HW226802   3.674   1.626   5.983 -0.1301  0.0551  0.0348
 5115SOL     OW26803   0.089   0.527   9.337 -0.8250 -0.3852  0.0480
 5115SOL    HW126804   0.014   0.584   9.354 -0.9344 -1.4855  3.2483
 5115SOL    HW226805   0.144   0.557   9.409 -3.3596  0.1624  1.7479
 5116SOL     OW26806   3.813   3.604   3.575 -0.0370 -0.0376 -0.2992
 5116SOL    HW126807   3.776   3.579   3.660 -0.5775 -1.8933 -1.0798
 5116SOL    HW226808   3.817   3.698   3.593  0.1797 -0.0479 -0.2975
 5117SOL     OW26809   3.284   0.711   4.430  0.1700  0.4896  0.2315
 5117SOL    HW126810   3.355   0.771   4.456  0.6142 -0.0462  0.2525
 5117SOL    HW226811   3.249   0.765   4.360 -0.5318  0.6197  0.6828
 5118SOL     OW26812   1.591   4.429   5.191 -0.0435  0.0014 -0.0975
 5118SOL    HW126813   1.603   4.482   5.112 -0.4137  3.2010  1.9681
 5118SOL    HW226814   1.553   4.351   5.151  1.3445 -0.4167 -0.6064
 5119SOL     OW26815   4.453   1.409   6.453  0.7144 -0.0289 -0.0298
 5119SOL    HW126816   4.391   1.344   6.487 -2.8476  3.9746  1.1194
 5119SOL    HW226817   4.481   1.457   6.530 -4.4131  1.7808  0.6707
 5120SOL     OW26818   0.242   0.777   3.368  0.5339 -0.6226  0.1648
 5120SOL    HW126819   0.215   0.806   3.455 -1.6269 -0.4182 -0.5816
 5120SOL    HW226820   0.182   0.702   3.362 -1.3281  0.7506  1.5479
 5121SOL     OW26821   2.826   1.708   3.310 -0.0952 -0.2435 -0.0085
 5121SOL    HW126822   2.767   1.731   3.239  0.4940 -0.5771 -0.6131
 5121SOL    HW226823   2.886   1.782   3.317 -1.6936  0.8683  1.9312
 5122SOL     OW26824   0.975   2.591  13.855 -0.0451 -0.0494  0.6295
 5122SOL    HW126825   1.018   2.602  13.940 -0.5782 -3.4624  1.3586
 5122SOL    HW226826   0.887   2.626  13.873 -0.1837 -0.5029  0.8351
 5123SOL     OW26827   3.422   1.331   2.575 -0.2780 -0.1413  0.3338
 5123SOL    HW126828   3.341   1.380   2.570 -0.0400  0.3110  0.8182
 5123SOL    HW226829   3.421   1.284   2.659 -1.9008  0.5984  0.7278
 5124SOL     OW26830   4.438   4.354   5.844  0.3768  0.1537  0.5201
 5124SOL    HW126831   4.361   4.318   5.887  0.3633 -1.6626 -1.0063
 5124SOL    HW226832   4.455   4.289   5.775 -0.0217  2.1023 -1.4347
 5125SOL     OW26833   2.545   4.602   5.045 -0.1513 -0.3853  0.1410
 5125SOL    HW126834   2.463   4.570   5.010 -0.5464 -0.3381  1.0248
 5125SOL    HW226835   2.531   4.696   5.056  0.5661 -0.4358  1.5003
 5126SOL     OW26836   4.295   2.608   2.167  0.3218  0.0303 -0.1785
 5126SOL    HW126837   4.307   2.515   2.187 -2.2039 -0.7926 -2.4830
 5126SOL    HW226838   4.292   2.599   2.072  1.6140 -0.5919 -0.1599
 5127SOL     OW26839   4.153   3.978   1.862 -0.3742  0.0056  0.9562
 5127SOL    HW126840   4.209   3.904   1.886 -2.3742 -1.5804  0.7351
 5127SOL    HW226841   4.221   4.044   1.874  0.4344 -0.2428 -2.0284
 5128SOL     OW26842   2.277   3.439   6.164 -0.4728 -0.4114  0.2533
 5128SOL    HW126843   2.254   3.354   6.127 -1.1075 -0.4949  0.8393
 5128SOL    HW226844   2.323   3.410   6.243  2.3982 -0.0179 -1.2494
 5129SOL     OW26845   3.168   2.930   2.087 -0.0256  0.1028 -0.0118
 5129SOL    HW126846   3.078   2.963   2.090 -0.0992 -0.0533 -0.6535
 5129SOL    HW226847   3.164   2.878   2.168 -1.6297 -0.3628 -0.3983
 5130SOL     OW26848   1.489   3.343   2.185  0.3751 -0.7482 -0.0753
 5130SOL    HW126849   1.427   3.278   2.218 -1.7061 -0.1410 -2.7804
 5130SOL    HW226850   1.455   3.345   2.096 -3.2863  1.1781  1.4007
 5131SOL     OW26851   4.259   4.441   7.264  0.5146 -0.2958 -0.2386
 5131SOL    HW126852   4.285   4.523   7.305  0.6047  0.6745 -2.2386
 5131SOL    HW226853   4.201   4.409   7.333  2.6737 -3.1508  0.2584
 5132SOL     OW26854   1.312   2.832  14.958  0.4025 -0.7677 -0.5398
 5132SOL    HW126855   1.392   2.787  14.930 -0.1950 -0.4716 -2.7238
 5132SOL    HW226856   1.276   2.780  15.030  0.2686  0.0710 -0.0071
 5133SOL     OW26857   0.585   2.961   5.661  0.2002 -0.1169  0.6114
 5133SOL    HW126858   0.576   2.866   5.669  2.3345 -0.2424  1.5381
 5133SOL    HW226859   0.562   2.996   5.748 -2.1726 -0.1975  0.0013
 5134SOL     OW26860   0.685   3.013   8.133  0.1936  0.1828 -0.1849
 5134SOL    HW126861   0.606   3.030   8.083  1.1293 -0.0304 -1.7411
 5134SOL    HW226862   0.645   2.951   8.195 -1.1192  1.6044  0.3781
 5135SOL     OW26863   0.476   4.016   2.179 -0.1033  0.1851  0.4212
 5135SOL    HW126864   0.428   3.933   2.184  0.3228 -0.1206 -0.5278
 5135SOL    HW226865   0.551   3.986   2.229 -0.8920  2.9811  3.3377
 5136SOL     OW26866   4.531   2.635  17.656  0.7440  0.1152  0.0242
 5136SOL    HW126867   4.561   2.642  17.565  1.6387 -2.3120  0.1284
 5136SOL    HW226868   4.549   2.546  17.687 -0.2139  1.0090  3.0643
 5137SOL     OW26869   0.540   0.008   7.565  0.2929  0.2562  0.0003
 5137SOL    HW126870   0.601   0.043   7.501 -1.8430  2.3022 -0.9139
 5137SOL    HW226871   0.603   4.706   7.633  0.7148  0.9166 -0.1490
 5138SOL     OW26872   1.168   1.566  10.054  0.3253  0.4237  0.1000
 5138SOL    HW126873   1.172   1.494   9.991 -1.2852 -0.5405  1.1137
 5138SOL    HW226874   1.181   1.521  10.137 -0.1441 -0.0784 -0.0984
 5139SOL     OW26875   2.783   2.647   6.796  0.5295 -0.3642 -0.3418
 5139SOL    HW126876   2.810   2.675   6.708  2.3778 -0.3879  0.2245
 5139SOL    HW226877   2.872   2.654   6.831  0.8841 -2.1655 -0.8651
 5140SOL     OW26878   0.059   4.104   5.058 -0.4432 -0.4653 -0.3011
 5140SOL    HW126879   4.692   4.131   5.076  0.1799  0.3217  1.5710
 5140SOL    HW226880   0.101   4.112   5.143  1.2736 -3.3428 -0.8511
 5141SOL     OW26881   3.071   0.162   7.030  0.9450  0.2512 -0.0668
 5141SOL    HW126882   3.027   0.108   7.096 -1.3861  2.9864  0.6167
 5141SOL    HW226883   3.001   0.212   6.989 -0.5273 -1.7596 -0.0606
 5142SOL     OW26884   3.755   2.342   3.651  0.1269  0.3994  0.2769
 5142SOL    HW126885   3.794   2.256   3.636  0.2663  0.1833  1.8956
 5142SOL    HW226886   3.801   2.398   3.589  0.9966 -0.3796  0.2179
 5143SOL     OW26887   1.579   1.100   2.110  0.2524  0.1923 -0.1059
 5143SOL    HW126888   1.549   1.167   2.049 -1.8927 -1.1786 -0.5325
 5143SOL    HW226889   1.508   1.104   2.174 -0.6127  1.8050 -1.1663
 5144SOL     OW26890   0.877   1.052   5.187  0.0628 -0.3286 -0.2435
 5144SOL    HW126891   0.880   0.966   5.230  0.1136 -0.0152  0.3720
 5144SOL    HW226892   0.849   1.020   5.101 -0.7812 -2.0161  0.6533
 5145SOL     OW26893   0.918   2.474   4.948  0.3969 -0.1162  0.0833
 5145SOL    HW126894   0.869   2.459   4.868  0.0730 -0.5103  0.3587
 5145SOL    HW226895   1.009   2.454   4.926  0.0725  1.3339 -2.4856
 5146SOL     OW26896   1.426   3.290  15.179 -0.7074  0.3702 -0.1277
 5146SOL    HW126897   1.367   3.226  15.140 -0.0197 -1.8377  2.4873
 5146SOL    HW226898   1.512   3.253  15.157 -0.8125  0.7596 -1.2356
 5147SOL     OW26899   2.000   1.104   5.070 -0.3691 -0.4023 -0.0386
 5147SOL    HW126900   2.033   1.083   5.157 -0.5743 -0.4976  0.0175
 5147SOL    HW226901   2.077   1.151   5.039 -1.0831 -1.3436 -3.2301
 5148SOL     OW26902   0.635   1.505   4.736  0.1263 -0.3813  0.1519
 5148SOL    HW126903   0.684   1.447   4.677  0.6729  0.4438 -0.2088
 5148SOL    HW226904   0.565   1.529   4.676  0.1730  1.5365  0.8607
 5149SOL     OW26905   0.012   0.188   0.618 -0.1176  0.2719 -0.0106
 5149SOL    HW126906   0.016   0.103   0.573 -1.7349 -0.2227  0.7498
 5149SOL    HW226907   4.713   0.154   0.705  1.9228 -0.7342  0.1050
 5150SOL     OW26908   2.761   0.809   1.525 -0.1073  0.1687 -0.4002
 5150SOL    HW126909   2.710   0.890   1.530  0.5265  0.3907  2.5866
 5150SOL    HW226910   2.762   0.783   1.433  1.2067  0.7126 -0.5430
 5151SOL     OW26911   2.171   3.411   3.570  0.0743  0.3355 -0.2897
 5151SOL    HW126912   2.087   3.392   3.529 -0.7476  1.2033  1.0127
 5151SOL    HW226913   2.153   3.423   3.663 -3.1980  2.5332 -1.2435
 5152SOL     OW26914   2.560   3.636   6.212 -0.8156 -0.1056  0.3868
 5152SOL    HW126915   2.478   3.633   6.261 -0.6854 -2.6510  0.4702
 5152SOL    HW226916   2.543   3.706   6.150  0.3643 -1.8959 -1.9496
 5153SOL     OW26917   0.464   4.445   6.771  0.5252 -0.7566  0.3362
 5153SOL    HW126918   0.542   4.415   6.818  0.2946 -1.8678  0.0074
 5153SOL    HW226919   0.423   4.494   6.843 -1.0061  1.5155 -2.0886
 5154SOL     OW26920   1.917   0.873   5.730 -0.3398 -0.1016 -0.0262
 5154SOL    HW126921   1.839   0.824   5.758 -1.3163  0.4210 -1.8058
 5154SOL    HW226922   1.987   0.814   5.757  0.4460  0.5572 -0.6450
 5155SOL     OW26923   1.597   4.019   3.009  0.9838  0.4477 -0.3437
 5155SOL    HW126924   1.683   3.979   3.021  1.6543  1.7777 -0.6953
 5155SOL    HW226925   1.603   4.080   3.082  1.0518 -1.2478  1.0636
 5156SOL     OW26926   0.074   2.539   5.726  0.4247  0.2183 -0.3399
 5156SOL    HW126927   0.055   2.557   5.818  1.5454  0.0735 -0.0874
 5156SOL    HW226928   0.142   2.472   5.736 -0.6746 -1.1439 -1.9040
 5157SOL     OW26929   3.282   0.490   5.620 -0.5292 -0.4618  0.0052
 5157SOL    HW126930   3.240   0.501   5.705  0.1072  1.2334  0.1035
 5157SOL    HW226931   3.252   0.561   5.563 -0.0356  0.0580  0.3933
 5158SOL     OW26932   1.611   3.711   6.495 -0.0004  0.0496  0.2149
 5158SOL    HW126933   1.702   3.679   6.497  0.1331  0.5612  2.4167
 5158SOL    HW226934   1.585   3.688   6.405 -1.1688 -1.3803  0.9248
 5159SOL     OW26935   4.096   2.487   3.675  0.5610  0.1316  0.8308
 5159SOL    HW126936   4.041   2.484   3.598  0.1350 -2.9158  1.2364
 5159SOL    HW226937   4.180   2.525   3.651  1.6580 -1.0613  2.7273
 5160SOL     OW26938   0.925   1.801   4.453 -0.5427 -0.0760  0.1043
 5160SOL    HW126939   0.983   1.725   4.443 -0.5239  0.0834 -1.0693
 5160SOL    HW226940   0.975   1.845   4.522 -1.5221  0.1790  0.6529
 5161SOL     OW26941   1.898   1.378   3.387  0.3090 -0.0121 -0.0284
 5161SOL    HW126942   1.953   1.317   3.339 -0.5538 -0.7608 -0.0749
 5161SOL    HW226943   1.829   1.325   3.426  0.2801  0.4030  0.4912
 5162SOL     OW26944   2.386   0.873   3.035 -0.1332  1.3597 -0.2219
 5162SOL    HW126945   2.321   0.896   3.102 -1.3542 -0.2106 -0.8998
 5162SOL    HW226946   2.354   0.803   2.979  0.4453 -0.7848  2.1390
 5163SOL     OW26947   0.351   4.096   6.912 -0.2985  0.1051  0.7099
 5163SOL    HW126948   0.311   4.010   6.919  1.2317 -0.8198 -1.6790
 5163SOL    HW226949   0.275   4.152   6.926 -1.6145 -0.6709 -3.2706
 5164SOL     OW26950   4.074   3.364   0.698  0.3601 -0.7848  0.9123
 5164SOL    HW126951   4.129   3.360   0.620 -2.5171 -1.7785 -1.0861
 5164SOL    HW226952   4.136   3.339   0.766 -1.9909 -0.1505  3.3265
 5165SOL     OW26953   0.856   3.013   3.185 -0.6350 -0.1065 -0.2175
 5165SOL    HW126954   0.781   3.011   3.125 -0.5596 -2.4808 -0.2473
 5165SOL    HW226955   0.863   2.918   3.200  0.8554  0.0369 -0.0626
 5166SOL     OW26956   0.975   3.802   1.842 -0.0694  0.0327 -0.1538
 5166SOL    HW126957   0.879   3.802   1.847 -0.1420  0.4879 -1.4647
 5166SOL    HW226958   1.007   3.759   1.921 -0.2099 -0.4362 -0.3518
 5167SOL     OW26959   1.470   0.855   2.438  0.3587  0.2245 -0.5430
 5167SOL    HW126960   1.408   0.920   2.470  1.2856 -0.3046  2.3064
 5167SOL    HW226961   1.415   0.813   2.372  0.7375 -2.3483  0.7903
 5168SOL     OW26962   4.532   3.181   3.115 -0.5528  0.5984  0.4528
 5168SOL    HW126963   4.479   3.261   3.113  1.7618  2.0174 -2.2722
 5168SOL    HW226964   4.475   3.123   3.063 -0.1127 -0.3130  0.9737
 5169SOL     OW26965   0.795   4.322   2.947  0.3257 -0.2308 -0.0802
 5169SOL    HW126966   0.880   4.280   2.962  0.2659 -0.4562 -0.3555
 5169SOL    HW226967   0.788   4.292   2.856  1.0327  0.9890 -0.5263
 5170SOL     OW26968   4.600   1.349   8.490 -0.0072  0.0678 -0.3705
 5170SOL    HW126969   4.633   1.261   8.470  0.5134  0.7229 -2.3667
 5170SOL    HW226970   4.584   1.343   8.584  0.8973  2.4407 -0.0695
 5171SOL     OW26971   1.469   2.766  11.071  0.0538  0.3277  0.2890
 5171SOL    HW126972   1.530   2.797  11.004 -0.8020 -0.3284 -0.7946
 5171SOL    HW226973   1.532   2.745  11.139  2.0169  1.9528 -1.0227
 5172SOL     OW26974   4.016   4.187   5.579  0.7854 -0.6154  0.2341
 5172SOL    HW126975   3.939   4.220   5.625  0.6754 -0.9726  0.3039
 5172SOL    HW226976   4.078   4.181   5.652  1.0520 -1.7866 -0.0889
 5173SOL     OW26977   3.256   1.975   5.770 -0.2782  0.4807  0.7071
 5173SOL    HW126978   3.179   1.979   5.826  0.8664 -0.0550  2.3257
 5173SOL    HW226979   3.221   2.007   5.687  0.5972  0.0493  0.1694
 5174SOL     OW26980   0.446   3.432   4.476  0.3440 -0.2987  0.2208
 5174SOL    HW126981   0.436   3.520   4.512 -0.8091 -0.2467 -0.2233
 5174SOL    HW226982   0.503   3.448   4.401  0.3394 -0.1550  0.2481
 5175SOL     OW26983   0.959   0.146   5.656 -0.3714 -0.4226 -0.2314
 5175SOL    HW126984   0.884   0.179   5.706 -0.9884 -0.2501 -1.2758
 5175SOL    HW226985   1.036   0.172   5.706 -0.7012 -0.2174  0.1786
 5176SOL     OW26986   1.225   3.768   5.883  0.1223  0.3884  0.1673
 5176SOL    HW126987   1.198   3.707   5.951 -0.0480  1.8029  1.3683
 5176SOL    HW226988   1.209   3.711   5.808  0.0759 -0.3505  0.7441
 5177SOL     OW26989   0.819   1.888   8.873  0.0298 -0.1900 -0.2618
 5177SOL    HW126990   0.758   1.843   8.932  1.6114  0.7703  2.1233
 5177SOL    HW226991   0.768   1.924   8.800 -2.2597 -1.2088  0.8283
 5178SOL     OW26992   3.793   0.936  14.424 -0.7546  0.7285  0.1923
 5178SOL    HW126993   3.871   0.927  14.478  0.1418 -0.0842 -1.2500
 5178SOL    HW226994   3.824   0.907  14.339 -2.8202 -2.0383  0.3746
 5179SOL     OW26995   1.111   2.514  11.213 -0.3701  0.9119 -0.4540
 5179SOL    HW126996   1.123   2.419  11.218 -0.8007  0.8193 -1.2379
 5179SOL    HW226997   1.191   2.544  11.172 -0.1542  0.4403 -0.3743
 5180SOL     OW26998   3.965   2.652   4.344 -0.0427 -0.2377 -0.3377
 5180SOL    HW126999   3.872   2.669   4.334  0.0013 -0.8698 -1.7156
 5180SOL    HW227000   3.983   2.568   4.302  0.4221  0.7407 -2.0621
 5181SOL     OW27001   4.461   1.754  13.312 -0.5569 -0.4492 -0.4752
 5181SOL    HW127002   4.489   1.845  13.303  0.8416 -0.7355  1.0697
 5181SOL    HW227003   4.480   1.730  13.222  1.9868  1.0915 -0.3317
 5182SOL     OW27004   4.619   2.051   6.517 -0.0689 -0.0458 -0.4880
 5182SOL    HW127005   4.656   2.139   6.508 -0.1842  0.1956  1.3453
 5182SOL    HW227006   4.602   2.034   6.425  1.4687 -0.3116 -0.7167
 5183SOL     OW27007   1.501   3.979   8.094  0.4948 -0.4528 -1.0449
 5183SOL    HW127008   1.446   3.998   8.170  0.4729  0.8423 -1.3730
 5183SOL    HW227009   1.429   3.966   8.032 -0.6381 -1.6818  0.5250
 5184SOL     OW27010   2.176   3.199   6.069  0.0491 -0.6397  0.4195
 5184SOL    HW127011   2.158   3.153   6.150 -0.0064  1.7200  1.7631
 5184SOL    HW227012   2.177   3.128   6.006 -1.0690  0.1819 -0.5148
 5185SOL     OW27013   0.928   0.675   7.180  0.0301  0.1249  0.7484
 5185SOL    HW127014   0.853   0.622   7.203 -0.1892  0.3928  0.6494
 5185SOL    HW227015   0.986   0.614   7.134  1.5091  2.8002 -0.9997
 5186SOL     OW27016   4.526   2.601  15.015 -0.4865 -0.1217  0.0598
 5186SOL    HW127017   4.544   2.674  14.955 -0.9408  1.6319  2.0796
 5186SOL    HW227018   4.514   2.659  15.090  0.1311  1.1035 -0.7831
 5187SOL     OW27019   2.279   3.594   5.020  0.3451  0.7225  0.3357
 5187SOL    HW127020   2.325   3.643   5.088 -0.5132  0.3384  1.1842
 5187SOL    HW227021   2.185   3.601   5.037  0.4586 -1.1101  1.6611
 5188SOL     OW27022   3.977   3.936   5.093 -0.3669  0.2064 -0.0066
 5188SOL    HW127023   3.976   3.981   5.178  1.3316  1.8382 -0.8668
 5188SOL    HW227024   3.904   3.874   5.096 -1.6552  1.7064 -0.2643
 5189SOL     OW27025   2.048   2.084   6.902  0.0892  0.4103  0.2499
 5189SOL    HW127026   2.067   2.031   6.979 -0.6098  0.7613  0.6611
 5189SOL    HW227027   2.077   2.168   6.935  0.1027  0.0097  1.2575
 5190SOL     OW27028   0.707   2.126   0.853 -0.2195 -0.4635  0.1797
 5190SOL    HW127029   0.734   2.113   0.762 -0.7898  0.5065 -0.1337
 5190SOL    HW227030   0.710   2.036   0.886  0.1208 -0.9536 -1.1790
 5191SOL     OW27031   1.872   0.931   9.321  0.4394  0.7924 -0.4891
 5191SOL    HW127032   1.832   0.873   9.256  1.5275  0.1629 -0.6113
 5191SOL    HW227033   1.896   0.869   9.389 -2.1538  0.2788 -0.0800
 5192SOL     OW27034   3.360   1.317   4.512 -0.0822  0.3403  0.0130
 5192SOL    HW127035   3.312   1.235   4.510 -0.5503  0.6543 -1.8139
 5192SOL    HW227036   3.301   1.391   4.525  1.6186  1.4881  1.2270
 5193SOL     OW27037   4.413   0.589   8.791  0.5591  0.4520 -0.2858
 5193SOL    HW127038   4.346   0.644   8.751  0.0808  0.5994  0.7426
 5193SOL    HW227039   4.356   0.525   8.834  1.6700 -1.7824 -2.0749
 5194SOL     OW27040   4.366   4.548  10.798 -0.6075  0.6930 -0.0208
 5194SOL    HW127041   4.438   4.495  10.764  0.0457  1.1793  0.5988
 5194SOL    HW227042   4.299   4.479  10.797  0.5623 -0.4247 -2.5629
 5195SOL     OW27043   2.536   3.803   3.346 -0.3535  0.1666  0.2417
 5195SOL    HW127044   2.452   3.762   3.329 -1.6768  3.1119 -0.4136
 5195SOL    HW227045   2.555   3.773   3.435 -0.0781  0.2901  0.2259
 5196SOL     OW27046   3.030   3.072   4.392 -0.2499 -0.2828  0.2777
 5196SOL    HW127047   2.948   3.025   4.409 -0.6496 -0.4127 -2.0432
 5196SOL    HW227048   3.093   3.004   4.415  1.7673  1.2770 -0.5881
 5197SOL     OW27049   2.712   3.024  15.695  0.3945 -0.3233  0.2039
 5197SOL    HW127050   2.659   3.003  15.618 -1.3054  1.9614  0.7296
 5197SOL    HW227051   2.803   3.017  15.668 -0.1349 -0.5751 -1.5444
 5198SOL     OW27052   1.103   1.269   5.181 -0.2048 -0.9479  0.7755
 5198SOL    HW127053   1.040   1.207   5.219 -1.7423  1.6244  2.4043
 5198SOL    HW227054   1.146   1.204   5.125 -1.3628 -0.8332 -0.2705
 5199SOL     OW27055   1.349   1.284   7.789 -0.2552 -0.3212  0.3981
 5199SOL    HW127056   1.320   1.193   7.784 -0.2444 -0.3484  0.8532
 5199SOL    HW227057   1.407   1.271   7.864 -0.5757 -1.3197  0.4744
 5200SOL     OW27058   4.191   3.021   4.911  0.1984  0.6543 -0.4311
 5200SOL    HW127059   4.151   3.088   4.967  0.2079  0.9261 -0.7490
 5200SOL    HW227060   4.109   2.989   4.875  1.8273 -2.0449 -1.7539
 5201SOL     OW27061   4.576   3.432   6.440  0.5454 -0.5781 -0.2256
 5201SOL    HW127062   4.550   3.521   6.463 -0.0008 -0.6349 -0.6246
 5201SOL    HW227063   4.640   3.406   6.507  1.0456 -0.4601 -0.6557
 5202SOL     OW27064   1.056   3.589   9.296 -0.2947  0.1983 -0.1605
 5202SOL    HW127065   1.109   3.641   9.357 -0.9399 -0.6086  1.0898
 5202SOL    HW227066   0.973   3.582   9.343 -0.7553 -0.1833 -1.0316
 5203SOL     OW27067   0.874   3.880   3.863  0.4750  0.3870 -0.1739
 5203SOL    HW127068   0.926   3.804   3.839 -2.9966 -2.0510 -0.0664
 5203SOL    HW227069   0.798   3.863   3.808 -3.5699  2.7172  4.6577
 5204SOL     OW27070   1.307   4.255   0.464  0.2097  0.4483  0.4623
 5204SOL    HW127071   1.238   4.260   0.530 -0.0411 -0.7744  0.2904
 5204SOL    HW227072   1.326   4.346   0.444 -0.8059  0.1929 -1.7533
 5205SOL     OW27073   2.573   3.032   4.415  0.0713 -0.2709 -0.0748
 5205SOL    HW127074   2.519   3.054   4.490  1.0242  1.2961  0.1426
 5205SOL    HW227075   2.505   3.017   4.350  0.3478 -0.0222 -0.4265
 5206SOL     OW27076   3.207   3.793   2.705 -0.1017  0.1374  0.0548
 5206SOL    HW127077   3.243   3.759   2.623 -0.8984  1.7215 -0.9558
 5206SOL    HW227078   3.291   3.823   2.740 -0.4121  1.9730 -0.7973
 5207SOL     OW27079   2.853   4.009   3.941 -0.0060  0.6449  0.1347
 5207SOL    HW127080   2.780   3.954   3.969  0.9575  0.3182  1.9930
 5207SOL    HW227081   2.927   3.949   3.949 -1.1554 -0.9056 -1.1050
 5208SOL     OW27082   2.718   4.648   2.584 -0.1250  0.4289  0.5995
 5208SOL    HW127083   2.735   4.562   2.622  0.3828 -0.3015 -1.2861
 5208SOL    HW227084   2.690   4.624   2.495  0.0404  1.7804  0.1845
 5209SOL     OW27085   3.245   0.993   8.064 -0.5122 -0.4546  0.1721
 5209SOL    HW127086   3.244   1.021   8.156  0.9065 -0.2324  0.1184
 5209SOL    HW227087   3.326   1.038   8.042  0.4519 -1.9893  0.5671
 5210SOL     OW27088   3.244   1.184   9.428  0.7212  0.0209 -0.2831
 5210SOL    HW127089   3.249   1.130   9.349  1.9366 -0.2432 -0.0182
 5210SOL    HW227090   3.334   1.212   9.443  1.9991 -4.5420  0.4389
 5211SOL     OW27091   1.026   0.069   6.762 -0.0875  0.2830  0.2483
 5211SOL    HW127092   1.016   0.061   6.667  0.5313  0.6553  0.1510
 5211SOL    HW227093   1.060   4.703   6.775 -0.3677  0.1321 -0.0770
 5212SOL     OW27094   3.392   1.195   2.821  0.5833 -0.1079  0.4553
 5212SOL    HW127095   3.354   1.128   2.878 -0.8698  0.6183  0.3438
 5212SOL    HW227096   3.448   1.149   2.759 -0.9339  0.7565 -1.5358
 5213SOL     OW27097   4.603   1.540   3.679 -0.6177 -0.1398 -0.4079
 5213SOL    HW127098   4.549   1.565   3.754 -1.4739  0.4925 -1.2322
 5213SOL    HW227099   4.544   1.485   3.627 -0.5898  0.0170 -0.6051
 5214SOL     OW27100   3.146   0.005   4.680 -0.5358 -0.2964 -0.7057
 5214SOL    HW127101   3.074   0.047   4.634  1.1155  2.1770 -1.0401
 5214SOL    HW227102   3.168   4.659   4.617  0.6172 -1.1019  0.5726
 5215SOL     OW27103   2.439   2.851   6.453  0.4214  0.2131 -0.0319
 5215SOL    HW127104   2.387   2.854   6.534 -0.1585  2.5364 -0.4777
 5215SOL    HW227105   2.414   2.761   6.436 -0.2241  0.4336 -0.2524
 5216SOL     OW27106   4.210   3.155  17.664 -0.3244  1.0435  0.3524
 5216SOL    HW127107   4.138   3.096  17.687  0.4633 -0.2300 -0.4664
 5216SOL    HW227108   4.284   3.131   0.027 -0.3708  0.9378  0.3689
 5217SOL     OW27109   0.146   2.515   2.679 -0.1796 -0.3590  0.3408
 5217SOL    HW127110   0.153   2.425   2.647 -1.1292 -0.3349  0.0452
 5217SOL    HW227111   0.173   2.555   2.596  1.7045 -1.4105  0.4749
 5218SOL     OW27112   0.398   2.615  13.361  0.7741 -0.0123 -0.1500
 5218SOL    HW127113   0.434   2.703  13.352 -0.3434  0.4684 -0.0114
 5218SOL    HW227114   0.427   2.582  13.276  0.0787  0.4679 -0.5780
 5219SOL     OW27115   1.966   4.367   5.839 -0.0168  0.8487 -0.1072
 5219SOL    HW127116   1.956   4.274   5.817  2.7410  0.1168  1.6932
 5219SOL    HW227117   1.887   4.380   5.891  1.6495 -0.9372  2.9009
 5220SOL     OW27118   3.316   4.265   4.691 -0.2118 -0.0906 -0.1521
 5220SOL    HW127119   3.384   4.229   4.635 -0.2492 -0.2898 -0.0714
 5220SOL    HW227120   3.330   4.215   4.772  1.7551  0.8741  0.0951
 5221SOL     OW27121   4.055   2.760   3.752 -0.2354 -0.2728 -0.3036
 5221SOL    HW127122   4.034   2.672   3.721  2.0598 -0.7233 -0.6468
 5221SOL    HW227123   4.122   2.772   3.683 -0.7697 -0.5469 -0.8709
 5222SOL     OW27124   1.150   1.066   4.991 -0.2081  0.4114  0.1255
 5222SOL    HW127125   1.214   1.080   4.922  1.4090 -1.7774  1.1870
 5222SOL    HW227126   1.080   1.020   4.945 -0.5195  0.9073  0.1030
 5223SOL     OW27127   4.048   1.331   5.058 -0.4450  0.3597 -0.1177
 5223SOL    HW127128   4.063   1.411   5.008  1.0286 -0.1691 -0.5321
 5223SOL    HW227129   4.089   1.257   5.012  0.7806  0.7729  0.3015
 5224SOL     OW27130   3.268   2.583   5.944  0.5490 -0.4684  0.1694
 5224SOL    HW127131   3.307   2.539   6.020  3.5135 -1.0507 -1.6908
 5224SOL    HW227132   3.198   2.624   5.995  0.5652 -3.5039  2.6290
 5225SOL     OW27133   0.317   2.183   8.144 -0.2092  0.0152  0.5269
 5225SOL    HW127134   0.336   2.272   8.116  1.9395 -0.0504  1.7584
 5225SOL    HW227135   0.404   2.143   8.152 -0.2388 -0.4025 -1.2286
 5226SOL     OW27136   4.480   1.915   3.841  0.4649  0.5602  0.0029
 5226SOL    HW127137   4.415   1.980   3.868  1.0403  0.3275  1.9083
 5226SOL    HW227138   4.520   1.882   3.921 -0.8573 -0.6459  0.1588
 5227SOL     OW27139   3.642   0.604   6.809 -0.1310  0.3453  0.5334
 5227SOL    HW127140   3.690   0.685   6.829  2.6845 -0.9885 -0.8071
 5227SOL    HW227141   3.555   0.632   6.836 -0.0882  0.5950  0.4167
 5228SOL     OW27142   2.424   0.259  17.543  0.4818  0.2154  0.1514
 5228SOL    HW127143   2.399   0.289  17.631 -1.0055  2.6341 -1.1237
 5228SOL    HW227144   2.465   0.174  17.561 -2.0586 -1.0252  0.1828
 5229SOL     OW27145   2.162   2.954   9.632 -0.1160  0.2624 -0.1231
 5229SOL    HW127146   2.242   2.947   9.581  0.0956 -0.7702  0.3400
 5229SOL    HW227147   2.173   2.877   9.688 -1.0446 -0.5270 -1.0270
 5230SOL     OW27148   0.198   4.596   3.569 -0.1603 -0.7772  0.1725
 5230SOL    HW127149   0.268   4.622   3.509  0.0211 -0.8119  0.3679
 5230SOL    HW227150   0.175   4.684   3.599 -1.8793 -1.3473  0.5391
 5231SOL     OW27151   3.592   4.196  13.108  0.3428 -0.1420  0.6066
 5231SOL    HW127152   3.594   4.272  13.166  0.4500  0.9134 -0.7602
 5231SOL    HW227153   3.559   4.133  13.172  0.1156  0.4569  1.0750
 5232SOL     OW27154   1.771   3.599   7.524 -0.3219  0.0368  0.3038
 5232SOL    HW127155   1.736   3.535   7.586  2.6072 -0.9753  0.9162
 5232SOL    HW227156   1.816   3.534   7.470  0.3254 -0.4372  1.4000
 5233SOL     OW27157   3.335   3.865  14.927  0.4205  0.1002 -0.1885
 5233SOL    HW127158   3.379   3.854  14.843  1.2876 -1.3528  0.4640
 5233SOL    HW227159   3.386   3.803  14.979  0.9919  1.0891  0.4265
 5234SOL     OW27160   0.642   3.542  12.667  0.2859 -0.0952  0.1971
 5234SOL    HW127161   0.614   3.467  12.614 -0.2130  1.6411 -2.0150
 5234SOL    HW227162   0.606   3.529  12.754 -0.3549 -1.1874 -0.2343
 5235SOL     OW27163   2.758   1.364  15.219 -0.2106 -0.6298 -0.3499
 5235SOL    HW127164   2.668   1.365  15.251  0.9323 -0.2660  2.7911
 5235SOL    HW227165   2.788   1.282  15.258 -1.1120 -0.6058  0.4040
 5236SOL     OW27166   3.015   2.266   4.055 -0.5715 -0.3242  0.4430
 5236SOL    HW127167   3.006   2.217   3.973 -2.1649  0.9585 -0.1434
 5236SOL    HW227168   2.949   2.332   4.034 -1.5113 -1.6910 -0.9365
 5237SOL     OW27169   0.837   0.445   6.923 -0.4311 -0.0743 -0.5144
 5237SOL    HW127170   0.767   0.380   6.916 -0.8220  0.4646 -1.8198
 5237SOL    HW227171   0.910   0.397   6.886 -0.7094 -0.6210 -0.3482
 5238SOL     OW27172   1.766   1.477   5.277  0.1349  0.1411 -0.3551
 5238SOL    HW127173   1.776   1.384   5.257  1.8525  0.3553 -0.5478
 5238SOL    HW227174   1.732   1.509   5.194 -1.5907 -0.1727  0.2268
 5239SOL     OW27175   1.725   3.016   8.243  0.3829 -0.0552  0.6964
 5239SOL    HW127176   1.773   3.032   8.162 -2.4555  0.0396 -0.9199
 5239SOL    HW227177   1.769   2.939   8.280 -1.3204 -0.7106  1.3332
 5240SOL     OW27178   0.892   3.321   4.642  0.3038 -0.3797 -0.2652
 5240SOL    HW127179   0.831   3.374   4.691  0.7346  1.1993 -1.4407
 5240SOL    HW227180   0.894   3.373   4.561  1.2792  2.1885  1.4247
 5241SOL     OW27181   3.862   4.118   8.312  0.6003 -0.0258 -0.3249
 5241SOL    HW127182   3.781   4.113   8.363  0.5008  2.7930 -0.1981
 5241SOL    HW227183   3.864   4.214   8.309  1.8807  0.0701  3.2309
 5242SOL     OW27184   2.179   2.248  12.140  0.1489  0.0288 -0.3616
 5242SOL    HW127185   2.115   2.180  12.160 -0.1225  0.5501  0.5425
 5242SOL    HW227186   2.204   2.232  12.049 -2.0689 -0.5626 -0.8499
 5243SOL     OW27187   4.628   0.188   2.602 -0.6824  0.1039  0.0596
 5243SOL    HW127188   4.661   0.156   2.518  0.9914 -1.8198  1.4342
 5243SOL    HW227189   4.621   0.110   2.658  0.5261 -0.5289 -0.6532
 5244SOL     OW27190   1.913   2.707   8.585  0.6650  0.2281  0.4649
 5244SOL    HW127191   1.872   2.633   8.541  1.7224  0.2092 -0.4611
 5244SOL    HW227192   1.859   2.711   8.664  1.1603  4.5637  0.5792
 5245SOL     OW27193   1.411   3.758  16.022  0.6739 -0.2154  0.1953
 5245SOL    HW127194   1.469   3.727  16.091  0.8217  2.0427  1.0643
 5245SOL    HW227195   1.454   3.839  15.994 -0.2854  0.6398  1.2042
 5246SOL     OW27196   2.617   0.216   8.684  0.4503 -0.5113 -0.0848
 5246SOL    HW127197   2.623   0.190   8.592 -0.1708 -1.3989  0.1283
 5246SOL    HW227198   2.575   0.145   8.732  1.6169 -1.5710 -0.6218
 5247SOL     OW27199   1.705   3.202   6.478  0.6632  0.2256  0.3683
 5247SOL    HW127200   1.694   3.155   6.561 -0.6946 -0.7401 -0.3719
 5247SOL    HW227201   1.706   3.130   6.416  0.8590 -1.5942  2.4688
 5248SOL     OW27202   2.523   2.693   7.770 -0.1809  0.1827  0.3873
 5248SOL    HW127203   2.484   2.626   7.714  0.4036  1.2354 -1.2724
 5248SOL    HW227204   2.614   2.686   7.742 -0.8983  1.8838 -2.3680
 5249SOL     OW27205   0.433   1.192  12.533 -0.1710 -0.2707 -0.0575
 5249SOL    HW127206   0.383   1.272  12.516  0.9134  0.0063 -1.9398
 5249SOL    HW227207   0.481   1.197  12.450 -0.3687  0.0854 -0.1506
 5250SOL     OW27208   2.952   3.415  11.056  0.1295  0.2396 -0.8866
 5250SOL    HW127209   2.933   3.322  11.048 -1.9331  0.6042 -0.1502
 5250SOL    HW227210   2.895   3.441  10.985  0.4842  1.3688 -0.7543
 5251SOL     OW27211   4.297   0.099   1.765  0.2050  0.1294  0.0848
 5251SOL    HW127212   4.301   0.087   1.670 -0.3645  0.3327  0.0360
 5251SOL    HW227213   4.210   0.077   1.799 -0.4062  1.4860 -0.6008
 5252SOL     OW27214   1.176   1.459  10.307  0.0040 -0.5759  0.9107
 5252SOL    HW127215   1.220   1.398  10.248  1.6848 -0.1835  1.7369
 5252SOL    HW227216   1.180   1.396  10.379  0.9347 -0.2515  1.1457
 5253SOL     OW27217   0.825   3.182  11.315 -0.2098 -0.5572 -0.3271
 5253SOL    HW127218   0.823   3.086  11.323 -0.9351 -0.7058 -2.3875
 5253SOL    HW227219   0.920   3.183  11.322 -0.2039  0.3913 -0.6278
 5254SOL     OW27220   2.499   1.263  15.303 -0.0229 -0.2265  0.2994
 5254SOL    HW127221   2.525   1.325  15.372 -3.1701  1.3863  0.0277
 5254SOL    HW227222   2.418   1.304  15.274  0.8104  1.2005  0.0150
 5255SOL     OW27223   3.692   3.194   5.095 -0.1930 -0.9790  0.1270
 5255SOL    HW127224   3.722   3.250   5.167  1.5755 -1.1264 -0.4960
 5255SOL    HW227225   3.622   3.143   5.137 -0.1880 -1.5995 -0.6192
 5256SOL     OW27226   1.579   2.288  17.121 -0.2743  0.4044 -0.1598
 5256SOL    HW127227   1.521   2.227  17.165 -1.6617  0.9598 -1.2227
 5256SOL    HW227228   1.659   2.273  17.172 -0.0666  1.5758 -0.1378
 5257SOL     OW27229   2.604   4.284  13.184 -0.4597  0.3248  0.1112
 5257SOL    HW127230   2.568   4.207  13.228  1.0658  0.5039  1.6341
 5257SOL    HW227231   2.680   4.236  13.151 -1.4170 -0.8681 -0.3692
 5258SOL     OW27232   4.694   4.169   6.156 -1.1574 -0.5511 -0.2090
 5258SOL    HW127233   4.605   4.136   6.170 -1.2268  1.1114  3.2325
 5258SOL    HW227234   4.671   4.261   6.138  0.4334 -0.4445 -1.6482
 5259SOL     OW27235   3.833   1.865   1.555  0.5481  0.7545  0.3479
 5259SOL    HW127236   3.887   1.876   1.633 -1.4118 -1.1284  1.9835
 5259SOL    HW227237   3.798   1.777   1.568 -0.9557  1.4296  0.8411
 5260SOL     OW27238   2.587   1.593   4.269 -0.1778  0.4954 -0.0289
 5260SOL    HW127239   2.662   1.645   4.297 -1.8825  2.0998  1.5550
 5260SOL    HW227240   2.628   1.540   4.200 -1.6561  1.2730 -1.5351
 5261SOL     OW27241   2.926   1.799   7.617 -0.0293 -0.6340 -0.8776
 5261SOL    HW127242   2.993   1.782   7.551  0.4171 -0.3713 -0.4926
 5261SOL    HW227243   2.953   1.874   7.671 -1.2941 -0.8118  0.0070
 5262SOL     OW27244   2.350   0.141  14.853 -0.2291 -0.0436 -0.1308
 5262SOL    HW127245   2.274   0.099  14.894 -0.1891  1.6511  1.6976
 5262SOL    HW227246   2.337   0.226  14.894  0.0172 -0.8251  1.5496
 5263SOL     OW27247   2.942   4.186   5.397 -0.1747  0.4407  0.4370
 5263SOL    HW127248   2.983   4.262   5.355 -1.3100  0.6028 -0.4019
 5263SOL    HW227249   3.008   4.119   5.382  1.5629  1.9113  1.6450
 5264SOL     OW27250   0.047   4.513   8.506 -0.0445  0.7008 -0.5382
 5264SOL    HW127251   4.709   4.529   8.578 -0.5258 -3.7364  0.0040
 5264SOL    HW227252   0.134   4.520   8.544 -0.4582 -0.3118  0.5800
 5265SOL     OW27253   0.729   1.786   2.818  0.1802  0.0930  0.0614
 5265SOL    HW127254   0.716   1.821   2.906 -0.6370  1.6558 -0.6756
 5265SOL    HW227255   0.730   1.864   2.763 -1.1221  0.5999  0.7715
 5266SOL     OW27256   4.656   0.424  13.919 -0.3236 -0.1943  0.0902
 5266SOL    HW127257   4.586   0.488  13.923  1.5264  1.9242 -1.4322
 5266SOL    HW227258   4.628   0.363  13.987  0.8976 -1.3675 -0.4554
 5267SOL     OW27259   0.546   0.517  16.896 -0.3763  0.2823 -0.5628
 5267SOL    HW127260   0.621   0.460  16.914 -0.6955  0.3004  0.8178
 5267SOL    HW227261   0.562   0.560  16.812  1.6710 -0.9967 -0.8388
 5268SOL     OW27262   0.512   1.176   1.365 -0.2336 -0.1844 -0.1558
 5268SOL    HW127263   0.434   1.148   1.317 -1.8942  2.4531  0.9707
 5268SOL    HW227264   0.536   1.260   1.326 -0.4915  0.1759  0.4608
 5269SOL     OW27265   3.198   3.685   3.852  0.1572  0.0499 -0.2315
 5269SOL    HW127266   3.281   3.699   3.807  1.0782  1.2967  1.8648
 5269SOL    HW227267   3.181   3.604   3.804  2.0867 -1.2935  1.3588
 5270SOL     OW27268   3.047   2.009   8.146 -0.4621 -0.0245 -0.1573
 5270SOL    HW127269   3.050   2.021   8.241  0.4289 -1.6356  0.0073
 5270SOL    HW227270   3.136   1.979   8.127  0.5200  1.3223  2.3250
 5271SOL     OW27271   2.952   4.241   7.819 -0.0337  0.1750 -0.2687
 5271SOL    HW127272   2.906   4.268   7.740  0.7477 -0.3433 -0.9046
 5271SOL    HW227273   2.888   4.173   7.839 -0.0759  0.5457  0.8792
 5272SOL     OW27274   4.045   2.048   2.643  0.0011 -0.0843 -0.1563
 5272SOL    HW127275   3.976   1.982   2.655 -0.3880  0.7697  2.2912
 5272SOL    HW227276   4.121   1.992   2.628 -0.2898 -0.7235  0.7782
 5273SOL     OW27277   2.490   1.862   8.932  0.4734 -0.4975  0.1377
 5273SOL    HW127278   2.441   1.788   8.969 -0.4705  0.0897  0.0461
 5273SOL    HW227279   2.422   1.901   8.878  1.1574  1.4726  0.6992
 5274SOL     OW27280   1.361   1.708  11.763 -0.4995 -0.2528  0.8054
 5274SOL    HW127281   1.417   1.753  11.827 -0.4874 -1.0670  1.3699
 5274SOL    HW227282   1.397   1.619  11.768 -0.7280 -0.4911 -1.7269
 5275SOL     OW27283   0.933   3.532   0.766  0.3735  0.4445  0.0072
 5275SOL    HW127284   0.916   3.624   0.747  1.3080  0.4053 -1.0403
 5275SOL    HW227285   1.003   3.527   0.831  0.4164 -2.2342 -0.2361
 5276SOL     OW27286   3.754   2.064   5.219  0.2509 -0.2175 -0.4020
 5276SOL    HW127287   3.720   2.108   5.297 -1.8424  1.2174 -2.1244
 5276SOL    HW227288   3.683   2.064   5.155 -0.9229  1.7463  0.8996
 5277SOL     OW27289   0.611   0.236   7.191  0.1448  0.7328 -0.0028
 5277SOL    HW127290   0.613   0.209   7.099 -1.7865 -2.4691  0.8978
 5277SOL    HW227291   0.569   0.159   7.229  2.1337  0.2513  1.2515
 5278SOL     OW27292   3.441   0.043  14.406  0.5927 -0.4814  0.3780
 5278SOL    HW127293   3.438   0.128  14.363 -1.4110 -0.6649  0.1637
 5278SOL    HW227294   3.525   0.054  14.451 -1.5539  2.3547  3.6067
 5279SOL     OW27295   3.422   2.888   4.160  0.0028 -0.2994 -0.1580
 5279SOL    HW127296   3.428   2.912   4.067  0.6573  2.8679  0.6942
 5279SOL    HW227297   3.495   2.828   4.169  0.2683  0.3248  1.8242
 5280SOL     OW27298   1.772   1.696   0.222  0.3980 -0.5435  0.2573
 5280SOL    HW127299   1.777   1.711   0.317 -0.6084  1.4647 -0.0105
 5280SOL    HW227300   1.683   1.721   0.198  1.6954  2.6036 -1.3502
 5281SOL     OW27301   0.683   4.535   9.799 -0.3561  0.1965 -0.3985
 5281SOL    HW127302   0.588   4.530   9.810 -0.3835 -1.2159 -1.3865
 5281SOL    HW227303   0.698   4.571   9.887 -1.0540  0.3436 -0.3450
 5282SOL     OW27304   3.023   0.134   8.179 -0.2514  0.4192 -0.5856
 5282SOL    HW127305   3.072   0.187   8.242 -1.3653 -2.7193  2.9809
 5282SOL    HW227306   2.999   0.195   8.110  1.6837 -2.2530 -3.6511
 5283SOL     OW27307   0.880   0.808  15.249  0.4144  0.5841  0.1730
 5283SOL    HW127308   0.941   0.736  15.233  2.1104  2.4317 -1.5644
 5283SOL    HW227309   0.886   0.842  15.160  0.4372 -0.1976 -0.1239
 5284SOL     OW27310   3.606   3.124   7.335  0.9594  0.2708 -0.0883
 5284SOL    HW127311   3.627   3.033   7.357  3.1004  0.8236  0.1641
 5284SOL    HW227312   3.593   3.159   7.424 -0.9035 -1.8280  0.4782
 5285SOL     OW27313   2.677   2.629   1.726 -0.2441  0.4262  0.2547
 5285SOL    HW127314   2.581   2.629   1.725 -0.2406 -1.8788 -0.1401
 5285SOL    HW227315   2.701   2.722   1.720  0.0035  0.3996  0.8065
 5286SOL     OW27316   1.557   0.345   8.639  0.1827  0.5354 -0.3197
 5286SOL    HW127317   1.608   0.291   8.578  0.8234  0.5308  0.2168
 5286SOL    HW227318   1.468   0.324   8.612 -0.5072  1.5694  1.1294
 5287SOL     OW27319   2.396   2.125   5.114  0.2576 -0.7134  0.1787
 5287SOL    HW127320   2.360   2.204   5.154 -0.6881 -1.4308  0.7622
 5287SOL    HW227321   2.340   2.122   5.036  0.7341 -0.7441 -0.1570
 5288SOL     OW27322   3.955   4.444   4.713  0.0245  0.2120  0.0216
 5288SOL    HW127323   3.927   4.466   4.624  1.3606  1.7838 -0.0058
 5288SOL    HW227324   3.951   4.533   4.748  0.1453 -0.5292  1.9367
 5289SOL     OW27325   2.177   0.155   8.592 -0.2210  0.3519  0.2405
 5289SOL    HW127326   2.215   0.242   8.582  0.8881 -0.0685  0.8046
 5289SOL    HW227327   2.105   0.176   8.651  0.9422 -0.0279  1.8080
 5290SOL     OW27328   4.719   1.851  13.758  0.1501 -0.0125 -0.1013
 5290SOL    HW127329   0.018   1.922  13.697  1.8093 -1.9737 -1.8293
 5290SOL    HW227330   4.658   1.895  13.815  0.6738  0.4989  0.0629
 5291SOL     OW27331   0.235   2.676   2.461  0.1839  0.0499 -0.3511
 5291SOL    HW127332   0.160   2.699   2.406  1.5829 -0.0127 -2.2812
 5291SOL    HW227333   0.279   2.761   2.457  0.9839 -0.3100  0.9505
 5292SOL     OW27334   2.471   3.830   1.030  0.3643  0.1664  0.1693
 5292SOL    HW127335   2.470   3.843   1.125 -1.4596  1.4756 -0.0275
 5292SOL    HW227336   2.549   3.777   1.013 -1.4196 -3.3538  3.0097
 5293SOL     OW27337   3.796   0.602   5.210  0.6467 -0.3369 -0.9800
 5293SOL    HW127338   3.787   0.508   5.195  0.4009 -0.6279  0.9563
 5293SOL    HW227339   3.835   0.602   5.297  0.7178 -0.5448 -1.0110
 5294SOL     OW27340   1.862   0.077   1.449  0.0414 -0.3271  0.3360
 5294SOL    HW127341   1.869   0.133   1.372  2.4071 -0.2980  0.5759
 5294SOL    HW227342   1.953   0.086   1.477  0.5705  0.6836 -1.7149
 5295SOL     OW27343   1.273   4.498   7.005  0.1955 -0.1330 -0.4841
 5295SOL    HW127344   1.209   4.478   6.937 -0.6822 -2.0127  0.8875
 5295SOL    HW227345   1.300   4.586   6.979 -2.8516  1.3821  1.5617
 5296SOL     OW27346   2.475   1.241  14.780  0.2824  0.4286  0.0633
 5296SOL    HW127347   2.426   1.204  14.706 -0.0223 -0.4586  0.7201
 5296SOL    HW227348   2.410   1.295  14.824 -2.0014 -0.5472 -2.1073
 5297SOL     OW27349   2.598   2.197   6.350  0.3823  0.0276  0.0381
 5297SOL    HW127350   2.594   2.251   6.429 -1.1789  0.7255 -0.5074
 5297SOL    HW227351   2.679   2.152   6.373  0.5100  0.0430 -0.3896
 5298SOL     OW27352   0.467   1.116   2.546  0.4362 -0.2477 -0.7151
 5298SOL    HW127353   0.382   1.098   2.585  0.3446 -0.7633 -1.1513
 5298SOL    HW227354   0.449   1.103   2.453 -2.0966  0.7946 -0.3717
 5299SOL     OW27355   0.625   3.648   2.185 -0.2057  0.3790 -0.0120
 5299SOL    HW127356   0.545   3.700   2.185  0.7015  1.7714  0.7863
 5299SOL    HW227357   0.627   3.622   2.093  2.8901  1.4531 -0.2322
 5300SOL     OW27358   4.059   2.306   0.983 -0.3309  0.7377  0.3904
 5300SOL    HW127359   4.077   2.237   1.047 -0.5348  0.4947  0.1888
 5300SOL    HW227360   4.049   2.373   1.050  2.2557  1.4757  0.0446
 5301SOL     OW27361   1.569   3.148  17.575  0.1710  0.1213 -0.3080
 5301SOL    HW127362   1.610   3.062  17.583 -0.3705 -0.2319 -1.2602
 5301SOL    HW227363   1.579   3.155  17.480 -0.6547  3.0213 -0.2001
 5302SOL     OW27364   3.439   3.504   9.714  0.0488 -0.1550  0.3924
 5302SOL    HW127365   3.405   3.586   9.749  1.0284  0.5296 -0.2702
 5302SOL    HW227366   3.529   3.501   9.747  0.6998  0.7540 -1.2788
 5303SOL     OW27367   3.814   1.506   4.457  0.2959  0.2122  0.5334
 5303SOL    HW127368   3.812   1.467   4.370 -1.2258  0.9014  0.2598
 5303SOL    HW227369   3.907   1.511   4.480  0.4302  1.5575 -0.3390
 5304SOL     OW27370   0.337   1.037   3.744 -0.1807  0.5114  0.4305
 5304SOL    HW127371   0.314   1.111   3.688  3.5070 -0.8053 -2.8073
 5304SOL    HW227372   0.426   1.063   3.766  0.2339 -0.7882  0.3025
 5305SOL     OW27373   3.412   3.829   1.153  0.3632  0.1873  0.1387
 5305SOL    HW127374   3.339   3.882   1.185 -0.5408 -1.3948  0.6799
 5305SOL    HW227375   3.406   3.749   1.204  1.8929  0.9584  1.5500
 5306SOL     OW27376   4.095   0.611   7.045 -0.0814 -0.1716  0.2976
 5306SOL    HW127377   4.022   0.554   7.069 -0.5625  0.6767  0.8448
 5306SOL    HW227378   4.074   0.696   7.082 -1.7683 -0.4634  0.0088
 5307SOL     OW27379   0.169   2.595  14.015 -0.0481  0.3751  0.4848
 5307SOL    HW127380   0.234   2.611  13.947 -0.2139 -2.9228 -0.4326
 5307SOL    HW227381   0.161   2.676  14.065 -0.3391 -0.1951  1.3704
 5308SOL     OW27382   2.379   4.412   7.822  0.3831  0.0298  0.1223
 5308SOL    HW127383   2.324   4.383   7.895 -1.9562  1.3245 -1.1245
 5308SOL    HW227384   2.431   4.332   7.824  2.3140  1.2859  0.3041
 5309SOL     OW27385   3.181   2.802  16.204  0.4015 -0.2572 -0.3097
 5309SOL    HW127386   3.157   2.879  16.152 -0.8194 -1.0993 -1.0082
 5309SOL    HW227387   3.107   2.746  16.180  0.1957 -0.1819  0.1626
 5310SOL     OW27388   4.336   3.302   2.318  0.1917  0.1344 -0.2230
 5310SOL    HW127389   4.397   3.264   2.381  0.1509 -1.0068 -0.8721
 5310SOL    HW227390   4.256   3.259   2.347  0.3096  1.0710  1.4647
 5311SOL     OW27391   4.472   2.632   4.328 -0.0209 -0.8904 -0.1586
 5311SOL    HW127392   4.477   2.721   4.363  1.7909 -1.4001  0.8187
 5311SOL    HW227393   4.387   2.618   4.370 -0.1126  1.5567  0.4621
 5312SOL     OW27394   4.579   0.552   8.984  0.8300  0.0061  0.2808
 5312SOL    HW127395   4.657   0.516   8.941  1.4257  1.3195  0.2846
 5312SOL    HW227396   4.524   0.563   8.906  0.3436  1.3273  0.8200
 5313SOL     OW27397   3.717   3.002   0.058 -0.0418 -0.7568 -0.4186
 5313SOL    HW127398   3.650   3.064   0.030  1.8217  0.1061 -2.9442
 5313SOL    HW227399   3.685   2.985   0.146  1.4733 -2.2292 -0.1539
 5314SOL     OW27400   2.173   3.983   8.306  0.0587  0.0401  0.2031
 5314SOL    HW127401   2.182   4.015   8.216 -1.5385  0.9433  0.3637
 5314SOL    HW227402   2.126   3.901   8.290 -0.1137 -0.0831  1.4039
 5315SOL     OW27403   1.551   0.517   2.307  0.3215  0.0227 -0.4793
 5315SOL    HW127404   1.588   0.584   2.364 -1.4272  0.7513 -0.1886
 5315SOL    HW227405   1.624   0.458   2.291  1.1736  0.9312  0.0402
 5316SOL     OW27406   2.390   1.052   7.590 -0.1911  0.3371  0.1260
 5316SOL    HW127407   2.337   1.126   7.621 -0.2733  0.0734  0.6191
 5316SOL    HW227408   2.450   1.042   7.664  1.9295  2.1827 -1.3426
 5317SOL     OW27409   4.576   0.186   8.350 -0.7267 -0.6538 -0.3409
 5317SOL    HW127410   4.480   0.190   8.344 -0.7125  0.0374 -0.0841
 5317SOL    HW227411   4.593   0.256   8.413 -3.2118  0.2063 -0.5938
 5318SOL     OW27412   1.614   4.671   7.709  0.7243 -0.1748  0.4250
 5318SOL    HW127413   1.540   4.611   7.699  0.4866  0.1622  0.1850
 5318SOL    HW227414   1.583   0.024   7.758 -0.5770 -0.5052  0.1130
 5319SOL     OW27415   3.625   0.002   2.908 -0.4600 -0.1376 -0.3793
 5319SOL    HW127416   3.619   0.033   2.817 -0.5455 -1.8924 -0.9726
 5319SOL    HW227417   3.540   4.682   2.917  0.6339 -1.9594  1.1828
 5320SOL     OW27418   2.308   2.850   2.096  0.1832 -0.1841  0.3580
 5320SOL    HW127419   2.317   2.916   2.165 -1.5293  1.0175 -0.5827
 5320SOL    HW227420   2.328   2.773   2.150  0.3601  0.1977  0.8417
 5321SOL     OW27421   4.177   4.692   9.202 -0.6635  0.6193  1.2174
 5321SOL    HW127422   4.138   4.605   9.192  0.7814 -0.0340  1.2603
 5321SOL    HW227423   4.255   4.679   9.256  0.1622 -1.4034 -0.4386
 5322SOL     OW27424   2.008   1.249  14.033  0.0191  0.0682 -0.3518
 5322SOL    HW127425   1.930   1.210  14.073  0.9094  0.5606  1.8805
 5322SOL    HW227426   2.057   1.283  14.108  0.3131  0.6177 -0.7945
 5323SOL     OW27427   1.987   0.633   0.480 -0.3266  0.2161  0.0615
 5323SOL    HW127428   1.939   0.715   0.489 -0.2563  0.2209  0.3850
 5323SOL    HW227429   1.910   0.580   0.502  0.7653 -0.8720  1.2301
 5324SOL     OW27430   1.706   3.594   5.693  0.0051  0.3036 -0.0889
 5324SOL    HW127431   1.640   3.577   5.760  2.5006 -0.4154  2.1803
 5324SOL    HW227432   1.749   3.510   5.708 -0.0991  0.3763  0.6260
 5325SOL     OW27433   2.741   3.073   6.113 -0.2780 -0.0167 -0.7149
 5325SOL    HW127434   2.650   3.078   6.083 -0.7399  0.9241  0.8530
 5325SOL    HW227435   2.779   3.156   6.082  0.5170 -0.5639 -1.2254
 5326SOL     OW27436   3.463   2.010   9.604 -0.0229  0.1618  0.4131
 5326SOL    HW127437   3.468   2.105   9.592  3.0466 -0.2241 -1.3820
 5326SOL    HW227438   3.538   1.977   9.556 -0.0081 -0.2418  0.7156
 5327SOL     OW27439   0.322   0.422   8.147  0.2889  0.3951 -0.1930
 5327SOL    HW127440   0.285   0.334   8.151 -0.6982  0.8051 -0.4152
 5327SOL    HW227441   0.386   0.413   8.077 -0.5560  1.0095 -1.0416
 5328SOL     OW27442   2.724   1.268   6.947 -0.1634 -0.4748  0.4363
 5328SOL    HW127443   2.675   1.212   6.886 -4.0098  1.9640  1.3153
 5328SOL    HW227444   2.802   1.298   6.900 -0.0840 -2.7522 -0.9409
 5329SOL     OW27445   0.870   1.595   4.879  0.3513  0.5448 -0.5488
 5329SOL    HW127446   0.857   1.529   4.947  0.5119  0.5309 -0.5307
 5329SOL    HW227447   0.811   1.569   4.808 -1.1231 -1.5626  1.4424
 5330SOL     OW27448   2.945   2.382  14.160  0.0990 -0.0058  0.3857
 5330SOL    HW127449   2.882   2.452  14.176 -0.8001 -0.1524 -2.4619
 5330SOL    HW227450   2.891   2.303  14.162 -1.0160  0.7772  0.5364
 5331SOL     OW27451   3.964   1.314   5.843 -0.8775 -0.3667  0.3580
 5331SOL    HW127452   3.912   1.248   5.796 -3.0341  1.2070  0.5180
 5331SOL    HW227453   3.896   1.370   5.881  0.8989  1.6135  0.5740
 5332SOL     OW27454   0.326   1.394  12.124 -0.0824 -0.3669 -0.1596
 5332SOL    HW127455   0.402   1.392  12.182  0.6936  1.5734 -1.1307
 5332SOL    HW227456   0.357   1.468  12.072 -1.9446  1.5792  1.4919
 5333SOL     OW27457   4.054   3.572  12.915  0.6401  0.1544  0.4763
 5333SOL    HW127458   4.027   3.566  12.823  1.4243 -2.5422  0.4163
 5333SOL    HW227459   4.136   3.620  12.917 -0.7942  2.7719 -2.3658
 5334SOL     OW27460   3.112   3.279   8.133  0.4175 -0.1019 -0.0807
 5334SOL    HW127461   3.128   3.330   8.053 -0.2269  1.0180  0.4928
 5334SOL    HW227462   3.089   3.195   8.094  0.8341  0.5658 -1.7400
 5335SOL     OW27463   0.450   4.350   8.114  0.3582 -0.3979 -0.3758
 5335SOL    HW127464   0.480   4.390   8.033 -1.2993  0.7857 -0.4155
 5335SOL    HW227465   0.511   4.396   8.172  1.1545 -0.4982 -1.1409
 5336SOL     OW27466   1.671   1.659  12.049  0.0763  0.3419  0.5361
 5336SOL    HW127467   1.690   1.675  12.141  1.3963  1.2867  0.1004
 5336SOL    HW227468   1.581   1.689  12.040  0.2434  0.9076  0.7599
 5337SOL     OW27469   3.551   2.416  13.474  0.0912  0.3995 -0.0472
 5337SOL    HW127470   3.456   2.433  13.476 -0.1201 -0.6559 -0.9443
 5337SOL    HW227471   3.573   2.496  13.521 -0.1698  2.0780 -2.8341
 5338SOL     OW27472   4.536   1.750   5.621 -0.1789  0.3736  0.0789
 5338SOL    HW127473   4.604   1.815   5.605  2.5010 -2.2338  0.9001
 5338SOL    HW227474   4.472   1.781   5.557  1.5891  1.9786 -0.9058
 5339SOL     OW27475   4.627   2.237  14.181 -0.2494 -0.0182 -0.7201
 5339SOL    HW127476   4.626   2.246  14.277 -1.6243 -0.3630 -0.6996
 5339SOL    HW227477   4.558   2.171  14.174  1.3732 -1.7030 -0.7615
 5340SOL     OW27478   2.230   4.021   2.795  0.2298  0.1307 -0.6230
 5340SOL    HW127479   2.278   3.948   2.755 -2.3893 -1.8085 -0.2132
 5340SOL    HW227480   2.154   4.024   2.737 -1.3625  0.5501  1.4901
 5341SOL     OW27481   1.057   4.484   8.222  0.1163  0.2322  0.5757
 5341SOL    HW127482   1.048   4.389   8.226 -1.8572  0.4315  0.9912
 5341SOL    HW227483   1.092   4.505   8.309 -1.8973 -1.0198  1.6745
 5342SOL     OW27484   1.443   0.882   4.428  0.1517  0.0461  0.2326
 5342SOL    HW127485   1.516   0.880   4.367 -1.9374  0.7428 -2.2967
 5342SOL    HW227486   1.484   0.842   4.504  0.6989  2.1710  1.0550
 5343SOL     OW27487   1.917   0.014   1.986 -0.2726 -0.6103  0.3797
 5343SOL    HW127488   1.908   0.013   2.081 -1.6634  0.8988  0.2731
 5343SOL    HW227489   1.823   0.002   1.979 -0.5526  0.7100  1.7733
 5344SOL     OW27490   3.944   1.468   6.732 -0.5824 -0.5330 -0.0496
 5344SOL    HW127491   3.952   1.379   6.767 -0.9960  0.5420  2.8310
 5344SOL    HW227492   4.026   1.506   6.766  0.1949 -0.2137 -2.3228
 5345SOL     OW27493   1.458   1.417   6.289 -0.2933 -0.1781 -0.0358
 5345SOL    HW127494   1.506   1.370   6.221  1.0441  0.7164  0.3011
 5345SOL    HW227495   1.391   1.349   6.301  0.9986 -1.1154  1.9053
 5346SOL     OW27496   3.183   0.846   2.947 -0.1826 -0.0913  0.0923
 5346SOL    HW127497   3.139   0.871   2.866  0.5749  1.6298  0.2297
 5346SOL    HW227498   3.152   0.913   3.008 -0.6270 -2.8588  2.9270
 5347SOL     OW27499   4.603   3.865   7.769  0.0617  0.8201 -0.0860
 5347SOL    HW127500   4.681   3.903   7.730  0.7760 -0.5149  0.0471
 5347SOL    HW227501   4.605   3.898   7.859  0.1223 -1.7830  0.8684
 5348SOL     OW27502   4.037   1.704   5.613  0.2542  0.7755  0.4008
 5348SOL    HW127503   4.016   1.719   5.521 -1.2146  0.6325  0.7161
 5348SOL    HW227504   4.133   1.707   5.617  0.3263  0.2071 -0.7920
 5349SOL     OW27505   1.011   3.834  17.115  0.1945 -0.6822 -0.0822
 5349SOL    HW127506   1.027   3.802  17.204  0.5241  2.7349  1.1183
 5349SOL    HW227507   1.060   3.916  17.105 -0.1312 -0.4881 -0.0879
 5350SOL     OW27508   2.266   3.303  13.807 -0.2100 -0.1587  0.0403
 5350SOL    HW127509   2.317   3.345  13.877  0.5384  1.0868 -1.2363
 5350SOL    HW227510   2.251   3.215  13.840  0.5082  0.5575  2.3157
 5351SOL     OW27511   2.484   1.320  17.394  0.3992 -0.4457  0.2105
 5351SOL    HW127512   2.498   1.251  17.459  1.6327 -0.2723  0.1326
 5351SOL    HW227513   2.563   1.300  17.342  1.6605 -0.7401  2.2620
 5352SOL     OW27514   0.009   0.165   1.473  0.3981  0.6104  0.2907
 5352SOL    HW127515   0.047   0.241   1.516 -0.1316  1.0427  0.0055
 5352SOL    HW227516   4.680   0.210   1.406 -0.1265  0.9035  0.8855
 5353SOL     OW27517   1.793   4.104  15.137  0.0313  0.2586  0.0460
 5353SOL    HW127518   1.855   4.170  15.105 -0.9422  0.8494 -0.6038
 5353SOL    HW227519   1.847   4.057  15.201  0.7299  1.1321  0.1049
 5354SOL     OW27520   4.529   0.908   8.739 -0.3067  0.2609 -0.4741
 5354SOL    HW127521   4.584   0.840   8.701 -2.2082 -0.7047 -1.5326
 5354SOL    HW227522   4.471   0.872   8.806  1.0380 -0.2597  0.3969
 5355SOL     OW27523   1.647   4.711   1.564  0.3857  0.1470  0.3672
 5355SOL    HW127524   1.723   0.026   1.519 -0.0659 -0.0330 -0.5413
 5355SOL    HW227525   1.592   0.065   1.584 -1.2644 -0.8891 -0.1784
 5356SOL     OW27526   3.988   2.435   7.591 -0.4627 -0.2668 -0.2617
 5356SOL    HW127527   4.062   2.402   7.542 -0.3597 -1.7851  0.9120
 5356SOL    HW227528   3.940   2.355   7.614 -2.9090  1.3818  0.4145
 5357SOL     OW27529   3.110   3.634   7.391 -0.0281  0.0846  0.5969
 5357SOL    HW127530   3.172   3.689   7.343  2.3940 -0.8799  2.6837
 5357SOL    HW227531   3.112   3.685   7.472 -2.6365 -1.4102  1.5833
 5358SOL     OW27532   2.712   2.576   6.436 -0.3157  0.3025  0.2342
 5358SOL    HW127533   2.652   2.561   6.363  2.7922  2.3510 -2.7758
 5358SOL    HW227534   2.764   2.500   6.410  2.4393  2.9300 -2.0074
 5359SOL     OW27535   0.829   2.384  10.005  0.0693  0.2491 -0.0667
 5359SOL    HW127536   0.858   2.341   9.925  1.5096  0.4046  0.3761
 5359SOL    HW227537   0.842   2.306  10.060 -3.4066 -0.6548 -0.4919
 5360SOL     OW27538   1.622   0.148   3.083 -0.5793 -0.2973  0.0195
 5360SOL    HW127539   1.702   0.150   3.030 -0.7075  0.7798 -0.1367
 5360SOL    HW227540   1.579   0.082   3.028  0.8621 -1.1654 -0.0527
 5361SOL     OW27541   4.602   4.209   3.281 -0.1381  0.5331  0.0340
 5361SOL    HW127542   4.636   4.293   3.253 -0.0698  0.2559 -0.7069
 5361SOL    HW227543   4.591   4.243   3.370  2.0355  0.2383  0.4273
 5362SOL     OW27544   1.346   3.017   2.560 -0.1968 -0.7051  0.5413
 5362SOL    HW127545   1.346   2.934   2.607  0.6510 -1.4982 -0.8371
 5362SOL    HW227546   1.257   3.047   2.577 -0.3658  1.2414 -3.7841
 5363SOL     OW27547   2.209   4.166   7.213 -0.6570 -0.1410 -0.1761
 5363SOL    HW127548   2.218   4.258   7.188 -0.1664 -0.6176 -1.7511
 5363SOL    HW227549   2.133   4.194   7.264  0.1727  2.3160 -0.3236
 5364SOL     OW27550   1.571   2.721  15.939  0.5680  0.0199  1.0351
 5364SOL    HW127551   1.484   2.683  15.928  1.6401 -1.9094 -0.7494
 5364SOL    HW227552   1.612   2.642  15.906  0.9744  0.9805 -0.7458
 5365SOL     OW27553   0.722   2.608   0.448  0.3119  0.6758 -0.1828
 5365SOL    HW127554   0.632   2.617   0.480  0.7292  0.7942  0.9417
 5365SOL    HW227555   0.736   2.673   0.379 -0.1209  1.3178  0.3297
 5366SOL     OW27556   1.210   3.030  17.485 -0.4862 -0.0132 -0.1768
 5366SOL    HW127557   1.205   2.967  17.557  1.7378 -1.4864 -1.3044
 5366SOL    HW227558   1.222   3.112  17.533 -0.6487  0.1776 -0.4631
 5367SOL     OW27559   0.168   1.585   8.602 -0.5139 -0.0002 -0.3077
 5367SOL    HW127560   0.077   1.613   8.615 -1.5304 -3.4185 -0.0461
 5367SOL    HW227561   0.202   1.609   8.688  1.7019 -1.1766 -0.8722
 5368SOL     OW27562   1.005   1.009   7.939 -0.0464 -0.2666  0.1180
 5368SOL    HW127563   1.025   1.103   7.939  1.4483 -0.5825 -2.8523
 5368SOL    HW227564   1.008   0.992   7.845 -0.5381  0.5040 -0.0400
 5369SOL     OW27565   2.646   3.838   3.984  0.4079 -0.1999  0.0888
 5369SOL    HW127566   2.590   3.762   3.971  1.3742 -0.7292 -0.8995
 5369SOL    HW227567   2.580   3.908   3.980 -0.6940 -1.0389  3.2028
 5370SOL     OW27568   0.503   1.171   6.659  0.4302 -0.0894 -0.3942
 5370SOL    HW127569   0.460   1.140   6.579  1.7264 -0.2328 -1.0313
 5370SOL    HW227570   0.434   1.222   6.701 -1.4231 -1.3595 -1.9188
 5371SOL     OW27571   0.089   1.229   2.999  0.0809  0.1576 -0.0306
 5371SOL    HW127572   0.020   1.245   2.936  0.7631 -0.2139 -0.8795
 5371SOL    HW227573   0.153   1.176   2.950  1.7116  1.1964  0.9647
 5372SOL     OW27574   3.429   4.635   0.268  0.1479  0.5152  0.1013
 5372SOL    HW127575   3.370   4.671   0.334  0.5326 -0.1715  0.8262
 5372SOL    HW227576   3.499   4.602   0.326 -0.2641  1.9258  1.3951
 5373SOL     OW27577   3.078   1.230  10.317 -0.0965  1.2456  0.3864
 5373SOL    HW127578   3.080   1.325  10.324 -1.4523  1.1540  2.1423
 5373SOL    HW227579   3.104   1.204  10.405  3.7760 -0.2124 -1.1940
 5374SOL     OW27580   2.505   0.982   2.223  0.6872 -0.1474  0.1411
 5374SOL    HW127581   2.539   0.991   2.134 -0.3112  0.8989 -0.1315
 5374SOL    HW227582   2.557   0.908   2.255 -1.2242 -1.1180  1.0054
 5375SOL     OW27583   3.677   1.791  13.106  0.1955  0.0071  0.3403
 5375SOL    HW127584   3.732   1.713  13.115  1.0681  0.3959 -1.7344
 5375SOL    HW227585   3.657   1.809  13.198  0.8545  3.6520 -0.2368
 5376SOL     OW27586   3.284   2.929   4.395 -0.2069  0.1009 -0.1969
 5376SOL    HW127587   3.369   2.920   4.439  0.0937 -2.1899 -1.2390
 5376SOL    HW227588   3.311   2.891   4.311  1.2128 -0.0157  0.3151
 5377SOL     OW27589   0.532   1.410   7.025 -0.2747 -0.1516 -0.2107
 5377SOL    HW127590   0.452   1.445   7.065  1.1580  2.3723  0.4241
 5377SOL    HW227591   0.518   1.319   7.054 -1.3316  0.2153  0.4359
 5378SOL     OW27592   4.233   4.703  11.210 -0.2068  0.3764  0.8223
 5378SOL    HW127593   4.254   4.610  11.216 -0.1580  0.2748 -0.8667
 5378SOL    HW227594   4.286   0.014  11.137  0.4626 -1.8185  0.3041
 5379SOL     OW27595   1.662   4.205   3.266 -0.0434  0.0400 -0.1613
 5379SOL    HW127596   1.755   4.214   3.245  0.3317 -2.1460  0.5557
 5379SOL    HW227597   1.672   4.196   3.361  0.2430 -2.5739 -0.4374
 5380SOL     OW27598   2.497   4.575   5.517  0.4150 -0.3163  0.1980
 5380SOL    HW127599   2.461   4.537   5.436 -0.6179  1.8598 -0.3764
 5380SOL    HW227600   2.418   4.618   5.550  1.3989 -1.3304  3.7517
 5381SOL     OW27601   3.882   4.075   6.027 -0.1188  0.3373 -0.2606
 5381SOL    HW127602   3.880   4.055   6.120  3.2492  0.5082 -0.1259
 5381SOL    HW227603   3.847   4.164   6.033 -0.3347  0.2502 -0.2511
 5382SOL     OW27604   0.441   3.114   6.662  0.5878  0.5834 -0.3649
 5382SOL    HW127605   0.442   3.190   6.604  0.9149  0.7184 -0.1849
 5382SOL    HW227606   0.534   3.093   6.653  0.2262 -0.8623 -0.7131
 5383SOL     OW27607   0.118   4.356  10.408 -0.4419 -0.1634 -0.1253
 5383SOL    HW127608   0.153   4.267  10.417 -2.2830 -0.8784 -0.1235
 5383SOL    HW227609   0.181   4.418  10.447 -0.1846 -1.5037  1.6101
 5384SOL     OW27610   2.931   4.245  10.447 -0.1536 -0.5736  0.0600
 5384SOL    HW127611   2.864   4.307  10.473 -0.7699 -1.3328  0.2793
 5384SOL    HW227612   3.002   4.295  10.405 -0.6541 -2.3078 -2.8585
 5385SOL     OW27613   0.300   1.344   5.794 -0.5320  0.1053  0.0730
 5385SOL    HW127614   0.219   1.396   5.791  0.1511  1.3744  2.8310
 5385SOL    HW227615   0.280   1.291   5.871 -0.0902 -2.8930 -1.9162
 5386SOL     OW27616   3.787   2.386  11.517 -0.0663  0.2682  0.5264
 5386SOL    HW127617   3.830   2.351  11.440 -1.1895  0.1804 -0.0693
 5386SOL    HW227618   3.765   2.473  11.483  2.5075  1.4869  1.9627
 5387SOL     OW27619   3.551   0.825  15.898  0.6546 -0.2172  0.0888
 5387SOL    HW127620   3.578   0.910  15.862 -1.5649  1.5555  2.5841
 5387SOL    HW227621   3.628   0.768  15.898  0.4094 -0.5437  0.2504
 5388SOL     OW27622   3.961   1.799   6.090  0.3476 -0.1993 -0.4567
 5388SOL    HW127623   3.880   1.752   6.108 -0.1552  0.5889 -0.6944
 5388SOL    HW227624   3.966   1.806   5.995  1.8514 -1.2711 -0.4618
 5389SOL     OW27625   2.972   2.721   3.021  0.1914 -0.0552 -0.2676
 5389SOL    HW127626   2.930   2.713   2.935  0.5548  0.7234 -0.5110
 5389SOL    HW227627   2.943   2.804   3.058 -0.5248 -0.6740  0.5598
 5390SOL     OW27628   1.680   1.981   9.306 -0.4115 -0.1127  0.2499
 5390SOL    HW127629   1.624   2.014   9.375 -0.4782 -0.0625  0.1708
 5390SOL    HW227630   1.625   1.997   9.229  0.2073  2.2405  0.3104
 5391SOL     OW27631   1.802   4.386   2.809 -0.0437 -0.1479  0.2106
 5391SOL    HW127632   1.831   4.358   2.722 -0.9252 -0.3246 -0.0254
 5391SOL    HW227633   1.831   4.303   2.848  0.6686 -0.8438 -1.7977
 5392SOL     OW27634   4.118   0.374   8.765  0.1129 -0.4245  0.0349
 5392SOL    HW127635   4.179   0.363   8.838 -0.4246  0.5252  0.6171
 5392SOL    HW227636   4.187   0.372   8.699  0.0663  0.3155 -0.0321
 5393SOL     OW27637   0.251   2.503  16.109 -0.4762 -0.4001  0.6894
 5393SOL    HW127638   0.202   2.502  16.191 -0.0175  0.0217  0.9674
 5393SOL    HW227639   0.206   2.427  16.071  0.3299 -0.8536  0.6502
 5394SOL     OW27640   4.112   4.530   8.319 -0.2205 -0.1815  0.1709
 5394SOL    HW127641   4.139   4.591   8.250 -0.2363  1.6902  1.8052
 5394SOL    HW227642   4.109   4.586   8.397  1.0411  0.5817 -0.3215
 5395SOL     OW27643   3.775   3.909   8.606 -0.4408  0.4230  0.6094
 5395SOL    HW127644   3.834   3.966   8.656 -0.6045  1.6747 -0.6235
 5395SOL    HW227645   3.691   3.937   8.641 -1.5571 -0.6311 -1.2641
 5396SOL     OW27646   2.137   2.988  17.115  0.3463 -0.6677 -0.1341
 5396SOL    HW127647   2.213   2.982  17.172  0.4829  2.1486 -0.0141
 5396SOL    HW227648   2.106   2.898  17.121 -0.6651 -0.2479  1.0099
 5397SOL     OW27649   4.410   1.622   6.966 -0.5555 -0.3937  0.6463
 5397SOL    HW127650   4.408   1.538   7.012  0.5603  0.5498  2.4183
 5397SOL    HW227651   4.476   1.664   7.021  0.0356  0.8616 -1.0236
 5398SOL     OW27652   1.166   3.510   2.949 -0.3279  0.3872 -0.3421
 5398SOL    HW127653   1.088   3.554   2.915 -0.9484  1.0810  1.9870
 5398SOL    HW227654   1.148   3.416   2.940  0.5006  0.1035  0.9556
 5399SOL     OW27655   0.021   0.867  13.307 -0.4575 -0.0925 -0.1890
 5399SOL    HW127656   0.093   0.908  13.355  0.7109 -1.8768 -0.4185
 5399SOL    HW227657   0.014   0.783  13.351 -0.0835 -1.3684 -2.5516
 5400SOL     OW27658   0.701   3.555  16.978 -0.2640 -0.2994  0.1880
 5400SOL    HW127659   0.734   3.474  16.939 -2.2191  0.6827 -3.5077
 5400SOL    HW227660   0.770   3.616  16.950  0.6575 -1.3834  0.1007
 5401SOL     OW27661   3.658   1.199   1.094 -0.0585 -0.2170 -0.5293
 5401SOL    HW127662   3.641   1.196   1.188  0.7144 -1.1047 -0.4280
 5401SOL    HW227663   3.747   1.233   1.095 -0.9506  2.0352  3.2172
 5402SOL     OW27664   3.727   1.869  13.827 -0.1707 -0.1637 -0.5631
 5402SOL    HW127665   3.632   1.863  13.839 -0.1166  0.5028  0.2069
 5402SOL    HW227666   3.744   1.959  13.856  0.1547 -0.9712  1.8113
 5403SOL     OW27667   2.890   2.817   3.846 -0.6397 -0.2561  0.2149
 5403SOL    HW127668   2.970   2.832   3.895 -0.8524 -0.7536  0.7146
 5403SOL    HW227669   2.917   2.842   3.758  1.3092  1.1789  1.2114
 5404SOL     OW27670   3.124   2.681   4.126  0.1481  0.1836  0.1094
 5404SOL    HW127671   3.091   2.620   4.061 -0.8414 -0.0462  0.8308
 5404SOL    HW227672   3.217   2.698   4.107  0.7405 -1.8856  1.0909
 5405SOL     OW27673   2.818   1.384  12.562 -0.3069  0.4457  0.2100
 5405SOL    HW127674   2.808   1.462  12.615  3.0935  0.3028  1.0449
 5405SOL    HW227675   2.750   1.332  12.605 -1.3169 -0.7928 -2.7997
 5406SOL     OW27676   2.001   2.542  14.572  0.0687 -0.1366  0.0035
 5406SOL    HW127677   1.908   2.567  14.579  0.1043  0.0442 -0.1703
 5406SOL    HW227678   2.027   2.553  14.480  2.5671 -0.7634  0.6406
 5407SOL     OW27679   0.509   3.397   8.349  0.4893 -0.0813  0.3412
 5407SOL    HW127680   0.537   3.380   8.439  0.5784 -0.8200  0.1703
 5407SOL    HW227681   0.493   3.491   8.360 -0.1808 -0.2458  0.8141
 5408SOL     OW27682   1.881   3.043  16.093 -0.5812 -0.3507 -0.4131
 5408SOL    HW127683   1.797   3.068  16.132 -0.4266  1.3012 -1.1180
 5408SOL    HW227684   1.939   3.110  16.130  0.7020 -0.8154 -1.5701
 5409SOL     OW27685   3.178   2.152   5.569 -0.6760  0.1206 -0.7629
 5409SOL    HW127686   3.139   2.234   5.600  1.3342  0.2932  1.3318
 5409SOL    HW227687   3.254   2.188   5.523  1.4415  0.0928  2.6587
 5410SOL     OW27688   1.717   0.404  10.649 -0.0649  0.1944  0.1171
 5410SOL    HW127689   1.698   0.329  10.591  0.6858  2.7204 -3.4283
 5410SOL    HW227690   1.788   0.442  10.597  1.4160 -0.9928  1.2890
 5411SOL     OW27691   3.029   3.425  12.785  0.7644  0.5165 -0.0171
 5411SOL    HW127692   3.094   3.368  12.745  1.2588  0.4241  0.9158
 5411SOL    HW227693   2.945   3.400  12.745 -0.1072 -0.0622  2.1903
 5412SOL     OW27694   2.699   4.509   8.012  0.1607  0.2092  0.4350
 5412SOL    HW127695   2.746   4.426   8.018 -2.6477 -1.3312  1.3606
 5412SOL    HW227696   2.630   4.495   8.077  0.3144  0.2618  0.6094
 5413SOL     OW27697   4.030   3.631   4.114 -0.0274  0.1735  0.0018
 5413SOL    HW127698   4.063   3.717   4.139  0.1288  0.9979 -3.1212
 5413SOL    HW227699   4.077   3.611   4.034  1.6882  0.3798  0.9501
 5414SOL     OW27700   1.834   1.144   2.049 -0.0017 -0.3435 -0.1089
 5414SOL    HW127701   1.847   1.223   2.101  0.4390 -0.5884  0.1586
 5414SOL    HW227702   1.739   1.133   2.050 -0.1236  0.7584 -0.0106
 5415SOL     OW27703   0.656   3.115  13.597  0.2877  0.3833 -0.0364
 5415SOL    HW127704   0.655   3.036  13.544  3.3220 -1.7955  3.1616
 5415SOL    HW227705   0.740   3.132  13.640 -0.0341  1.3996  0.2053
 5416SOL     OW27706   0.005   1.643  10.485 -0.5709  0.5022  0.1760
 5416SOL    HW127707   0.038   1.637  10.396  0.6707 -1.4835  0.7815
 5416SOL    HW227708   0.043   1.564  10.524  1.7769  2.2853  1.4826
 5417SOL     OW27709   1.915   4.201   3.132 -0.6987 -0.4273 -0.2514
 5417SOL    HW127710   1.953   4.122   3.170 -0.8364 -0.0258  0.7340
 5417SOL    HW227711   1.979   4.227   3.066 -0.7883  0.5679  0.0455
 5418SOL     OW27712   2.025   3.164  14.775 -0.0381 -0.8916  0.0379
 5418SOL    HW127713   1.942   3.164  14.822 -0.2369 -1.5584 -0.3169
 5418SOL    HW227714   2.080   3.226  14.823  0.5362 -1.9474  0.7534
 5419SOL     OW27715   3.989   4.383   7.960 -0.1282 -0.2043 -0.0084
 5419SOL    HW127716   4.000   4.291   7.983 -0.8638 -0.0241  1.0420
 5419SOL    HW227717   3.947   4.418   8.039  0.5609 -0.1085  0.3098
 5420SOL     OW27718   0.891   1.854  12.003 -0.3551  0.6572 -0.1258
 5420SOL    HW127719   0.891   1.766  11.967  2.2680  0.9715 -0.9194
 5420SOL    HW227720   0.976   1.882  11.968 -1.1250  2.3267 -0.6646
 5421SOL     OW27721   3.607   1.852  13.376 -0.0414 -0.2593  0.0802
 5421SOL    HW127722   3.581   1.938  13.343  0.2203 -0.8317 -1.6227
 5421SOL    HW227723   3.537   1.843  13.441  0.6541  0.6314  0.9498
 5422SOL     OW27724   2.805   2.331  12.488  0.6690 -0.2319 -0.2737
 5422SOL    HW127725   2.829   2.326  12.580 -0.4165  0.4668  0.0381
 5422SOL    HW227726   2.883   2.374  12.453  1.2096 -0.4316  0.6776
 5423SOL     OW27727   4.541   0.452   2.154 -0.0817 -0.0120  0.4972
 5423SOL    HW127728   4.457   0.423   2.191 -1.0884  0.4693 -1.3853
 5423SOL    HW227729   4.522   0.443   2.060 -0.7080 -1.5594  0.7889
 5424SOL     OW27730   4.365   1.545   7.458 -0.0531 -0.4503 -0.7496
 5424SOL    HW127731   4.358   1.582   7.546  0.0576  1.7368 -1.6551
 5424SOL    HW227732   4.422   1.606   7.410 -0.5333 -1.0399 -2.0621
 5425SOL     OW27733   2.264   1.928   5.614  0.0448 -0.0241  0.6456
 5425SOL    HW127734   2.215   1.848   5.592  1.6021 -0.9159  0.3734
 5425SOL    HW227735   2.281   1.962   5.526 -1.2514 -0.6303  0.1489
 5426SOL     OW27736   3.222   3.901   9.061  0.1361  0.7757 -0.0503
 5426SOL    HW127737   3.148   3.848   9.090  0.0377 -0.7039 -3.0172
 5426SOL    HW227738   3.275   3.841   9.009 -0.1605  1.3863 -1.0545
 5427SOL     OW27739   3.070   2.479   8.916  0.1368  0.2216 -0.4582
 5427SOL    HW127740   3.098   2.525   8.837  0.3656  0.1692 -0.4066
 5427SOL    HW227741   3.039   2.394   8.886 -0.8669  0.9402 -1.5022
 5428SOL     OW27742   3.014   1.724   0.864  0.2522 -0.2836  0.2720
 5428SOL    HW127743   3.018   1.724   0.768 -1.2325 -0.1288  0.2009
 5428SOL    HW227744   2.929   1.760   0.891 -0.3296 -2.0365  0.7889
 5429SOL     OW27745   1.180   3.027   4.178  0.0972  0.1723  0.0657
 5429SOL    HW127746   1.134   2.950   4.211 -0.7963  1.0113  0.7849
 5429SOL    HW227747   1.132   3.041   4.096  0.5728 -2.1720 -0.6030
 5430SOL     OW27748   3.256   4.504   0.123 -0.0587 -0.5048  0.6013
 5430SOL    HW127749   3.318   4.547   0.181  0.3508  1.7063 -1.4835
 5430SOL    HW227750   3.171   4.531   0.159 -1.2733  0.4791 -2.9167
 5431SOL     OW27751   4.309   3.773   7.831  0.2031 -0.1783 -0.8036
 5431SOL    HW127752   4.351   3.850   7.794  1.8635 -1.2063 -1.0631
 5431SOL    HW227753   4.380   3.710   7.820 -0.3349 -1.1208  1.0442
 5432SOL     OW27754   4.029   1.927   4.872 -0.5181 -0.0182 -0.5547
 5432SOL    HW127755   4.067   1.886   4.795  0.9882  0.7290 -0.2125
 5432SOL    HW227756   4.010   1.850   4.926 -0.3021  0.5049  0.2759
 5433SOL     OW27757   3.530   4.104   4.595 -0.3409 -0.2933  0.2069
 5433SOL    HW127758   3.552   4.051   4.672 -0.4450 -1.0269 -0.2700
 5433SOL    HW227759   3.496   4.040   4.532  0.9237  0.3189 -1.0957
 5434SOL     OW27760   0.755   0.686  14.961  0.2743  0.4032  0.0832
 5434SOL    HW127761   0.795   0.612  15.007 -3.6952 -2.5305 -1.2162
 5434SOL    HW227762   0.665   0.653  14.952  0.1415  0.7179  0.2719
 5435SOL     OW27763   0.479   2.154   2.608 -0.2517  0.4065 -0.5293
 5435SOL    HW127764   0.404   2.211   2.592  0.2562  1.3090  0.3743
 5435SOL    HW227765   0.550   2.214   2.586 -1.4400  1.5654 -1.2187
 5436SOL     OW27766   2.046   4.502   8.022  0.3157 -0.5372 -0.0071
 5436SOL    HW127767   2.031   4.408   8.012 -0.0457 -0.7348  2.2390
 5436SOL    HW227768   1.999   4.526   8.102 -0.7845  2.3834 -1.5664
 5437SOL     OW27769   4.267   2.704   8.187  0.3351  0.1251  0.0337
 5437SOL    HW127770   4.227   2.760   8.253 -0.9059 -0.8845  0.1260
 5437SOL    HW227771   4.299   2.623   8.228 -0.9191 -0.8305 -0.8938
 5438SOL     OW27772   4.650   4.450   7.333  0.8524 -0.0983 -0.2657
 5438SOL    HW127773   4.614   4.441   7.245 -1.4333  0.3330  0.6317
 5438SOL    HW227774   4.643   4.364   7.376 -0.6742  0.5425  0.7698
 5439SOL     OW27775   4.101   1.715   0.025 -0.2065  0.1032 -0.1262
 5439SOL    HW127776   4.194   1.696   0.034 -0.3156 -0.6732 -0.7198
 5439SOL    HW227777   4.085   1.772   0.100  2.2331  0.0089  0.4474
 5440SOL     OW27778   4.306   2.433  14.831  0.0447  0.6364  0.2375
 5440SOL    HW127779   4.290   2.516  14.875  0.3145  0.6452  0.3177
 5440SOL    HW227780   4.222   2.422  14.786  1.1136 -0.4887 -1.4931
 5441SOL     OW27781   1.314   2.873   5.913  0.3494 -0.7003 -0.6861
 5441SOL    HW127782   1.328   2.965   5.937 -4.3747  0.3211 -1.8366
 5441SOL    HW227783   1.403   2.850   5.938  0.9336  0.8028 -1.3682
 5442SOL     OW27784   3.730   4.457   3.261 -0.1557  0.2886  0.0194
 5442SOL    HW127785   3.788   4.381   3.256  0.3005  0.5955  0.6014
 5442SOL    HW227786   3.666   4.409   3.314  0.1879  1.3608  1.4098
 5443SOL     OW27787   0.105   1.943   8.719 -0.0664  0.9803  0.2765
 5443SOL    HW127788   0.158   1.875   8.760 -0.9125  0.4163  0.4318
 5443SOL    HW227789   0.062   1.988   8.791 -2.7909 -0.1298 -0.6464
 5444SOL     OW27790   1.508   0.650   5.369  0.2461 -0.4155  0.3962
 5444SOL    HW127791   1.543   0.564   5.345  1.7394  0.2566  0.1354
 5444SOL    HW227792   1.414   0.633   5.363  0.2604 -0.3049 -0.0933
 5445SOL     OW27793   2.918   3.627  16.126 -0.6577  0.0190  0.8755
 5445SOL    HW127794   2.822   3.620  16.125 -0.3378 -4.4154 -0.5135
 5445SOL    HW227795   2.939   3.634  16.219  1.1843  0.7844  0.3977
 5446SOL     OW27796   2.372   1.295   8.674 -0.4745  0.6629  0.2040
 5446SOL    HW127797   2.283   1.265   8.655 -0.5294 -0.3039  1.9882
 5446SOL    HW227798   2.416   1.300   8.589  1.7849 -0.7351  1.3144
 5447SOL     OW27799   1.564   3.108  16.942 -0.3828  0.0582 -0.6528
 5447SOL    HW127800   1.613   3.177  16.986  0.7191 -1.8312  1.0195
 5447SOL    HW227801   1.474   3.117  16.973 -0.2964 -1.2198 -0.0276
 5448SOL     OW27802   4.654   3.236  17.552 -0.2026  0.4342  0.3457
 5448SOL    HW127803   4.563   3.231  17.523  0.4297 -1.3892 -1.3534
 5448SOL    HW227804   4.697   3.155  17.524 -2.5647 -0.3840 -0.8736
 5449SOL     OW27805   0.409   4.182   6.396  0.0755  0.2338  0.5749
 5449SOL    HW127806   0.427   4.224   6.480 -1.1117 -1.2694  1.5773
 5449SOL    HW227807   0.386   4.092   6.420 -1.5259  0.6169  0.5028
 5450SOL     OW27808   1.640   3.060   5.790 -0.3290  0.9739  0.2008
 5450SOL    HW127809   1.670   2.970   5.795  1.6091  1.5666 -0.9304
 5450SOL    HW227810   1.569   3.056   5.725 -1.5567  2.4220  1.4504
 5451SOL     OW27811   1.228   2.169   2.989  0.0732 -0.6453 -0.6552
 5451SOL    HW127812   1.194   2.244   2.941 -0.1345  1.4615  2.7946
 5451SOL    HW227813   1.147   2.136   3.027 -0.4422  1.0423 -0.3177
 5452SOL     OW27814   0.635   2.716   2.839  1.0590 -0.3713  0.5346
 5452SOL    HW127815   0.681   2.793   2.872  1.0333  0.9866 -2.6556
 5452SOL    HW227816   0.659   2.651   2.906  2.4484 -0.7217 -0.3160
 5453SOL     OW27817   0.766   4.488  15.412 -0.4972  0.1303 -0.6117
 5453SOL    HW127818   0.678   4.502  15.377 -0.2216 -0.0973 -1.3945
 5453SOL    HW227819   0.745   4.508  15.503 -0.6809  1.5957 -0.9698
 5454SOL     OW27820   1.835   1.985   0.327 -0.3591  0.2141 -0.5667
 5454SOL    HW127821   1.795   1.901   0.350 -1.0573  1.2221  1.8601
 5454SOL    HW227822   1.760   2.044   0.341  0.2286 -0.0561  3.6070
 5455SOL     OW27823   2.061   3.227   6.387 -0.4638 -0.5227  0.5494
 5455SOL    HW127824   1.991   3.265   6.335 -0.8537 -2.3550 -0.2471
 5455SOL    HW227825   2.028   3.138   6.396 -0.8915 -0.6332 -2.0008
 5456SOL     OW27826   4.091   3.928  13.889 -0.1520  0.5738  0.5104
 5456SOL    HW127827   4.138   3.869  13.948 -1.0857  1.0366  1.7169
 5456SOL    HW227828   4.078   3.872  13.812 -1.9564  0.2268  1.0684
 5457SOL     OW27829   3.115   3.908   3.985  0.5013 -0.2724 -0.4821
 5457SOL    HW127830   3.103   3.869   4.072 -1.0609 -0.7621 -0.9192
 5457SOL    HW227831   3.141   3.832   3.933 -0.8783 -1.1256  0.0660
 5458SOL     OW27832   3.435   0.750   4.740  0.3599  0.0344 -0.5920
 5458SOL    HW127833   3.525   0.731   4.716  0.0425  0.8572 -2.4364
 5458SOL    HW227834   3.395   0.664   4.726  0.6049 -0.1935  0.1477
 5459SOL     OW27835   3.429   4.644  15.472  0.3350  0.0592 -0.3801
 5459SOL    HW127836   3.413   4.566  15.418  0.8007 -0.6684  0.5311
 5459SOL    HW227837   3.418   4.709  15.403 -0.9063 -0.1368 -0.3517
 5460SOL     OW27838   4.346   0.825   7.082  0.3530  0.5666 -0.0999
 5460SOL    HW127839   4.281   0.823   7.012  0.7131  2.7312 -0.4746
 5460SOL    HW227840   4.374   0.915   7.097  0.0301  0.4722  1.1122
 5461SOL     OW27841   0.427   2.799   9.148 -0.3760  0.4891  0.0112
 5461SOL    HW127842   0.411   2.706   9.132 -0.5626  0.2315  1.7453
 5461SOL    HW227843   0.395   2.795   9.238 -2.5895  0.8947 -0.7697
 5462SOL     OW27844   4.274   4.314   2.019 -0.8229 -0.2073 -0.2604
 5462SOL    HW127845   4.247   4.266   2.097  1.2050 -1.2552 -0.2106
 5462SOL    HW227846   4.321   4.247   1.971  0.5788  0.9547 -0.5283
 5463SOL     OW27847   2.605   3.066   5.289  0.5988  0.1911  0.0331
 5463SOL    HW127848   2.663   3.129   5.332  1.5337 -1.9613  1.8969
 5463SOL    HW227849   2.556   3.120   5.227  1.8088  0.4658 -0.6878
 5464SOL     OW27850   2.758   4.516   4.856  0.0432  0.0891  0.1061
 5464SOL    HW127851   2.839   4.567   4.858 -0.6212  1.1196  0.9678
 5464SOL    HW227852   2.725   4.529   4.945 -0.0320  0.4625  0.0249
 5465SOL     OW27853   2.877   1.947  13.004  0.6234  0.3901  0.1576
 5465SOL    HW127854   2.883   1.995  13.087  1.0419 -1.2353  1.0684
 5465SOL    HW227855   2.970   1.934  12.985  0.3216  0.8357 -1.5661
 5466SOL     OW27856   2.468   1.832  10.431 -0.3331  0.1828 -0.0077
 5466SOL    HW127857   2.493   1.849  10.340 -0.7440  2.7449  0.3742
 5466SOL    HW227858   2.414   1.753  10.426  1.0200 -0.7634  0.0665
 5467SOL     OW27859   2.452   0.177   6.189  0.3400  0.3663 -0.4082
 5467SOL    HW127860   2.389   0.161   6.118 -1.4908  1.9391  0.8613
 5467SOL    HW227861   2.518   0.129   6.139 -0.7276 -2.6321  1.0260
 5468SOL     OW27862   0.939   3.170  10.196  0.1481 -0.4440 -0.2529
 5468SOL    HW127863   0.902   3.106  10.257 -1.6725  2.4633  1.6321
 5468SOL    HW227864   0.986   3.225  10.259 -1.3527 -0.0557  0.5055
 5469SOL     OW27865   1.748   0.812   6.061 -0.0958 -0.5726  0.5268
 5469SOL    HW127866   1.660   0.835   6.092 -0.8046 -0.7307 -1.3416
 5469SOL    HW227867   1.724   0.792   5.970 -0.0089  0.8887  0.1769
 5470SOL     OW27868   2.183   4.171   3.790 -0.1953  0.3008  0.4647
 5470SOL    HW127869   2.220   4.095   3.745  2.1239  2.0652 -0.5986
 5470SOL    HW227870   2.215   4.158   3.880  2.8553  0.2252 -0.6493
 5471SOL     OW27871   3.686   0.692   4.982  0.0909 -0.2711  0.4269
 5471SOL    HW127872   3.710   0.647   5.063 -3.2341  0.1739  1.6561
 5471SOL    HW227873   3.725   0.779   4.987  0.4238 -0.2411 -2.5854
 5472SOL     OW27874   1.154   2.584   2.050  0.4081  0.0578  0.2879
 5472SOL    HW127875   1.150   2.531   1.971  1.8971  0.7474 -0.2536
 5472SOL    HW227876   1.068   2.581   2.091  0.3691  0.2497  0.2222
 5473SOL     OW27877   1.337   1.653   2.952  0.5055  0.2898 -0.2948
 5473SOL    HW127878   1.277   1.624   3.020 -0.7833 -1.4539 -2.1759
 5473SOL    HW227879   1.420   1.650   3.000 -0.6292 -0.7755  1.5834
 5474SOL     OW27880   4.372   3.116   1.833  0.1334  0.5186 -0.1556
 5474SOL    HW127881   4.324   3.102   1.751 -0.8553  1.7432  0.2178
 5474SOL    HW227882   4.320   3.062   1.893  0.5542  1.3408  0.9277
 5475SOL     OW27883   2.726   2.838   9.225  0.3799 -0.2042 -0.0559
 5475SOL    HW127884   2.774   2.781   9.165  0.9012 -1.5581  1.6581
 5475SOL    HW227885   2.637   2.830   9.190 -0.3387  1.0937  1.5190
 5476SOL     OW27886   1.695   4.440  10.714  0.6107  0.3331 -0.0840
 5476SOL    HW127887   1.771   4.383  10.724  0.8306  0.5143 -0.7584
 5476SOL    HW227888   1.627   4.396  10.663 -1.2389  0.1176  2.5707
 5477SOL     OW27889   1.962   4.591   7.209 -0.2258  0.0860  0.2562
 5477SOL    HW127890   1.951   4.587   7.304  0.2346 -0.3432  0.2931
 5477SOL    HW227891   1.973   4.686   7.199  0.3813  0.1883  1.9313
 5478SOL     OW27892   3.494   2.198   1.022  0.0550  0.1260  0.1229
 5478SOL    HW127893   3.418   2.242   0.984 -1.6549 -1.0400  2.2590
 5478SOL    HW227894   3.477   2.219   1.114  2.3740  2.2942  0.0635
 5479SOL     OW27895   0.874   2.488  13.185  0.0799  0.7880  0.3008
 5479SOL    HW127896   0.960   2.469  13.221  0.3141  3.3266  1.0833
 5479SOL    HW227897   0.905   2.482  13.095  0.3073 -0.3556  0.4634
 5480SOL     OW27898   2.577   0.731   5.864 -0.1778  0.3089  0.6029
 5480SOL    HW127899   2.616   0.784   5.794  0.7831 -0.3790  0.6240
 5480SOL    HW227900   2.597   0.783   5.942  0.7495 -0.2607  0.7347
 5481SOL     OW27901   0.570   1.356   8.982 -0.7793 -0.1334  0.0954
 5481SOL    HW127902   0.576   1.406   9.064  1.5214  1.6288 -1.1163
 5481SOL    HW227903   0.477   1.341   8.967 -0.9967  1.0923  0.1948
 5482SOL     OW27904   2.113   3.891   0.896 -0.0203 -0.2742 -0.0322
 5482SOL    HW127905   2.046   3.959   0.907  2.6195  2.0436  1.7555
 5482SOL    HW227906   2.060   3.812   0.907 -1.9694  1.1638  0.8631
 5483SOL     OW27907   0.889   3.245   0.789  0.4675  0.6605 -0.3998
 5483SOL    HW127908   0.911   3.334   0.816  0.5128  0.3442  0.5968
 5483SOL    HW227909   0.800   3.256   0.822  0.7331  1.0935  0.1778
 5484SOL     OW27910   4.184   3.102  15.930  0.5001  0.0631 -0.3773
 5484SOL    HW127911   4.214   3.192  15.915 -0.6043  0.8085  1.9848
 5484SOL    HW227912   4.172   3.067  15.842  2.4735  2.0621 -1.4644
 5485SOL     OW27913   2.817   4.483   8.312 -0.6152  0.5487 -0.5612
 5485SOL    HW127914   2.809   4.572   8.279  1.9413  1.2724  0.8148
 5485SOL    HW227915   2.779   4.429   8.242  0.2083 -1.6200  0.6481
 5486SOL     OW27916   3.035   4.031   4.976 -0.7271 -0.0947  0.8285
 5486SOL    HW127917   2.952   4.016   5.023 -1.5348  3.3162  0.4938
 5486SOL    HW227918   3.020   3.992   4.890  1.4288  0.5465  0.1733
 5487SOL     OW27919   1.315   1.516  11.047  0.1197 -0.2062 -0.5219
 5487SOL    HW127920   1.383   1.456  11.076 -1.0324 -0.9516  0.6106
 5487SOL    HW227921   1.293   1.563  11.127  1.3395  0.0256 -0.3191
 5488SOL     OW27922   3.739   0.006  15.393 -0.1198 -0.0584 -0.2648
 5488SOL    HW127923   3.722   4.706  15.302  0.1564 -4.0780  0.6897
 5488SOL    HW227924   3.694   0.090  15.407 -0.2590 -0.2362  0.3681
 5489SOL     OW27925   0.814   2.979  11.087  0.2028 -0.1304 -0.1070
 5489SOL    HW127926   0.769   3.055  11.050  0.5973  0.7947  1.3075
 5489SOL    HW227927   0.739   2.930  11.121  1.7648 -0.5501  2.7098
 5490SOL     OW27928   2.929   0.900   3.347 -0.1284 -0.0632 -1.3574
 5490SOL    HW127929   2.881   0.969   3.392 -0.6188 -1.0850 -0.3321
 5490SOL    HW227930   2.850   0.878   3.297  0.2281  0.9878 -2.3914
 5491SOL     OW27931   0.094   1.069   4.913 -0.3138  0.5698  0.2283
 5491SOL    HW127932   0.102   0.981   4.878  0.9542  1.1163 -0.8774
 5491SOL    HW227933   0.091   1.045   5.005 -2.4744 -2.4276 -0.6226
 5492SOL     OW27934   2.381   2.623   9.514 -0.4501  0.4005 -0.2026
 5492SOL    HW127935   2.303   2.569   9.528 -1.5109  2.0671  0.2552
 5492SOL    HW227936   2.399   2.603   9.422 -0.8560 -1.0693  0.0322
 5493SOL     OW27937   1.342   0.635  10.289  0.6514 -0.0341  0.1503
 5493SOL    HW127938   1.308   0.664  10.374 -1.1229 -2.3738  0.2060
 5493SOL    HW227939   1.403   0.563  10.308  1.4689  0.8780  1.0438
 5494SOL     OW27940   1.099   1.511   8.942 -0.2771 -0.2228  0.2929
 5494SOL    HW127941   1.069   1.579   9.003  5.0909  1.1888  1.3307
 5494SOL    HW227942   1.017   1.471   8.912 -0.6541  0.1084  0.8738
 5495SOL     OW27943   2.022   3.973   0.356  0.2194  0.1733 -0.6941
 5495SOL    HW127944   2.070   3.898   0.391  0.6990  0.1676 -1.3632
 5495SOL    HW227945   2.041   4.033   0.428 -0.5274  0.7897 -1.0162
 5496SOL     OW27946   2.845   0.261   6.257  0.1754 -0.7517  0.1378
 5496SOL    HW127947   2.786   0.243   6.184 -3.4177 -1.3739  3.1490
 5496SOL    HW227948   2.784   0.318   6.305  1.5701  1.2297 -0.4325
 5497SOL     OW27949   2.738   0.132  15.680  0.3476  0.3306  0.7580
 5497SOL    HW127950   2.689   0.208  15.713 -2.0911 -0.8637 -0.1437
 5497SOL    HW227951   2.705   0.060  15.733 -0.3724  0.1684  0.0848
 5498SOL     OW27952   0.756   4.574  10.758  0.0794  0.1603  0.0132
 5498SOL    HW127953   0.790   4.492  10.792 -1.6694 -0.5085  0.1447
 5498SOL    HW227954   0.735   4.617  10.841  2.7978 -0.3749  0.9844
 5499SOL     OW27955   4.278   0.335   6.794 -0.1405 -0.5532  0.0169
 5499SOL    HW127956   4.301   0.377   6.877 -1.8960  0.8875 -0.2259
 5499SOL    HW227957   4.359   0.285   6.784 -1.3810 -2.1745 -1.7231
 5500SOL     OW27958   0.103   4.130   9.548 -0.5305 -0.2210 -0.1649
 5500SOL    HW127959   0.099   4.035   9.559  1.3889 -0.0569  1.8002
 5500SOL    HW227960   0.169   4.130   9.479  1.4635 -0.4594  1.7764
 5501SOL     OW27961   2.084   3.636   7.226 -0.1226 -0.3680 -0.2143
 5501SOL    HW127962   2.021   3.616   7.157 -1.8230 -0.5191  1.3807
 5501SOL    HW227963   2.099   3.730   7.214  1.2892 -0.3497  1.7058
 5502SOL     OW27964   1.843   1.771   7.328  0.6075 -0.0850 -0.3165
 5502SOL    HW127965   1.764   1.821   7.310  1.2105 -0.0817 -2.9984
 5502SOL    HW227966   1.861   1.788   7.420  2.7970 -0.8750 -0.5767
 5503SOL     OW27967   2.390   4.542   6.441 -0.3688 -0.6916  0.3257
 5503SOL    HW127968   2.368   4.454   6.472  1.7920 -1.8923 -1.5141
 5503SOL    HW227969   2.332   4.544   6.365  0.2678  0.2534 -0.1304
 5504SOL     OW27970   0.172   2.931   4.519 -0.1841 -0.4163  0.1457
 5504SOL    HW127971   0.258   2.911   4.481  0.6546  1.4919  1.0120
 5504SOL    HW227972   0.175   2.922   4.614 -0.0461 -0.7756  0.1073
 5505SOL     OW27973   3.747   3.590   8.810 -0.0231 -0.0866  0.3344
 5505SOL    HW127974   3.725   3.610   8.719  1.1459 -4.1181 -0.8412
 5505SOL    HW227975   3.829   3.541   8.801  1.3134  1.8877  1.5334
 5506SOL     OW27976   2.162   0.370   4.891 -0.4673  0.0783  0.1077
 5506SOL    HW127977   2.211   0.329   4.820  0.6887  2.1068 -0.2472
 5506SOL    HW227978   2.204   0.456   4.891  0.0108 -0.1472 -3.4022
 5507SOL     OW27979   3.492   4.548   9.724  0.4797 -0.6165 -0.3958
 5507SOL    HW127980   3.413   4.516   9.681 -0.9275 -0.8415  2.3483
 5507SOL    HW227981   3.543   4.578   9.649  1.0864  1.9633  1.0124
 5508SOL     OW27982   2.547   0.593   6.624 -0.7118  0.2303  0.6409
 5508SOL    HW127983   2.592   0.508   6.625 -1.6209 -0.2403  1.5784
 5508SOL    HW227984   2.587   0.633   6.702 -2.5697  3.6871 -0.1602
 5509SOL     OW27985   1.775   4.391   6.029 -0.0749  0.1716 -0.1332
 5509SOL    HW127986   1.813   4.312   6.068 -1.0225 -0.7164 -1.0329
 5509SOL    HW227987   1.800   4.457   6.094 -0.0562  0.3601 -0.3356
 5510SOL     OW27988   2.633   4.538   3.311 -0.2531  0.4035 -0.0239
 5510SOL    HW127989   2.672   4.620   3.342 -0.9677 -0.5020  3.3184
 5510SOL    HW227990   2.654   4.536   3.218  0.6869  0.4773  0.1805
 5511SOL     OW27991   3.515   2.025   3.425 -0.1389  0.0808  0.2792
 5511SOL    HW127992   3.519   2.111   3.384  0.4205 -0.4187 -0.7017
 5511SOL    HW227993   3.495   2.045   3.517  0.3040 -2.2306  0.8763
 5512SOL     OW27994   3.347   1.024   8.700  0.5533 -0.1117  0.1271
 5512SOL    HW127995   3.278   1.088   8.720  1.1472  0.0718  1.6132
 5512SOL    HW227996   3.426   1.076   8.710  0.0864  1.1119 -2.8562
 5513SOL     OW27997   1.214   3.007   3.648  0.6443  0.4310 -0.2371
 5513SOL    HW127998   1.187   3.054   3.569  0.0467  0.4413 -0.0267
 5513SOL    HW227999   1.207   2.917   3.618  2.2124  0.2067  0.0570
 5514SOL     OW28000   1.927   0.743   4.664  0.3139  0.9282 -0.0040
 5514SOL    HW128001   1.983   0.811   4.700 -1.8252  2.0618  1.1258
 5514SOL    HW228002   1.913   0.692   4.744 -0.3153  1.9568  0.5289
 5515SOL     OW28003   1.708   2.460   5.464 -0.5507  0.3034 -0.7304
 5515SOL    HW128004   1.661   2.454   5.547 -0.1902  2.6746 -0.3466
 5515SOL    HW228005   1.664   2.392   5.413 -0.7432 -0.2609  0.2068
 5516SOL     OW28006   4.320   2.403  15.554  0.8257  0.0596  0.0140
 5516SOL    HW128007   4.357   2.488  15.580 -0.1892  0.1231  1.2467
 5516SOL    HW228008   4.268   2.378  15.630 -0.6583  1.9599 -0.3698
 5517SOL     OW28009   0.817   4.000   5.600 -0.7501  0.0041  0.4660
 5517SOL    HW128010   0.888   3.941   5.576  0.9494  1.8073  1.1128
 5517SOL    HW228011   0.841   4.037   5.684  0.4023  1.3331 -0.4506
 5518SOL     OW28012   3.021   4.427   3.783 -0.1358 -0.1579 -0.4531
 5518SOL    HW128013   2.936   4.422   3.826 -0.9616  1.4017 -1.9415
 5518SOL    HW228014   3.051   4.336   3.792  1.2079  0.4723  1.4934
 5519SOL     OW28015   1.715   2.731   6.596  0.5891  0.0560 -0.6963
 5519SOL    HW128016   1.750   2.660   6.650  0.8251  0.1176 -0.7701
 5519SOL    HW228017   1.789   2.789   6.611 -0.1718  0.8783 -0.1071
 5520SOL     OW28018   0.336   3.228   4.034  0.2907 -0.0875 -0.2473
 5520SOL    HW128019   0.312   3.136   4.045 -0.9265  0.1479 -0.9319
 5520SOL    HW228020   0.396   3.222   3.959  0.4814 -0.6935 -0.0451
 5521SOL     OW28021   4.414   2.118   2.684  0.0373 -0.3017 -0.8194
 5521SOL    HW128022   4.468   2.163   2.618  1.8198 -0.6532  0.3828
 5521SOL    HW228023   4.341   2.176   2.705  0.5210 -0.5965  1.6243
 5522SOL     OW28024   0.522   1.415  13.107 -0.4644  0.0631  0.4158
 5522SOL    HW128025   0.497   1.334  13.062 -0.5090  1.5353 -2.2222
 5522SOL    HW228026   0.617   1.402  13.098 -0.6072 -2.1747  2.0577
 5523SOL     OW28027   3.703   2.380   3.157  0.1237 -0.5213 -0.5960
 5523SOL    HW128028   3.707   2.342   3.070 -1.1477  0.4465 -1.0851
 5523SOL    HW228029   3.759   2.319   3.204  1.7082  2.1376  0.9961
 5524SOL     OW28030   4.478   3.027  16.699  0.4447  0.0122 -0.1695
 5524SOL    HW128031   4.409   2.984  16.648  0.3583  2.3528 -2.0039
 5524SOL    HW228032   4.449   3.117  16.709 -1.1060 -0.3865 -1.0948
 5525SOL     OW28033   0.781   0.101   9.224  0.4633  0.4916  0.2098
 5525SOL    HW128034   0.794   0.079   9.317  1.0319  0.0097  0.0154
 5525SOL    HW228035   0.859   0.154   9.208  1.6006 -1.2885 -0.1298
 5526SOL     OW28036   3.889   1.771  12.806  0.5461  0.9778 -0.2157
 5526SOL    HW128037   3.971   1.783  12.855  0.6753  1.1341 -0.4679
 5526SOL    HW228038   3.890   1.677  12.788  0.1994  0.7971  0.7255
 5527SOL     OW28039   2.776   0.238   2.550 -0.1774  0.3653 -0.6627
 5527SOL    HW128040   2.684   0.230   2.575  0.5310  0.0637  1.8375
 5527SOL    HW228041   2.818   0.271   2.629 -1.0212  0.6709 -0.3400
 5528SOL     OW28042   2.367   1.168   9.384  0.1232  0.5669  0.0311
 5528SOL    HW128043   2.382   1.256   9.347 -2.7412  0.0979 -2.2660
 5528SOL    HW228044   2.353   1.193   9.475  1.2539  2.4042 -0.2933
 5529SOL     OW28045   4.428   4.243   0.798 -0.3668 -0.6359 -0.2229
 5529SOL    HW128046   4.442   4.260   0.891  1.5794 -0.2518 -0.5857
 5529SOL    HW228047   4.386   4.326   0.776  1.7855  0.9765  1.7110
 5530SOL     OW28048   1.726   1.122   4.915 -0.0369  0.5022 -0.5174
 5530SOL    HW128049   1.818   1.149   4.916  0.0664  0.1460 -0.3465
 5530SOL    HW228050   1.736   1.044   4.970 -2.1995  1.3904  1.1505
 5531SOL     OW28051   3.653   3.046   4.421  0.3434  0.3773 -0.2780
 5531SOL    HW128052   3.608   2.999   4.492 -0.7162 -1.4314 -2.1479
 5531SOL    HW228053   3.739   3.057   4.460  0.3346  0.1813 -0.2019
 5532SOL     OW28054   1.764   0.419  14.720  0.9435 -0.3347 -1.0592
 5532SOL    HW128055   1.731   0.481  14.785 -2.5646 -1.0220 -2.2071
 5532SOL    HW228056   1.730   0.455  14.639 -0.8893  0.0526 -0.1280
 5533SOL     OW28057   4.010   3.515   2.084 -1.0980 -0.5362  0.3127
 5533SOL    HW128058   4.013   3.537   2.177 -0.4487 -2.8748  0.8347
 5533SOL    HW228059   3.919   3.544   2.084 -0.5656  1.1487 -2.0727
 5534SOL     OW28060   3.808   2.194   2.011  0.3426  0.0646  0.6728
 5534SOL    HW128061   3.794   2.166   2.101 -0.1977  0.4775  0.7133
 5534SOL    HW228062   3.770   2.122   1.960  0.7079  0.8112 -0.6526
 5535SOL     OW28063   0.408   4.487  15.996  0.5310  0.0272  0.4148
 5535SOL    HW128064   0.352   4.410  15.993  0.2074  0.3463 -1.5275
 5535SOL    HW228065   0.415   4.513  15.904  1.2252  0.5132  0.5988
 5536SOL     OW28066   0.903   3.631  15.481  0.1829 -0.3382 -1.0402
 5536SOL    HW128067   0.994   3.643  15.456  0.4220  1.5165  0.7176
 5536SOL    HW228068   0.860   3.673  15.406  0.5812 -2.2512 -2.3302
 5537SOL     OW28069   4.455   3.081  14.627 -0.1261 -0.5555  0.6028
 5537SOL    HW128070   4.367   3.064  14.662  0.7221 -2.6669  1.7530
 5537SOL    HW228071   4.489   3.141  14.694 -1.7676  0.1597  0.7928
 5538SOL     OW28072   3.864   2.695   1.222  0.1489 -0.4790 -0.0897
 5538SOL    HW128073   3.787   2.746   1.246 -0.3536 -0.7741 -1.0580
 5538SOL    HW228074   3.924   2.755   1.265  0.6268 -1.1035  0.1180
 5539SOL     OW28075   2.366   1.346  13.660  0.0681  0.2979  0.3227
 5539SOL    HW128076   2.455   1.326  13.631 -0.3281 -1.4396  0.3075
 5539SOL    HW228077   2.311   1.326  13.585  1.0192  0.8971 -0.5290
 5540SOL     OW28078   0.259   0.743   2.537  0.0306 -0.0787 -0.1482
 5540SOL    HW128079   0.260   0.832   2.570  1.0576  0.6497 -2.1584
 5540SOL    HW228080   0.220   0.762   2.452 -1.2513  1.4121  0.7766
 5541SOL     OW28081   0.288   4.391  16.335  0.0705  0.3475  0.3599
 5541SOL    HW128082   0.271   4.484  16.324  1.2185  0.6249  0.9047
 5541SOL    HW228083   0.230   4.363  16.406  0.5832 -0.9203  0.2753
 5542SOL     OW28084   1.221   3.674   4.947  0.2432  0.0364 -0.2584
 5542SOL    HW128085   1.211   3.769   4.944  1.5662  0.2561  2.0033
 5542SOL    HW228086   1.277   3.674   5.025 -1.3598 -1.2320  0.8887
 5543SOL     OW28087   4.278   0.679   9.225 -0.9261  0.4236  0.1327
 5543SOL    HW128088   4.215   0.746   9.200 -1.7770 -0.7333 -0.8466
 5543SOL    HW228089   4.245   0.633   9.302 -1.9244  1.6325  0.4159
 5544SOL     OW28090   0.180   2.102   6.780  0.1965 -0.2250  0.4249
 5544SOL    HW128091   0.274   2.114   6.788 -0.1220  1.7509  1.2968
 5544SOL    HW228092   0.171   2.088   6.686  0.7107  1.6489  0.0842
 5545SOL     OW28093   2.649   4.012  16.459  0.3626 -0.1856  0.4581
 5545SOL    HW128094   2.588   4.042  16.391  0.1696 -2.7792 -0.4801
 5545SOL    HW228095   2.648   3.917  16.447 -2.6554 -0.2205  0.8667
 5546SOL     OW28096   1.747   2.379   7.916 -0.0412  0.4437 -0.0202
 5546SOL    HW128097   1.653   2.360   7.914 -0.2072  1.4557 -1.4838
 5546SOL    HW228098   1.783   2.355   7.831 -0.0639 -0.6717  0.2726
 5547SOL     OW28099   4.467   1.283   7.367  0.3542 -0.0525  0.0144
 5547SOL    HW128100   4.419   1.353   7.411 -0.7929 -1.3978  0.8673
 5547SOL    HW228101   4.436   1.208   7.416  0.2215 -1.4345 -2.1824
 5548SOL     OW28102   0.649   2.414   5.411  0.3023 -0.3850 -0.2470
 5548SOL    HW128103   0.710   2.429   5.339  1.1224 -2.2836  0.0316
 5548SOL    HW228104   0.693   2.434   5.493  2.2913 -1.5568 -1.0397
 5549SOL     OW28105   0.199   3.525   4.841  0.3824  0.0592 -0.0971
 5549SOL    HW128106   0.112   3.541   4.805  0.3514  0.1635  0.0255
 5549SOL    HW228107   0.185   3.574   4.922  0.7570 -1.3047  0.7813
 5550SOL     OW28108   2.759   3.734   6.017  0.6751 -0.0209  0.2240
 5550SOL    HW128109   2.684   3.683   5.987  2.5185 -2.7621  0.3488
 5550SOL    HW228110   2.776   3.695   6.103  0.1758 -1.2420 -0.2353
 5551SOL     OW28111   3.427   0.501  17.156  0.5472 -0.4191  0.0894
 5551SOL    HW128112   3.455   0.585  17.120 -2.7935  0.0882 -1.3206
 5551SOL    HW228113   3.496   0.470  17.215  0.6210 -0.5968 -0.0867
 5552SOL     OW28114   0.294   0.144   1.567 -0.3394  0.4280 -0.2650
 5552SOL    HW128115   0.226   0.084   1.598  0.4306 -0.7597 -0.8627
 5552SOL    HW228116   0.338   0.150   1.653 -0.9852 -2.2045  0.2410
 5553SOL     OW28117   3.347   3.270   6.504  0.1876  0.5305  0.0282
 5553SOL    HW128118   3.371   3.283   6.596 -2.8972  1.5053  0.6981
 5553SOL    HW228119   3.309   3.182   6.506  2.0978 -0.2163  2.8298
 5554SOL     OW28120   0.393   0.336   2.792  0.2714 -0.0249 -0.0135
 5554SOL    HW128121   0.421   0.254   2.833 -2.1357 -0.4768  0.7641
 5554SOL    HW228122   0.298   0.326   2.786 -0.0931  1.9050  2.7510
 5555SOL     OW28123   4.643   4.476  12.784 -0.4395 -0.3105  0.4085
 5555SOL    HW128124   4.696   4.397  12.793 -0.8963 -0.6356  0.2535
 5555SOL    HW228125   4.685   4.514  12.707 -1.2425 -0.5381 -0.1431
 5556SOL     OW28126   0.477   0.142   0.654  0.2410  0.1925 -0.0338
 5556SOL    HW128127   0.561   0.102   0.635 -1.0508 -3.0047  0.9469
 5556SOL    HW228128   0.440   0.144   0.566  0.5701  1.4558 -0.1417
 5557SOL     OW28129   2.340   1.926   2.841  0.0994  0.2925  0.5436
 5557SOL    HW128130   2.361   1.893   2.928 -1.3737  1.7876  1.4849
 5557SOL    HW228131   2.314   2.010   2.879  1.2296  0.6360  0.5357
 5558SOL     OW28132   2.892   1.491  12.196  1.0236  1.1127  0.5759
 5558SOL    HW128133   2.841   1.419  12.158  0.2494  1.3600  1.1468
 5558SOL    HW228134   2.958   1.498  12.127 -0.0260 -0.1824 -0.5851
 5559SOL     OW28135   2.781   0.227   9.562 -0.2744  0.2029 -0.6954
 5559SOL    HW128136   2.811   0.178   9.639  0.0434 -0.7623 -1.4364
 5559SOL    HW228137   2.697   0.259   9.595  0.9374 -0.5552  3.1139
 5560SOL     OW28138   0.911   0.729   2.285 -0.1860 -0.3294  0.4746
 5560SOL    HW128139   0.842   0.796   2.276 -2.9056 -3.2254 -0.4400
 5560SOL    HW228140   0.961   0.751   2.207  0.8100 -1.3330  0.8300
 5561SOL     OW28141   2.759   3.422   6.718  0.0277 -0.0744 -0.0086
 5561SOL    HW128142   2.818   3.435   6.643  0.8614  1.2351  0.8683
 5561SOL    HW228143   2.781   3.335   6.751 -1.1776 -0.1074  0.7145
 5562SOL     OW28144   3.549   1.704   3.767 -0.5486 -0.0186 -0.6602
 5562SOL    HW128145   3.644   1.696   3.774 -0.2571 -0.0207 -4.4324
 5562SOL    HW228146   3.537   1.778   3.826  1.2320  1.6208 -2.3580
 5563SOL     OW28147   3.115   1.116   2.827 -0.0041  0.0377 -0.3913
 5563SOL    HW128148   3.171   1.113   2.749 -0.8516  1.2392 -1.0517
 5563SOL    HW228149   3.049   1.053   2.797  0.0273 -0.3629  0.3995
 5564SOL     OW28150   0.644   1.800   5.045  0.1122 -0.6800 -0.3772
 5564SOL    HW128151   0.699   1.823   4.969  0.6423 -0.2297  0.1413
 5564SOL    HW228152   0.565   1.850   5.028 -0.1845 -1.1981 -0.5190
 5565SOL     OW28153   1.199   3.803   8.933 -0.0271  0.2831  0.3486
 5565SOL    HW128154   1.232   3.845   9.012 -0.9582  0.1463  0.8101
 5565SOL    HW228155   1.110   3.778   8.958  0.2628 -1.4590 -0.3188
 5566SOL     OW28156   0.525   0.596   6.362 -0.1994  0.6067  0.3133
 5566SOL    HW128157   0.512   0.688   6.341 -2.0698  0.2834  0.0574
 5566SOL    HW228158   0.440   0.551   6.356  0.0609  0.5549 -3.1864
 5567SOL     OW28159   2.046   1.585  14.801  0.9434 -0.0110  0.1391
 5567SOL    HW128160   2.011   1.666  14.763 -0.7208 -1.1444 -0.7337
 5567SOL    HW228161   2.141   1.594  14.795  0.6687  1.4573 -2.0618
 5568SOL     OW28162   1.900   0.832   1.796  0.1388  0.3031  0.2808
 5568SOL    HW128163   1.955   0.880   1.734 -0.7947  0.7097 -0.2304
 5568SOL    HW228164   1.955   0.833   1.874  1.8690  0.7634 -0.9358
 5569SOL     OW28165   0.705   4.695   0.669  0.7952 -0.0892 -0.3294
 5569SOL    HW128166   0.760   0.040   0.708  0.3372  0.5229 -0.7514
 5569SOL    HW228167   0.762   4.622   0.695  2.1531  0.2337 -2.4190
 5570SOL     OW28168   2.397   3.508   8.193  0.7739 -0.6924  0.5430
 5570SOL    HW128169   2.364   3.482   8.107 -0.4566  0.0501  0.7943
 5570SOL    HW228170   2.457   3.439   8.220 -0.7074 -1.8688  0.8478
 5571SOL     OW28171   3.202   0.573   8.929 -0.1438 -0.2895  0.4929
 5571SOL    HW128172   3.253   0.646   8.894 -1.1563  0.7483  1.1684
 5571SOL    HW228173   3.128   0.568   8.868 -1.3224 -0.3060  1.9138
 5572SOL     OW28174   4.521   3.401  11.658 -0.2146  0.1966  0.0998
 5572SOL    HW128175   4.544   3.308  11.663  0.3628  0.3972  1.1538
 5572SOL    HW228176   4.433   3.395  11.695  0.6036  1.1280  2.1846
 5573SOL     OW28177   3.631   1.147   5.366  0.2189  0.4014 -0.0347
 5573SOL    HW128178   3.675   1.193   5.295  0.4917  1.5967  0.9270
 5573SOL    HW228179   3.698   1.172   5.429  0.7327 -0.5502 -0.2059
 5574SOL     OW28180   2.386   0.004  17.270 -0.7622 -0.0475 -0.4571
 5574SOL    HW128181   2.321   4.671  17.228  0.0136 -0.0064 -1.6991
 5574SOL    HW228182   2.463   4.671  17.278 -2.6372 -2.2937  2.1754
 5575SOL     OW28183   2.919   0.265   5.036 -0.2777  0.3073 -0.1020
 5575SOL    HW128184   2.999   0.218   5.063 -1.2808  0.3492  2.8853
 5575SOL    HW228185   2.859   0.195   5.061 -1.6897  1.4985 -0.2122
 5576SOL     OW28186   0.096   2.704   4.205 -0.3351 -0.2403  0.0117
 5576SOL    HW128187   0.020   2.707   4.264 -0.5421  0.7116 -0.3008
 5576SOL    HW228188   0.057   2.748   4.130  1.2206  0.5335 -0.3462
 5577SOL     OW28189   3.595   1.123   7.453  0.2012  0.0104  0.2027
 5577SOL    HW128190   3.525   1.142   7.515 -0.0920 -0.2958 -0.0294
 5577SOL    HW228191   3.575   1.171   7.373  1.1223  0.2092  0.0907
 5578SOL     OW28192   3.191   3.884   9.396  0.3750 -0.2516  0.5385
 5578SOL    HW128193   3.133   3.939   9.344 -0.3413 -1.0361  0.5108
 5578SOL    HW228194   3.266   3.867   9.339 -0.7636 -0.3613 -0.9311
 5579SOL     OW28195   2.210   1.805   4.746  0.3436 -0.4580  0.3094
 5579SOL    HW128196   2.128   1.769   4.712 -0.2638 -0.2111  1.5090
 5579SOL    HW228197   2.189   1.815   4.839  1.0508  0.3268  0.3884
 5580SOL     OW28198   3.150   0.576   2.923 -0.0151  0.1285  0.2011
 5580SOL    HW128199   3.164   0.669   2.937 -3.1950  0.7140 -0.6616
 5580SOL    HW228200   3.117   0.550   3.008  2.8132 -2.2080  0.6065
 5581SOL     OW28201   2.647   1.207   1.821 -0.3487  0.5100 -0.3272
 5581SOL    HW128202   2.657   1.247   1.907  1.5202  0.1703 -0.3854
 5581SOL    HW228203   2.554   1.185   1.820  0.2270 -1.8822  1.4478
 5582SOL     OW28204   0.106   0.462  11.271  0.4501 -0.1174 -0.4576
 5582SOL    HW128205   0.127   0.419  11.354  0.7457  0.2531 -0.3419
 5582SOL    HW228206   0.145   0.548  11.284 -1.3702  0.5949  0.3048
 5583SOL     OW28207   1.059   0.205   4.866  0.0868 -0.5103  0.4869
 5583SOL    HW128208   1.152   0.211   4.846 -0.2257  0.3939 -0.6505
 5583SOL    HW228209   1.058   0.114   4.896 -1.6974 -1.5133 -2.6323
 5584SOL     OW28210   4.390   2.485   8.317  0.3219  0.4431 -0.0198
 5584SOL    HW128211   4.461   2.422   8.305  1.0552  1.2468  0.0254
 5584SOL    HW228212   4.329   2.429   8.364  2.7467 -0.8003  1.6485
 5585SOL     OW28213   4.285   1.133  14.127 -0.6869  0.3020 -0.0594
 5585SOL    HW128214   4.215   1.099  14.183  1.5363 -0.5853  2.1586
 5585SOL    HW228215   4.288   1.058  14.068  1.0683  1.9241 -2.0178
 5586SOL     OW28216   2.958   0.635  10.950 -0.0943 -0.2998  0.4348
 5586SOL    HW128217   2.988   0.564  11.007  1.8528 -1.9349 -2.6534
 5586SOL    HW228218   2.930   0.699  11.016  2.7724 -0.1628  1.5080
 5587SOL     OW28219   2.236   1.301   9.071 -0.2030 -0.7472 -0.3413
 5587SOL    HW128220   2.284   1.311   9.153 -0.3739  0.4442 -0.3910
 5587SOL    HW228221   2.173   1.239   9.106 -2.9235  2.4030  0.2912
 5588SOL     OW28222   4.361   2.014  17.042  0.2148  0.1122 -0.4650
 5588SOL    HW128223   4.332   2.082  17.102 -0.5253 -0.1994 -0.4701
 5588SOL    HW228224   4.323   2.047  16.960 -0.0301  0.5881 -0.1586
 5589SOL     OW28225   3.541   2.261  10.896  0.1406 -0.2062  0.6714
 5589SOL    HW128226   3.577   2.330  10.840  0.4163 -0.3474  0.6739
 5589SOL    HW228227   3.596   2.186  10.874  0.5444  0.1630  0.4311
 5590SOL     OW28228   0.839   4.394   2.331 -0.1900  0.2862 -0.0483
 5590SOL    HW128229   0.860   4.483   2.303 -0.7463  0.4155 -0.0672
 5590SOL    HW228230   0.831   4.360   2.242 -0.7218 -2.2832  0.9825
 5591SOL     OW28231   1.149   1.862   2.879 -0.2249  0.1318 -0.3630
 5591SOL    HW128232   1.200   1.789   2.914  1.4563  2.1024  1.3160
 5591SOL    HW228233   1.202   1.914   2.819  0.6110 -1.4937 -1.0317
 5592SOL     OW28234   3.645   4.000   8.877  0.2607  0.1578 -0.0799
 5592SOL    HW128235   3.651   4.079   8.823  0.0555  1.2577  1.5159
 5592SOL    HW228236   3.645   4.045   8.961 -0.0440  1.4840 -0.7982
 5593SOL     OW28237   3.548   2.672  10.862 -0.4175  0.2319 -0.1015
 5593SOL    HW128238   3.636   2.645  10.886 -1.7149 -2.8321  1.1564
 5593SOL    HW228239   3.532   2.722  10.943 -0.4715 -0.0716  0.0727
 5594SOL     OW28240   3.731   2.884   7.753  0.3465  0.8267 -0.6406
 5594SOL    HW128241   3.759   2.845   7.836  0.1818  3.2043  0.5341
 5594SOL    HW228242   3.660   2.824   7.729 -0.5930  0.5249  2.8983
 5595SOL     OW28243   0.294   4.678   3.892  0.4277 -0.4433  0.6745
 5595SOL    HW128244   0.345   4.603   3.860 -0.1578  0.7678 -3.1512
 5595SOL    HW228245   0.229   4.682   3.821 -1.3241  2.3554  2.4531
 5596SOL     OW28246   2.416   3.178   4.601 -1.0082  1.0536  0.0084
 5596SOL    HW128247   2.477   3.251   4.608  1.1633 -0.7327 -0.3003
 5596SOL    HW228248   2.342   3.222   4.644 -0.7991  1.6536 -0.2510
 5597SOL     OW28249   1.517   1.323   5.630  0.1786 -0.2015  0.1889
 5597SOL    HW128250   1.513   1.403   5.578  1.4505 -0.1666  0.1427
 5597SOL    HW228251   1.507   1.256   5.562 -2.3354 -0.1317  0.5053
 5598SOL     OW28252   1.136   3.434  11.174  0.2549  0.2634  0.5547
 5598SOL    HW128253   1.122   3.366  11.240 -0.7293  0.2154  0.3059
 5598SOL    HW228254   1.223   3.406  11.147  0.7593 -0.2042  2.6554
 5599SOL     OW28255   1.687   2.438   8.842 -0.0688 -0.2986  0.1393
 5599SOL    HW128256   1.755   2.381   8.805 -0.1615 -1.3958  1.6443
 5599SOL    HW228257   1.677   2.387   8.922  0.9864  0.8380  0.9960
 5600SOL     OW28258   1.308   3.368  11.474  0.1982 -0.2146 -0.1539
 5600SOL    HW128259   1.349   3.379  11.560  0.0262  0.6604 -0.1916
 5600SOL    HW228260   1.352   3.293  11.434 -1.3330 -0.8204 -0.6770
 5601SOL     OW28261   1.603   2.897   2.095  0.1265 -0.1552 -0.0090
 5601SOL    HW128262   1.526   2.847   2.066 -0.3153 -1.2455  2.9793
 5601SOL    HW228263   1.671   2.831   2.109  1.0865  0.9085  0.3385
 5602SOL     OW28264   4.043   3.575   2.362  0.3628  0.1786 -0.0989
 5602SOL    HW128265   4.121   3.572   2.417  0.3999  1.3238 -0.1011
 5602SOL    HW228266   3.967   3.595   2.417  1.4103  1.0439  1.0273
 5603SOL     OW28267   3.326   1.030   8.343 -0.0751 -0.8550 -0.2124
 5603SOL    HW128268   3.288   0.972   8.409  0.0481 -0.5997  0.0837
 5603SOL    HW228269   3.412   1.035   8.386  0.0563 -0.6208 -0.5010
 5604SOL     OW28270   0.065   2.273   8.560  0.2935 -0.6799  0.2359
 5604SOL    HW128271   0.099   2.253   8.473 -1.0495  0.9158 -0.6455
 5604SOL    HW228272   4.695   2.247   8.553  0.3030 -0.4166 -0.8521
 5605SOL     OW28273   0.686   3.577   2.833  0.1308 -0.1388  0.2026
 5605SOL    HW128274   0.748   3.647   2.855 -0.3607 -0.0550  1.3279
 5605SOL    HW228275   0.605   3.618   2.804  1.3800  1.1812 -1.4012
 5606SOL     OW28276   3.021   1.408  10.691  0.4482 -0.5571 -0.1262
 5606SOL    HW128277   3.006   1.363  10.608 -0.2438 -0.3005 -0.1417
 5606SOL    HW228278   3.007   1.342  10.758  0.9505 -0.4732  0.0577
 5607SOL     OW28279   3.212   4.033   8.028  0.2755 -0.2586  0.8038
 5607SOL    HW128280   3.280   4.002   7.967  0.0714 -4.0604  2.4800
 5607SOL    HW228281   3.144   4.061   7.966  1.4918 -0.3941 -0.5861
 5608SOL     OW28282   0.532   3.002   3.069  0.1330  0.4026  0.9044
 5608SOL    HW128283   0.597   2.948   3.025 -2.3445 -0.6490 -1.4868
 5608SOL    HW228284   0.454   3.010   3.014 -0.2358 -0.4650  1.3017
 5609SOL     OW28285   4.337   3.427   9.464  0.1421 -0.5568 -0.1750
 5609SOL    HW128286   4.293   3.503   9.425 -0.6419 -0.5891  0.6448
 5609SOL    HW228287   4.306   3.355   9.409 -1.9482 -0.2989  0.6680
 5610SOL     OW28288   3.647   1.101   3.153 -0.0588  0.3812  0.1383
 5610SOL    HW128289   3.553   1.093   3.165 -0.0881 -1.0845 -1.0213
 5610SOL    HW228290   3.663   1.027   3.095 -0.2699  0.7461 -0.3894
 5611SOL     OW28291   2.873   2.420   0.669 -0.6084 -0.1221  0.2604
 5611SOL    HW128292   2.854   2.450   0.580  1.2988  1.6927  0.4837
 5611SOL    HW228293   2.967   2.434   0.667 -1.3452  4.3820 -1.3977
 5612SOL     OW28294   2.802   3.725  14.393  0.1141  0.3671 -0.1396
 5612SOL    HW128295   2.891   3.756  14.410  0.5862 -0.5364 -0.9502
 5612SOL    HW228296   2.825   3.644  14.348 -0.0996 -0.8735  1.9556
 5613SOL     OW28297   2.227   3.020   3.502  0.4884  0.1754 -0.2715
 5613SOL    HW128298   2.202   3.109   3.476  0.9377  1.0146  2.1499
 5613SOL    HW228299   2.146   2.970   3.489 -0.3033  1.4581 -0.3151
 5614SOL     OW28300   1.003   0.671   5.313  0.0912 -0.5724  0.5708
 5614SOL    HW128301   0.971   0.693   5.400  1.7821  2.0005  0.5509
 5614SOL    HW228302   0.983   0.578   5.310 -1.5567 -0.2618  2.1791
 5615SOL     OW28303   0.730   4.569   3.008  0.2648  0.7336  0.3745
 5615SOL    HW128304   0.743   4.476   2.988 -1.7229  0.6263 -0.3861
 5615SOL    HW228305   0.791   4.577   3.082  0.5685  0.9528  0.1025
 5616SOL     OW28306   0.573   1.557  14.900  0.0667  0.3077  0.0205
 5616SOL    HW128307   0.488   1.600  14.904  0.2353  0.6653 -0.2621
 5616SOL    HW228308   0.629   1.623  14.941  0.8291 -0.1411 -0.2974
 5617SOL     OW28309   3.774   1.810   8.321  0.0130  0.4519  0.0233
 5617SOL    HW128310   3.820   1.797   8.238 -0.6163 -2.5054  0.1627
 5617SOL    HW228311   3.774   1.725   8.366 -2.5681  1.2377  1.5140
 5618SOL     OW28312   2.387   2.257   8.661  0.3067  0.1599 -0.2158
 5618SOL    HW128313   2.342   2.313   8.724  0.1037 -0.5619  0.2844
 5618SOL    HW228314   2.354   2.170   8.684 -4.5507  2.6094  2.0993
 5619SOL     OW28315   2.939   3.736  12.954 -0.2601  0.0454  0.1399
 5619SOL    HW128316   2.937   3.820  12.910 -0.0079  0.0216  0.0786
 5619SOL    HW228317   2.859   3.735  13.006  0.2735 -1.1489  0.9339
 5620SOL     OW28318   3.574   2.489  13.817  0.4046  1.0740 -0.2030
 5620SOL    HW128319   3.497   2.523  13.862  0.8897 -0.2462  1.6484
 5620SOL    HW228320   3.586   2.549  13.744 -1.0804 -0.4353 -1.7172
 5621SOL     OW28321   4.036   1.645   2.898  0.4054  0.2005  0.6041
 5621SOL    HW128322   3.963   1.707   2.891 -0.4014 -0.6538  1.3777
 5621SOL    HW228323   3.986   1.563   2.891  1.0188 -0.1244 -0.0288
 5622SOL     OW28324   3.626   3.609   7.348 -0.0321  0.0203  0.8180
 5622SOL    HW128325   3.547   3.575   7.390 -0.4136 -0.4968 -0.3493
 5622SOL    HW228326   3.694   3.583   7.410  0.0022 -0.9781  0.3570
 5623SOL     OW28327   3.137   1.082   6.210 -0.1348 -0.4969 -0.4417
 5623SOL    HW128328   3.099   1.128   6.135 -0.2884 -2.0149 -1.2866
 5623SOL    HW228329   3.159   1.159   6.262  0.6260  0.3619 -2.0351
 5624SOL     OW28330   0.221   1.275  10.917 -0.4350  0.2065 -0.2761
 5624SOL    HW128331   0.135   1.269  10.958  1.1583 -2.4229  2.6469
 5624SOL    HW228332   0.206   1.240  10.829 -0.1630 -1.9599  0.5443
 5625SOL     OW28333   2.050   4.564   3.332  0.0192  0.0262 -0.0106
 5625SOL    HW128334   2.076   4.601   3.247 -4.3525  1.1201 -0.8620
 5625SOL    HW228335   2.130   4.573   3.383  0.3815 -0.0971 -0.5531
 5626SOL     OW28336   3.195   2.450  11.470  0.2037 -0.2505 -0.7885
 5626SOL    HW128337   3.285   2.427  11.447  0.3322 -0.9631  0.4278
 5626SOL    HW228338   3.206   2.538  11.506 -1.0604 -0.6787  0.6281
 5627SOL     OW28339   2.395   0.565   4.271 -0.0346  0.2178  0.1734
 5627SOL    HW128340   2.300   0.569   4.258 -0.2775 -1.8471  1.2775
 5627SOL    HW228341   2.432   0.588   4.186 -2.5477 -0.7042 -1.1776
 5628SOL     OW28342   3.060   2.586   5.130 -0.4002 -0.0783  0.0785
 5628SOL    HW128343   3.144   2.546   5.154 -0.3877  0.8784  1.6121
 5628SOL    HW228344   3.018   2.607   5.213 -2.0266 -1.0681 -0.5014
 5629SOL     OW28345   0.865   0.882   7.502  0.2015  0.1078  0.5948
 5629SOL    HW128346   0.834   0.792   7.502 -0.7361  0.4270  3.2687
 5629SOL    HW228347   0.799   0.906   7.438 -0.0186 -0.0789  0.7524
 5630SOL     OW28348   1.062   3.551   4.529 -0.0037  0.2573 -0.2193
 5630SOL    HW128349   1.081   3.643   4.544  1.1310  0.2190 -1.4073
 5630SOL    HW228350   1.139   3.522   4.579 -0.8014 -0.2221  0.7403
 5631SOL     OW28351   0.527   0.358  10.318  0.2535  0.1758 -0.6725
 5631SOL    HW128352   0.540   0.351  10.224 -1.1411 -1.4146 -0.7403
 5631SOL    HW228353   0.432   0.357  10.328  0.4809 -0.1893  1.6481
 5632SOL     OW28354   3.372   3.355   9.459  0.0653 -0.1139  0.5020
 5632SOL    HW128355   3.409   3.396   9.381 -0.8143  0.5920  0.4520
 5632SOL    HW228356   3.408   3.406   9.532 -0.8846 -0.3177  1.1092
 5633SOL     OW28357   4.590   3.313   3.691  0.8045 -0.2941  0.0937
 5633SOL    HW128358   4.561   3.374   3.758 -1.2577 -1.4236  0.2164
 5633SOL    HW228359   4.666   3.361   3.658  0.4219  0.3680  0.1714
 5634SOL     OW28360   1.952   0.094  15.727 -0.3725  0.4502 -0.1974
 5634SOL    HW128361   2.037   0.049  15.727 -1.2661 -1.2085 -0.8332
 5634SOL    HW228362   1.950   0.117  15.820 -0.3055 -0.1279 -0.0557
 5635SOL     OW28363   0.751   3.235   8.301 -0.6512  0.0844  0.1103
 5635SOL    HW128364   0.722   3.148   8.273  0.3672 -0.8463  1.9251
 5635SOL    HW228365   0.665   3.271   8.324 -0.6749 -0.0220  0.1857
 5636SOL     OW28366   0.297   1.492   7.174 -0.7282 -0.1003  0.1695
 5636SOL    HW128367   0.243   1.568   7.195 -0.3029  0.5414 -1.0268
 5636SOL    HW228368   0.232   1.421   7.172  0.4522 -1.1767 -0.1835
 5637SOL     OW28369   2.720   1.231   5.248  0.0988 -0.1954 -0.4888
 5637SOL    HW128370   2.715   1.235   5.343 -1.1981  0.6202 -0.5837
 5637SOL    HW228371   2.753   1.313   5.210  3.8432 -1.3469  0.2578
 5638SOL     OW28372   3.490   1.120  13.595  0.4849 -0.6373  0.1022
 5638SOL    HW128373   3.496   1.075  13.679  0.0964  0.6463  0.8197
 5638SOL    HW228374   3.397   1.142  13.604  1.2004  2.9695 -1.5327
 5639SOL     OW28375   0.694   4.148   9.115  0.2217  0.4926 -0.1562
 5639SOL    HW128376   0.697   4.215   9.184  1.9890  0.3675 -0.1028
 5639SOL    HW228377   0.707   4.065   9.161  0.3875  0.2820 -0.5832
 5640SOL     OW28378   0.317   0.132  11.323  0.0126 -0.3955  0.8014
 5640SOL    HW128379   0.348   0.208  11.273  0.8965 -1.7426 -0.7100
 5640SOL    HW228380   0.298   0.073  11.250  0.1466 -0.6674  0.9895
 5641SOL     OW28381   3.918   3.238   6.252 -0.1339 -0.3289 -0.2035
 5641SOL    HW128382   3.976   3.311   6.273 -1.2238  0.8856 -1.4434
 5641SOL    HW228383   3.917   3.236   6.156  0.7687 -0.4249 -0.2082
 5642SOL     OW28384   1.221   3.285  13.107  0.1533  0.0412 -0.2893
 5642SOL    HW128385   1.209   3.207  13.162  2.2780 -0.8745 -1.1317
 5642SOL    HW228386   1.304   3.273  13.061  0.0081 -0.6940 -0.3572
 5643SOL     OW28387   4.217   3.521   7.395  0.4202 -0.0139 -0.3480
 5643SOL    HW128388   4.240   3.614   7.398 -2.1077  0.6282 -1.4664
 5643SOL    HW228389   4.246   3.489   7.309  0.4816 -1.7422  0.3085
 5644SOL     OW28390   2.975   4.566  15.600  0.4360  0.5118 -0.0833
 5644SOL    HW128391   3.070   4.562  15.595  0.3535  0.6860 -1.5632
 5644SOL    HW228392   2.956   4.479  15.565 -4.0759  1.3979  0.1242
 5645SOL     OW28393   1.853   0.459   6.778 -0.3211  0.3221 -0.0358
 5645SOL    HW128394   1.837   0.553   6.784  0.7579  0.6274 -2.0944
 5645SOL    HW228395   1.895   0.442   6.862 -0.2748  0.6301  0.0024
 5646SOL     OW28396   0.898   0.385  12.029 -0.6881  0.1557  0.1762
 5646SOL    HW128397   0.806   0.361  12.018 -1.8214  3.9088  1.5091
 5646SOL    HW228398   0.925   0.401  11.938 -0.7414 -0.8007 -0.0118
 5647SOL     OW28399   2.812   2.574   2.335  0.6889 -0.2488 -0.2245
 5647SOL    HW128400   2.818   2.481   2.312  0.0807 -0.6399  1.2092
 5647SOL    HW228401   2.775   2.613   2.256  0.5235  1.3556  0.6495
 5648SOL     OW28402   1.680   2.470   1.907  0.3650 -0.2327  0.4611
 5648SOL    HW128403   1.746   2.435   1.967  0.6010 -1.2864 -0.4244
 5648SOL    HW228404   1.633   2.533   1.963 -0.9911  0.1136 -1.0619
 5649SOL     OW28405   1.902   0.837  16.826 -0.1947  0.2248 -0.7617
 5649SOL    HW128406   1.925   0.787  16.904  1.8335 -0.9953 -2.1445
 5649SOL    HW228407   1.925   0.776  16.756 -1.4087 -1.3391  0.2139
 5650SOL     OW28408   2.250   0.581   0.143 -0.4826  0.2088 -0.4973
 5650SOL    HW128409   2.293   0.509   0.096 -0.5189  0.7541 -1.3491
 5650SOL    HW228410   2.313   0.591   0.215 -1.3668 -0.2330  0.3506
 5651SOL     OW28411   3.250   3.754   7.159  0.2851 -0.0231  0.0236
 5651SOL    HW128412   3.332   3.796   7.185  0.3796  1.2316 -2.3947
 5651SOL    HW228413   3.276   3.695   7.089 -0.2583 -2.1915  1.6258
 5652SOL     OW28414   0.246   3.248   6.367 -0.3253  0.1518  0.2256
 5652SOL    HW128415   0.222   3.270   6.457  1.0576  0.8637  0.4197
 5652SOL    HW228416   0.164   3.215   6.331  1.2076 -0.0753 -3.0420
 5653SOL     OW28417   2.343   1.638  14.755 -0.5716  0.6389 -0.0300
 5653SOL    HW128418   2.405   1.705  14.726 -0.2253  0.7136  0.8619
 5653SOL    HW228419   2.372   1.628  14.846  1.0625  0.2155 -0.5824
 5654SOL     OW28420   3.536   3.595   5.568 -0.2858  0.5123 -0.7133
 5654SOL    HW128421   3.444   3.568   5.562 -0.1723  0.3489 -1.8480
 5654SOL    HW228422   3.560   3.605   5.476 -0.7277  1.1098 -0.7632
 5655SOL     OW28423   2.476   2.559   4.148  0.2761 -0.4326  0.3742
 5655SOL    HW128424   2.549   2.577   4.088 -1.8773  2.9558 -1.1997
 5655SOL    HW228425   2.489   2.617   4.223 -1.5095 -0.5161  0.7385
 5656SOL     OW28426   0.812   0.638   6.710 -0.5582  0.2031  0.2785
 5656SOL    HW128427   0.823   0.732   6.716 -1.2126  0.1478  2.3534
 5656SOL    HW228428   0.846   0.602   6.792 -0.0657 -0.7669 -0.3529
 5657SOL     OW28429   1.461   2.036   5.757  0.6587  0.5262 -0.4371
 5657SOL    HW128430   1.431   1.977   5.688 -2.3749  1.4096  0.1354
 5657SOL    HW228431   1.415   2.116   5.731  0.7322  0.5477 -0.5023
 5658SOL     OW28432   1.357   1.486   4.355  0.4810  0.4457 -0.6758
 5658SOL    HW128433   1.398   1.403   4.376 -0.0862  0.4287  0.3823
 5658SOL    HW228434   1.391   1.509   4.268  2.8780 -0.1202  0.1068
 5659SOL     OW28435   1.243   0.929   2.685 -0.0236 -0.7547  0.0017
 5659SOL    HW128436   1.301   0.972   2.748  0.2660  0.1556 -0.8804
 5659SOL    HW228437   1.253   0.976   2.602 -2.2820  1.0422  0.7454
 5660SOL     OW28438   0.385   0.765   8.273 -0.3725 -0.0550 -0.0539
 5660SOL    HW128439   0.451   0.696   8.268  0.2824  0.6385 -1.0810
 5660SOL    HW228440   0.410   0.819   8.197  0.8321  0.0484  0.4032
 5661SOL     OW28441   3.074   1.259   8.897 -0.2344  0.0359 -0.2752
 5661SOL    HW128442   2.995   1.282   8.946 -1.2434  1.7624 -2.7004
 5661SOL    HW228443   3.078   1.164   8.908 -2.8820  0.0087  0.4267
 5662SOL     OW28444   4.386   3.997   0.079  0.1944  0.3248  0.6520
 5662SOL    HW128445   4.355   4.012   0.168  2.6086 -0.5442  1.6273
 5662SOL    HW228446   4.364   4.083   0.043 -2.7644 -0.2274  1.1279
 5663SOL     OW28447   4.505   4.459   7.101 -0.1725 -0.2932  0.1229
 5663SOL    HW128448   4.425   4.466   7.153 -0.9563  0.1331 -1.1288
 5663SOL    HW228449   4.487   4.374   7.061 -0.4320 -0.2392  0.1214
 5664SOL     OW28450   1.625   3.894   6.842 -0.2589  0.2056  0.7815
 5664SOL    HW128451   1.709   3.847   6.838 -0.4427  0.0781 -1.4480
 5664SOL    HW228452   1.649   3.986   6.841 -0.6272  0.3104  2.2811
 5665SOL     OW28453   0.928   4.617   9.099 -0.5511  0.1344 -0.0673
 5665SOL    HW128454   0.914   4.702   9.141  1.5237  0.2221  0.4792
 5665SOL    HW228455   0.846   4.574   9.122 -0.9527  0.3836 -1.0281
 5666SOL     OW28456   3.945   3.052   4.452 -0.5582 -0.2163 -0.1984
 5666SOL    HW128457   3.989   2.984   4.503 -0.9892  1.2077  2.1080
 5666SOL    HW228458   4.020   3.097   4.413 -0.4029 -0.0608  0.2794
 5667SOL     OW28459   0.679   0.272   7.892  0.4351  0.0423  0.2290
 5667SOL    HW128460   0.605   0.332   7.892  0.8626  0.5647 -2.2526
 5667SOL    HW228461   0.663   0.235   7.979  0.6699 -0.6536 -0.0234
 5668SOL     OW28462   4.701   0.243   4.125 -0.2096 -0.7197  0.7832
 5668SOL    HW128463   4.618   0.269   4.164 -0.5141  0.5057 -0.6712
 5668SOL    HW228464   0.025   0.326   4.127 -1.5725  0.0636 -0.2467
 5669SOL     OW28465   4.076   3.534   4.977 -0.2539 -0.3831 -0.6775
 5669SOL    HW128466   4.083   3.601   4.909  1.1692 -0.1443 -0.3010
 5669SOL    HW228467   4.089   3.454   4.927 -1.0299  0.5656 -2.3900
 5670SOL     OW28468   2.047   1.252   1.538  0.0304 -0.1061 -0.1497
 5670SOL    HW128469   2.015   1.341   1.555  0.1470  0.2135 -1.5905
 5670SOL    HW228470   2.047   1.241   1.633 -0.4093  0.3603 -0.0963
 5671SOL     OW28471   0.453   0.149   0.167 -0.1220 -0.9308 -0.3652
 5671SOL    HW128472   0.496   0.222   0.122  1.1556 -1.7966 -0.5332
 5671SOL    HW228473   0.394   0.115   0.100  1.5951 -0.5758 -2.0354
 5672SOL     OW28474   2.256   1.318   5.883 -0.2122  0.1297 -0.1370
 5672SOL    HW128475   2.203   1.366   5.819 -0.6133  0.3040  0.3237
 5672SOL    HW228476   2.192   1.279   5.943 -0.8766  0.8334 -0.3780
 5673SOL     OW28477   2.283   4.596   0.262 -1.0892 -0.6753  0.0111
 5673SOL    HW128478   2.281   4.580   0.168  0.6138 -3.1301  0.3728
 5673SOL    HW228479   2.302   4.689   0.268 -2.3316 -0.4374  0.2537
 5674SOL     OW28480   0.989   2.822   0.880  0.2541 -0.4424 -0.4206
 5674SOL    HW128481   1.060   2.855   0.935 -0.2257 -3.3680  1.9469
 5674SOL    HW228482   1.005   2.728   0.879 -0.7896 -0.6263  0.0912
 5675SOL     OW28483   1.470   4.631  14.524 -0.0857  0.3194  0.2650
 5675SOL    HW128484   1.507   4.657  14.440 -2.3360  2.7055  0.0396
 5675SOL    HW228485   1.435   4.543  14.509 -0.7557  0.3934  1.3738
 5676SOL     OW28486   3.527   0.954   9.540  0.4536  0.5693 -0.4639
 5676SOL    HW128487   3.481   1.034   9.513  0.2661 -0.4222 -3.0974
 5676SOL    HW228488   3.554   0.915   9.457 -1.2684  0.7871 -1.1343
 5677SOL     OW28489   1.651   1.446   3.945 -0.1340 -0.1395 -0.6659
 5677SOL    HW128490   1.640   1.529   3.899 -0.2880  0.4287  0.4112
 5677SOL    HW228491   1.628   1.383   3.877  0.9705 -1.0177 -0.2421
 5678SOL     OW28492   1.622   4.111   0.706 -0.2802  0.0464  0.5337
 5678SOL    HW128493   1.564   4.082   0.636 -0.5391 -0.3693  0.9204
 5678SOL    HW228494   1.681   4.161   0.650  0.6747  0.5482  1.9929
 5679SOL     OW28495   1.899   3.179   5.470 -0.2316  0.7750  0.1900
 5679SOL    HW128496   1.970   3.117   5.456  0.4678  1.9185 -1.4290
 5679SOL    HW228497   1.825   3.164   5.412  0.3650  2.5016 -1.0385
 5680SOL     OW28498   2.541   2.355   1.140  0.1664  0.3968  0.6651
 5680SOL    HW128499   2.527   2.263   1.165 -0.7873  0.1712 -0.7279
 5680SOL    HW228500   2.595   2.391   1.210  0.7296 -2.1325  1.5592
 5681SOL     OW28501   4.521   0.415   7.363  0.6480  0.0382 -0.0706
 5681SOL    HW128502   4.543   0.470   7.438  1.0370  0.5929 -0.5857
 5681SOL    HW228503   4.494   0.484   7.302  3.3529  0.1581 -1.1318
 5682SOL     OW28504   2.395   3.844   1.858  0.0266  0.4204 -0.3421
 5682SOL    HW128505   2.440   3.927   1.843  2.4007 -0.8524 -0.1399
 5682SOL    HW228506   2.329   3.857   1.789 -0.4357 -3.4235 -0.6486
 5683SOL     OW28507   2.077   1.799   4.022  0.1987  0.1761  0.4121
 5683SOL    HW128508   2.106   1.849   4.097 -2.5494  2.3348  0.0249
 5683SOL    HW228509   1.985   1.819   4.006  0.0731 -2.3895 -2.1264
 5684SOL     OW28510   3.051   4.047   3.010 -0.5254 -0.2340 -0.3609
 5684SOL    HW128511   3.078   4.056   3.101 -1.2339 -4.8134  0.2918
 5684SOL    HW228512   3.091   3.962   2.998  0.1295  0.2692 -1.7370
 5685SOL     OW28513   1.027   3.127   6.101 -0.6503  1.0206 -0.4460
 5685SOL    HW128514   1.036   3.182   6.179 -1.8658  1.2751 -0.4839
 5685SOL    HW228515   1.044   3.039   6.134 -0.5416  1.7311  1.3631
 5686SOL     OW28516   2.256   3.555  13.701  0.2791  0.0789 -0.3421
 5686SOL    HW128517   2.212   3.592  13.778 -2.1598 -1.1647 -1.1275
 5686SOL    HW228518   2.239   3.462  13.710 -2.6143  0.3567 -2.7685
 5687SOL     OW28519   3.700   1.142   1.392  0.6181 -0.5824 -0.3191
 5687SOL    HW128520   3.669   1.184   1.471 -0.5191 -0.0600 -1.0476
 5687SOL    HW228521   3.686   1.052   1.423  1.0475 -0.0637  1.3405
 5688SOL     OW28522   0.804   0.581   3.335  0.1396 -0.0495 -0.5819
 5688SOL    HW128523   0.886   0.555   3.291  1.5002 -0.4362  2.1919
 5688SOL    HW228524   0.795   0.506   3.393  2.3789 -1.6475 -2.2365
 5689SOL     OW28525   1.102   0.562   6.715  0.0225 -0.0579  0.4413
 5689SOL    HW128526   1.107   0.486   6.772 -0.9902 -0.9476 -0.6640
 5689SOL    HW228527   1.044   0.541   6.642  1.0545 -0.5050 -0.2521
 5690SOL     OW28528   2.617   4.043   6.740 -0.4085  0.3968 -0.2146
 5690SOL    HW128529   2.640   4.135   6.725  2.6822 -0.3177  0.1154
 5690SOL    HW228530   2.539   4.029   6.687 -1.0861  2.0447  0.3390
 5691SOL     OW28531   3.449   1.617   6.982 -0.1591 -0.1362 -0.2281
 5691SOL    HW128532   3.504   1.555   6.933  0.2014 -0.0612  0.0779
 5691SOL    HW228533   3.511   1.679   7.020  0.0422  0.2881 -1.2494
 5692SOL     OW28534   2.681   4.427   0.654  0.3628 -0.1294 -0.2258
 5692SOL    HW128535   2.706   4.347   0.607 -0.6899 -1.3280  1.2733
 5692SOL    HW228536   2.745   4.427   0.724 -0.3800 -0.9665  0.4627
 5693SOL     OW28537   0.279   4.376  15.771 -0.3900  0.4531  0.0111
 5693SOL    HW128538   0.238   4.295  15.803  2.5225 -0.9309  0.2454
 5693SOL    HW228539   0.231   4.394  15.690 -1.0629  2.4424  0.8650
 5694SOL     OW28540   1.410   4.376   8.433  0.1582  0.1790  0.5478
 5694SOL    HW128541   1.414   4.441   8.363 -2.3941  1.3130  1.4430
 5694SOL    HW228542   1.321   4.391   8.465 -0.1593  2.6492 -1.5204
 5695SOL     OW28543   1.915   3.848   6.826  0.0714 -0.3735  0.0310
 5695SOL    HW128544   1.913   3.753   6.836 -0.9789 -0.3507  0.0795
 5695SOL    HW228545   1.900   3.867   6.919  2.5720  1.8153 -0.0376
 5696SOL     OW28546   4.463   3.098   7.087  0.5077  0.4809 -0.0935
 5696SOL    HW128547   4.467   3.181   7.134  2.6391  0.9002 -0.9941
 5696SOL    HW228548   4.373   3.092   7.054  0.3064 -0.6523  0.6806
 5697SOL     OW28549   3.197   2.683   0.799 -0.0720 -0.6817  0.1367
 5697SOL    HW128550   3.190   2.778   0.815 -1.7023 -0.7265 -0.3140
 5697SOL    HW228551   3.206   2.677   0.704  1.8608  0.1831  0.2610
 5698SOL     OW28552   4.651   3.159   1.542 -0.5063  0.5549  0.2600
 5698SOL    HW128553   4.558   3.172   1.526 -0.6235 -0.9460 -0.3241
 5698SOL    HW228554   4.676   3.119   1.458  0.2970  0.4698  0.5386
 5699SOL     OW28555   0.441   2.608   8.585 -0.1219  0.3720 -0.5336
 5699SOL    HW128556   0.416   2.516   8.590 -0.8535  0.5449 -1.0715
 5699SOL    HW228557   0.355   2.644   8.607  0.6381  2.2349 -0.6095
 5700SOL     OW28558   3.385   0.200   4.396 -0.2403  0.2012  0.0458
 5700SOL    HW128559   3.343   0.285   4.385  1.3369  0.9375 -0.2834
 5700SOL    HW228560   3.375   0.170   4.306 -3.2404  0.7558  0.2067
 5701SOL     OW28561   2.637   3.659   8.706 -0.3182 -0.0611 -0.5752
 5701SOL    HW128562   2.618   3.619   8.791  1.4580  1.4343  0.5243
 5701SOL    HW228563   2.640   3.583   8.648  1.4876 -0.3951 -0.0247
 5702SOL     OW28564   0.944   2.245   3.890 -0.4248  0.0133 -0.8923
 5702SOL    HW128565   0.896   2.164   3.874 -3.5537  1.8578 -1.0120
 5702SOL    HW228566   0.887   2.299   3.945  0.0006  1.5426 -1.9382
 5703SOL     OW28567   0.220   4.298   3.436 -0.1654 -0.4118  0.5809
 5703SOL    HW128568   0.297   4.316   3.382 -2.0257  0.2676 -1.8186
 5703SOL    HW228569   0.223   4.380   3.485 -1.4229 -0.1564  0.2185
 5704SOL     OW28570   3.464   3.271   5.577  0.2440 -0.1630 -0.0463
 5704SOL    HW128571   3.399   3.205   5.552 -0.7363  1.8703 -2.8980
 5704SOL    HW228572   3.404   3.346   5.573 -0.0305 -0.5323 -2.8365
 5705SOL     OW28573   3.012   0.106  15.686  0.4396 -0.1008  0.4943
 5705SOL    HW128574   2.923   0.139  15.701  0.7553  0.2063  1.7144
 5705SOL    HW228575   3.004   0.012  15.668 -3.1864  0.1230  0.9107
 5706SOL     OW28576   1.201   1.967   3.875 -0.1827  0.5287 -0.2433
 5706SOL    HW128577   1.145   1.938   3.804  0.5581 -2.4323  0.3818
 5706SOL    HW228578   1.271   2.018   3.834 -0.0156  0.7260  0.2958
 5707SOL     OW28579   3.454   4.420   4.188  0.3553  0.0420 -0.1811
 5707SOL    HW128580   3.521   4.483   4.162 -0.1917  0.2246 -1.1462
 5707SOL    HW228581   3.483   4.412   4.279  2.1608 -1.4409 -0.8992
 5708SOL     OW28582   0.965   3.629  11.309 -0.4099 -0.1436 -0.2163
 5708SOL    HW128583   1.031   3.599  11.247  0.3183 -1.4757  1.2059
 5708SOL    HW228584   0.939   3.717  11.279 -0.2695  0.3762  1.2018
 5709SOL     OW28585   0.096   3.631   2.321  0.1364  0.2209  0.1033
 5709SOL    HW128586   0.103   3.726   2.308  2.4430  0.1165  0.5545
 5709SOL    HW228587   0.108   3.620   2.415  1.6165 -0.9231 -0.2115
 5710SOL     OW28588   2.705   4.157  15.522  0.0000  0.3516 -0.1023
 5710SOL    HW128589   2.689   4.251  15.524  1.7438  0.6232  0.9520
 5710SOL    HW228590   2.687   4.153  15.428 -0.2697  1.0493 -0.0783
 5711SOL     OW28591   4.105   0.035  10.807 -0.5224 -0.0004  0.1244
 5711SOL    HW128592   4.107   4.673  10.852 -1.1827 -0.0899 -0.0117
 5711SOL    HW228593   4.075   0.008  10.720  1.7361  0.8394 -0.9050
 5712SOL     OW28594   0.734   1.067   6.497 -0.1053  0.5402  0.0267
 5712SOL    HW128595   0.826   1.050   6.518 -0.5105 -2.2686 -0.4320
 5712SOL    HW228596   0.694   1.056   6.583  3.1898 -3.1449  1.1102
 5713SOL     OW28597   1.765   0.479   9.091 -0.5261 -0.2538 -0.0651
 5713SOL    HW128598   1.692   0.456   9.149 -1.1563 -0.3789 -0.9026
 5713SOL    HW228599   1.735   0.431   9.013 -1.5359 -0.4967  0.4767
 5714SOL     OW28600   0.343   2.101   9.726 -0.2323  0.5207 -0.0919
 5714SOL    HW128601   0.348   2.168   9.795 -1.7370 -1.2807  1.7577
 5714SOL    HW228602   0.251   2.112   9.699 -0.3359 -1.1946 -0.4073
 5715SOL     OW28603   0.462   4.400   2.792  0.1849 -0.4756  0.0395
 5715SOL    HW128604   0.457   4.477   2.736  1.1169  0.2181  0.8982
 5715SOL    HW228605   0.443   4.439   2.878 -1.9440  0.9299 -1.0851
 5716SOL     OW28606   0.065   2.504  15.798  0.6330  0.2743 -0.4520
 5716SOL    HW128607   0.004   2.480  15.868  1.5592 -1.9577 -0.4221
 5716SOL    HW228608   0.140   2.509  15.857  1.4085  0.4238 -1.4493
 5717SOL     OW28609   2.146   0.572   7.178  0.2477 -0.1597 -0.4715
 5717SOL    HW128610   2.222   0.537   7.130  0.4105 -1.2283  0.5524
 5717SOL    HW228611   2.194   0.642   7.221  0.1131 -1.0727  1.1353
 5718SOL     OW28612   2.928   0.090   5.330 -0.1288 -0.3371  0.2846
 5718SOL    HW128613   2.861   0.155   5.312 -1.1584 -1.2808  0.7235
 5718SOL    HW228614   3.004   0.136   5.295  1.3330 -2.3210  0.8274
 5719SOL     OW28615   2.300   1.085  10.180 -0.0358 -0.3753  0.0083
 5719SOL    HW128616   2.240   1.159  10.173  0.4651  0.0836  0.5570
 5719SOL    HW228617   2.337   1.088  10.091  0.4332  2.9968  0.3386
 5720SOL     OW28618   2.513   2.325   6.675  0.3951  0.1350 -0.4396
 5720SOL    HW128619   2.504   2.419   6.659  1.1566  0.2639 -0.1006
 5720SOL    HW228620   2.567   2.325   6.754 -2.2574 -1.0205  1.3787
 5721SOL     OW28621   2.822   2.064   6.383 -0.2934 -0.0761  0.2845
 5721SOL    HW128622   2.912   2.041   6.361 -0.1571  0.3857  0.3516
 5721SOL    HW228623   2.810   2.038   6.474  0.6374 -0.2579  0.3550
 5722SOL     OW28624   2.979   4.267   9.197 -0.7422 -0.0600 -0.3187
 5722SOL    HW128625   3.013   4.351   9.166 -1.2961 -0.2601 -1.4687
 5722SOL    HW228626   2.895   4.296   9.232  0.0693  0.1154  1.4716
 5723SOL     OW28627   2.686   4.132  15.818 -0.0592  0.0521 -0.1932
 5723SOL    HW128628   2.614   4.097  15.871  0.5325 -2.7008 -1.2323
 5723SOL    HW228629   2.657   4.112  15.729  0.3242  2.6255 -0.8913
 5724SOL     OW28630   2.413   0.349   8.826  0.1503  0.2563 -0.4223
 5724SOL    HW128631   2.488   0.304   8.788 -1.2266 -1.3550 -1.2624
 5724SOL    HW228632   2.458   0.390   8.900 -0.8691  1.0338 -0.2201
 5725SOL     OW28633   3.211   3.380  16.799  0.5105  0.4356  0.2120
 5725SOL    HW128634   3.258   3.458  16.771 -0.1211  0.8177  0.2179
 5725SOL    HW228635   3.217   3.327  16.719  0.5737  0.8109 -0.0297
 5726SOL     OW28636   4.138   2.177   4.961  0.3765  0.3091 -0.0345
 5726SOL    HW128637   4.048   2.194   4.990 -0.3446 -0.4246 -1.9178
 5726SOL    HW228638   4.127   2.097   4.910  1.1401  0.0009  0.2874
 5727SOL     OW28639   4.619   1.275   9.534 -0.3674  0.5920  0.0719
 5727SOL    HW128640   4.645   1.308   9.448 -2.1775 -0.4913 -0.8757
 5727SOL    HW228641   4.704   1.240   9.563 -1.3056 -1.8686 -0.1295
 5728SOL     OW28642   1.626   0.970   2.685 -0.2791 -0.1155 -0.0429
 5728SOL    HW128643   1.590   1.057   2.704  0.0516 -0.3881  1.8119
 5728SOL    HW228644   1.651   0.978   2.592  0.8250 -0.8489  0.1893
 5729SOL     OW28645   3.916   0.406   0.470 -0.1914 -0.4001 -0.1904
 5729SOL    HW128646   3.887   0.326   0.426  1.3803 -0.5032 -1.0454
 5729SOL    HW228647   3.857   0.469   0.429  0.7485 -0.3421 -1.4955
 5730SOL     OW28648   4.588   3.642   4.370  0.0030 -0.3108  0.0684
 5730SOL    HW128649   4.678   3.615   4.387 -0.4113 -2.5380 -1.1938
 5730SOL    HW228650   4.554   3.657   4.458  2.2793 -0.0628  0.8880
 5731SOL     OW28651   2.314   1.145   6.331  0.6054 -0.1195 -0.2017
 5731SOL    HW128652   2.261   1.066   6.320  0.8144 -0.2752 -0.0828
 5731SOL    HW228653   2.247   1.211   6.348  1.7415  1.4736 -1.9357
 5732SOL     OW28654   1.540   1.254   4.222  0.2700  0.0331 -0.1487
 5732SOL    HW128655   1.504   1.282   4.138  0.1712  1.7605  0.4690
 5732SOL    HW228656   1.526   1.161   4.208  0.1265  0.0599 -0.1783
 5733SOL     OW28657   1.916   4.416  17.453 -0.4338 -0.6087 -0.3203
 5733SOL    HW128658   1.845   4.403  17.390 -0.9387 -0.6701  0.2658
 5733SOL    HW228659   1.863   4.422  17.532 -1.4714  1.3750 -1.1745
 5734SOL     OW28660   0.547   0.638   5.181  0.2233 -0.3920  0.3305
 5734SOL    HW128661   0.457   0.611   5.200  0.2463  0.1134  1.1751
 5734SOL    HW228662   0.543   0.665   5.089 -1.1380 -0.4171  0.3706
 5735SOL     OW28663   1.602   1.959   9.690  0.2175  0.5048  0.2274
 5735SOL    HW128664   1.678   1.904   9.674  0.6429  0.6752  1.6133
 5735SOL    HW228665   1.581   1.918   9.774  2.0818 -0.8888  0.0171
 5736SOL     OW28666   3.882   1.510  16.148  0.0905  0.1759  0.1572
 5736SOL    HW128667   3.894   1.598  16.184 -2.7019  2.1510 -3.7809
 5736SOL    HW228668   3.975   1.492  16.135 -0.0782 -0.4618 -0.1646
 5737SOL     OW28669   1.040   1.124   9.999  0.6502  0.2656  0.1930
 5737SOL    HW128670   1.017   1.065  10.071  2.2649 -1.7025 -0.8795
 5737SOL    HW228671   1.057   1.057   9.932 -3.0390 -1.5005  1.0394
 5738SOL     OW28672   1.830   2.944  17.303  0.1802 -0.3858  0.7066
 5738SOL    HW128673   1.761   2.910  17.245  0.8394 -1.7131  0.6850
 5738SOL    HW228674   1.912   2.902  17.275  0.8346  1.3447  0.0617
 5739SOL     OW28675   2.525   1.327   8.408  0.1480  0.0974  0.1367
 5739SOL    HW128676   2.529   1.401   8.348 -1.3288 -0.4032 -0.5821
 5739SOL    HW228677   2.567   1.356   8.489 -0.4317  0.1608  0.4121
 5740SOL     OW28678   0.140   0.900   2.315 -0.3084 -0.3523  0.1242
 5740SOL    HW128679   0.096   0.909   2.231  0.9450 -0.3013 -0.5258
 5740SOL    HW228680   0.069   0.860   2.365  0.8206  0.2670  2.2423
 5741SOL     OW28681   2.304   0.846   4.167  0.1121  0.0771  0.6629
 5741SOL    HW128682   2.230   0.892   4.207 -0.9058 -1.1843  0.2410
 5741SOL    HW228683   2.372   0.866   4.231 -0.4206 -3.0842  2.1751
 5742SOL     OW28684   2.089   1.591  12.381 -0.0920 -0.3781 -0.5392
 5742SOL    HW128685   1.997   1.616  12.387 -0.2798 -1.3015  0.3212
 5742SOL    HW228686   2.127   1.679  12.386  0.4881 -0.8560  3.0182
 5743SOL     OW28687   1.861   1.932   6.772  0.3044 -0.5294  0.1873
 5743SOL    HW128688   1.860   1.883   6.854 -1.6855  0.9871  1.0875
 5743SOL    HW228689   1.881   2.018   6.810  1.6780 -0.1356 -1.4345
 5744SOL     OW28690   0.913   1.716   8.506 -0.1983  0.3509  0.5633
 5744SOL    HW128691   0.850   1.649   8.479  0.5833  1.0270 -3.0126
 5744SOL    HW228692   0.969   1.663   8.562 -0.3674 -0.2517  0.1608
 5745SOL     OW28693   3.281   2.563   1.180 -0.6631 -0.0938  0.8310
 5745SOL    HW128694   3.190   2.533   1.192 -0.4835 -1.4735 -1.4264
 5745SOL    HW228695   3.315   2.511   1.253  0.9673 -0.3614 -0.1197
 5746SOL     OW28696   2.506   4.041   2.567  0.0382 -0.3582  0.1579
 5746SOL    HW128697   2.459   3.967   2.605  0.4910 -0.2253  0.9808
 5746SOL    HW228698   2.594   4.006   2.551  0.9732  1.6823  0.8338
 5747SOL     OW28699   2.898   3.204   5.896  0.5000 -0.2646  0.5231
 5747SOL    HW128700   2.863   3.150   5.825  0.0888 -0.7890  1.1263
 5747SOL    HW228701   2.992   3.208   5.876  0.5175  2.0051  1.1003
 5748SOL     OW28702   0.164   0.955   8.672  0.2259 -0.3682 -0.0969
 5748SOL    HW128703   0.184   0.880   8.617  0.9865 -0.1096 -0.1760
 5748SOL    HW228704   0.155   0.909   8.756  2.5068  2.3005  1.6523
 5749SOL     OW28705   1.599   2.495   5.119  0.5371  0.6600 -0.2053
 5749SOL    HW128706   1.534   2.506   5.188 -0.6658 -0.7364 -1.1086
 5749SOL    HW228707   1.655   2.425   5.151  0.1234  0.7848  0.7955
 5750SOL     OW28708   3.122   3.225   6.682  0.3634  0.4112 -0.0366
 5750SOL    HW128709   3.186   3.220   6.753  1.2605 -0.0502 -0.8774
 5750SOL    HW228710   3.146   3.156   6.620 -0.3473 -1.3070  1.6162
 5751SOL     OW28711   3.030   2.169  15.334 -0.8703 -0.3935 -0.3705
 5751SOL    HW128712   2.936   2.177  15.348 -0.4564 -0.7517  2.5696
 5751SOL    HW228713   3.049   2.226  15.259  0.3802  0.3414  0.5030
 5752SOL     OW28714   2.624   0.768   1.775  0.0413 -0.8429 -0.1940
 5752SOL    HW128715   2.684   0.776   1.701  1.3049 -0.8644  0.8275
 5752SOL    HW228716   2.546   0.760   1.720  0.9519 -1.4949 -1.4026
 5753SOL     OW28717   3.241   3.554  17.047 -0.3910  0.0711 -0.0472
 5753SOL    HW128718   3.290   3.635  17.036 -1.0913  0.3215 -1.3656
 5753SOL    HW228719   3.251   3.505  16.966  0.7121  0.1699  0.0355
 5754SOL     OW28720   4.236   1.562   1.091  0.3113 -0.2212 -0.1253
 5754SOL    HW128721   4.178   1.545   1.165  2.6102 -2.7013  1.1245
 5754SOL    HW228722   4.237   1.657   1.079  1.3088 -0.1092  0.7778
 5755SOL     OW28723   1.373   3.220   1.309 -0.0357 -0.0852 -0.2310
 5755SOL    HW128724   1.329   3.303   1.292 -0.4829 -0.0207  1.2732
 5755SOL    HW228725   1.374   3.190   1.218 -0.8329  0.3981 -0.3941
 5756SOL     OW28726   1.322   2.121  11.490  0.3108 -0.5150 -0.2784
 5756SOL    HW128727   1.263   2.094  11.560 -0.6911 -1.7441 -1.6072
 5756SOL    HW228728   1.290   2.209  11.472  1.3021  0.4575  2.6046
 5757SOL     OW28729   2.835   2.953   3.174  0.2402 -0.2843  0.6019
 5757SOL    HW128730   2.815   3.029   3.228  1.1594  0.1531  0.3289
 5757SOL    HW228731   2.861   2.885   3.237 -1.9715  0.9627  2.8773
 5758SOL     OW28732   2.090   1.314   2.901 -0.0474 -0.5715  0.3835
 5758SOL    HW128733   2.126   1.231   2.932 -2.0551 -1.3119  0.7161
 5758SOL    HW228734   2.129   1.368   2.970  1.9077 -0.9476 -0.4169
 5759SOL     OW28735   1.870   0.708  11.795  0.5478  0.1053  0.4728
 5759SOL    HW128736   1.931   0.649  11.750  1.3157 -0.9991  2.9621
 5759SOL    HW228737   1.818   0.722  11.716 -1.9831 -1.1771  1.9352
 5760SOL     OW28738   0.308   1.206   7.713  0.0691 -0.0841 -0.0413
 5760SOL    HW128739   0.312   1.257   7.793 -1.3864 -0.3594  0.2049
 5760SOL    HW228740   0.391   1.229   7.671  0.7102 -1.0195  0.7283
 5761SOL     OW28741   0.647   2.590   3.100  0.4894 -0.3408  0.1859
 5761SOL    HW128742   0.671   2.500   3.124  0.1241 -0.0052  1.7710
 5761SOL    HW228743   0.566   2.600   3.149 -0.8060  0.9135 -2.2443
 5762SOL     OW28744   1.143   1.670   3.185  0.3159 -0.2899 -0.6043
 5762SOL    HW128745   1.057   1.643   3.216  1.1733 -2.5492 -0.2400
 5762SOL    HW228746   1.130   1.758   3.148 -0.6258 -0.4339 -0.5981
 5763SOL     OW28747   1.277   0.278  15.655  0.5689  0.0421  0.1187
 5763SOL    HW128748   1.212   0.210  15.670  1.5303 -1.0600 -0.7092
 5763SOL    HW228749   1.289   0.311  15.744 -0.3783  2.1904 -0.5407
 5764SOL     OW28750   4.666   1.139   8.659 -0.1536  0.1896  0.0272
 5764SOL    HW128751   0.018   1.082   8.642 -0.0257  0.1410  0.7590
 5764SOL    HW228752   4.604   1.075   8.694 -1.0312  0.7970 -0.4104
 5765SOL     OW28753   2.990   2.264  13.697 -0.3523  0.0732  0.2151
 5765SOL    HW128754   2.895   2.270  13.707 -0.2904 -0.0316  0.9170
 5765SOL    HW228755   3.005   2.356  13.718 -1.1319 -0.0170  1.2150
 5766SOL     OW28756   3.165   1.092   7.369 -0.2300  0.1913 -0.0265
 5766SOL    HW128757   3.078   1.122   7.397  0.6787  0.8048  2.0966
 5766SOL    HW228758   3.205   1.078   7.454 -0.3474 -0.5882 -0.0993
 5767SOL     OW28759   0.700   0.474   7.294  0.5921 -0.4639 -0.6252
 5767SOL    HW128760   0.657   0.395   7.262 -0.1958 -1.2769  2.3988
 5767SOL    HW228761   0.667   0.534   7.227  0.1387 -0.6533 -0.5725
 5768SOL     OW28762   1.539   2.603   3.589 -0.6943  0.1360  0.7061
 5768SOL    HW128763   1.496   2.557   3.517  0.6800  0.9918 -0.6710
 5768SOL    HW228764   1.583   2.530   3.632 -0.0863 -0.6743 -1.2745
 5769SOL     OW28765   2.263   1.872  14.449 -0.5803 -0.3802  0.5337
 5769SOL    HW128766   2.345   1.903  14.411 -1.5806 -1.4431 -2.4290
 5769SOL    HW228767   2.268   1.905  14.539  0.0239 -0.6079  0.5800
 5770SOL     OW28768   1.674   0.029   9.179 -0.2252  0.2229 -0.2705
 5770SOL    HW128769   1.742   4.687   9.159  1.1969  1.9106 -0.8989
 5770SOL    HW228770   1.732   0.083   9.232 -1.0343 -1.4677  2.3072
 5771SOL     OW28771   1.101   2.429  10.159  0.2632  0.6450 -0.1606
 5771SOL    HW128772   1.070   2.392  10.242  2.4215  0.3321  0.5048
 5771SOL    HW228773   1.159   2.364  10.119 -0.7180 -0.0455 -0.4827
 5772SOL     OW28774   2.402   2.407   4.726  0.2567  0.1208  0.7506
 5772SOL    HW128775   2.321   2.402   4.777  0.4304  0.7235  1.0854
 5772SOL    HW228776   2.456   2.457   4.787  0.1812 -1.2385  1.9474
 5773SOL     OW28777   3.802   3.508   5.137  0.1506 -0.0899  0.0600
 5773SOL    HW128778   3.895   3.489   5.150  0.5307  1.7524  0.0819
 5773SOL    HW228779   3.787   3.498   5.043  0.4831  0.5731 -0.0634
 5774SOL     OW28780   0.581   1.331   9.799  0.0319  0.7908 -0.0478
 5774SOL    HW128781   0.579   1.372   9.713  0.8746 -0.0699 -0.4850
 5774SOL    HW228782   0.494   1.350   9.834 -1.2616 -0.9432 -2.3050
 5775SOL     OW28783   2.181   1.272  14.283 -0.1849 -0.0317 -0.5703
 5775SOL    HW128784   2.271   1.269  14.316 -0.4221 -3.8292 -0.3343
 5775SOL    HW228785   2.143   1.345  14.333 -0.9128 -1.4401  0.9299
 5776SOL     OW28786   3.167   0.744   9.172 -0.1490 -0.1293 -0.4432
 5776SOL    HW128787   3.121   0.691   9.237  0.2858 -0.4276 -0.3759
 5776SOL    HW228788   3.206   0.684   9.108  1.4507 -0.2977  0.6891
 5777SOL     OW28789   0.589   1.550   9.211 -0.1093  0.6135  0.6529
 5777SOL    HW128790   0.533   1.473   9.222 -3.2226  2.9556  1.1590
 5777SOL    HW228791   0.590   1.590   9.298  0.5298  0.7161  0.6013
 5778SOL     OW28792   2.791   2.633   7.318  0.4470 -0.3590  0.4822
 5778SOL    HW128793   2.756   2.584   7.244  0.7358 -0.2081  0.2458
 5778SOL    HW228794   2.848   2.572   7.364  0.7849 -0.9660 -0.7374
 5779SOL     OW28795   4.381   2.046  15.071  0.1851  0.0770 -0.4099
 5779SOL    HW128796   4.450   2.105  15.040  1.7240 -1.1393  0.6959
 5779SOL    HW228797   4.366   2.006  14.985 -1.6445  1.1987 -0.6137
 5780SOL     OW28798   2.422   2.350   1.871  0.0056  0.5190  0.4288
 5780SOL    HW128799   2.416   2.440   1.838  1.3075  1.3355  2.4550
 5780SOL    HW228800   2.507   2.340   1.827 -0.1159  0.2657  0.2476
 5781SOL     OW28801   0.787   2.453   5.181  0.0364 -0.0294  0.4184
 5781SOL    HW128802   0.822   2.468   5.093 -1.4456 -0.3786 -0.2299
 5781SOL    HW228803   0.745   2.367   5.174  0.5891 -0.2761  0.1525
 5782SOL     OW28804   0.328   3.315  11.051  0.1246  0.1206  0.3746
 5782SOL    HW128805   0.367   3.330  11.137 -0.1961  1.9970  0.2115
 5782SOL    HW228806   0.308   3.222  11.059  0.0850 -0.0084 -1.0887
 5783SOL     OW28807   0.019   3.814  17.441 -0.2697  0.0335  0.0398
 5783SOL    HW128808   4.703   3.824  17.527 -1.8933  0.2351 -0.7132
 5783SOL    HW228809   4.675   3.845  17.380 -0.5580  3.1124  1.9506
 5784SOL     OW28810   3.017   0.697  13.280  0.7404  0.4613  0.1097
 5784SOL    HW128811   2.963   0.771  13.307 -0.1711  0.3938 -1.5011
 5784SOL    HW228812   2.956   0.649  13.223  0.3570 -0.9891  1.7559
 5785SOL     OW28813   1.854   2.488   6.741  0.2015 -0.3923  0.5519
 5785SOL    HW128814   1.936   2.440   6.749 -0.1350 -1.0488  0.0691
 5785SOL    HW228815   1.811   2.433   6.675  0.2696 -2.4135  2.1903
 5786SOL     OW28816   3.273   0.195   1.475  0.4454 -0.1053 -0.2390
 5786SOL    HW128817   3.266   0.173   1.382 -1.7684  0.6839 -0.2688
 5786SOL    HW228818   3.363   0.225   1.484  0.6839 -1.4799  1.8811
 5787SOL     OW28819   1.451   3.560   7.860 -0.0771  0.4397  0.5588
 5787SOL    HW128820   1.521   3.620   7.837  0.1912  0.5575  1.6866
 5787SOL    HW228821   1.484   3.486   7.809 -0.5288  0.5337  0.1317
 5788SOL     OW28822   1.203   4.295   2.088 -0.1092 -0.3029 -0.7736
 5788SOL    HW128823   1.145   4.251   2.025  1.0938 -2.6470 -0.2212
 5788SOL    HW228824   1.250   4.220   2.124 -0.7896  0.2556  1.2652
 5789SOL     OW28825   2.164   2.752   8.472 -0.3203  0.0676 -0.4602
 5789SOL    HW128826   2.169   2.690   8.399  0.8744  0.8852 -1.0648
 5789SOL    HW228827   2.072   2.744   8.495 -0.0260 -0.2803  0.6011
 5790SOL     OW28828   2.562   2.857   8.258  0.0217  0.0669 -0.8197
 5790SOL    HW128829   2.545   2.876   8.165 -2.0867 -0.1737 -0.4997
 5790SOL    HW228830   2.471   2.871   8.285 -0.5312 -4.7609 -0.0326
 5791SOL     OW28831   2.133   3.156   4.052 -0.3791  0.6102  0.2848
 5791SOL    HW128832   2.145   3.226   4.115 -2.4764 -0.0598  1.4214
 5791SOL    HW228833   2.056   3.160   3.995 -0.0613 -0.5751 -0.2332
 5792SOL     OW28834   2.695   2.455   4.460  0.0491  0.5297 -0.6207
 5792SOL    HW128835   2.715   2.500   4.378 -0.6445  1.3866 -0.3218
 5792SOL    HW228836   2.730   2.503   4.535  1.2233  2.2922 -2.2916
 5793SOL     OW28837   4.458   0.562   5.580  0.6432  0.1030 -0.0491
 5793SOL    HW128838   4.512   0.582   5.503  0.2656 -0.8195 -0.5609
 5793SOL    HW228839   4.492   0.481   5.617 -0.0565 -0.9937 -1.7642
 5794SOL     OW28840   3.736   2.989   4.148  0.0608  0.2198  0.1016
 5794SOL    HW128841   3.729   3.037   4.231  3.0034 -1.5004  1.3246
 5794SOL    HW228842   3.820   3.017   4.112  0.5736 -1.0797  0.2994
 5795SOL     OW28843   0.061   3.097  11.268  0.3129 -0.0400 -0.9404
 5795SOL    HW128844   0.098   3.062  11.349  2.4761  2.6243 -0.7693
 5795SOL    HW228845   0.139   3.091  11.213  0.2760  0.3565 -1.0326
 5796SOL     OW28846   1.470   2.464   1.725 -0.5331  1.0408 -0.0652
 5796SOL    HW128847   1.557   2.497   1.746 -0.7709  1.2685  0.5458
 5796SOL    HW228848   1.486   2.420   1.641 -1.1186 -0.3894  0.5659
 5797SOL     OW28849   1.656   3.457   6.111 -0.5639  0.2973  0.3166
 5797SOL    HW128850   1.604   3.409   6.176 -0.1173  1.2272  1.3586
 5797SOL    HW228851   1.660   3.543   6.152  0.6497 -1.3077  3.6784
 5798SOL     OW28852   3.588   3.306  12.482  0.0399 -0.3688  0.0532
 5798SOL    HW128853   3.605   3.362  12.558 -1.0007  0.4146 -0.2832
 5798SOL    HW228854   3.522   3.253  12.527 -0.7004  0.9581  0.5500
 5799SOL     OW28855   0.732   1.234   3.913 -0.5031 -0.2068 -0.1050
 5799SOL    HW128856   0.676   1.207   3.986  1.4839  0.2238  1.5721
 5799SOL    HW228857   0.801   1.286   3.954 -2.6149  2.7864 -0.3506
 5800SOL     OW28858   2.398   0.176   7.584  0.7018  0.2089 -0.2866
 5800SOL    HW128859   2.390   0.207   7.494  0.0615 -2.2153 -1.0471
 5800SOL    HW228860   2.316   0.129   7.597  0.3101  0.4054 -2.0820
 5801SOL     OW28861   3.214   1.836   7.541 -0.1078 -0.2842  0.6442
 5801SOL    HW128862   3.229   1.850   7.635 -0.9752  0.2727  0.6999
 5801SOL    HW228863   3.229   1.917   7.492 -2.3501  0.7795  1.7414
 5802SOL     OW28864   2.300   3.522   0.278  0.1662  0.4505  0.0288
 5802SOL    HW128865   2.281   3.432   0.304  1.4528 -0.3278 -1.6683
 5802SOL    HW228866   2.252   3.533   0.196 -0.8610  0.4726  0.6373
 5803SOL     OW28867   0.052   0.541  11.593  0.3014  0.0727  0.0416
 5803SOL    HW128868   4.688   0.500  11.589  0.2463 -0.2527  4.0293
 5803SOL    HW228869   0.106   0.465  11.573 -0.7888 -0.7279  0.1981
 5804SOL     OW28870   4.572   1.464   5.523 -0.2969  0.2795  0.6427
 5804SOL    HW128871   4.479   1.450   5.508 -0.1589  0.9491 -0.8606
 5804SOL    HW228872   4.582   1.559   5.511 -0.5947  0.1413 -0.6209
 5805SOL     OW28873   2.366   1.121  12.354  0.4899  0.4981 -0.2124
 5805SOL    HW128874   2.437   1.086  12.299 -3.1232 -0.8922 -3.9684
 5805SOL    HW228875   2.393   1.212  12.364  0.6224  0.5056 -0.6763
 5806SOL     OW28876   0.975   3.016   8.681  1.1040  0.7699  0.1215
 5806SOL    HW128877   1.041   2.956   8.713  0.2410  0.3293  1.0650
 5806SOL    HW228878   0.900   2.992   8.736 -0.8886  2.8394 -1.6583
 5807SOL     OW28879   2.579   4.454   8.484  0.1452  0.5320 -0.0278
 5807SOL    HW128880   2.652   4.455   8.545  1.4658 -1.4151 -1.5728
 5807SOL    HW228881   2.629   4.462   8.403  0.3553 -0.4686  0.0089
 5808SOL     OW28882   3.426   1.879  13.588 -0.1504  0.0427  0.0153
 5808SOL    HW128883   3.449   1.856  13.679 -1.5227 -1.0283  0.0999
 5808SOL    HW228884   3.406   1.972  13.589 -1.8330 -0.3088  0.2522
 5809SOL     OW28885   1.436   2.987   5.583  0.1775  0.4686  0.0713
 5809SOL    HW128886   1.445   3.074   5.546  1.0934  0.1483 -0.4516
 5809SOL    HW228887   1.424   2.941   5.499  0.4641  2.0425 -0.8280
 5810SOL     OW28888   2.209   1.038   8.377  0.3101  0.2731  0.3722
 5810SOL    HW128889   2.179   1.055   8.467 -1.0007 -1.9733  0.3462
 5810SOL    HW228890   2.161   1.108   8.333 -0.2112  0.1866  0.8056
 5811SOL     OW28891   4.264   3.827  12.427  0.0632 -0.4286 -0.7899
 5811SOL    HW128892   4.338   3.786  12.472 -0.2109 -1.5231 -1.3410
 5811SOL    HW228893   4.196   3.805  12.491  0.5882 -1.8420 -0.7043
 5812SOL     OW28894   1.106   3.426   9.784 -0.0332  0.9052 -0.4265
 5812SOL    HW128895   1.099   3.340   9.743 -1.1078  0.9292 -0.2917
 5812SOL    HW228896   1.196   3.452   9.761  0.0123  1.4120  0.3097
 5813SOL     OW28897   4.169   3.999   9.363  0.1022  0.6036  0.3292
 5813SOL    HW128898   4.098   3.938   9.342  0.2675  0.1087  1.2042
 5813SOL    HW228899   4.234   3.955   9.309 -0.1977 -1.0647  1.3010
 5814SOL     OW28900   2.540   3.627  12.443  0.5203  0.1156  0.3147
 5814SOL    HW128901   2.514   3.548  12.396 -1.3780  1.2867 -0.5684
 5814SOL    HW228902   2.481   3.695  12.413  2.7506  2.1485  0.5324
 5815SOL     OW28903   1.290   4.048   2.164 -0.0087 -0.6605 -0.4604
 5815SOL    HW128904   1.294   4.025   2.071  0.1515  1.1765 -0.8977
 5815SOL    HW228905   1.346   3.979   2.199  2.0297  0.6527 -1.1477
 5816SOL     OW28906   3.494   2.738   7.845  0.5787 -0.1565 -0.0642
 5816SOL    HW128907   3.429   2.779   7.903  0.4488 -0.6999  0.1721
 5816SOL    HW228908   3.558   2.710   7.910  1.5871  1.3272 -0.4063
 5817SOL     OW28909   3.794   0.318   9.822  0.1505 -0.5398  0.1126
 5817SOL    HW128910   3.839   0.238   9.852  0.0812 -1.2440 -1.6805
 5817SOL    HW228911   3.839   0.389   9.868 -1.0409 -0.8107  1.6902
 5818SOL     OW28912   2.839   0.823   8.972 -0.1941 -0.0465 -0.6639
 5818SOL    HW128913   2.838   0.729   8.991 -0.2544  0.1871  0.4814
 5818SOL    HW228914   2.850   0.861   9.059  0.8417  1.5192 -1.4667
 5819SOL     OW28915   3.675   0.249   9.277  0.6570 -0.8062  0.2047
 5819SOL    HW128916   3.749   0.300   9.309  0.6128 -1.0818  0.7353
 5819SOL    HW228917   3.714   0.246   9.190  1.8672 -0.7205  0.7441
 5820SOL     OW28918   3.140   0.952   7.801 -0.3087  0.1612  0.1924
 5820SOL    HW128919   3.209   0.949   7.868 -0.0353 -2.1473 -0.2008
 5820SOL    HW228920   3.088   1.018   7.847  0.1624  1.4104 -1.0571
 5821SOL     OW28921   2.539   1.417   8.095 -0.1948 -0.0586  0.2674
 5821SOL    HW128922   2.634   1.405   8.106 -0.4442 -1.5123  0.7761
 5821SOL    HW228923   2.509   1.472   8.167 -1.7221  1.1662 -1.2981
 5822SOL     OW28924   0.547   0.346  14.776 -0.3079  0.2160 -0.4813
 5822SOL    HW128925   0.476   0.301  14.820  1.9909 -2.9444 -0.0544
 5822SOL    HW228926   0.562   0.285  14.704 -1.2274 -0.2186 -0.3002
 5823SOL     OW28927   3.001   0.710   7.737 -0.3472 -0.8218 -0.0226
 5823SOL    HW128928   3.019   0.799   7.768  1.6113 -1.0533 -0.5121
 5823SOL    HW228929   2.937   0.680   7.802 -0.1500  1.1857  1.1280
 5824SOL     OW28930   0.429   0.011   8.748  0.6101  0.3714  0.3079
 5824SOL    HW128931   0.391   0.098   8.761  1.2661  0.9652 -1.7621
 5824SOL    HW228932   0.366   4.681   8.798 -2.1287  1.7760 -1.7153
 5825SOL     OW28933   0.959   1.563   2.730  0.4352  0.0379 -0.1564
 5825SOL    HW128934   1.039   1.606   2.699  0.9346 -0.6829  0.1170
 5825SOL    HW228935   0.911   1.637   2.766  0.3116 -0.6232  1.0525
 5826SOL     OW28936   4.568   0.020   4.615  0.3710  0.3166 -0.4559
 5826SOL    HW128937   4.633   0.057   4.555  1.3692 -0.8321 -0.0714
 5826SOL    HW228938   4.595   4.652   4.631 -3.4392 -0.6330  0.5574
 5827SOL     OW28939   2.576   3.733   4.833  0.0963  0.0460  0.2518
 5827SOL    HW128940   2.482   3.731   4.817 -0.2888  1.5206  2.3009
 5827SOL    HW228941   2.592   3.827   4.842  0.0675  0.1891 -1.0999
 5828SOL     OW28942   3.319   0.759   4.017 -0.4148  0.3307  0.2138
 5828SOL    HW128943   3.375   0.811   3.959 -0.3599 -0.3978 -0.3881
 5828SOL    HW228944   3.384   0.693   4.042  1.5878  1.4477 -2.0542
 5829SOL     OW28945   2.813   4.570   1.883  0.2523  0.0744 -0.1342
 5829SOL    HW128946   2.863   4.652   1.886 -0.5005  0.5053  0.4813
 5829SOL    HW228947   2.727   4.610   1.872 -0.7417 -1.9249  0.4033
 5830SOL     OW28948   4.471   1.279   4.262 -0.1271  0.2798 -0.2138
 5830SOL    HW128949   4.543   1.220   4.242  0.8658  0.6125  2.3007
 5830SOL    HW228950   4.393   1.226   4.245 -0.3958  0.1697  1.3691
 5831SOL     OW28951   4.274   4.689   4.830  0.8148  0.4308 -0.3938
 5831SOL    HW128952   4.319   4.614   4.792 -2.5798 -1.8155  0.0514
 5831SOL    HW228953   4.183   4.659   4.826  0.8599  0.4729 -1.5874
 5832SOL     OW28954   1.286   0.292   5.659 -0.2423  0.4017  0.1761
 5832SOL    HW128955   1.248   0.297   5.746 -0.6754 -0.1672  0.0282
 5832SOL    HW228956   1.377   0.303   5.684  0.2998 -1.4702 -0.9486
 5833SOL     OW28957   0.852   4.454   2.610 -0.4630 -0.2379 -0.3045
 5833SOL    HW128958   0.788   4.525   2.614 -0.2197 -0.0326 -0.1211
 5833SOL    HW228959   0.884   4.456   2.520  0.0001  0.1374 -0.1301
 5834SOL     OW28960   3.811   2.621  10.658  0.1976  0.1624  0.4613
 5834SOL    HW128961   3.871   2.677  10.609 -0.0559 -1.1799 -1.3830
 5834SOL    HW228962   3.736   2.649  10.605  0.6370 -1.2987 -0.9178
 5835SOL     OW28963   1.339   0.765   3.900 -0.0675 -0.3090 -0.0037
 5835SOL    HW128964   1.246   0.743   3.912 -0.0108 -0.8014 -0.4933
 5835SOL    HW228965   1.327   0.841   3.842 -1.0059 -1.0165 -0.7307
 5836SOL     OW28966   1.840   1.826   3.151  0.3968  0.1536 -0.2771
 5836SOL    HW128967   1.754   1.810   3.112 -0.7837  0.0294  2.3146
 5836SOL    HW228968   1.839   1.775   3.233 -3.9808  1.4046  0.4281
 5837SOL     OW28969   3.026   4.051  14.639  0.5204  0.0324 -0.0623
 5837SOL    HW128970   3.083   4.125  14.618  1.7719 -0.3485  1.9474
 5837SOL    HW228971   3.073   4.007  14.710 -2.0344 -1.2040  0.8684
 5838SOL     OW28972   0.859   1.970   0.299 -0.1139 -0.3180  0.3855
 5838SOL    HW128973   0.817   1.999   0.380 -0.5168 -2.1102  0.8124
 5838SOL    HW228974   0.948   1.973   0.333 -0.0723 -2.0213  0.4251
 5839SOL     OW28975   3.502   3.940   6.577  0.9052  0.4567 -0.4572
 5839SOL    HW128976   3.421   3.990   6.571  0.4808 -0.1028  0.5900
 5839SOL    HW228977   3.539   3.974   6.659 -0.9785 -1.3192  1.1170
 5840SOL     OW28978   0.194   4.173   2.133  0.4052  0.4771 -0.0794
 5840SOL    HW128979   0.240   4.176   2.217  1.7603  0.6575 -0.8252
 5840SOL    HW228980   0.266   4.148   2.076 -0.2315  0.0230 -0.6746
 5841SOL     OW28981   0.111   3.155   9.799 -0.1065  0.6566  0.8261
 5841SOL    HW128982   0.087   3.107   9.878 -0.8410 -0.2015  0.0862
 5841SOL    HW228983   0.123   3.079   9.743 -0.0621  0.2826  1.3509
 5842SOL     OW28984   1.684   0.786   3.122 -0.1829  0.4603  0.4127
 5842SOL    HW128985   1.761   0.742   3.159  0.7087  0.2516 -1.6676
 5842SOL    HW228986   1.714   0.864   3.077 -2.9174 -0.3613 -2.8270
 5843SOL     OW28987   1.274   4.477   3.634  0.5224 -0.0292  0.3355
 5843SOL    HW128988   1.289   4.389   3.668  1.3176 -0.2308 -0.5255
 5843SOL    HW228989   1.330   4.489   3.557 -1.4051 -1.9115 -1.3509
 5844SOL     OW28990   1.705   3.783   7.251  0.1288 -0.0516  0.2931
 5844SOL    HW128991   1.749   3.806   7.333 -0.7752  3.7979 -0.2933
 5844SOL    HW228992   1.612   3.799   7.269 -0.0044 -0.6678  0.1703
 5845SOL     OW28993   0.027   3.748   3.642 -0.5108 -0.3598  0.1275
 5845SOL    HW128994   0.112   3.790   3.627 -1.6009  1.4982 -0.8857
 5845SOL    HW228995   0.034   3.722   3.734  0.8845  0.7273  0.3432
 5846SOL     OW28996   1.745   0.917   5.090 -0.4097 -0.0223  0.1508
 5846SOL    HW128997   1.749   0.853   5.019 -1.3508  0.3678 -0.2551
 5846SOL    HW228998   1.658   0.901   5.128 -0.1783  0.9181  1.0817
 5847SOL     OW28999   1.729   3.205   0.428  0.0971 -0.5570  0.0924
 5847SOL    HW129000   1.784   3.127   0.424  1.3709  0.2603  1.3711
 5847SOL    HW229001   1.777   3.275   0.384 -0.9932  0.4290  0.4680
 5848SOL     OW29002   3.418   3.096  12.557 -0.4331  0.5712 -0.5184
 5848SOL    HW129003   3.440   3.014  12.601  0.4100  0.6057 -0.8760
 5848SOL    HW229004   3.337   3.070  12.512  0.3261  0.2826 -1.7155
 5849SOL     OW29005   2.644   0.459   5.639 -0.9195  0.6576 -1.1785
 5849SOL    HW129006   2.553   0.464   5.667 -0.1537 -0.2316  1.3894
 5849SOL    HW229007   2.654   0.410   5.557  2.2122  0.1257 -0.4914
 5850SOL     OW29008   3.049   0.313   3.400  0.3595 -0.2843  0.1754
 5850SOL    HW129009   2.970   0.366   3.390 -0.1214 -1.1633 -0.6606
 5850SOL    HW229010   3.065   0.282   3.311  0.1461  0.3705 -0.0934
 5851SOL     OW29011   0.764   4.196   1.489  0.0311  0.9058 -0.5905
 5851SOL    HW129012   0.799   4.267   1.542  1.2651  0.5075 -0.8729
 5851SOL    HW229013   0.702   4.247   1.436  1.9843  2.0229 -1.7906
 5852SOL     OW29014   2.436   0.687   5.302 -0.7467 -0.2612 -0.0370
 5852SOL    HW129015   2.444   0.782   5.288  1.8240 -0.6894 -1.5942
 5852SOL    HW229016   2.466   0.662   5.214 -0.9999  0.7438 -0.4168
 5853SOL     OW29017   4.388   3.219  12.395  0.1437 -0.5143 -0.0844
 5853SOL    HW129018   4.445   3.235  12.320  0.5967 -0.1753  0.3286
 5853SOL    HW229019   4.394   3.305  12.437 -3.1332 -0.0679 -0.5557
 5854SOL     OW29020   3.503   2.889   4.581 -0.3636 -0.1432  0.5192
 5854SOL    HW129021   3.456   2.817   4.621 -1.9492 -1.0301 -2.9109
 5854SOL    HW229022   3.575   2.901   4.644  1.4001 -3.4589 -0.8329
 5855SOL     OW29023   4.361   0.653  16.787 -0.4880  0.3769  0.1779
 5855SOL    HW129024   4.305   0.588  16.830  0.7139  0.5594  2.0187
 5855SOL    HW229025   4.432   0.591  16.769  0.8078  1.6841  0.8602
 5856SOL     OW29026   1.138   0.177   7.931  0.4206 -0.2328  0.5700
 5856SOL    HW129027   1.097   0.255   7.968  0.8499 -0.5920  1.8165
 5856SOL    HW229028   1.201   0.162   8.001 -0.4293  1.3718  1.6990
 5857SOL     OW29029   3.690   4.348   8.492 -0.3077  0.1963 -0.0162
 5857SOL    HW129030   3.658   4.349   8.582  1.1443  1.8610  0.4897
 5857SOL    HW229031   3.664   4.262   8.459  0.7954  0.6220 -2.0172
 5858SOL     OW29032   4.541   3.572  16.499 -0.4313  0.5096  0.3084
 5858SOL    HW129033   4.451   3.549  16.523 -0.8721  1.7575 -0.1318
 5858SOL    HW229034   4.546   3.557  16.404  1.3353  0.1469  0.4529
 5859SOL     OW29035   4.607   1.968   6.012 -0.4548  0.0381  0.1915
 5859SOL    HW129036   4.533   1.994   5.958 -1.1280 -1.0991  0.5608
 5859SOL    HW229037   4.624   2.052   6.055  3.0319 -0.0138 -1.0806
 5860SOL     OW29038   0.813   3.804  15.304 -0.2427  0.3405 -0.0184
 5860SOL    HW129039   0.723   3.815  15.335 -0.3085 -0.0973 -0.0546
 5860SOL    HW229040   0.792   3.798  15.211  0.0736 -0.2007 -0.0580
 5861SOL     OW29041   1.196   0.695   3.169 -0.2275 -0.2341 -0.2124
 5861SOL    HW129042   1.242   0.711   3.251  1.0239 -1.3485 -0.6989
 5861SOL    HW229043   1.267   0.718   3.109  0.3156 -0.1823  0.4499
 5862SOL     OW29044   3.388   0.449   4.816 -0.0257  0.0066 -0.4347
 5862SOL    HW129045   3.357   0.359   4.807  0.3342  0.0966 -2.5039
 5862SOL    HW229046   3.307   0.480   4.857  0.1280  0.9786 -0.8680
 5863SOL     OW29047   3.659   0.476   4.810  0.0934  0.1279  0.1536
 5863SOL    HW129048   3.563   0.478   4.815  0.1208  0.4778  0.5965
 5863SOL    HW229049   3.685   0.529   4.886 -0.5432 -0.7486  0.9884
 5864SOL     OW29050   1.851   2.968  14.898  0.6638 -0.2432 -0.1118
 5864SOL    HW129051   1.943   2.944  14.899  0.6351 -0.4564 -2.9700
 5864SOL    HW229052   1.822   2.923  14.818 -2.3761  0.3675  0.6232
 5865SOL     OW29053   3.520   4.668   3.905 -0.0527 -0.1304  0.6229
 5865SOL    HW129054   3.555   4.585   3.872 -0.3094  0.3157 -0.7429
 5865SOL    HW229055   3.529   4.666   4.000  1.9451  1.9343  0.5088
 5866SOL     OW29056   4.303   4.121  14.500  0.3315  0.2758 -0.2981
 5866SOL    HW129057   4.371   4.189  14.500 -0.6219  1.2509  3.7742
 5866SOL    HW229058   4.239   4.169  14.447 -0.2579 -1.6113 -1.2782
 5867SOL     OW29059   0.123   0.323   2.803 -0.8463  0.0942 -0.0033
 5867SOL    HW129060   0.067   0.324   2.881 -1.5778 -0.3816 -0.5142
 5867SOL    HW229061   0.120   0.416   2.782  0.9212  0.2253  0.3726
 5868SOL     OW29062   0.707   0.581   6.163  0.5216 -0.1586  0.2593
 5868SOL    HW129063   0.618   0.595   6.196  1.2367  0.1154  2.0693
 5868SOL    HW229064   0.758   0.574   6.243 -1.3833 -1.7562  1.3469
 5869SOL     OW29065   0.375   2.001   5.399  0.4301 -0.4332 -0.2594
 5869SOL    HW129066   0.382   2.074   5.460  1.7801 -1.8675  1.2671
 5869SOL    HW229067   0.406   2.041   5.317  0.5261 -0.0511 -0.0346
 5870SOL     OW29068   3.227   1.554  10.839 -0.6619 -0.1961 -0.4819
 5870SOL    HW129069   3.301   1.613  10.857 -0.4800 -1.1354  1.8534
 5870SOL    HW229070   3.259   1.464  10.846  0.0197  0.0799 -0.0686
 5871SOL     OW29071   3.956   4.504   9.788  0.1220  0.0255 -0.3591
 5871SOL    HW129072   3.968   4.582   9.842  0.6832  1.4603 -2.5561
 5871SOL    HW229073   3.871   4.477   9.821  0.8069 -0.5083  0.9663
 5872SOL     OW29074   1.493   3.220   8.550  0.3046  0.3651 -0.2907
 5872SOL    HW129075   1.577   3.240   8.509 -0.2560 -0.7075 -1.9913
 5872SOL    HW229076   1.483   3.292   8.611 -1.1885  0.7276 -0.9547
 5873SOL     OW29077   2.162   0.359   3.716 -0.4246 -0.3284 -0.0526
 5873SOL    HW129078   2.129   0.308   3.790 -0.0784 -1.3553 -0.6011
 5873SOL    HW229079   2.196   0.292   3.657 -1.7734 -2.0205  1.0769
 5874SOL     OW29080   0.142   3.917   8.176  0.1448  0.1184 -0.1900
 5874SOL    HW129081   0.142   3.871   8.093  0.5071  0.3924 -0.3400
 5874SOL    HW229082   0.233   3.940   8.195 -0.7499  2.3394  1.5265
 5875SOL     OW29083   0.553   4.633  12.796 -0.5516  0.1888 -0.5579
 5875SOL    HW129084   0.528   0.002  12.781 -0.4729  0.2467 -0.3288
 5875SOL    HW229085   0.644   4.640  12.825  0.1249 -1.1157 -2.4109
 5876SOL     OW29086   4.714   3.625   2.604  0.5513 -0.6348  0.7036
 5876SOL    HW129087   0.085   3.618   2.623  0.7316 -0.7819 -0.2833
 5876SOL    HW229088   4.674   3.557   2.658  0.0359  0.0524  1.1818
 5877SOL     OW29089   3.883   3.832   5.901  0.0991  0.1950 -0.0608
 5877SOL    HW129090   3.888   3.921   5.936 -1.4450  0.1812  0.1679
 5877SOL    HW229091   3.806   3.850   5.846 -0.0795 -0.0177  0.1215
 5878SOL     OW29092   2.286   3.389  16.658 -0.1193 -0.2769 -0.0280
 5878SOL    HW129093   2.376   3.404  16.631 -0.5242 -0.0770 -1.2597
 5878SOL    HW229094   2.295   3.302  16.697 -0.2629 -0.6075 -0.7223
 5879SOL     OW29095   1.982   2.026   4.783 -0.5024 -0.0100  0.2744
 5879SOL    HW129096   1.897   2.069   4.789 -1.0459 -0.8432 -1.4098
 5879SOL    HW229097   2.024   2.079   4.716 -2.1297  0.5620 -0.3056
 5880SOL     OW29098   3.243   1.520   2.974  0.2953 -0.0032 -0.3587
 5880SOL    HW129099   3.285   1.603   2.996 -0.7191 -0.2393  2.4639
 5880SOL    HW229100   3.228   1.508   2.880  3.4427 -0.1867 -0.8213
 5881SOL     OW29101   1.301   2.290  15.087 -0.0020 -0.1923 -0.2780
 5881SOL    HW129102   1.304   2.276  15.181 -0.6066  0.7500 -0.1180
 5881SOL    HW229103   1.368   2.358  15.090 -1.6583  1.4866 -1.3759
 5882SOL     OW29104   0.644   2.906   4.290 -0.4117 -0.1402 -0.0979
 5882SOL    HW129105   0.548   2.911   4.296 -0.3419  0.5713  0.4181
 5882SOL    HW229106   0.657   2.835   4.353 -0.7438  0.7649  0.9987
 5883SOL     OW29107   2.399   1.996  15.199  0.8530  0.0495 -0.2801
 5883SOL    HW129108   2.494   1.999  15.189  0.8493  1.4403  0.1467
 5883SOL    HW229109   2.389   2.015  15.292  0.2752 -0.3268 -0.2618
 5884SOL     OW29110   1.118   3.517   0.479 -0.4830 -0.1173  0.5797
 5884SOL    HW129111   1.126   3.452   0.410 -1.2762  0.5863 -0.1860
 5884SOL    HW229112   1.042   3.484   0.526 -0.7305 -0.7109 -0.2522
 5885SOL     OW29113   2.795   1.867   5.157  0.3671 -0.3194  0.2585
 5885SOL    HW129114   2.757   1.948   5.121 -2.9566 -1.5424  1.0223
 5885SOL    HW229115   2.779   1.810   5.082  2.7618 -1.2432  0.4797
 5886SOL     OW29116   3.787   1.163   3.376 -0.3153 -0.0035  0.0826
 5886SOL    HW129117   3.768   1.170   3.283 -2.3899 -1.3033  0.4239
 5886SOL    HW229118   3.880   1.142   3.370  0.1772  1.9126  0.8652
 5887SOL     OW29119   3.487   4.358   9.072  0.5906 -0.4114  0.2297
 5887SOL    HW129120   3.411   4.325   9.121  0.0374 -0.8882 -0.9457
 5887SOL    HW229121   3.551   4.289   9.083  0.9892  0.4878  3.5899
 5888SOL     OW29122   0.721   2.111   6.786 -0.6646  0.0806 -0.5108
 5888SOL    HW129123   0.800   2.077   6.744 -2.8652 -2.3065 -2.6826
 5888SOL    HW229124   0.755   2.160   6.862 -0.7074  0.3248 -0.6513
 5889SOL     OW29125   1.367   2.709   4.323  0.7231  0.4015  0.0106
 5889SOL    HW129126   1.452   2.705   4.367  0.8446  0.3136 -0.2308
 5889SOL    HW229127   1.298   2.709   4.389 -2.2192 -1.1587 -3.0538
 5890SOL     OW29128   3.967   2.822  10.464 -0.6174  0.0046 -0.2073
 5890SOL    HW129129   3.927   2.882  10.402  0.9414  1.0702 -0.1801
 5890SOL    HW229130   4.011   2.883  10.524  1.0554 -0.1113 -1.3095
 5891SOL     OW29131   4.710   1.293   2.288  0.9032 -0.0485 -0.2316
 5891SOL    HW129132   0.072   1.281   2.243  1.5457  0.1645  0.9132
 5891SOL    HW229133   4.646   1.282   2.218 -0.1096 -1.0588  0.8644
 5892SOL     OW29134   2.655   2.079   3.327  0.2120 -0.5223  0.1186
 5892SOL    HW129135   2.710   2.148   3.291  0.0306 -0.0377  0.7748
 5892SOL    HW229136   2.714   2.026   3.380  1.2066  0.7186  0.2454
 5893SOL     OW29137   0.294   4.638   4.364  0.4377  0.4864  0.2741
 5893SOL    HW129138   0.222   4.576   4.352  0.7151 -0.4830  3.8540
 5893SOL    HW229139   0.315   4.635   4.270  0.5621  0.9171  0.2867
 5894SOL     OW29140   4.168   4.277   8.417 -0.0597 -0.1853 -0.1072
 5894SOL    HW129141   4.212   4.331   8.483 -0.2337  1.3514 -1.2600
 5894SOL    HW229142   4.099   4.331   8.379 -1.2186 -0.4768  1.5672
 5895SOL     OW29143   4.094   0.670   2.851  0.3171  0.0040 -0.2842
 5895SOL    HW129144   4.148   0.715   2.785 -0.3395  1.8516  0.4333
 5895SOL    HW229145   4.132   0.694   2.935  0.7703  0.0956 -0.5163
 5896SOL     OW29146   0.766   1.650   5.467 -0.2924 -0.4359  0.0878
 5896SOL    HW129147   0.764   1.561   5.503 -0.3856  0.0750  1.3391
 5896SOL    HW229148   0.836   1.652   5.402 -0.5004 -3.3480 -0.2511
 5897SOL     OW29149   1.245   2.298   4.631  0.0078 -0.1376 -0.1772
 5897SOL    HW129150   1.175   2.263   4.577  0.2936  0.2821 -0.8226
 5897SOL    HW229151   1.239   2.393   4.620 -0.0564 -0.3806 -2.2175
 5898SOL     OW29152   0.959   3.601   5.014 -0.1836 -0.7976  0.2080
 5898SOL    HW129153   1.023   3.585   4.946 -0.3547 -1.7095  0.2606
 5898SOL    HW229154   1.010   3.642   5.084 -0.1653 -0.4724  0.0052
 5899SOL     OW29155   0.277   1.307   9.448  0.2592  0.4572 -0.0530
 5899SOL    HW129156   0.233   1.239   9.499  0.9282 -0.4288 -0.6516
 5899SOL    HW229157   0.214   1.379   9.449 -2.2281 -1.7545  0.2730
 5900SOL     OW29158   2.865   4.700   4.022  0.1559  0.1047  0.2673
 5900SOL    HW129159   2.879   0.012   3.933 -3.6133  2.8295  0.7485
 5900SOL    HW229160   2.835   4.609   4.012 -1.5036  0.8553 -1.5183
 5901SOL     OW29161   0.699   3.679  14.234  0.0345  0.4208 -0.0618
 5901SOL    HW129162   0.712   3.698  14.142  0.6555  1.1038  0.1649
 5901SOL    HW229163   0.608   3.650  14.239 -0.7089  2.3377 -2.7608
 5902SOL     OW29164   1.465   0.783   4.752  0.2753  0.2721 -0.2008
 5902SOL    HW129165   1.555   0.765   4.778 -0.1605  2.1206  2.5497
 5902SOL    HW229166   1.478   0.876   4.736 -0.9539  0.4291 -0.3222
 5903SOL     OW29167   3.775   2.236   8.644 -0.2839  0.1723  0.0303
 5903SOL    HW129168   3.820   2.160   8.682 -0.2640  0.0420 -0.2585
 5903SOL    HW229169   3.854   2.285   8.619 -0.8004  0.7748 -0.3999
 5904SOL     OW29170   0.993   4.450   3.605  0.0189  0.1949 -0.1292
 5904SOL    HW129171   1.086   4.448   3.584  0.0173  0.7109 -0.1736
 5904SOL    HW229172   0.987   4.390   3.679 -1.1663  1.5677  0.8746
 5905SOL     OW29173   1.646   0.428   5.304 -0.2016  0.4877 -0.0701
 5905SOL    HW129174   1.703   0.362   5.345 -0.4257 -0.5368 -1.3986
 5905SOL    HW229175   1.563   0.381   5.296 -0.6788  1.2644  0.3281
 5906SOL     OW29176   2.774   2.707   9.469  0.3967 -0.6672  0.4716
 5906SOL    HW129177   2.723   2.634   9.435 -0.4331  0.2896 -0.3792
 5906SOL    HW229178   2.798   2.750   9.387  1.6580  0.5294  1.4621
 5907SOL     OW29179   3.580   4.465   7.298 -0.4407  0.1476  0.3400
 5907SOL    HW129180   3.586   4.421   7.214 -0.9830 -1.2654  1.0389
 5907SOL    HW229181   3.650   4.425   7.350  0.5213  3.6034  1.6988
 5908SOL     OW29182   0.391   0.751   9.128  0.2618  0.4115 -0.2439
 5908SOL    HW129183   0.418   0.819   9.066  0.7214  3.2873  3.1068
 5908SOL    HW229184   0.311   0.783   9.171 -0.2922  1.0477 -1.7224
 5909SOL     OW29185   2.362   3.220  14.957 -0.5188  0.2007 -0.2014
 5909SOL    HW129186   2.380   3.243  14.866 -0.0179 -2.7269 -0.8248
 5909SOL    HW229187   2.365   3.125  14.955  2.0460  0.2665  0.8845
 5910SOL     OW29188   1.558   4.195  14.656 -0.0696 -0.1335 -0.1308
 5910SOL    HW129189   1.621   4.123  14.644  0.3934 -0.0130  1.6036
 5910SOL    HW229190   1.564   4.203  14.751  0.6864  0.9630 -0.2712
 5911SOL     OW29191   4.531   4.005   0.718  0.3116  0.0423  0.1651
 5911SOL    HW129192   4.454   3.978   0.667 -0.1468  2.0560 -0.2155
 5911SOL    HW229193   4.504   4.095   0.736 -1.9966 -0.6814  0.2501
 5912SOL     OW29194   4.397   0.925  16.744 -0.6592  0.2367 -0.2070
 5912SOL    HW129195   4.383   0.832  16.760 -1.4717  0.0930 -1.7473
 5912SOL    HW229196   4.485   0.929  16.781 -1.3056 -0.4438  1.3846
 5913SOL     OW29197   3.359   4.614   4.490  0.4968  0.4334 -0.1819
 5913SOL    HW129198   3.356   4.709   4.485  0.7802  0.3388 -1.9218
 5913SOL    HW229199   3.270   4.591   4.462  1.6106 -3.4439 -0.4882
 5914SOL     OW29200   2.637   2.134  15.781  0.3813  0.5704 -0.3153
 5914SOL    HW129201   2.637   2.121  15.686 -3.0810 -0.6671 -0.1678
 5914SOL    HW229202   2.605   2.224  15.786 -4.1253 -1.1380  1.5818
 5915SOL     OW29203   2.107   3.226   9.631 -0.4295 -0.5648  0.0738
 5915SOL    HW129204   2.079   3.250   9.543  0.0862  2.3802  0.6947
 5915SOL    HW229205   2.140   3.137   9.632  0.9577 -0.0510 -0.1033
 5916SOL     OW29206   3.104   4.020   3.295 -0.1448 -0.1709  0.7710
 5916SOL    HW129207   3.165   4.029   3.368  0.9492 -0.1768 -0.1494
 5916SOL    HW229208   3.063   3.937   3.321 -0.2762  0.1518  1.5744
 5917SOL     OW29209   1.866   2.584   4.639 -0.3527  0.5366  0.4211
 5917SOL    HW129210   1.790   2.573   4.582 -0.2210 -1.4154  0.5989
 5917SOL    HW229211   1.937   2.618   4.587  0.0136 -1.4332 -0.3802
 5918SOL     OW29212   3.323   4.207   3.471  0.2915  0.1573 -0.0950
 5918SOL    HW129213   3.348   4.240   3.558  3.3224  1.2308 -1.3845
 5918SOL    HW229214   3.257   4.272   3.448 -0.4711 -0.1233  1.2605
 5919SOL     OW29215   1.879   1.448  16.822 -0.3504 -0.1572  0.1076
 5919SOL    HW129216   1.856   1.389  16.750  0.8480  1.8616 -1.9133
 5919SOL    HW229217   1.787   1.457  16.846 -0.6882 -2.8673 -0.1536
 5920SOL     OW29218   0.582   1.952   3.813  0.5575  0.3568 -0.3037
 5920SOL    HW129219   0.521   2.015   3.853 -1.1300  0.0649 -2.3999
 5920SOL    HW229220   0.561   1.961   3.720 -0.1402  0.8831 -0.0940
 5921SOL     OW29221   2.978   2.048   0.592 -0.4979  0.0847  0.0969
 5921SOL    HW129222   2.895   2.053   0.640 -1.0143 -0.0936 -0.7739
 5921SOL    HW229223   2.973   1.954   0.575  0.1773  0.1988 -0.7145
 5922SOL     OW29224   2.449   1.637   6.942  0.0887 -0.3427 -0.4639
 5922SOL    HW129225   2.387   1.569   6.917 -0.1043  0.2966 -1.7318
 5922SOL    HW229226   2.397   1.715   6.961 -0.2224 -0.7461  0.3216
 5923SOL     OW29227   3.034   3.741   9.164 -0.2436 -0.3657 -0.3482
 5923SOL    HW129228   3.020   3.764   9.256  0.1801  1.6334 -0.7859
 5923SOL    HW229229   2.942   3.743   9.137  0.0077 -2.7679 -1.3767
 5924SOL     OW29230   4.558   3.264  12.678 -0.3930  0.2763  0.2275
 5924SOL    HW129231   4.541   3.345  12.629  0.4962  1.3583  1.7144
 5924SOL    HW229232   4.574   3.199  12.610  1.8041  0.6530  0.3960
 5925SOL     OW29233   3.825   3.030  11.149  0.5911 -0.0297  0.3157
 5925SOL    HW129234   3.910   3.042  11.190  0.6221  0.6092  0.0616
 5925SOL    HW229235   3.849   3.009  11.059  0.4546 -0.3826  0.3606
 5926SOL     OW29236   1.450   1.245   6.895 -0.0278  0.6460 -0.3922
 5926SOL    HW129237   1.431   1.260   6.802  2.7388  0.3925 -1.0014
 5926SOL    HW229238   1.378   1.183   6.900 -0.1676  0.5116 -3.8459
 5927SOL     OW29239   2.216   2.832   5.275  0.2527  0.2145  0.4281
 5927SOL    HW129240   2.137   2.803   5.319  0.8020 -0.4723  0.9662
 5927SOL    HW229241   2.208   2.926   5.293  0.7686  0.5212 -0.8991
 5928SOL     OW29242   1.502   4.261   2.219 -0.3753  0.4763  0.6269
 5928SOL    HW129243   1.409   4.242   2.220  0.2319 -2.6247  0.2802
 5928SOL    HW229244   1.539   4.186   2.171 -0.0479  0.6887  0.5474
 5929SOL     OW29245   1.536   2.117   7.354  0.5851  0.1176  0.0058
 5929SOL    HW129246   1.482   2.101   7.277 -0.3638 -1.9644  1.0889
 5929SOL    HW229247   1.584   2.034   7.363 -0.4272 -0.3429  1.0793
 5930SOL     OW29248   3.309   2.209  16.905 -0.6538 -0.4451  0.2484
 5930SOL    HW129249   3.398   2.214  16.941  0.4066 -3.6960 -1.8853
 5930SOL    HW229250   3.254   2.210  16.983 -0.5102  3.1105  0.2881
 5931SOL     OW29251   1.246   1.054   3.150  0.6826  0.4899 -0.9225
 5931SOL    HW129252   1.280   1.031   3.237 -0.1015 -1.6419 -1.1721
 5931SOL    HW229253   1.248   0.974   3.097  3.2822 -1.4157  1.9982
 5932SOL     OW29254   2.611   2.590   9.694  0.2583  0.7119 -0.7412
 5932SOL    HW129255   2.675   2.563   9.628  0.5034 -0.7153  0.0670
 5932SOL    HW229256   2.532   2.614   9.648  0.3455  0.2859 -1.1088
 5933SOL     OW29257   0.305   3.796   9.430 -0.0933  0.3045  0.1600
 5933SOL    HW129258   0.397   3.788   9.452 -0.7852  0.9117  3.3613
 5933SOL    HW229259   0.272   3.709   9.408  0.2457  0.0310  0.7406
 5934SOL     OW29260   2.271   0.679   7.777  0.4044  0.1066 -0.1758
 5934SOL    HW129261   2.307   0.664   7.689  0.9495  0.6327 -0.0519
 5934SOL    HW229262   2.202   0.614   7.778 -0.5435  1.1622  3.0636
 5935SOL     OW29263   1.253   0.587   5.264  0.2456 -0.0962 -0.2688
 5935SOL    HW129264   1.167   0.613   5.296  0.1875 -0.6992  0.0758
 5935SOL    HW229265   1.261   0.629   5.178 -0.8032  1.3200  0.3407
 5936SOL     OW29266   2.641   2.917   9.594  0.0912 -0.2779 -0.0021
 5936SOL    HW129267   2.684   2.839   9.559  1.2575 -0.4437  1.8374
 5936SOL    HW229268   2.665   2.909   9.686  0.5185  1.4062  0.0285
 5937SOL     OW29269   3.278   4.161   9.184  0.4565 -0.0059 -0.9485
 5937SOL    HW129270   3.243   4.092   9.128 -0.1820  0.5153 -1.2057
 5937SOL    HW229271   3.339   4.112   9.238  1.2802  1.1069 -0.8807
 5938SOL     OW29272   1.973   1.088   6.481 -0.4285  0.0515 -0.7897
 5938SOL    HW129273   1.984   1.114   6.389  1.0333  0.1738 -0.5843
 5938SOL    HW229274   1.963   0.993   6.480  3.0345 -0.3439  2.3310
 5939SOL     OW29275   0.274   0.847   7.128 -0.4293 -0.1453  0.4971
 5939SOL    HW129276   0.350   0.823   7.182 -0.5841  1.3578  1.3902
 5939SOL    HW229277   0.207   0.861   7.195  0.4345 -0.4855  1.4390
 5940SOL     OW29278   2.993   4.698   0.588  0.1844  0.1192 -0.3347
 5940SOL    HW129279   3.043   4.621   0.613 -2.2459 -0.9130  1.2462
 5940SOL    HW229280   2.909   4.655   0.575  1.7375 -2.7188 -0.8572
 5941SOL     OW29281   0.457   3.742   3.052  0.4666  0.1005 -0.1766
 5941SOL    HW129282   0.532   3.773   3.102 -0.2004  0.1646  0.7973
 5941SOL    HW229283   0.418   3.824   3.021 -0.1794 -0.3000 -0.4359
 5942SOL     OW29284   2.683   0.937   7.998 -0.2933  0.2257 -0.0339
 5942SOL    HW129285   2.603   0.939   8.050 -0.7754 -0.0395 -0.7693
 5942SOL    HW229286   2.723   0.858   8.035 -2.3134 -0.2303  1.1357
 5943SOL     OW29287   4.101   0.562  11.826 -0.3814  0.1810 -0.6418
 5943SOL    HW129288   4.133   0.651  11.841 -1.6582  0.3784  0.9520
 5943SOL    HW229289   4.185   0.519  11.813 -0.8505 -1.0367  0.3234
 5944SOL     OW29290   0.248   0.507   9.090 -0.2883  0.1858  0.0574
 5944SOL    HW129291   0.221   0.475   9.176 -0.0237 -0.1872  0.0017
 5944SOL    HW229292   0.298   0.588   9.100 -0.2170  0.1621 -0.1178
 5945SOL     OW29293   4.670   2.512   3.525 -0.4422 -0.0939 -0.2289
 5945SOL    HW129294   0.037   2.548   3.526  0.0997 -1.4808  0.3918
 5945SOL    HW229295   4.632   2.576   3.464  0.8395 -1.2631 -2.2392
 5946SOL     OW29296   1.857   0.287   1.884 -0.3343  0.8173  0.5426
 5946SOL    HW129297   1.776   0.288   1.934 -1.6618  0.9378 -1.6043
 5946SOL    HW229298   1.917   0.221   1.919 -3.3083 -1.4500  1.3442
 5947SOL     OW29299   1.851   1.825   7.018 -0.3128  0.5074 -0.4404
 5947SOL    HW129300   1.761   1.854   7.004 -1.3913 -2.3128  0.5288
 5947SOL    HW229301   1.835   1.760   7.087  3.6980 -0.4012 -0.4125
 5948SOL     OW29302   0.136   2.487  12.228 -1.0809 -0.3270  0.4789
 5948SOL    HW129303   0.101   2.528  12.307 -1.5246 -0.9396  0.5937
 5948SOL    HW229304   0.225   2.519  12.245 -2.0103  2.4378  0.1731
 5949SOL     OW29305   3.298   0.550   7.918  0.1195 -0.0123 -0.6973
 5949SOL    HW129306   3.390   0.573   7.930  0.2485 -0.6553 -0.4136
 5949SOL    HW229307   3.265   0.582   8.001 -1.2691  0.0009 -1.2576
 5950SOL     OW29308   0.036   3.262   4.627  0.1065 -0.2586  0.0267
 5950SOL    HW129309   4.681   3.227   4.671  0.5397 -1.9168 -0.5343
 5950SOL    HW229310   0.098   3.211   4.678  1.0183 -0.6583 -1.4704
 5951SOL     OW29311   4.452   0.368  10.903 -0.2054  0.7808 -0.4250
 5951SOL    HW129312   4.383   0.341  10.842 -0.1472 -0.2016 -0.0465
 5951SOL    HW229313   4.530   0.327  10.865  0.1786 -1.1371  2.4954
 5952SOL     OW29314   2.449   0.897   6.939  0.6322 -0.4556  0.3107
 5952SOL    HW129315   2.356   0.915   6.932  0.5736 -0.5613  0.8294
 5952SOL    HW229316   2.464   0.892   7.033 -1.5190 -2.9967  0.5030
 5953SOL     OW29317   1.796   2.293   0.456  0.3175  0.3476 -0.2885
 5953SOL    HW129318   1.876   2.282   0.508 -0.4284 -3.3801  0.0478
 5953SOL    HW229319   1.740   2.337   0.521  1.2286  2.0873 -0.6908
 5954SOL     OW29320   4.100   2.955  11.201  0.4627  0.1789  0.3120
 5954SOL    HW129321   4.189   2.983  11.180  0.6094 -1.4091 -1.1641
 5954SOL    HW229322   4.117   2.862  11.217 -3.4309 -0.4465  1.0157
 5955SOL     OW29323   2.194   4.301   2.636 -0.2234  0.0594 -0.1048
 5955SOL    HW129324   2.278   4.342   2.658  0.6700 -1.6245 -0.4543
 5955SOL    HW229325   2.209   4.207   2.629  0.6968  0.2000 -0.0013
 5956SOL     OW29326   0.150   1.098   2.007  0.5987 -0.0930  0.1472
 5956SOL    HW129327   0.189   1.084   1.921  0.8230  0.3656  0.1768
 5956SOL    HW229328   0.159   1.193   2.015 -0.8747  0.1028 -0.3822
 5957SOL     OW29329   4.441   4.176   2.358 -0.0446 -0.1854  0.0840
 5957SOL    HW129330   4.480   4.262   2.340  0.0639 -0.5073 -1.1939
 5957SOL    HW229331   4.354   4.192   2.322  0.5215  1.5348 -0.5275
 5958SOL     OW29332   3.652   0.469   6.162 -0.5247 -0.1030  0.3250
 5958SOL    HW129333   3.596   0.400   6.128  1.0009 -1.5746  0.7786
 5958SOL    HW229334   3.732   0.419   6.178 -0.4322 -0.2100 -0.4774
 5959SOL     OW29335   4.224   2.594   4.454 -0.0321  0.1585 -0.1185
 5959SOL    HW129336   4.192   2.579   4.543  0.8341  2.8704  0.6607
 5959SOL    HW229337   4.144   2.621   4.410 -0.2355 -1.0126 -0.4547
 5960SOL     OW29338   4.485   0.068   5.463  0.4619 -0.4042 -0.1054
 5960SOL    HW129339   4.393   0.045   5.458  0.4165 -0.0601 -1.0366
 5960SOL    HW229340   4.520   4.722   5.519  3.1550  1.6227  0.6938
 5961SOL     OW29341   4.392   4.615  10.171 -0.5945 -0.3095  0.4231
 5961SOL    HW129342   4.466   4.557  10.152 -1.3798 -0.1601 -3.0780
 5961SOL    HW229343   4.320   4.577  10.121  0.2359 -1.1103 -0.1579
 5962SOL     OW29344   1.458   4.401   7.416 -0.0268 -0.5548  0.2027
 5962SOL    HW129345   1.391   4.441   7.361  0.0707 -0.4083  0.1929
 5962SOL    HW229346   1.483   4.331   7.355 -0.3505 -1.3928  1.0395
 5963SOL     OW29347   1.847   4.012   7.521  0.0649 -0.1067  0.0371
 5963SOL    HW129348   1.893   3.941   7.565  0.5794 -1.5476 -2.8368
 5963SOL    HW229349   1.759   3.976   7.522 -0.2382  0.6737  1.4826
 5964SOL     OW29350   0.302   0.615   5.687  0.2707  0.1596  0.0729
 5964SOL    HW129351   0.244   0.606   5.762 -2.5567  0.8353 -2.0186
 5964SOL    HW229352   0.302   0.528   5.646 -4.0652 -0.1271  0.6712
 5965SOL     OW29353   3.472   0.760  13.058  0.1427 -0.4749  0.2003
 5965SOL    HW129354   3.477   0.854  13.074  0.5926 -0.3984 -0.3997
 5965SOL    HW229355   3.560   0.732  13.034  0.9712  3.0678 -0.8138
 5966SOL     OW29356   2.133   3.493   7.490  0.8316  0.1016 -0.5716
 5966SOL    HW129357   2.163   3.534   7.409  0.5934  1.1359 -0.1446
 5966SOL    HW229358   2.043   3.467   7.471  0.5500  0.8000 -0.2114
 5967SOL     OW29359   1.187   2.545   3.033 -0.4311 -0.1015 -0.0920
 5967SOL    HW129360   1.172   2.488   2.957 -1.2887 -0.9605  0.7114
 5967SOL    HW229361   1.146   2.495   3.104 -0.0246 -1.3269 -0.7173
 5968SOL     OW29362   2.640   1.686  12.054  0.2616 -0.6350  0.4003
 5968SOL    HW129363   2.670   1.667  12.143  0.0111 -2.2517  0.1372
 5968SOL    HW229364   2.616   1.778  12.055  1.8696 -0.1768 -1.2981
 5969SOL     OW29365   2.566   3.033  12.101 -0.2789  0.6339 -0.1519
 5969SOL    HW129366   2.565   3.126  12.123 -1.8202  0.9728 -1.7085
 5969SOL    HW229367   2.498   3.034  12.033  0.8550  0.5163 -1.2963
 5970SOL     OW29368   3.067   1.126  13.854 -0.0094 -0.6280 -0.4598
 5970SOL    HW129369   3.036   1.097  13.768 -1.8147  0.8622 -0.3249
 5970SOL    HW229370   3.125   1.196  13.824  2.6770 -3.0404 -0.8692
 5971SOL     OW29371   4.555   2.172  16.857  0.0905  0.4677 -0.3216
 5971SOL    HW129372   4.564   2.081  16.828  0.7499  0.0510  1.1694
 5971SOL    HW229373   4.460   2.181  16.852 -0.0741 -0.6979  0.8676
 5972SOL     OW29374   1.991   2.569  15.519 -0.2478  0.2077  0.1467
 5972SOL    HW129375   1.947   2.654  15.524  2.0213  1.5325 -2.4086
 5972SOL    HW229376   2.066   2.583  15.461 -1.2585 -0.1054 -1.2063
 5973SOL     OW29377   2.312   4.521   8.387 -0.4778  0.2940  0.7294
 5973SOL    HW129378   2.387   4.561   8.430  1.2498 -2.3613  0.1873
 5973SOL    HW229379   2.309   4.578   8.310  0.1599  0.5768  0.9119
 5974SOL     OW29380   1.008   0.898   4.837  0.0472  0.4270 -0.0892
 5974SOL    HW129381   1.009   0.810   4.873  2.6360  0.2701 -0.4882
 5974SOL    HW229382   1.071   0.885   4.766 -1.1940 -0.3189 -1.0548
 5975SOL     OW29383   2.503   4.232  14.534 -0.1991 -0.2313 -0.8341
 5975SOL    HW129384   2.573   4.184  14.578  0.2116  1.1914  0.0709
 5975SOL    HW229385   2.489   4.184  14.453 -1.8523 -1.3019  0.0931
 5976SOL     OW29386   0.777   2.808   0.283 -0.5869  0.0497  0.4325
 5976SOL    HW129387   0.766   2.841   0.194  0.5793  0.9229  0.6096
 5976SOL    HW229388   0.815   2.884   0.327  3.1359 -1.0234 -0.9331
 5977SOL     OW29389   3.442   4.686  10.170 -0.2925  0.2334  0.0523
 5977SOL    HW129390   3.530   0.003  10.172  1.0568 -2.8829  1.6599
 5977SOL    HW229391   3.426   4.687  10.075 -0.7146 -1.2061  0.1008
 5978SOL     OW29392   3.496   0.023  11.055  1.2447  0.0388  0.2501
 5978SOL    HW129393   3.442   4.687  11.004  2.6053 -2.5686  1.8074
 5978SOL    HW229394   3.566   4.683  11.074  1.3971 -0.4558 -1.9731
 5979SOL     OW29395   2.427   1.327   2.365  0.1780  0.0136  0.5864
 5979SOL    HW129396   2.446   1.311   2.457 -2.5028  0.1425  1.1461
 5979SOL    HW229397   2.510   1.368   2.341 -0.4727  2.2467  2.0815
 5980SOL     OW29398   1.707   3.953   5.676  0.0497 -0.4438  0.2540
 5980SOL    HW129399   1.636   3.904   5.717  0.3355 -2.2292 -1.3736
 5980SOL    HW229400   1.707   3.928   5.583  1.1751 -1.3291  0.4902
 5981SOL     OW29401   2.467   2.461   8.260  0.5415  0.0693  0.5747
 5981SOL    HW129402   2.521   2.393   8.300  1.3397  0.8633  0.8437
 5981SOL    HW229403   2.394   2.406   8.231  0.7224  0.8814 -1.3778
 5982SOL     OW29404   2.548   2.920  12.790 -0.4293 -0.2743 -0.1010
 5982SOL    HW129405   2.603   2.981  12.839  2.8093 -1.4922 -2.2010
 5982SOL    HW229406   2.461   2.957  12.772 -0.0542  1.0765  0.8958
 5983SOL     OW29407   1.691   0.517   4.199  0.2812  0.0533 -0.0900
 5983SOL    HW129408   1.731   0.552   4.278 -2.2837  1.7912  0.4535
 5983SOL    HW229409   1.619   0.476   4.247  0.8548 -0.7390  0.0782
 5984SOL     OW29410   2.452   1.804   7.340 -0.1263 -0.0461 -0.0632
 5984SOL    HW129411   2.506   1.733   7.376 -0.8925 -1.1216 -1.0188
 5984SOL    HW229412   2.482   1.884   7.383  0.0344 -0.8380  1.3110
 5985SOL     OW29413   1.437   3.838   7.290 -0.6654 -0.7953 -0.4499
 5985SOL    HW129414   1.376   3.803   7.355 -1.6210  3.4715  0.9540
 5985SOL    HW229415   1.378   3.848   7.215 -1.4686 -0.4655  0.2276
 5986SOL     OW29416   2.664   2.332   6.892 -0.6243  0.0972 -0.5043
 5986SOL    HW129417   2.747   2.371   6.865 -0.2774 -0.8770 -0.8253
 5986SOL    HW229418   2.701   2.281   6.964  0.8853  1.6469 -0.1908
 5987SOL     OW29419   0.714   1.264  10.105 -0.2535 -0.0075 -0.2494
 5987SOL    HW129420   0.680   1.353  10.098  1.2450  0.5924  0.2505
 5987SOL    HW229421   0.780   1.278  10.172  0.3303  1.0111 -1.0379
 5988SOL     OW29422   3.695   0.202   7.719  0.0533 -0.3357  0.5458
 5988SOL    HW129423   3.614   0.247   7.743  1.2952  1.9456  0.4432
 5988SOL    HW229424   3.705   0.151   7.799  1.0676 -1.3196 -0.2022
 5989SOL     OW29425   4.550   1.438   4.745 -0.3273  0.1470  0.0514
 5989SOL    HW129426   4.460   1.446   4.776 -0.1132  0.0796  0.6778
 5989SOL    HW229427   4.544   1.420   4.651 -0.6210  2.4241 -0.3704
 5990SOL     OW29428   0.830   1.539   9.032  0.4580  0.3220  0.3942
 5990SOL    HW129429   0.785   1.491   9.102  2.4996  0.8968  2.1094
 5990SOL    HW229430   0.768   1.612   9.023 -0.1279 -0.2236  0.0910
 5991SOL     OW29431   0.678   4.632  17.371  0.4310  0.5005  0.2922
 5991SOL    HW129432   0.614   4.704  17.371 -0.9943 -0.8013 -2.4185
 5991SOL    HW229433   0.719   4.648  17.286  0.4249  4.9270  1.1050
 5992SOL     OW29434   4.163   0.830   5.887  0.2526 -0.2595 -0.1163
 5992SOL    HW129435   4.074   0.842   5.920 -0.3986 -0.9815 -1.6075
 5992SOL    HW229436   4.197   0.919   5.879  0.5589 -0.6475 -3.3749
 5993SOL     OW29437   1.368   2.094   2.289  0.2952 -0.3148 -0.4783
 5993SOL    HW129438   1.409   2.179   2.275  0.5522 -0.4500 -0.5569
 5993SOL    HW229439   1.284   2.108   2.245 -0.5783 -0.6421  1.0596
 5994SOL     OW29440   4.166   0.338   3.845  0.2591 -0.5934 -0.5161
 5994SOL    HW129441   4.080   0.353   3.885  0.3431  0.3595 -0.6956
 5994SOL    HW229442   4.185   0.246   3.864  2.3272 -0.0891 -0.1862
 5995SOL     OW29443   2.586   1.608   8.351 -0.2296 -0.5436  0.4007
 5995SOL    HW129444   2.663   1.651   8.388 -0.6103  0.1404  0.3977
 5995SOL    HW229445   2.519   1.648   8.406 -0.2817  0.9501 -0.7468
 5996SOL     OW29446   4.470   0.014   7.564 -0.6339  0.2037 -0.0090
 5996SOL    HW129447   4.561   4.720   7.540 -0.7460 -2.4117  1.3729
 5996SOL    HW229448   4.472   0.005   7.660  1.0352 -1.0696 -0.1597
 5997SOL     OW29449   3.298   3.265   5.194  0.2325  0.3546 -0.9930
 5997SOL    HW129450   3.255   3.344   5.228 -2.3877 -1.4980 -0.0504
 5997SOL    HW229451   3.239   3.225   5.131  0.6302 -2.0808  0.2008
 5998SOL     OW29452   0.155   2.730  11.707 -0.7253 -0.4534 -0.6470
 5998SOL    HW129453   0.114   2.782  11.776 -2.2268 -1.3466 -0.8597
 5998SOL    HW229454   0.123   2.644  11.735 -0.2651  0.1703  1.8071
 5999SOL     OW29455   4.643   3.593   7.618 -0.1305 -0.4899 -0.7576
 5999SOL    HW129456   4.599   3.664   7.664 -0.7829 -1.7032  0.4888
 5999SOL    HW229457   0.004   3.638   7.605  0.0143 -0.3412  0.6778
 6000SOL     OW29458   3.920   2.307   1.391  0.1716  0.2309  0.3475
 6000SOL    HW129459   3.838   2.258   1.397  0.2762  0.2083  1.6573
 6000SOL    HW229460   3.977   2.263   1.453  0.8850  1.7192  0.7581
 6001SOL     OW29461   2.819   2.531  17.359  0.1254 -0.3379 -0.0864
 6001SOL    HW129462   2.784   2.601  17.303 -0.6032 -2.4844 -2.3732
 6001SOL    HW229463   2.822   2.578  17.442 -0.5668 -0.6669  0.1289
 6002SOL     OW29464   0.757   0.717   1.130  0.2433  0.1610  0.1566
 6002SOL    HW129465   0.733   0.640   1.077 -0.1685  1.8835 -2.1403
 6002SOL    HW229466   0.852   0.716   1.136  0.1388  4.2777  2.1706
 6003SOL     OW29467   3.169   3.429   3.720  0.0403  0.0369  0.2723
 6003SOL    HW129468   3.244   3.369   3.720 -1.2502 -1.5953 -2.9562
 6003SOL    HW229469   3.107   3.396   3.784  0.1339 -0.8189 -0.0780
 6004SOL     OW29470   2.343   1.684   8.477 -0.8314  0.2318 -0.3470
 6004SOL    HW129471   2.386   1.769   8.487  0.9990 -0.9111  1.5270
 6004SOL    HW229472   2.306   1.689   8.565 -2.1782  0.5000 -0.9182
 6005SOL     OW29473   4.137   1.182   6.489  0.1814  0.0683  0.4435
 6005SOL    HW129474   4.138   1.094   6.528  4.1968  0.3845  1.0643
 6005SOL    HW229475   4.211   1.217   6.538  1.4291  1.7638 -2.7254
 6006SOL     OW29476   3.883   2.872   3.011  0.6680  0.2068  0.1302
 6006SOL    HW129477   3.972   2.903   3.027  1.3378 -1.5747 -0.1662
 6006SOL    HW229478   3.889   2.813   2.936 -1.8045 -1.0334  0.8863
 6007SOL     OW29479   2.399   2.909   9.488 -0.4387 -0.1633  0.4089
 6007SOL    HW129480   2.398   2.814   9.494  1.4741 -0.2131 -0.2685
 6007SOL    HW229481   2.488   2.921   9.519  0.3517  2.8800 -2.9657
 6008SOL     OW29482   0.140   1.685   5.181  0.0235 -0.3260  0.3230
 6008SOL    HW129483   0.108   1.754   5.123 -1.1677 -1.5182 -0.4690
 6008SOL    HW229484   0.152   1.723   5.268  0.3993  0.9267 -0.2869
 6009SOL     OW29485   0.594   2.541  13.155  0.1088 -0.0209 -0.1337
 6009SOL    HW129486   0.689   2.543  13.156  0.0877  0.5237  1.1804
 6009SOL    HW229487   0.569   2.449  13.167  2.1046 -0.4667  0.4703
 6010SOL     OW29488   3.606   2.387   8.472  0.2108 -0.0868  0.0236
 6010SOL    HW129489   3.619   2.459   8.534 -0.0947 -1.3282  1.5028
 6010SOL    HW229490   3.640   2.313   8.522  1.3318  0.3966 -0.0105
 6011SOL     OW29491   2.566   0.038   0.260 -0.2242  0.1653  0.3254
 6011SOL    HW129492   2.544   4.684   0.313  1.0037 -0.0483  0.5244
 6011SOL    HW229493   2.480   0.069   0.231  0.9567  1.2583 -1.9802
 6012SOL     OW29494   1.687   2.259   2.356  0.1538  0.5050 -0.6466
 6012SOL    HW129495   1.734   2.342   2.367 -1.5864  0.7825  4.8274
 6012SOL    HW229496   1.650   2.262   2.268  0.2021  1.2337 -0.6406
 6013SOL     OW29497   2.906   4.014   9.228 -0.5413  0.5556 -0.2634
 6013SOL    HW129498   2.818   4.025   9.265 -0.2269 -0.3863  0.7670
 6013SOL    HW229499   2.941   4.102   9.219  0.9914 -0.0941 -0.6807
 6014SOL     OW29500   3.678   0.575   0.481 -0.2968  0.2544  0.0448
 6014SOL    HW129501   3.619   0.535   0.417  0.3139 -0.5952  0.0177
 6014SOL    HW229502   3.621   0.561   0.556  1.2953 -0.2836  1.1424
 6015SOL     OW29503   1.478   1.712   6.327 -0.0531  0.5319  0.2771
 6015SOL    HW129504   1.572   1.697   6.329 -0.0196  0.7748  0.5761
 6015SOL    HW229505   1.448   1.637   6.275 -1.1581 -0.1134  1.8344
 6016SOL     OW29506   1.349   3.097   0.421 -0.5271 -0.2982 -0.0029
 6016SOL    HW129507   1.311   3.078   0.507  0.9266 -2.6381  0.1247
 6016SOL    HW229508   1.271   3.092   0.367 -1.6904 -0.6274  1.6970
 6017SOL     OW29509   0.002   0.253   3.817 -0.5543 -0.1107  0.2882
 6017SOL    HW129510   4.647   0.198   3.830 -1.8994  2.0531  1.4830
 6017SOL    HW229511   4.720   0.319   3.887  0.7288 -0.3199  0.5570
 6018SOL     OW29512   0.791   3.701   8.184 -0.7817 -0.5908 -0.2435
 6018SOL    HW129513   0.778   3.750   8.265  0.1755  0.7104 -0.8675
 6018SOL    HW229514   0.846   3.626   8.205 -0.3590 -0.6820 -1.6937
 6019SOL     OW29515   3.663   2.074  11.301 -0.1270  0.1048  0.1795
 6019SOL    HW129516   3.751   2.110  11.301 -0.2716  0.4625  0.3856
 6019SOL    HW229517   3.617   2.137  11.246 -2.6414 -1.0514  0.9391
 6020SOL     OW29518   3.021   4.015   0.856 -0.0713  0.3839  0.3167
 6020SOL    HW129519   3.080   3.967   0.799 -0.4469  1.1719 -0.7365
 6020SOL    HW229520   2.942   3.965   0.836  0.9650 -1.6755  1.4245
 6021SOL     OW29521   0.526   1.391   2.282 -0.3818  0.2476 -0.7459
 6021SOL    HW129522   0.553   1.478   2.254  1.4014 -0.6908 -1.9837
 6021SOL    HW229523   0.538   1.402   2.376 -0.7333 -0.1996 -0.6450
 6022SOL     OW29524   2.173   0.228  16.425 -0.4955 -0.2162 -0.0533
 6022SOL    HW129525   2.180   0.157  16.488 -1.4343  0.1420  0.4607
 6022SOL    HW229526   2.179   0.183  16.341 -3.2034 -3.3145  1.4296
 6023SOL     OW29527   4.075   2.237   2.846 -0.4105 -0.0901  0.1801
 6023SOL    HW129528   4.083   2.189   2.763  0.5078  2.2563 -1.0762
 6023SOL    HW229529   4.114   2.171   2.903  1.6965  0.7825 -0.2406
 6024SOL     OW29530   3.370   2.862   3.517 -0.0398  0.1282 -0.5021
 6024SOL    HW129531   3.458   2.885   3.546 -0.7745  1.0275  1.0862
 6024SOL    HW229532   3.363   2.773   3.552 -0.4607 -0.1243 -1.2348
 6025SOL     OW29533   4.321   1.436   5.459 -0.5371  0.0779  0.3610
 6025SOL    HW129534   4.282   1.377   5.395  0.0889  1.9062 -1.7126
 6025SOL    HW229535   4.272   1.416   5.538  0.2074  4.7498  1.9995
 6026SOL     OW29536   1.204   1.334   8.449 -0.0391 -0.1199  0.3141
 6026SOL    HW129537   1.208   1.248   8.491 -1.8123 -2.3983 -4.1795
 6026SOL    HW229538   1.108   1.340   8.447 -0.0676 -1.4401 -1.4749
 6027SOL     OW29539   0.569   0.645  16.657 -0.0206  0.6767 -0.5410
 6027SOL    HW129540   0.602   0.605  16.576 -0.1342 -1.7693  0.6306
 6027SOL    HW229541   0.504   0.705  16.618 -0.7305 -0.0112 -0.4182
 6028SOL     OW29542   1.792   1.727   6.257 -0.2633  0.1402 -0.6357
 6028SOL    HW129543   1.855   1.766   6.317  0.3672 -0.1925 -1.0795
 6028SOL    HW229544   1.811   1.778   6.178 -2.1587  0.7826 -0.6771
 6029SOL     OW29545   0.807   0.573   3.980 -0.0517 -0.3376 -0.4863
 6029SOL    HW129546   0.830   0.580   3.887  1.4975 -3.0535 -0.3179
 6029SOL    HW229547   0.723   0.617   3.989  0.5622  0.9298 -0.8811
 6030SOL     OW29548   4.240   0.860   5.033 -0.0358  0.2777  0.1990
 6030SOL    HW129549   4.278   0.807   5.103 -3.2856 -0.8112  1.1709
 6030SOL    HW229550   4.300   0.833   4.964 -0.1621  0.6886 -0.0707
 6031SOL     OW29551   2.338   2.706  13.754 -0.5405  0.2929  0.1373
 6031SOL    HW129552   2.243   2.711  13.750 -0.4724  1.5747 -0.1100
 6031SOL    HW229553   2.347   2.720  13.660 -0.7459  1.7059  0.3264
 6032SOL     OW29554   2.340   0.788  15.486  0.0520  0.0858 -0.4181
 6032SOL    HW129555   2.294   0.757  15.409  0.9079 -2.0549 -0.0597
 6032SOL    HW229556   2.397   0.853  15.445  1.5651  0.4416  2.2569
 6033SOL     OW29557   2.014   2.434   8.390  0.0619 -0.2448 -0.0725
 6033SOL    HW129558   2.055   2.501   8.336  0.6998  0.8951  1.8258
 6033SOL    HW229559   2.030   2.357   8.335  0.2950 -1.1372  1.2444
 6034SOL     OW29560   4.484   4.315  14.517 -0.7016 -0.5014  0.7279
 6034SOL    HW129561   4.556   4.331  14.578 -0.4474 -1.6688  0.7325
 6034SOL    HW229562   4.481   4.391  14.458 -1.5752 -1.0386  0.0859
 6035SOL     OW29563   1.562   4.016  12.796  0.2324 -0.2734  0.0166
 6035SOL    HW129564   1.529   3.960  12.726 -2.5253  0.5378  0.6530
 6035SOL    HW229565   1.656   4.022  12.777 -0.3275  0.2419 -2.5985
 6036SOL     OW29566   2.737   4.261   5.574 -0.0780 -0.1988 -0.5778
 6036SOL    HW129567   2.804   4.254   5.642 -0.8337  2.6853  0.4791
 6036SOL    HW229568   2.794   4.231   5.504  1.7338  0.4605  0.6009
 6037SOL     OW29569   2.022   2.752   0.476  0.3009 -0.7248  0.2910
 6037SOL    HW129570   2.068   2.827   0.512 -1.3948 -0.4937  2.0240
 6037SOL    HW229571   1.988   2.718   0.560  0.1135  0.8398  0.8412
 6038SOL     OW29572   1.395   1.252   3.980 -0.0935 -0.8074  0.6812
 6038SOL    HW129573   1.322   1.241   3.919 -0.7647  0.6053  1.2376
 6038SOL    HW229574   1.455   1.217   3.914  0.1574 -1.7102  1.3784
 6039SOL     OW29575   4.068   4.497   2.610  0.4271 -0.6078  0.0801
 6039SOL    HW129576   4.002   4.564   2.629  0.1095 -0.6104 -0.9731
 6039SOL    HW229577   4.091   4.515   2.519 -0.7733  2.3554  0.3501
 6040SOL     OW29578   0.155   3.143   5.080  0.1093  0.6153 -0.8950
 6040SOL    HW129579   0.190   3.185   5.002  0.6509 -1.9667 -2.0564
 6040SOL    HW229580   0.112   3.063   5.049 -0.9911  1.4189 -1.4844
 6041SOL     OW29581   4.606   1.760  11.024  0.4129  0.2631  0.5050
 6041SOL    HW129582   4.560   1.792  10.947 -1.3440 -0.0831  1.4121
 6041SOL    HW229583   4.583   1.822  11.093  2.7459  0.7396  0.8546
 6042SOL     OW29584   1.813   2.877   0.370 -0.0072 -0.3609  0.4471
 6042SOL    HW129585   1.807   2.883   0.274  1.1265 -0.5162  0.3639
 6042SOL    HW229586   1.884   2.819   0.398  0.9619 -0.3710 -1.9911
 6043SOL     OW29587   0.408   2.504  12.505 -0.3231  0.0629 -0.3175
 6043SOL    HW129588   0.341   2.517  12.572 -1.0219 -1.2852 -0.7657
 6043SOL    HW229589   0.473   2.452  12.553 -0.2376 -0.8370 -1.4291
 6044SOL     OW29590   4.188   0.545   5.781  0.6825 -0.1850  0.5419
 6044SOL    HW129591   4.212   0.630   5.819 -0.9006  0.3990  0.2247
 6044SOL    HW229592   4.095   0.543   5.805  0.2596 -0.1156 -1.1352
 6045SOL     OW29593   0.425   0.600   2.873 -0.5856 -0.0316  0.3404
 6045SOL    HW129594   0.404   0.515   2.837 -0.4920  0.6917 -1.3927
 6045SOL    HW229595   0.503   0.619   2.820 -1.5690  2.0209 -0.3724
 6046SOL     OW29596   2.518   3.149   3.430 -0.2462 -0.0945  0.2345
 6046SOL    HW129597   2.470   3.122   3.352 -0.7495  0.3603  0.3885
 6046SOL    HW229598   2.501   3.076   3.489 -1.2727  0.4806  0.6490
 6047SOL     OW29599   1.316   2.595  16.964  0.6244  0.2653  0.0242
 6047SOL    HW129600   1.314   2.593  17.060 -1.2679  1.5469  0.0055
 6047SOL    HW229601   1.250   2.659  16.939  0.0860 -0.2802  0.0289
 6048SOL     OW29602   4.025   1.925   6.656 -0.2116 -0.0493 -0.2414
 6048SOL    HW129603   4.094   1.859   6.652 -0.7796 -0.7122  0.9432
 6048SOL    HW229604   3.952   1.884   6.610  0.2750  1.1299 -2.0593
 6049SOL     OW29605   2.163   1.366   5.284 -0.1651 -0.0495 -0.1410
 6049SOL    HW129606   2.131   1.281   5.317  1.0059  0.3836  2.1180
 6049SOL    HW229607   2.093   1.427   5.310 -0.8428 -1.5661  1.6269
 6050SOL     OW29608   3.321   2.287   4.432 -0.5609 -0.1740 -0.4195
 6050SOL    HW129609   3.363   2.342   4.366  0.7061 -1.0938 -0.3713
 6050SOL    HW229610   3.229   2.312   4.420 -0.6767  0.0332  0.9197
 6051SOL     OW29611   2.536   3.917   5.331  0.2281 -0.0503  0.7430
 6051SOL    HW129612   2.448   3.953   5.327  0.5621  0.7062  0.2899
 6051SOL    HW229613   2.591   3.995   5.322 -3.2841  2.5280  1.7377
 6052SOL     OW29614   2.257   3.409   8.891  0.0514 -0.3096 -0.5966
 6052SOL    HW129615   2.293   3.416   8.803 -2.8548 -1.7016 -1.9148
 6052SOL    HW229616   2.237   3.315   8.893  0.0976 -0.2639  2.0841
 6053SOL     OW29617   2.565   1.662   6.291 -0.4333 -0.2385  0.1342
 6053SOL    HW129618   2.606   1.601   6.352  0.9647  1.6623  1.0552
 6053SOL    HW229619   2.627   1.676   6.219 -0.7061 -1.0907 -0.2727
 6054SOL     OW29620   3.518   2.719   5.479 -0.1029  0.3545 -0.0460
 6054SOL    HW129621   3.427   2.689   5.479  0.4340 -1.2945 -0.2919
 6054SOL    HW229622   3.513   2.813   5.498 -2.4720  0.1390  0.3264
 6055SOL     OW29623   0.536   2.626   3.497  0.0039  0.2157  0.0137
 6055SOL    HW129624   0.612   2.641   3.553 -0.7309  2.8770  0.2902
 6055SOL    HW229625   0.520   2.534   3.519  0.2726  0.6623  2.0740
 6056SOL     OW29626   3.235   0.254   9.758 -0.1206  0.3398 -0.1474
 6056SOL    HW129627   3.330   0.247   9.748  0.0103  1.9533 -0.1007
 6056SOL    HW229628   3.207   0.254   9.667  0.2080  1.3422 -0.2526
 6057SOL     OW29629   2.275   0.322   5.161 -0.1733  0.5814 -0.0537
 6057SOL    HW129630   2.242   0.391   5.219 -1.3066 -0.6896  0.8186
 6057SOL    HW229631   2.218   0.329   5.085  2.4423  0.1024 -2.0645
 6058SOL     OW29632   2.319   0.613   9.415  0.1740  0.5686 -0.2979
 6058SOL    HW129633   2.273   0.529   9.409  1.0832  0.1130 -0.7408
 6058SOL    HW229634   2.268   0.664   9.353 -1.7946 -0.1095  0.7586
 6059SOL     OW29635   1.010   2.072   8.159  0.3264  0.0623  0.2302
 6059SOL    HW129636   1.044   1.995   8.205  0.1900 -1.2450 -1.8384
 6059SOL    HW229637   0.923   2.042   8.133  0.1319 -0.2781  1.2670
 6060SOL     OW29638   1.095   2.968   7.121  0.6482  0.1012 -0.6168
 6060SOL    HW129639   1.152   3.040   7.094  1.4737 -0.1923  0.3486
 6060SOL    HW229640   1.121   2.962   7.213  3.3855  0.3884 -1.3796
 6061SOL     OW29641   0.179   1.486  12.634 -0.1258 -0.0824  0.1648
 6061SOL    HW129642   0.177   1.406  12.583 -1.0683 -0.4406  0.7605
 6061SOL    HW229643   0.142   1.553  12.576  0.5751  0.4205  0.2893
 6062SOL     OW29644   2.101   1.764   5.911 -0.0843 -0.0687  0.5710
 6062SOL    HW129645   2.121   1.731   5.823 -0.9436  0.6481  0.1000
 6062SOL    HW229646   2.117   1.694   5.974 -1.1641 -0.0845  0.8318
 6063SOL     OW29647   3.920   4.615   6.477  0.0845  0.2163 -0.2030
 6063SOL    HW129648   3.898   4.581   6.390  0.1349  0.6603 -0.3903
 6063SOL    HW229649   3.925   4.706   6.446  2.9562  0.6598  1.5885
 6064SOL     OW29650   0.439   4.329   3.246 -0.6021  0.4236 -0.3789
 6064SOL    HW129651   0.444   4.392   3.174 -0.5429  0.9694  0.1107
 6064SOL    HW229652   0.459   4.254   3.189 -2.8532  0.8192 -1.6987
 6065SOL     OW29653   3.501   1.167   5.692 -0.0731 -0.3069 -0.3148
 6065SOL    HW129654   3.589   1.169   5.730  0.1877  0.7380 -0.9978
 6065SOL    HW229655   3.500   1.080   5.652  0.1626 -0.3004 -0.3360
 6066SOL     OW29656   4.454   4.594   5.982 -0.2227  0.1134  0.2396
 6066SOL    HW129657   4.451   4.522   5.919  1.4344 -1.4324  1.9249
 6066SOL    HW229658   4.385   4.562   6.041 -0.8674 -2.5375 -1.9252
 6067SOL     OW29659   3.220   2.545  10.924  0.1964 -0.3935  0.2759
 6067SOL    HW129660   3.218   2.457  10.963  1.2988 -0.9616 -0.9805
 6067SOL    HW229661   3.314   2.561  10.920  0.3994 -0.7342  3.2403
 6068SOL     OW29662   3.293   2.416   3.427  0.1034  0.4101 -0.0120
 6068SOL    HW129663   3.372   2.438   3.476 -0.7053  3.1102  0.1279
 6068SOL    HW229664   3.271   2.505   3.398  1.5387  0.3746 -1.2107
 6069SOL     OW29665   1.740   2.418  11.545  0.5858 -0.2593 -0.3450
 6069SOL    HW129666   1.790   2.338  11.529  1.4030  0.4126 -1.1756
 6069SOL    HW229667   1.812   2.473  11.577  0.7099 -0.1517 -0.8117
 6070SOL     OW29668   0.184   4.624   7.338 -0.0223 -0.0130 -0.7406
 6070SOL    HW129669   0.115   4.665   7.391 -0.2379 -3.4471  1.5962
 6070SOL    HW229670   0.133   4.546   7.317  1.6003 -1.1960 -0.1854
 6071SOL     OW29671   2.482   2.987   4.836 -0.5619  0.7999  0.0743
 6071SOL    HW129672   2.396   2.985   4.794 -0.3273  0.3506 -0.3977
 6071SOL    HW229673   2.544   2.974   4.764 -2.5391  0.5761 -1.5742
 6072SOL     OW29674   3.697   1.144  13.136  0.0657  0.2758  0.1355
 6072SOL    HW129675   3.765   1.198  13.095  0.1577  0.2786  0.2888
 6072SOL    HW229676   3.728   1.129  13.225  1.1353  0.0033 -0.2868
 6073SOL     OW29677   1.200   2.955   7.361  0.2248 -0.0620 -0.5125
 6073SOL    HW129678   1.280   2.987   7.404  0.1097  1.2462 -1.2545
 6073SOL    HW229679   1.219   2.861   7.363  0.2166 -0.0250  1.1587
 6074SOL     OW29680   4.274   3.217   8.324  0.4396  0.1090 -0.6167
 6074SOL    HW129681   4.228   3.214   8.407  3.9664  0.2000  1.3346
 6074SOL    HW229682   4.210   3.177   8.265  0.6309 -0.6761 -0.2966
 6075SOL     OW29683   0.848   2.275  16.814 -0.4930  0.0054  0.3011
 6075SOL    HW129684   0.918   2.298  16.753 -1.4691  0.8696 -0.4725
 6075SOL    HW229685   0.771   2.304  16.765 -1.2732  0.4423  1.7852
 6076SOL     OW29686   2.096   2.479   2.216  0.5842 -0.1079  0.2051
 6076SOL    HW129687   2.099   2.574   2.231  2.2304 -0.1345  0.0349
 6076SOL    HW229688   2.160   2.440   2.274 -1.6386  1.1192  3.4527
 6077SOL     OW29689   2.175   0.630   3.486  0.2199  0.2116  0.1611
 6077SOL    HW129690   2.093   0.586   3.508  0.7323 -1.1581 -0.6794
 6077SOL    HW229691   2.153   0.721   3.506 -1.2621  0.4401 -2.5332
 6078SOL     OW29692   0.572   1.040  13.942 -0.0218  0.2060 -0.2057
 6078SOL    HW129693   0.497   1.062  13.886 -0.7949  1.6868  1.3982
 6078SOL    HW229694   0.648   1.075  13.896  0.3175 -1.4960 -0.9297
 6079SOL     OW29695   0.478   2.445  13.580  0.3831  0.7006  0.6609
 6079SOL    HW129696   0.467   2.483  13.492  2.6569  0.5717  0.3148
 6079SOL    HW229697   0.474   2.350  13.566  0.5769  0.9878 -1.3971
 6080SOL     OW29698   0.515   1.885   2.501  0.0981 -0.2051 -0.0904
 6080SOL    HW129699   0.573   1.890   2.424  0.5280  0.6639  0.2819
 6080SOL    HW229700   0.487   1.976   2.510 -0.0824 -0.4954  2.2276
 6081SOL     OW29701   2.526   4.565   0.468 -0.8402 -0.4986 -0.1292
 6081SOL    HW129702   2.439   4.579   0.506 -1.0675  3.1675 -2.0880
 6081SOL    HW229703   2.572   4.541   0.549 -0.7313 -0.6927 -0.2476
 6082SOL     OW29704   0.105   2.268   8.274 -0.0057 -0.3125 -0.0537
 6082SOL    HW129705   0.148   2.336   8.222  1.3265 -1.6807 -0.7686
 6082SOL    HW229706   0.157   2.196   8.239  0.6448  0.0710  0.1268
 6083SOL     OW29707   4.607   0.870  10.309 -0.4516  0.5095 -0.5571
 6083SOL    HW129708   4.670   0.825  10.365 -0.5251  1.9687  0.7240
 6083SOL    HW229709   4.565   0.923  10.377  3.2552 -0.1381  2.2418
 6084SOL     OW29710   0.532   2.612  15.334  0.3882 -0.4081  0.0933
 6084SOL    HW129711   0.557   2.535  15.384 -1.8542 -0.1310  1.6271
 6084SOL    HW229712   0.551   2.585  15.244  1.9055 -1.5178  0.7552
 6085SOL     OW29713   0.706   3.764  13.971  0.6572  0.4726  0.1414
 6085SOL    HW129714   0.796   3.742  13.945  1.0362  2.5505 -0.3285
 6085SOL    HW229715   0.696   3.857  13.953 -1.9856  0.9774  4.1392
 6086SOL     OW29716   2.308   1.578  12.169  0.6312 -0.0051 -0.0378
 6086SOL    HW129717   2.231   1.629  12.144  0.5984 -0.1270 -0.1856
 6086SOL    HW229718   2.372   1.611  12.105  0.7910  1.0035  0.6429
 6087SOL     OW29719   1.579   1.764   3.048  0.3412  0.1682 -0.1240
 6087SOL    HW129720   1.545   1.844   3.009  2.2572  0.3663 -1.4032
 6087SOL    HW229721   1.636   1.731   2.978  1.0613 -0.0895  0.5786
 6088SOL     OW29722   0.461   2.645   7.171 -0.4948 -0.5535  0.2888
 6088SOL    HW129723   0.529   2.664   7.107  0.4242 -1.8184  0.8809
 6088SOL    HW229724   0.400   2.715   7.150  1.1636  0.4318 -1.1675
 6089SOL     OW29725   2.435   2.451   0.923  0.2087  0.1884  0.2855
 6089SOL    HW129726   2.511   2.509   0.933  0.6196 -0.3293  0.1617
 6089SOL    HW229727   2.444   2.391   0.997 -2.6638 -0.7390 -0.1257
 6090SOL     OW29728   3.305   2.587   1.814 -0.1688  0.2090  0.0900
 6090SOL    HW129729   3.397   2.592   1.788  0.4751 -3.1817  1.7009
 6090SOL    HW229730   3.273   2.502   1.783 -0.3564  1.1101 -2.2381
 6091SOL     OW29731   4.326   2.942   7.774  0.5607 -0.1018 -0.5209
 6091SOL    HW129732   4.386   2.882   7.818  1.0094  0.7624  0.0473
 6091SOL    HW229733   4.246   2.946   7.827  0.5817  0.0336 -0.4982
 6092SOL     OW29734   2.462   4.653   7.325  0.0559  0.2596 -0.4629
 6092SOL    HW129735   2.522   4.648   7.251  2.6841 -2.0595  1.8371
 6092SOL    HW229736   2.427   0.020   7.318  0.7412  0.6580  1.0871
 6093SOL     OW29737   2.091   3.998   7.734 -0.1721  0.2563 -0.7336
 6093SOL    HW129738   2.007   4.013   7.776 -0.5302 -1.0680 -1.0029
 6093SOL    HW229739   2.062   3.932   7.671 -0.2836  0.0837 -0.4953
 6094SOL     OW29740   2.313   2.332   5.675  0.2619 -0.6157  0.1452
 6094SOL    HW129741   2.325   2.300   5.765 -0.4298  0.0959  0.4928
 6094SOL    HW229742   2.394   2.379   5.656 -0.2296 -0.6419 -2.0214
 6095SOL     OW29743   4.473   2.744   8.026 -0.7040 -0.4348  0.0744
 6095SOL    HW129744   4.400   2.725   8.084 -2.0973  1.4236 -1.0553
 6095SOL    HW229745   4.517   2.661   8.043 -1.9415 -1.2929 -0.8769
 6096SOL     OW29746   0.680   4.563  14.659 -0.0483 -0.1284  0.1889
 6096SOL    HW129747   0.774   4.543  14.655 -0.0435  0.0591 -0.6180
 6096SOL    HW229748   0.637   4.483  14.628  0.0968 -0.6821  1.4060
 6097SOL     OW29749   2.630   4.213   1.634 -0.2264  0.1380 -0.2197
 6097SOL    HW129750   2.689   4.271   1.586  0.2298 -1.6433 -1.8279
 6097SOL    HW229751   2.568   4.204   1.561 -0.0009 -0.7464 -0.3033
 6098SOL     OW29752   3.305   4.409   1.856  0.7248  0.4192  0.5476
 6098SOL    HW129753   3.261   4.386   1.938 -0.5598 -0.4267 -0.3798
 6098SOL    HW229754   3.274   4.499   1.847 -1.7458 -0.5265 -0.5331
 6099SOL     OW29755   1.010   0.432   1.421 -0.2638  0.0332  0.4416
 6099SOL    HW129756   0.963   0.393   1.347 -1.5715  1.0095  0.7686
 6099SOL    HW229757   1.091   0.381   1.415  0.0902  0.5005  1.4278
 6100SOL     OW29758   0.651   4.393   6.161 -0.0075  0.1321  0.8372
 6100SOL    HW129759   0.647   4.467   6.100 -0.3382 -0.6634 -0.1187
 6100SOL    HW229760   0.575   4.418   6.214  0.8137 -1.5924  2.8092
 6101SOL     OW29761   2.082   4.345   7.646  0.1249  0.0695  0.1019
 6101SOL    HW129762   2.150   4.345   7.713  0.1512 -1.4384  0.0761
 6101SOL    HW229763   2.009   4.349   7.708 -0.4400 -2.0125 -0.4504
 6102SOL     OW29764   1.870   4.553  11.646 -0.5643 -0.1834 -0.2044
 6102SOL    HW129765   1.825   4.502  11.579 -0.8682  0.0847 -0.1989
 6102SOL    HW229766   1.957   4.513  11.646  0.1006  1.2716 -0.6330
 6103SOL     OW29767   1.225   2.115  10.606 -0.0119  0.2833 -0.0786
 6103SOL    HW129768   1.154   2.179  10.600  2.0034  2.3931 -1.7537
 6103SOL    HW229769   1.293   2.157  10.659  1.9806  0.7822 -3.0347
 6104SOL     OW29770   4.372   1.919   2.352  0.0238  0.5563  0.2993
 6104SOL    HW129771   4.374   1.852   2.421  2.3884  1.2221  0.8758
 6104SOL    HW229772   4.281   1.948   2.352 -0.5748 -1.3194  1.9247
 6105SOL     OW29773   2.671   3.700   7.230  0.1247  0.2657  0.3497
 6105SOL    HW129774   2.751   3.739   7.195  0.8526 -0.7869  0.8461
 6105SOL    HW229775   2.607   3.772   7.228 -0.5172 -0.3160 -0.3280
 6106SOL     OW29776   0.136   1.851   8.178 -0.2429 -0.3521  0.1302
 6106SOL    HW129777   0.048   1.822   8.203 -0.8859  1.0829 -0.5220
 6106SOL    HW229778   0.188   1.803   8.243  2.6857  2.5728 -0.0268
 6107SOL     OW29779   2.729   0.517   9.704  0.3372 -0.0983 -0.3255
 6107SOL    HW129780   2.742   0.565   9.787 -0.3841  0.7427 -0.6964
 6107SOL    HW229781   2.635   0.525   9.689  0.4225  1.2445 -0.1891
 6108SOL     OW29782   0.500   2.199  13.444  0.1543  0.1213 -0.5140
 6108SOL    HW129783   0.566   2.241  13.389 -1.9354  2.0938 -1.5363
 6108SOL    HW229784   0.513   2.106  13.428 -2.4320 -0.3391  0.0491
 6109SOL     OW29785   1.899   4.419   0.364  0.0683 -0.8112  0.2386
 6109SOL    HW129786   1.890   4.514   0.375  0.2610 -0.6352 -1.0858
 6109SOL    HW229787   1.994   4.420   0.368  0.0868  0.0418 -0.4707
 6110SOL     OW29788   4.448   4.225   1.075  0.1130  0.3664 -0.7157
 6110SOL    HW129789   4.364   4.195   1.108  0.4734 -1.5615 -1.5584
 6110SOL    HW229790   4.504   4.164   1.123  0.5247  0.9978 -0.3953
 6111SOL     OW29791   3.559   2.292   7.071 -0.0496  0.0446 -0.0114
 6111SOL    HW129792   3.611   2.229   7.120 -1.0739 -0.9886 -0.2417
 6111SOL    HW229793   3.589   2.275   6.982  0.4203 -1.0879  0.3588
 6112SOL     OW29794   3.621   1.060   4.606  0.2961 -0.6221  0.1106
 6112SOL    HW129795   3.536   1.018   4.593 -0.1083  1.2003 -3.0229
 6112SOL    HW229796   3.680   0.989   4.631  0.5384  0.5519  2.8864
 6113SOL     OW29797   4.101   1.234   2.012  0.3797  0.4956  0.0789
 6113SOL    HW129798   4.122   1.215   1.921 -1.0337 -2.2611  0.3277
 6113SOL    HW229799   4.011   1.260   1.993  0.3280 -0.5696 -1.1353
 6114SOL     OW29800   4.574   0.868   3.945  0.2258 -0.0720 -0.0939
 6114SOL    HW129801   4.601   0.925   3.873  1.6417 -1.3063 -0.5184
 6114SOL    HW229802   4.619   0.788   3.918  0.4657  0.1312 -0.2990
 6115SOL     OW29803   1.384   4.060   4.260 -0.1256 -0.0377  0.2841
 6115SOL    HW129804   1.289   4.069   4.254 -0.1699  0.0896  1.3293
 6115SOL    HW229805   1.416   4.148   4.242  0.9678 -0.0559  2.1434
 6116SOL     OW29806   1.720   0.913   8.629  0.0901  0.1753  0.1296
 6116SOL    HW129807   1.629   0.924   8.657 -0.7143 -0.9016 -2.0698
 6116SOL    HW229808   1.741   0.970   8.555 -0.9562 -0.7233 -0.8636
 6117SOL     OW29809   3.711   3.938   3.036 -0.0194  0.4392  0.1190
 6117SOL    HW129810   3.790   3.895   3.068  1.0907  0.1822 -2.9013
 6117SOL    HW229811   3.717   4.019   3.085 -0.3695 -0.4581  1.6464
 6118SOL     OW29812   4.020   4.167   3.700 -0.2847 -0.4450  0.1392
 6118SOL    HW129813   4.056   4.113   3.630 -1.2825 -1.6662  0.5641
 6118SOL    HW229814   3.973   4.107   3.757 -1.9975 -0.7758 -1.6325
 6119SOL     OW29815   1.439   1.129   5.118 -0.1648 -0.2565 -0.2463
 6119SOL    HW129816   1.415   1.136   5.026  1.2222 -0.0310 -0.5872
 6119SOL    HW229817   1.462   1.037   5.130 -2.2211 -0.5306  1.7568
 6120SOL     OW29818   2.709   0.478  13.447  0.0955 -0.0823 -0.3767
 6120SOL    HW129819   2.757   0.491  13.365 -0.7458  2.2729 -0.5124
 6120SOL    HW229820   2.685   0.567  13.472  2.2621  0.0382  1.2139
 6121SOL     OW29821   4.415   3.282  17.436 -0.0309 -0.2514  0.3236
 6121SOL    HW129822   4.447   3.224  17.366 -0.1437 -2.9669  2.5293
 6121SOL    HW229823   4.321   3.271  17.420  0.1359 -1.7045  0.3196
 6122SOL     OW29824   4.471   0.605   6.484  0.7983  0.4237 -0.3965
 6122SOL    HW129825   4.494   0.698   6.473 -1.9516  1.0133 -1.2350
 6122SOL    HW229826   4.526   0.590   6.561  2.1873 -1.9336 -1.8596
 6123SOL     OW29827   1.787   1.064   3.758 -0.2689  0.1184 -0.4508
 6123SOL    HW129828   1.770   1.010   3.835 -0.9727 -2.5207 -2.4816
 6123SOL    HW229829   1.873   1.040   3.724  0.1718  1.1335 -0.0597
 6124SOL     OW29830   2.225   0.822   2.338 -0.1552 -0.4787  0.6406
 6124SOL    HW129831   2.230   0.764   2.262 -0.2030 -0.2711  0.4771
 6124SOL    HW229832   2.202   0.905   2.294 -2.2555 -0.8884  0.9807
 6125SOL     OW29833   1.673   2.316   9.097  0.2086 -0.2191 -0.5985
 6125SOL    HW129834   1.718   2.270   9.167  1.3678 -0.8174 -1.7413
 6125SOL    HW229835   1.587   2.340   9.132 -0.4733 -2.4611 -0.7459
 6126SOL     OW29836   2.606   1.986  10.587 -0.7060  0.5776  0.1175
 6126SOL    HW129837   2.697   1.962  10.570 -0.6416  1.0592 -0.2355
 6126SOL    HW229838   2.548   1.928  10.539 -1.5020 -0.0512  1.8318
 6127SOL     OW29839   3.280   0.762   6.511  0.0056  0.1751  0.1294
 6127SOL    HW129840   3.346   0.699   6.482 -0.6251 -1.0500  1.3201
 6127SOL    HW229841   3.241   0.790   6.429 -3.0761 -0.7233  1.2744
 6128SOL     OW29842   3.929   1.250   1.605 -0.4316 -0.4848 -0.3673
 6128SOL    HW129843   3.836   1.239   1.623  0.3222 -2.7570  2.0818
 6128SOL    HW229844   3.923   1.308   1.529 -1.4072  1.1436  0.9618
 6129SOL     OW29845   1.534   2.838   7.129 -0.0452 -0.3790  0.1791
 6129SOL    HW129846   1.501   2.818   7.217 -2.3808  0.1966 -0.5753
 6129SOL    HW229847   1.597   2.902   7.162 -0.7912  0.0368  0.7942
 6130SOL     OW29848   1.061   0.033   7.239 -0.1735 -0.0975  0.7671
 6130SOL    HW129849   1.025   0.001   7.321 -1.3207  1.7541  0.9729
 6130SOL    HW229850   1.020   0.120   7.233 -1.4696 -0.7663 -0.1141
 6131SOL     OW29851   4.474   2.674  11.281 -0.3239 -0.0071 -0.0319
 6131SOL    HW129852   4.520   2.639  11.358 -0.5273  0.8364  0.4699
 6131SOL    HW229853   4.514   2.761  11.274  0.3396 -0.1030  2.2328
 6132SOL     OW29854   2.264   4.095   8.720  0.2046  0.0495 -0.4279
 6132SOL    HW129855   2.308   4.014   8.695 -0.0909 -0.4545  0.6814
 6132SOL    HW229856   2.320   4.165   8.684  0.0763 -1.2472 -3.1360
 6133SOL     OW29857   2.691   3.661  11.233  0.0765 -0.4777  0.4938
 6133SOL    HW129858   2.748   3.602  11.183 -0.5860 -1.4335  0.8600
 6133SOL    HW229859   2.617   3.601  11.224  0.3712 -0.7732  0.0314
 6134SOL     OW29860   1.508   3.589   2.302  0.1930  0.1648 -0.0763
 6134SOL    HW129861   1.521   3.509   2.251  0.6063 -1.7623  3.0765
 6134SOL    HW229862   1.492   3.547   2.386  1.7329  0.4279  0.3461
 6135SOL     OW29863   4.469   1.113   6.289 -0.3733  0.2911 -0.6652
 6135SOL    HW129864   4.531   1.041   6.302 -2.4435 -1.2914  0.4987
 6135SOL    HW229865   4.510   1.187   6.334 -1.4594  1.3683 -1.4509
 6136SOL     OW29866   0.410   4.342   3.889  0.4311 -0.4150 -0.0149
 6136SOL    HW129867   0.436   4.250   3.878 -3.2466 -1.4402  0.1132
 6136SOL    HW229868   0.464   4.396   3.831  0.4190 -1.2693 -0.8175
 6137SOL     OW29869   0.140   0.139   9.035 -0.8727 -0.0647 -0.2068
 6137SOL    HW129870   0.162   0.089   9.114 -1.1024 -1.5650 -1.0979
 6137SOL    HW229871   0.220   0.192   9.038 -0.1886 -1.1656  1.0705
 6138SOL     OW29872   2.633   4.177   8.630  0.1598 -0.6356  0.4824
 6138SOL    HW129873   2.674   4.254   8.590  0.3285 -1.1644 -0.3774
 6138SOL    HW229874   2.654   4.111   8.564  1.1266  0.7597 -0.6221
 6139SOL     OW29875   0.767   3.990   4.387 -0.1185  0.1193  0.0857
 6139SOL    HW129876   0.677   3.963   4.406 -0.5264  1.6672  0.3617
 6139SOL    HW229877   0.766   3.962   4.296  0.5991 -1.4473  0.5736
 6140SOL     OW29878   1.023   4.499  17.635 -0.3765  0.0653 -0.0532
 6140SOL    HW129879   1.059   4.561   0.007 -0.8483 -0.0296  0.3039
 6140SOL    HW229880   1.081   4.435  17.675  0.2910 -0.5648 -2.0498
 6141SOL     OW29881   2.800   3.866   0.816  0.3135 -0.4032 -0.0890
 6141SOL    HW129882   2.765   3.797   0.871  1.1309  0.4146  1.4405
 6141SOL    HW229883   2.804   3.827   0.728  1.7178 -0.8474  0.1754
 6142SOL     OW29884   0.574   1.483   5.290  0.0266  0.2199  0.7849
 6142SOL    HW129885   0.627   1.404   5.294  0.8999  0.7571 -0.1181
 6142SOL    HW229886   0.644   1.543   5.316  0.9394 -0.6323  0.2639
 6143SOL     OW29887   1.591   0.577   0.004 -0.0854 -0.4614  0.0709
 6143SOL    HW129888   1.644   0.510  17.654 -2.4135 -1.6502 -0.9509
 6143SOL    HW229889   1.627   0.584   0.093 -1.8825  1.8320  0.6412
 6144SOL     OW29890   1.170   3.325   9.266  0.0123  0.1403  0.5689
 6144SOL    HW129891   1.206   3.335   9.354  0.8989  0.5127  0.1700
 6144SOL    HW229892   1.155   3.416   9.241 -0.1330 -0.1423 -0.3939
 6145SOL     OW29893   1.036   0.092  10.867  0.2085 -0.2609  0.0811
 6145SOL    HW129894   1.098   0.115  10.798  1.1810  0.4328  1.1637
 6145SOL    HW229895   0.987   0.174  10.871  0.4205 -0.0103 -2.7202
 6146SOL     OW29896   1.625   0.028   6.137  0.1793 -0.0639  0.0747
 6146SOL    HW129897   1.634   0.091   6.208 -2.9987  0.8221 -0.3168
 6146SOL    HW229898   1.710   4.709   6.147  0.2099 -0.0578 -0.1524
 6147SOL     OW29899   3.457   2.734   7.569  0.0729  0.1373  0.5857
 6147SOL    HW129900   3.463   2.714   7.662  1.1979  1.8790  0.8841
 6147SOL    HW229901   3.475   2.645   7.538  0.6253  0.8756 -1.2024
 6148SOL     OW29902   0.528   1.512   1.518  0.2589 -0.4185 -0.2072
 6148SOL    HW129903   0.539   1.477   1.430  1.5587  0.1038 -0.2593
 6148SOL    HW229904   0.435   1.493   1.531  0.0768 -0.0821 -1.0131
 6149SOL     OW29905   4.393   3.546  12.774  0.2865  0.3913  0.3285
 6149SOL    HW129906   4.356   3.494  12.703  0.0710 -0.0231  0.7431
 6149SOL    HW229907   4.424   3.621  12.724 -1.7414 -0.0219 -1.4966
 6150SOL     OW29908   2.779   0.003   8.204  0.1799 -0.0209 -0.8046
 6150SOL    HW129909   2.849   0.068   8.198  1.0858 -1.1242 -2.5470
 6150SOL    HW229910   2.785   4.696   8.113  0.6506  0.4415 -0.9288
 6151SOL     OW29911   2.890   0.090   4.518 -0.2771  0.1953  0.4098
 6151SOL    HW129912   2.857   0.043   4.441 -0.0185  1.9652 -0.8005
 6151SOL    HW229913   2.934   0.163   4.474  0.2409 -0.6001 -0.4013
 6152SOL     OW29914   0.853   2.573   7.664 -0.4713  0.6529  0.0093
 6152SOL    HW129915   0.894   2.505   7.611  1.4397 -0.4804  2.9352
 6152SOL    HW229916   0.773   2.526   7.685 -2.4521  3.0987 -2.1135
 6153SOL     OW29917   4.346   1.072   7.197  0.5687 -0.2024 -0.0283
 6153SOL    HW129918   4.327   1.079   7.290  1.2190  0.7748  0.0289
 6153SOL    HW229919   4.404   1.141   7.165 -0.2190  0.7833  0.7001
 6154SOL     OW29920   2.310   4.615   3.870  0.6011  0.4713 -0.1834
 6154SOL    HW129921   2.248   4.576   3.809  0.1968  1.0524 -0.1471
 6154SOL    HW229922   2.382   4.644   3.814 -0.0376  0.1693 -1.1543
 6155SOL     OW29923   3.184   0.563   3.601 -0.0137 -0.1079  1.1618
 6155SOL    HW129924   3.162   0.472   3.582 -0.7585  0.2590  0.2940
 6155SOL    HW229925   3.163   0.613   3.522  1.1332  1.6526  1.9675
 6156SOL     OW29926   3.584   4.562  14.109 -0.0375 -0.1453 -0.0593
 6156SOL    HW129927   3.551   4.577  14.021 -2.2525 -0.0037  0.7933
 6156SOL    HW229928   3.637   4.640  14.124 -1.2056  0.7661 -0.7087
 6157SOL     OW29929   2.051   1.241   6.048 -0.4087  0.4354  0.2031
 6157SOL    HW129930   1.955   1.239   6.050 -0.4136 -0.6163 -0.8782
 6157SOL    HW229931   2.068   1.156   6.090  0.5416  0.3005 -0.4556
 6158SOL     OW29932   2.963   2.780   9.726 -0.0722  0.3829 -0.2880
 6158SOL    HW129933   2.909   2.802   9.650  1.0660  1.9129 -0.6330
 6158SOL    HW229934   2.986   2.687   9.716 -0.0715  0.6264 -2.4841
 6159SOL     OW29935   0.094   0.065  11.482 -0.1120 -0.0080 -0.2160
 6159SOL    HW129936   0.181   0.079  11.445  0.0250 -0.2451  0.0170
 6159SOL    HW229937   0.076   4.694  11.473  1.2290 -0.2004 -0.9269
 6160SOL     OW29938   2.675   4.413  15.708  0.1892  0.2027  0.2430
 6160SOL    HW129939   2.759   4.417  15.753  0.3526 -1.1604  0.0639
 6160SOL    HW229940   2.618   4.379  15.777 -1.2953  0.8039 -0.7001
 6161SOL     OW29941   0.615   2.010  15.928 -0.1905 -0.8315 -0.5753
 6161SOL    HW129942   0.663   2.066  15.867 -1.7123  0.6593 -0.4176
 6161SOL    HW229943   0.568   2.080  15.973  1.2494  0.8280 -1.6459
 6162SOL     OW29944   1.910   4.272  10.666  0.4938  0.2846 -0.0727
 6162SOL    HW129945   1.951   4.259  10.581 -0.9375  2.3400 -1.0810
 6162SOL    HW229946   1.844   4.203  10.672 -0.5414  1.1745 -1.3962
 6163SOL     OW29947   2.440   2.274   3.139  0.1414  0.7254 -0.3870
 6163SOL    HW129948   2.451   2.299   3.047  1.0196 -1.1568 -0.7746
 6163SOL    HW229949   2.463   2.182   3.146  1.5030  0.8873 -2.7747
 6164SOL     OW29950   4.016   1.855   7.741 -0.5089  0.3643  0.5230
 6164SOL    HW129951   3.975   1.890   7.820  0.3276  1.3708  0.4991
 6164SOL    HW229952   4.084   1.921   7.731  0.9030 -0.8742  1.8549
 6165SOL     OW29953   2.543   2.264  11.514 -0.0600 -0.3033 -0.2843
 6165SOL    HW129954   2.582   2.343  11.476  1.9668 -1.4714 -0.6065
 6165SOL    HW229955   2.538   2.207  11.438 -0.3689 -0.6337 -0.0149
 6166SOL     OW29956   2.237   4.094  17.656 -0.1356 -0.3315 -0.0268
 6166SOL    HW129957   2.149   4.056  17.655 -0.6045  0.7771 -1.9038
 6166SOL    HW229958   2.220   4.169  17.599  2.8677  0.4069  0.0332
 6167SOL     OW29959   3.497   2.294   2.139  0.1139 -0.3880  0.1449
 6167SOL    HW129960   3.562   2.349   2.183  0.7743 -1.9035  1.0608
 6167SOL    HW229961   3.443   2.359   2.096  1.2213  0.5154  0.1358
 6168SOL     OW29962   0.020   1.641  12.484  0.2650 -0.2373 -0.6377
 6168SOL    HW129963   4.687   1.565  12.467  0.3954 -0.2513 -1.0097
 6168SOL    HW229964   4.721   1.712  12.423  0.5574  1.6652  1.4680
 6169SOL     OW29965   2.125   0.756  12.820  0.7111 -0.1920  0.2928
 6169SOL    HW129966   2.136   0.850  12.805 -0.6565 -0.0441  0.2281
 6169SOL    HW229967   2.094   0.741  12.909 -1.2019 -1.0359 -0.4960
 6170SOL     OW29968   0.879   1.787   3.304 -0.6612 -0.3096  0.4442
 6170SOL    HW129969   0.810   1.767   3.241 -0.5594 -1.1310  0.5831
 6170SOL    HW229970   0.932   1.837   3.242 -0.3345 -0.8052  0.3230
 6171SOL     OW29971   2.253   3.805   3.112 -0.0488 -0.5209  0.2142
 6171SOL    HW129972   2.259   3.796   3.207  0.4902  0.0355  0.2316
 6171SOL    HW229973   2.297   3.727   3.077  2.7726  0.3332  1.8973
 6172SOL     OW29974   3.112   0.379   2.017 -0.7409 -0.2943 -0.4994
 6172SOL    HW129975   3.184   0.439   1.995 -0.9420 -0.2271 -0.9885
 6172SOL    HW229976   3.087   0.344   1.931  0.0293  1.5004 -1.4587
 6173SOL     OW29977   2.576   2.418   5.351  0.0495 -0.2166  0.2311
 6173SOL    HW129978   2.536   2.505   5.357 -1.0364 -0.6714 -0.5570
 6173SOL    HW229979   2.500   2.368   5.321  0.5028 -0.4328 -0.5685
 6174SOL     OW29980   3.216   2.022  11.645 -0.6809 -1.0709 -0.2279
 6174SOL    HW129981   3.225   1.970  11.725  1.2646  0.8445  0.7861
 6174SOL    HW229982   3.124   2.044  11.663 -0.0339  0.1493  1.5865
 6175SOL     OW29983   3.799   0.626   3.572  0.0593 -0.3412  0.1784
 6175SOL    HW129984   3.761   0.649   3.487  0.8144  1.4853  0.3156
 6175SOL    HW229985   3.865   0.696   3.574 -1.7220  1.2843  1.1883
 6176SOL     OW29986   0.608   2.452   0.796 -0.0591 -0.0911  0.2764
 6176SOL    HW129987   0.566   2.531   0.830 -1.9704 -0.7171 -0.6091
 6176SOL    HW229988   0.619   2.397   0.873 -0.3736  1.1475  1.1978
 6177SOL     OW29989   1.518   2.978   9.457 -0.6564  0.3436  0.3460
 6177SOL    HW129990   1.575   3.032   9.512  1.0301 -0.0747 -1.0005
 6177SOL    HW229991   1.431   3.012   9.475 -0.8734  0.8263 -1.5236
 6178SOL     OW29992   0.062   3.296   8.140  0.1562  0.0260 -0.1520
 6178SOL    HW129993   0.118   3.356   8.190  0.0746  0.5779 -0.7173
 6178SOL    HW229994   0.004   3.267   8.210 -1.8614 -2.5670 -2.8980
 6179SOL     OW29995   0.491   0.520   3.531  0.2764 -0.2822  0.4020
 6179SOL    HW129996   0.497   0.481   3.444  1.5804  0.0494  0.3361
 6179SOL    HW229997   0.534   0.453   3.585 -0.0213  1.4443  2.7787
 6180SOL     OW29998   4.381   2.904   7.507 -0.5921 -0.1425  0.6392
 6180SOL    HW129999   4.443   2.975   7.492 -0.2953 -0.5087  0.1052
 6180SOL    HW230000   4.379   2.904   7.602 -0.0277  0.1875  0.6491
 6181SOL     OW30001   2.066   2.748  17.174  0.2550  0.3455  0.4817
 6181SOL    HW130002   2.099   2.689  17.241  1.1980 -1.4490 -1.5531
 6181SOL    HW230003   2.015   2.685  17.123 -1.5741  1.8439  0.4456
 6182SOL     OW30004   0.891   2.194   1.699  0.0213 -0.8222  0.0022
 6182SOL    HW130005   0.799   2.172   1.712 -0.9072  2.7695 -0.6852
 6182SOL    HW230006   0.884   2.286   1.722  1.4838 -0.6509 -0.2296
 6183SOL     OW30007   3.810   1.946   8.564 -0.0100 -0.0958  0.1875
 6183SOL    HW130008   3.717   1.957   8.581 -0.3004 -0.4978 -1.1750
 6183SOL    HW230009   3.811   1.908   8.476 -0.8733  0.3378 -0.0102
 6184SOL     OW30010   1.446   4.602  14.988  0.0045 -0.5454 -0.6028
 6184SOL    HW130011   1.504   4.677  14.989 -0.5831 -0.0710 -1.6540
 6184SOL    HW230012   1.516   4.539  15.006 -1.1812 -1.6765  0.0991
 6185SOL     OW30013   0.755   1.256   3.227 -0.6325 -0.1634 -0.4952
 6185SOL    HW130014   0.753   1.221   3.316  1.5543  0.5346 -0.1680
 6185SOL    HW230015   0.843   1.233   3.196 -1.1002 -1.3212 -0.9479
 6186SOL     OW30016   3.858   4.478   7.670  0.0723 -0.5783 -0.5680
 6186SOL    HW130017   3.843   4.564   7.629 -0.9803 -0.1471  0.7282
 6186SOL    HW230018   3.950   4.485   7.693  0.1516  1.7861 -1.5153
 6187SOL     OW30019   0.642   2.513   2.140 -0.1660  0.3186 -0.2346
 6187SOL    HW130020   0.589   2.553   2.209  0.7630  0.0997  0.6057
 6187SOL    HW230021   0.586   2.439   2.116  1.0792 -0.4909 -0.6486
 6188SOL     OW30022   2.129   1.651   5.643 -0.1369  0.5245  0.1217
 6188SOL    HW130023   2.179   1.582   5.598  1.3142  1.3668  0.4712
 6188SOL    HW230024   2.043   1.636   5.604  0.1430  0.5216 -0.4951
 6189SOL     OW30025   1.574   2.062   9.069 -0.0254 -0.2868 -0.6013
 6189SOL    HW130026   1.616   2.148   9.059 -0.3227 -0.1625 -0.7798
 6189SOL    HW230027   1.481   2.078   9.052 -0.3930 -1.6462  0.1847
 6190SOL     OW30028   1.803   0.357   6.517 -0.1942  0.6264  0.2199
 6190SOL    HW130029   1.848   0.357   6.601  0.6119 -1.1383 -0.2159
 6190SOL    HW230030   1.791   0.452   6.511 -2.4297  0.4348  1.3822
 6191SOL     OW30031   0.683   1.519  11.997  0.1426  0.4376 -0.2351
 6191SOL    HW130032   0.745   1.584  11.967 -0.8262 -0.0713 -3.3856
 6191SOL    HW230033   0.689   1.460  11.921  1.2147  0.4006 -0.1207
 6192SOL     OW30034   2.415   2.142   7.050  0.1625 -0.1059 -0.5291
 6192SOL    HW130035   2.344   2.207   7.051 -0.5191 -0.8574 -0.5080
 6192SOL    HW230036   2.467   2.171   7.125  1.3897 -3.8841  0.0511
 6193SOL     OW30037   3.745   1.860  14.425  0.3254  0.1188 -0.4106
 6193SOL    HW130038   3.775   1.905  14.347 -2.6793  0.2171 -1.5078
 6193SOL    HW230039   3.681   1.922  14.459 -0.1776 -0.8309  0.3788
 6194SOL     OW30040   2.558   4.716  12.494  0.2084  0.2527  0.1899
 6194SOL    HW130041   2.559   4.685  12.403  0.5449  0.9762 -0.0474
 6194SOL    HW230042   2.464   4.712  12.512  0.2835 -0.9115  0.3637
 6195SOL     OW30043   0.569   4.019   2.673  0.1610  0.1052 -0.2083
 6195SOL    HW130044   0.613   4.059   2.598 -0.1559 -1.0884 -1.0398
 6195SOL    HW230045   0.639   3.964   2.707  0.2637  0.6408  0.4470
 6196SOL     OW30046   2.242   0.146   2.919  0.3580 -0.2335 -0.4220
 6196SOL    HW130047   2.244   0.209   2.847 -0.8979 -0.1954 -0.4355
 6196SOL    HW230048   2.250   0.218   2.981 -2.8746  0.9622 -1.3647
 6197SOL     OW30049   2.999   4.175  12.496  0.2178  0.4976 -0.2406
 6197SOL    HW130050   3.037   4.109  12.438  0.4113 -0.7485  1.3038
 6197SOL    HW230051   3.022   4.251  12.443  0.8620  0.1859 -0.3937
 6198SOL     OW30052   1.611   1.158   3.129  0.2420  0.0571  0.5054
 6198SOL    HW130053   1.604   1.207   3.211  1.3259  1.8830 -0.4961
 6198SOL    HW230054   1.706   1.163   3.120 -0.3392  2.4773 -3.9172
 6199SOL     OW30055   2.667   1.046  13.447 -0.5597 -0.5668  0.4274
 6199SOL    HW130056   2.707   1.016  13.366  0.8203 -0.1073  0.9483
 6199SOL    HW230057   2.729   1.019  13.515  2.9673 -0.7211 -2.8424
 6200SOL     OW30058   1.612   2.402   7.344 -0.3147 -0.6661  0.3286
 6200SOL    HW130059   1.682   2.390   7.280  0.7156  0.1892  1.3001
 6200SOL    HW230060   1.563   2.320   7.355 -1.7145 -0.1982 -2.3019
 6201SOL     OW30061   1.203   1.750  16.644 -0.8030 -0.3974 -0.2904
 6201SOL    HW130062   1.232   1.841  16.634 -0.1999 -0.5279  0.2784
 6201SOL    HW230063   1.114   1.764  16.677  0.0862 -0.0979  1.9849
 6202SOL     OW30064   1.024   1.795   9.998  0.4001  0.1707 -0.1412
 6202SOL    HW130065   0.954   1.802  10.063  0.5104  1.0724 -0.1170
 6202SOL    HW230066   1.067   1.716  10.030 -0.4649 -0.2444 -0.0211
 6203SOL     OW30067   0.992   4.366   8.495  0.4933  0.3659 -0.3093
 6203SOL    HW130068   1.081   4.366   8.530 -0.2897 -0.1414  1.6733
 6203SOL    HW230069   0.964   4.456   8.514  0.1491  0.4566 -1.2475
 6204SOL     OW30070   0.695   3.402   8.033 -0.1181 -0.3276  0.2633
 6204SOL    HW130071   0.699   3.307   8.021 -0.0419 -0.2190 -0.5905
 6204SOL    HW230072   0.672   3.410   8.126 -0.8457  0.7592 -0.0111
 6205SOL     OW30073   4.502   0.992   2.727  0.2042 -0.3048 -0.1004
 6205SOL    HW130074   4.539   0.907   2.705  2.2740  0.5240  0.1729
 6205SOL    HW230075   4.429   1.003   2.665 -0.2294  0.0275  0.4658
 6206SOL     OW30076   0.252   3.652   8.700  0.2808 -0.4237 -0.3384
 6206SOL    HW130077   0.161   3.641   8.729  0.0294 -3.3676 -2.2807
 6206SOL    HW230078   0.297   3.584   8.749 -0.2707 -0.9607 -0.5809
 6207SOL     OW30079   4.475   4.321   6.295  0.1656 -0.5887 -0.3069
 6207SOL    HW130080   4.540   4.379   6.256 -1.1993  0.1015 -1.5639
 6207SOL    HW230081   4.502   4.307   6.386 -0.6271 -2.4554 -0.3456
 6208SOL     OW30082   0.864   2.737   6.158  0.0323  0.2768  0.1075
 6208SOL    HW130083   0.931   2.761   6.222  1.3959 -0.5089 -1.0275
 6208SOL    HW230084   0.913   2.758   6.079 -0.4677 -1.0929 -0.5708
 6209SOL     OW30085   3.596   4.394   2.003  0.3382 -0.2044  0.1747
 6209SOL    HW130086   3.517   4.352   2.037  0.0012 -0.7318 -1.2723
 6209SOL    HW230087   3.600   4.457   2.075  1.0365 -0.4745  0.3710
 6210SOL     OW30088   2.821   2.433   3.932 -0.5300 -0.5509  0.5997
 6210SOL    HW130089   2.770   2.389   3.864  2.6297  0.7424 -2.6171
 6210SOL    HW230090   2.792   2.524   3.931 -0.5473 -0.5660 -0.5101
 6211SOL     OW30091   4.530   1.713   7.314 -0.7722  0.5462  0.7618
 6211SOL    HW130092   4.573   1.636   7.276 -1.1986  0.6132  0.1395
 6211SOL    HW230093   4.586   1.780   7.275 -1.8540 -0.0232 -1.7888
 6212SOL     OW30094   4.552   2.290  14.703 -0.0742 -0.0967  0.5402
 6212SOL    HW130095   4.578   2.292  14.795  4.6990 -1.1979 -0.7606
 6212SOL    HW230096   4.457   2.303  14.704 -0.2205 -1.2031  1.2903
 6213SOL     OW30097   3.068   1.307  13.409  0.0305  0.5458  0.2413
 6213SOL    HW130098   3.058   1.402  13.413  0.8520  0.7984 -3.2010
 6213SOL    HW230099   3.049   1.285  13.318  0.2527 -0.5910  0.4767
 6214SOL     OW30100   4.503   1.327   0.227 -0.2778 -0.1627 -0.4287
 6214SOL    HW130101   4.523   1.334   0.320  0.6127 -0.7385 -0.5641
 6214SOL    HW230102   4.435   1.391   0.209 -2.2465 -2.3320 -0.7456
 6215SOL     OW30103   1.593   1.912   6.999  0.2277  0.3791  0.1286
 6215SOL    HW130104   1.530   1.971   6.958 -0.6772 -0.3026  0.5526
 6215SOL    HW230105   1.527   1.848   7.026  0.9251 -0.4388 -0.1082
 6216SOL     OW30106   3.146   3.433   1.414 -0.4704  0.2174 -0.7111
 6216SOL    HW130107   3.140   3.519   1.373 -0.0937 -0.6984 -2.6593
 6216SOL    HW230108   3.057   3.399   1.410  0.0542 -1.4917  2.0165
 6217SOL     OW30109   3.924   3.540   6.780  0.2925  0.5951  0.2133
 6217SOL    HW130110   3.874   3.614   6.747  1.3109 -0.2086 -3.1248
 6217SOL    HW230111   3.869   3.464   6.758 -0.3004  1.1554 -0.2184
 6218SOL     OW30112   1.433   3.165   4.834  0.2220 -0.0465  0.5186
 6218SOL    HW130113   1.355   3.114   4.812  0.6644 -0.4668 -0.0803
 6218SOL    HW230114   1.399   3.236   4.889 -1.7097 -1.0881  0.6354
 6219SOL     OW30115   4.176   2.172   8.787  0.1704  0.4969  0.4668
 6219SOL    HW130116   4.090   2.130   8.782 -0.1164  1.1979 -0.4007
 6219SOL    HW230117   4.225   2.119   8.725 -2.2964 -0.2321 -0.8721
 6220SOL     OW30118   3.152   2.402   8.509 -0.9288  0.1688 -0.5517
 6220SOL    HW130119   3.226   2.390   8.450 -0.5674 -2.0931  0.3641
 6220SOL    HW230120   3.161   2.341   8.583 -0.1168  0.5438 -0.3510
 6221SOL     OW30121   0.858   2.461   8.433  0.3752  0.2199 -0.0794
 6221SOL    HW130122   0.863   2.448   8.528 -1.6683  1.1163  0.1511
 6221SOL    HW230123   0.943   2.434   8.399 -0.0951 -0.5143 -0.6768
 6222SOL     OW30124   2.910   2.193   9.071  0.3211  0.5347 -0.2103
 6222SOL    HW130125   2.922   2.176   8.977 -1.0585 -2.1017  0.1091
 6222SOL    HW230126   2.910   2.107   9.111 -0.2860  0.6694  0.0752
 6223SOL     OW30127   3.871   2.526   8.869  0.2717  0.2399 -0.6614
 6223SOL    HW130128   3.789   2.575   8.865 -1.1068 -2.0141 -0.0699
 6223SOL    HW230129   3.843   2.446   8.824 -0.2983  0.2437 -0.3207
 6224SOL     OW30130   2.071   4.169  10.868 -0.0592  0.4213 -0.3366
 6224SOL    HW130131   2.114   4.255  10.868  1.9686 -0.5861 -0.8867
 6224SOL    HW230132   1.998   4.190  10.811  0.6941 -0.4989 -1.6534
 6225SOL     OW30133   3.611   0.075   1.929 -0.1962 -0.1537 -0.0799
 6225SOL    HW130134   3.699   0.042   1.913 -0.0340  0.5817 -0.6800
 6225SOL    HW230135   3.558   0.041   1.856  0.7975 -0.9252 -0.4541
 6226SOL     OW30136   0.266   0.539   7.327 -0.1411  0.3875  0.4758
 6226SOL    HW130137   0.264   0.447   7.352 -1.9552  0.5298  0.7903
 6226SOL    HW230138   0.177   0.570   7.343 -0.0106  1.4138 -0.7452
 6227SOL     OW30139   2.552   3.281   4.332 -0.1519  0.6236  0.4739
 6227SOL    HW130140   2.584   3.194   4.355 -1.5780 -0.1286 -0.3368
 6227SOL    HW230141   2.566   3.280   4.237  1.5661 -1.0976  0.7562
 6228SOL     OW30142   2.856   3.011   5.691  0.2712  0.0841  0.8060
 6228SOL    HW130143   2.938   3.025   5.643  0.8145 -0.8247  1.4777
 6228SOL    HW230144   2.847   2.917   5.679 -2.5694  0.4285  0.2320
 6229SOL     OW30145   1.181   3.183   3.412  0.2517 -0.4085 -0.3499
 6229SOL    HW130146   1.097   3.208   3.374  0.7227  1.1666 -0.3431
 6229SOL    HW230147   1.211   3.107   3.362  0.3458  0.2132 -1.2326
 6230SOL     OW30148   2.858   3.115  10.766 -0.4475  0.6797 -0.2703
 6230SOL    HW130149   2.800   3.183  10.733  1.1569  1.5382 -1.2802
 6230SOL    HW230150   2.883   3.073  10.684 -0.1408 -1.4571  0.9172
 6231SOL     OW30151   4.112   4.332  11.993  0.3191 -0.0857 -0.2195
 6231SOL    HW130152   4.115   4.320  11.898  2.8204  0.7360 -0.2432
 6231SOL    HW230153   4.043   4.269  12.013 -0.0669  0.8568  1.3955
 6232SOL     OW30154   0.105   4.073  10.361  1.0298 -0.6636  0.1004
 6232SOL    HW130155   0.127   4.014  10.432 -0.0562 -2.4621 -1.0662
 6232SOL    HW230156   0.167   4.052  10.292 -2.0867 -0.3696 -2.8269
 6233SOL     OW30157   2.386   3.460   2.198 -0.1152 -0.1068  0.1083
 6233SOL    HW130158   2.454   3.528   2.192  1.2679 -1.3805  1.3066
 6233SOL    HW230159   2.323   3.472   2.128  0.6214 -0.6485 -0.6389
 6234SOL     OW30160   1.251   3.155   9.911 -0.1489 -0.2470 -0.0826
 6234SOL    HW130161   1.321   3.090   9.906  0.2461  0.0469  1.6489
 6234SOL    HW230162   1.241   3.161   9.816 -0.1164 -1.3662 -0.1552
 6235SOL     OW30163   0.740   4.588  11.033 -0.1419 -0.3950  0.1271
 6235SOL    HW130164   0.819   4.633  11.064 -0.1791 -0.0498 -0.2942
 6235SOL    HW230165   0.688   4.574  11.113  0.2054  3.1775  0.9969
 6236SOL     OW30166   0.811   0.514   5.555 -0.1982  0.4265  0.2045
 6236SOL    HW130167   0.897   0.544   5.581  0.9576 -0.0264 -3.0962
 6236SOL    HW230168   0.829   0.489   5.464  1.5168  0.8171  0.4377
 6237SOL     OW30169   3.738   1.874  11.508 -0.1020  0.4352 -0.0386
 6237SOL    HW130170   3.657   1.827  11.491  0.8461 -1.0518 -0.4860
 6237SOL    HW230171   3.730   1.953  11.455 -1.3557  0.4364  0.1576
 6238SOL     OW30172   3.669   3.285   4.014 -0.0333 -0.1730 -0.3579
 6238SOL    HW130173   3.743   3.254   4.066  1.8329  1.4456 -2.0239
 6238SOL    HW230174   3.658   3.376   4.039  0.2562 -0.4751  0.8622
 6239SOL     OW30175   4.136   2.068   7.439  0.1280  0.2355  0.1230
 6239SOL    HW130176   4.157   2.089   7.530  2.1127 -0.4829 -0.1780
 6239SOL    HW230177   4.200   1.997   7.427 -0.2477 -0.0277 -0.3543
 6240SOL     OW30178   1.832   4.438   8.442 -0.1898  0.3989  0.0532
 6240SOL    HW130179   1.925   4.434   8.465 -0.4672  0.1126  1.0937
 6240SOL    HW230180   1.807   4.371   8.505  4.5504 -2.3375 -0.9655
 6241SOL     OW30181   0.617   0.815   2.510  0.9575  0.0033  0.4287
 6241SOL    HW130182   0.575   0.729   2.512 -1.7592  1.3375  1.6852
 6241SOL    HW230183   0.646   0.817   2.419 -1.2875 -0.5965 -0.3212
 6242SOL     OW30184   1.191   4.581  16.262 -0.9844 -0.3640  0.0693
 6242SOL    HW130185   1.197   4.628  16.345  0.1965  0.9776 -0.7627
 6242SOL    HW230186   1.123   4.635  16.220 -2.8621 -1.4141  1.7488
 6243SOL     OW30187   2.383   2.502   7.617  0.4334 -0.3365  0.2596
 6243SOL    HW130188   2.374   2.570   7.551  3.0722 -0.5090 -0.2678
 6243SOL    HW230189   2.412   2.426   7.568 -0.5649  1.2101 -2.7164
 6244SOL     OW30190   2.285   2.309   8.097 -1.0271 -0.5169  0.3182
 6244SOL    HW130191   2.286   2.224   8.053  1.3899  0.2028 -1.0433
 6244SOL    HW230192   2.308   2.363   8.021 -0.4854  2.7011  2.8026
 6245SOL     OW30193   1.132   3.788   7.388 -0.4032 -0.1675  0.1462
 6245SOL    HW130194   1.116   3.876   7.420 -0.8256 -0.6679  1.3134
 6245SOL    HW230195   1.181   3.823   7.313 -1.0103 -0.2863 -0.3035
 6246SOL     OW30196   1.097   0.234   8.232 -0.0058 -0.2961 -0.2767
 6246SOL    HW130197   1.010   0.195   8.234 -0.8192  1.4607 -0.6328
 6246SOL    HW230198   1.075   0.304   8.170 -3.3751 -1.3071 -0.2137
 6247SOL     OW30199   3.781   3.935   3.412  0.0516  0.4332 -0.1689
 6247SOL    HW130200   3.793   4.013   3.357 -0.5459 -0.8811 -2.1401
 6247SOL    HW230201   3.815   3.866   3.354 -0.4669  1.4553 -1.6998
 6248SOL     OW30202   0.753   2.709   4.450  0.1708  0.8149  0.5967
 6248SOL    HW130203   0.827   2.648   4.453  0.9734  1.7220 -1.2398
 6248SOL    HW230204   0.680   2.655   4.481  2.0092 -2.0099 -0.0321
 6249SOL     OW30205   0.824   2.227   6.998  0.3699  0.5415  0.3265
 6249SOL    HW130206   0.774   2.268   7.068 -0.6405 -0.1023 -0.0233
 6249SOL    HW230207   0.900   2.284   7.010  0.4170  0.1836  1.8042
 6250SOL     OW30208   3.217   3.112   8.812 -0.4337  0.0500  0.6308
 6250SOL    HW130209   3.141   3.167   8.830 -1.3062 -1.2610  0.9580
 6250SOL    HW230210   3.173   3.036   8.773  0.8792 -1.6805  2.5451
 6251SOL     OW30211   1.284   2.801  11.322  0.0702  0.2771 -0.3426
 6251SOL    HW130212   1.341   2.754  11.384 -0.7502 -0.4550 -0.1302
 6251SOL    HW230213   1.200   2.786  11.365  0.4588 -1.7654 -0.2532
 6252SOL     OW30214   0.205   1.098   4.377  0.0085 -0.2878  0.4959
 6252SOL    HW130215   0.199   1.074   4.285  2.1712  1.0447  0.0116
 6252SOL    HW230216   0.278   1.040   4.400 -0.0874 -0.7886 -0.4431
 6253SOL     OW30217   0.299   3.172   6.889 -0.3760 -0.3727  0.7107
 6253SOL    HW130218   0.350   3.155   6.810  0.3711  0.3282  1.0446
 6253SOL    HW230219   0.213   3.129   6.881  0.0103 -0.6634 -1.7476
 6254SOL     OW30220   0.787   2.788   3.618 -0.3322  0.3369  0.1059
 6254SOL    HW130221   0.783   2.883   3.602 -0.3107  0.5923  1.5825
 6254SOL    HW230222   0.862   2.766   3.562 -1.9712  1.2967 -2.4442
 6255SOL     OW30223   3.749   3.293   9.126  0.3393 -0.0592 -0.1601
 6255SOL    HW130224   3.717   3.278   9.037  0.2786  0.1573 -0.1751
 6255SOL    HW230225   3.661   3.281   9.162  0.8137 -0.2896  0.9178
 6256SOL     OW30226   2.766   2.933   8.892  0.3866  0.3413  0.2639
 6256SOL    HW130227   2.812   2.850   8.903 -0.2137  0.1914  1.7274
 6256SOL    HW230228   2.714   2.911   8.815 -0.1611  0.1407  0.6863
 6257SOL     OW30229   0.016   0.045   5.658 -0.6057  0.1513 -0.1616
 6257SOL    HW130230   0.016   0.134   5.623 -1.5583  0.5457  0.8333
 6257SOL    HW230231   4.697   0.063   5.743  0.0684 -0.2246  0.2431
 6258SOL     OW30232   0.123   0.387  15.222  0.9379  0.0627 -0.1891
 6258SOL    HW130233   0.153   0.367  15.311 -0.2481  1.3979  0.4879
 6258SOL    HW230234   0.055   0.322  15.205 -2.4199  2.9299  2.4396
 6259SOL     OW30235   3.535   3.077   3.276  0.0670 -0.1055  0.7127
 6259SOL    HW130236   3.517   3.022   3.352 -1.0947 -0.0665  0.4651
 6259SOL    HW230237   3.519   3.006   3.213  0.2797  1.3656 -0.9969
 6260SOL     OW30238   2.899   3.974  12.812 -0.2749 -0.1238  0.0721
 6260SOL    HW130239   2.979   4.020  12.787 -0.1613  0.9009  2.3394
 6260SOL    HW230240   2.876   3.935  12.728  1.0907 -0.3548 -0.1932
 6261SOL     OW30241   1.049   2.183  16.487 -0.5152  0.2852  0.5218
 6261SOL    HW130242   0.981   2.125  16.451 -1.8501  0.7257  2.3134
 6261SOL    HW230243   1.027   2.266  16.445  2.2230 -0.1848 -1.8193
 6262SOL     OW30244   1.050   3.195   8.977 -0.7215  0.2321 -0.9862
 6262SOL    HW130245   1.116   3.207   8.909 -0.7129  2.9322 -0.4933
 6262SOL    HW230246   1.044   3.283   9.013  0.0396 -1.0930  2.4571
 6263SOL     OW30247   0.606   3.615   5.666  0.2664 -0.3851 -0.4101
 6263SOL    HW130248   0.677   3.565   5.706 -0.1272  0.2391  1.0428
 6263SOL    HW230249   0.583   3.553   5.596  1.3684  0.1239 -1.2365
 6264SOL     OW30250   2.239   2.684   6.120 -0.2748  0.1233 -0.0936
 6264SOL    HW130251   2.276   2.643   6.198  0.4758  1.5356  0.3022
 6264SOL    HW230252   2.168   2.620   6.113 -0.7839  0.7539 -0.7194
 6265SOL     OW30253   3.760   2.226   4.408 -0.4025 -0.4741  0.0928
 6265SOL    HW130254   3.822   2.221   4.480  1.0867 -0.9128 -1.2221
 6265SOL    HW230255   3.693   2.165   4.439  0.4103 -0.8415  1.0801
 6266SOL     OW30256   1.226   0.499   7.340  0.2205 -0.2162  0.0811
 6266SOL    HW130257   1.280   0.568   7.301  1.6718 -1.8299 -0.7497
 6266SOL    HW230258   1.158   0.481   7.274 -0.8411 -0.6157  1.2830
 6267SOL     OW30259   3.508   1.918   3.162 -0.3687 -0.3365 -0.0634
 6267SOL    HW130260   3.600   1.909   3.186  0.2189 -1.7308 -2.8635
 6267SOL    HW230261   3.475   1.976   3.231 -0.3063 -0.7126  0.2814
 6268SOL     OW30262   3.915   0.414   7.092  0.6050 -0.2889 -0.5307
 6268SOL    HW130263   3.854   0.344   7.112  0.1025 -0.0456 -1.2193
 6268SOL    HW230264   3.909   0.423   6.997  1.2397 -1.0209 -0.6376
 6269SOL     OW30265   3.347   1.532   4.060 -0.0855 -0.7346  0.0863
 6269SOL    HW130266   3.256   1.532   4.031 -0.1001  1.0577  0.1277
 6269SOL    HW230267   3.353   1.623   4.090 -0.1790 -0.2754 -1.3104
 6270SOL     OW30268   2.950   3.386   6.344 -0.1607  0.1663  0.4657
 6270SOL    HW130269   2.912   3.322   6.404 -0.9639  0.7020  0.5230
 6270SOL    HW230270   2.875   3.396   6.285 -0.2991  0.6642  0.7281
 6271SOL     OW30271   3.726   0.217   0.352 -0.1823 -0.1232 -0.3481
 6271SOL    HW130272   3.641   0.213   0.396  0.7798 -3.1915  1.2249
 6271SOL    HW230273   3.703   0.205   0.259 -2.8141 -2.3495  0.5802
 6272SOL     OW30274   1.894   1.024   4.394  0.5217  0.6031  0.0740
 6272SOL    HW130275   1.961   0.957   4.403  0.3884  0.7715  2.2038
 6272SOL    HW230276   1.952   1.099   4.408  0.9467  0.2855  0.0167
 6273SOL     OW30277   4.129   3.303   1.634 -0.0612  0.0363  0.4558
 6273SOL    HW130278   4.047   3.332   1.674  0.4036  0.3769  1.1467
 6273SOL    HW230279   4.116   3.209   1.643 -1.0776  0.1557  0.2932
 6274SOL     OW30280   3.172   4.400  12.425  0.1412  0.2817 -0.2771
 6274SOL    HW130281   3.215   4.453  12.492 -0.4549  0.6241 -0.1716
 6274SOL    HW230282   3.226   4.420  12.348 -0.0692 -1.4015 -0.8691
 6275SOL     OW30283   0.072   2.964  15.969 -0.0451  0.7852 -0.4119
 6275SOL    HW130284   0.014   2.971  16.044 -0.2879  1.8180 -0.6930
 6275SOL    HW230285   0.144   2.914  16.007 -1.9544 -0.1560  1.9336
 6276SOL     OW30286   4.196   3.029   7.010 -0.1219 -0.2628 -0.3247
 6276SOL    HW130287   4.138   2.955   6.992 -0.1193  0.1733 -2.1066
 6276SOL    HW230288   4.172   3.049   7.100 -0.7540  2.5158 -1.1075
 6277SOL     OW30289   3.723   1.499   5.864 -0.2666 -0.1040  0.0587
 6277SOL    HW130290   3.636   1.481   5.829  0.0439 -2.8939  0.7205
 6277SOL    HW230291   3.771   1.502   5.782 -0.9604 -0.5425 -0.3618
 6278SOL     OW30292   4.089   2.148   3.456  0.2667  0.6831  0.2558
 6278SOL    HW130293   4.025   2.168   3.388  2.1401 -1.6662 -2.2269
 6278SOL    HW230294   4.173   2.173   3.416 -0.1618  0.5713 -0.7192
 6279SOL     OW30295   4.697   1.178   1.291 -0.4412 -0.5271 -0.2205
 6279SOL    HW130296   0.025   1.108   1.332  1.0689  0.2511 -0.7452
 6279SOL    HW230297   4.644   1.123   1.233  0.4325 -0.5073 -1.0577
 6280SOL     OW30298   0.746   1.087   8.600  0.1254  0.2174  0.2993
 6280SOL    HW130299   0.831   1.121   8.573  0.5188 -1.7920 -1.0003
 6280SOL    HW230300   0.758   1.096   8.694 -1.0287  1.3094  0.3376
 6281SOL     OW30301   3.581   3.997   7.058  0.4558  0.4238  0.2905
 6281SOL    HW130302   3.620   4.049   7.127  0.6766 -1.7596  1.8042
 6281SOL    HW230303   3.557   3.917   7.105 -1.0740  0.4085 -0.4883
 6282SOL     OW30304   0.122   4.552   5.839 -0.0040 -0.0721  0.1431
 6282SOL    HW130305   0.061   4.615   5.800  0.4681  0.5181  0.3484
 6282SOL    HW230306   0.133   4.494   5.764  0.6558  0.7266 -0.3786
 6283SOL     OW30307   0.728   4.609  12.255  0.4261  0.0880  0.3835
 6283SOL    HW130308   0.712   4.594  12.348  0.3029  0.0697  0.3600
 6283SOL    HW230309   0.760   4.699  12.258  0.0337  0.3528 -2.6664
 6284SOL     OW30310   4.571   1.271  15.125  0.6955  0.0616  0.0560
 6284SOL    HW130311   4.531   1.351  15.091  1.9518 -0.0935 -1.7532
 6284SOL    HW230312   4.521   1.208  15.075 -0.8158  0.8427  0.6008
 6285SOL     OW30313   0.902   2.014   2.064  0.3977  0.0950  0.4905
 6285SOL    HW130314   0.907   2.105   2.032  2.5746  0.6731  2.4858
 6285SOL    HW230315   0.993   1.989   2.050  0.2781  0.1528 -0.4185
 6286SOL     OW30316   4.162   3.169   6.049 -0.5229 -0.2106  0.2664
 6286SOL    HW130317   4.093   3.233   6.033 -0.7999 -0.6764 -0.4313
 6286SOL    HW230318   4.128   3.093   6.000  0.2673  0.3059 -1.0929
 6287SOL     OW30319   1.611   1.840   4.726  0.3700  0.6684  0.8475
 6287SOL    HW130320   1.649   1.801   4.648  1.5162  2.1610  0.6755
 6287SOL    HW230321   1.546   1.772   4.745  0.1274 -0.0354 -2.6211
 6288SOL     OW30322   2.667   1.739   4.955 -0.0370 -0.0658 -0.0132
 6288SOL    HW130323   2.579   1.774   4.965 -0.6809 -1.6311 -0.2895
 6288SOL    HW230324   2.638   1.683   4.884  3.2452 -1.2908 -0.4077
 6289SOL     OW30325   2.562   4.006   4.852  0.0835  0.4385 -0.2601
 6289SOL    HW130326   2.628   4.063   4.814  0.3559  1.7557  2.1657
 6289SOL    HW230327   2.501   4.001   4.779  1.3613 -0.9268 -1.2372
 6290SOL     OW30328   4.135   3.830  13.275 -0.4312  0.4856 -0.8462
 6290SOL    HW130329   4.141   3.827  13.371  1.7555  0.0970 -0.9847
 6290SOL    HW230330   4.043   3.808  13.267 -0.3370 -0.9106  1.7650
 6291SOL     OW30331   4.025   3.413   8.464  0.0928  0.1135  0.0203
 6291SOL    HW130332   4.011   3.437   8.556  2.2813  1.4999  0.0025
 6291SOL    HW230333   4.000   3.321   8.469  0.2259  0.1234  0.8488
 6292SOL     OW30334   3.569   2.950   1.529  0.1564 -0.5950 -0.5283
 6292SOL    HW130335   3.475   2.929   1.533  0.0413 -0.0002 -0.1411
 6292SOL    HW230336   3.574   2.978   1.621  2.3558  2.3643 -1.5541
 6293SOL     OW30337   0.287   0.683  10.167 -0.3949 -0.3030  0.2367
 6293SOL    HW130338   0.333   0.759  10.132 -0.2782 -1.1297 -1.4229
 6293SOL    HW230339   0.208   0.667  10.116 -1.3827  0.6713  1.4918
 6294SOL     OW30340   0.061   2.407   1.905  0.1007  0.3000 -0.3878
 6294SOL    HW130341   0.042   2.493   1.943  1.9930  0.3810  0.3735
 6294SOL    HW230342   0.150   2.426   1.875  0.4324 -2.5360 -1.2012
 6295SOL     OW30343   3.218   2.405   6.314  0.5279  0.7242  0.5345
 6295SOL    HW130344   3.282   2.416   6.244  0.5895  0.5078  0.5598
 6295SOL    HW230345   3.217   2.496   6.346  2.1815  1.4762 -1.5709
 6296SOL     OW30346   1.990   0.799   5.204  0.2861 -0.5394  0.0419
 6296SOL    HW130347   2.052   0.849   5.151 -0.8792 -0.9492 -1.6913
 6296SOL    HW230348   1.906   0.840   5.182  1.1330  1.1346 -0.0432
 6297SOL     OW30349   4.569   1.268   8.173  0.2958 -0.1659 -0.5696
 6297SOL    HW130350   4.613   1.222   8.102  1.2006 -1.2783  0.7040
 6297SOL    HW230351   4.598   1.213   8.246 -0.4689  2.1185  1.4649
 6298SOL     OW30352   1.938   2.889   6.654  0.3509 -0.1832 -0.6280
 6298SOL    HW130353   2.011   2.848   6.699 -1.5142  0.2162  2.7361
 6298SOL    HW230354   1.964   2.979   6.673  1.2987 -0.0016 -2.7414
 6299SOL     OW30355   1.056   2.416  14.986  0.3623 -0.5655 -0.1372
 6299SOL    HW130356   1.129   2.367  15.024  1.2980  0.3467 -0.7604
 6299SOL    HW230357   1.075   2.406  14.893 -1.5152 -1.6465 -0.3932
 6300SOL     OW30358   2.275   4.676  12.442 -0.4854  0.2688  0.1432
 6300SOL    HW130359   2.192   4.715  12.415 -0.9049  0.2511  1.4036
 6300SOL    HW230360   2.282   4.600  12.384 -0.6703  0.1500  0.2747
 6301SOL     OW30361   0.549   3.077   3.365 -0.0420  0.1865 -0.0564
 6301SOL    HW130362   0.557   3.161   3.320 -0.6236  0.9378  1.2609
 6301SOL    HW230363   0.542   3.019   3.289  1.1551  2.2712 -1.7554
 6302SOL     OW30364   1.818   2.966   0.039 -0.0828  0.0483  0.2341
 6302SOL    HW130365   1.758   2.969  17.657 -0.0852 -0.4551  0.2198
 6302SOL    HW230366   1.797   2.876   0.064 -0.0755  0.1851  0.7438
 6303SOL     OW30367   3.774   0.209   8.568  0.0448 -0.7633  0.7409
 6303SOL    HW130368   3.782   0.263   8.646  0.5078 -1.1700  0.9688
 6303SOL    HW230369   3.803   0.132   8.617 -1.6970 -1.3699  0.8154
 6304SOL     OW30370   2.023   1.157   2.346 -0.0348  0.3417  0.4091
 6304SOL    HW130371   2.085   1.146   2.273  0.5737 -3.5700  1.5409
 6304SOL    HW230372   2.079   1.150   2.423 -2.1893  1.7235  2.1020
 6305SOL     OW30373   1.360   2.824   6.297 -0.6678 -0.6196  0.0526
 6305SOL    HW130374   1.391   2.783   6.377 -0.5767 -0.9782 -0.1687
 6305SOL    HW230375   1.350   2.744   6.246 -0.7034 -0.8173  0.3705
 6306SOL     OW30376   2.618   2.438   8.015 -0.5560 -0.3448 -0.2785
 6306SOL    HW130377   2.523   2.450   8.014 -0.3601  1.1235 -0.9092
 6306SOL    HW230378   2.641   2.495   7.942 -1.1706  1.5242  0.9943
 6307SOL     OW30379   0.187   0.584  16.658  0.1428 -0.0515 -0.1817
 6307SOL    HW130380   0.227   0.534  16.729  0.5482 -1.4476 -1.3904
 6307SOL    HW230381   0.241   0.663  16.665 -0.3554  0.2053  0.7030
 6308SOL     OW30382   3.741   1.082   7.150  0.1731  0.4735  0.1541
 6308SOL    HW130383   3.822   1.034   7.169 -0.5718  0.1921  2.7043
 6308SOL    HW230384   3.690   1.013   7.108  1.0808 -0.5688  0.7504
 6309SOL     OW30385   3.011   0.383   8.773  0.2963 -0.6276 -0.1041
 6309SOL    HW130386   2.925   0.378   8.815  0.6325  2.1908  0.9159
 6309SOL    HW230387   3.001   0.450   8.706  1.3635  1.0711  1.4291
 6310SOL     OW30388   2.767   0.132   4.759 -0.6968 -0.1439  0.4929
 6310SOL    HW130389   2.806   0.135   4.672  1.3566 -4.0212  1.2752
 6310SOL    HW230390   2.822   0.066   4.801  2.2122  1.0033 -1.4866
 6311SOL     OW30391   2.118   1.202   0.806  0.1782  0.2805  0.5411
 6311SOL    HW130392   2.152   1.122   0.846  2.8200  1.5356  0.8340
 6311SOL    HW230393   2.121   1.183   0.712 -2.4399  0.2174  0.4715
 6312SOL     OW30394   2.061   3.870   7.986  0.0915 -0.3901 -0.7705
 6312SOL    HW130395   1.975   3.904   7.962 -0.6609 -2.8202 -1.4591
 6312SOL    HW230396   2.113   3.915   7.919 -1.7961 -0.9078 -2.5834
 6313SOL     OW30397   2.300   1.494   4.118  0.3303  0.5134  0.2035
 6313SOL    HW130398   2.268   1.404   4.115 -1.2501  1.1610 -1.9222
 6313SOL    HW230399   2.353   1.491   4.198 -1.3823 -0.2519  1.3062
 6314SOL     OW30400   1.330   3.353  14.208  0.0691  0.2807  0.5296
 6314SOL    HW130401   1.247   3.400  14.198 -0.9571 -1.1278  2.3603
 6314SOL    HW230402   1.383   3.397  14.142  0.1094 -1.1312 -0.3809
 6315SOL     OW30403   4.106   0.548  16.502 -0.4864 -0.0045 -0.2133
 6315SOL    HW130404   4.196   0.564  16.472  0.1330 -0.7051  1.2436
 6315SOL    HW230405   4.134   0.491  16.574  5.0076  1.2970 -1.3010
 6316SOL     OW30406   1.484   2.939   3.512  0.2159 -0.1817  0.2346
 6316SOL    HW130407   1.421   2.920   3.581 -0.0497  1.3017  0.4059
 6316SOL    HW230408   1.528   3.021   3.532 -1.6683  1.3756 -2.0812
 6317SOL     OW30409   1.637   3.463  11.502 -0.2638 -0.0978  0.3585
 6317SOL    HW130410   1.598   3.380  11.528 -0.7404 -0.3152 -1.0280
 6317SOL    HW230411   1.628   3.453  11.407 -0.1020 -0.7799  0.4186
 6318SOL     OW30412   0.353   2.700   5.037  0.1613 -0.0574 -0.0401
 6318SOL    HW130413   0.295   2.680   5.111 -0.4195 -0.6323 -0.6565
 6318SOL    HW230414   0.438   2.694   5.081  0.8449 -1.4976 -1.5796
 6319SOL     OW30415   1.335   1.762   8.943 -0.1727 -0.2103  0.4270
 6319SOL    HW130416   1.306   1.694   9.004  2.2503 -0.7556  0.9759
 6319SOL    HW230417   1.251   1.803   8.925  0.4080  1.5110  1.6386
 6320SOL     OW30418   1.070   2.048   9.915 -0.5581 -0.3831  0.0793
 6320SOL    HW130419   1.102   2.094   9.993  1.3258  0.2831 -1.0788
 6320SOL    HW230420   1.041   1.974   9.968 -1.3472  0.0645  0.2656
 6321SOL     OW30421   1.173   4.526   6.308  0.9714 -0.1291  0.9005
 6321SOL    HW130422   1.186   4.457   6.242  2.0981 -0.9716  1.9800
 6321SOL    HW230423   1.260   4.524   6.350  2.7417 -0.8507 -2.7542
 6322SOL     OW30424   1.623   2.357   3.664  0.3516 -0.5796  0.1356
 6322SOL    HW130425   1.584   2.293   3.604 -0.2895  0.7775 -0.8872
 6322SOL    HW230426   1.716   2.357   3.642  0.3064  2.1526 -0.0712
 6323SOL     OW30427   2.764   3.704  14.704 -0.3973  0.4806  0.0090
 6323SOL    HW130428   2.763   3.712  14.609  1.6173 -1.3402 -0.1947
 6323SOL    HW230429   2.852   3.673  14.727 -1.0327 -0.8117  0.7339
 6324SOL     OW30430   2.632   0.857   8.310  0.0846 -0.0544  0.0447
 6324SOL    HW130431   2.598   0.936   8.268  1.3112  1.2745  1.5425
 6324SOL    HW230432   2.553   0.813   8.340  0.7458 -0.4342  1.2306
 6325SOL     OW30433   4.180   0.201   9.972 -0.6578 -0.3154  0.2203
 6325SOL    HW130434   4.189   0.165  10.060 -0.1478 -0.0222  0.2907
 6325SOL    HW230435   4.086   0.183   9.966 -0.3887 -0.5314 -3.1599
 6326SOL     OW30436   3.805   0.492   2.136  0.5476 -0.1286 -0.3123
 6326SOL    HW130437   3.729   0.435   2.129  2.1316 -2.0352 -1.6358
 6326SOL    HW230438   3.785   0.532   2.052  0.9710 -0.3920 -0.5347
 6327SOL     OW30439   1.043   1.500   8.217 -0.1178  0.2105  0.0045
 6327SOL    HW130440   1.003   1.421   8.180  0.4562 -0.0098 -0.1591
 6327SOL    HW230441   0.998   1.504   8.301  0.1962  0.9543  0.1330
 6328SOL     OW30442   3.632   0.438  13.306  0.7181 -0.0855 -0.1474
 6328SOL    HW130443   3.547   0.455  13.266  0.9846  1.9477  0.1502
 6328SOL    HW230444   3.603   0.417  13.395 -1.0446  1.0091 -0.4649
 6329SOL     OW30445   1.034   2.289  17.041  0.0202  0.2810 -0.2524
 6329SOL    HW130446   0.962   2.258  16.987 -0.5710 -0.2201  0.8369
 6329SOL    HW230447   1.100   2.281  16.971  0.5154 -0.0505  0.2529
 6330SOL     OW30448   2.849   4.006   8.172  0.1015  0.5506 -0.1623
 6330SOL    HW130449   2.885   3.930   8.219 -1.1155  0.3001  0.3745
 6330SOL    HW230450   2.769   4.024   8.222 -0.7801  0.8595 -1.6922
 6331SOL     OW30451   3.782   4.100  16.970  0.4766  0.0308  0.0523
 6331SOL    HW130452   3.752   4.139  16.888 -1.4492 -2.0363 -0.2235
 6331SOL    HW230453   3.705   4.048  16.995 -0.8122  3.0287  2.3427
 6332SOL     OW30454   2.462   4.099  15.636  0.2866  1.1230  0.0616
 6332SOL    HW130455   2.545   4.134  15.604  0.6570 -0.1718 -0.4077
 6332SOL    HW230456   2.468   4.028  15.572 -0.6928  2.1376 -1.1222
 6333SOL     OW30457   3.695   2.891   1.301  0.0753  0.3317  0.5707
 6333SOL    HW130458   3.651   2.933   1.375 -0.1889  0.1168  0.5374
 6333SOL    HW230459   3.730   2.969   1.258  1.4490  0.3655  1.7489
 6334SOL     OW30460   1.695   1.069  17.032  0.1014 -0.1388  0.0659
 6334SOL    HW130461   1.710   1.010  17.105 -0.7637  1.6463  1.6788
 6334SOL    HW230462   1.606   1.094  17.056 -0.2532 -1.5184  0.1765
 6335SOL     OW30463   2.840   1.008   6.573  0.4185 -0.0925  0.6179
 6335SOL    HW130464   2.750   0.978   6.591  0.7088  0.2833  2.6882
 6335SOL    HW230465   2.854   0.953   6.496 -0.0750  0.7119 -0.0536
 6336SOL     OW30466   3.660   3.486   4.863 -0.4321 -0.0040  0.4324
 6336SOL    HW130467   3.724   3.454   4.800 -2.3005 -2.3214 -0.2593
 6336SOL    HW230468   3.599   3.539   4.811 -0.1139 -0.9309 -0.8860
 6337SOL     OW30469   0.786   3.378   2.171 -0.4306 -0.0003  0.1136
 6337SOL    HW130470   0.767   3.432   2.248 -0.0262  0.3090 -0.0005
 6337SOL    HW230471   0.817   3.440   2.104 -0.1711 -0.1957  0.0505
 6338SOL     OW30472   0.267   2.321   2.285 -0.1062 -0.7621  0.2005
 6338SOL    HW130473   0.314   2.387   2.233 -0.8139 -2.7255 -2.8876
 6338SOL    HW230474   0.180   2.328   2.245 -0.0030 -0.9166 -0.0534
 6339SOL     OW30475   1.525   0.232   1.638  0.3360  0.6418  0.3024
 6339SOL    HW130476   1.603   0.288   1.639  0.1140  0.9803 -0.7715
 6339SOL    HW230477   1.473   0.288   1.580  1.2198  1.1763  0.0229
 6340SOL     OW30478   4.114   3.279   2.087  0.3671 -0.3244  0.9179
 6340SOL    HW130479   4.071   3.364   2.095 -3.7117 -2.2281 -0.9625
 6340SOL    HW230480   4.196   3.299   2.132  0.6330  1.3457 -0.3221
 6341SOL     OW30481   4.290   2.875   2.207  0.2128 -0.2327 -0.0987
 6341SOL    HW130482   4.248   2.907   2.127  3.2165  0.4233 -1.4142
 6341SOL    HW230483   4.277   2.781   2.199 -2.0258  0.1732 -1.5971
 6342SOL     OW30484   0.994   2.129   5.580  0.5996 -0.0057 -0.0421
 6342SOL    HW130485   0.982   2.036   5.560  3.0889  0.3477 -3.1239
 6342SOL    HW230486   0.945   2.176   5.514 -1.3750  0.1935  1.5518
 6343SOL     OW30487   4.289   3.874   8.127 -0.3613  0.0108 -0.0302
 6343SOL    HW130488   4.279   3.805   8.061 -0.5281 -0.7767  0.8247
 6343SOL    HW230489   4.215   3.858   8.185 -1.2160 -1.6401 -1.5827
 6344SOL     OW30490   4.464   0.336   3.194 -0.1851  0.1876  0.2797
 6344SOL    HW130491   4.420   0.420   3.183 -0.1782 -0.1069 -2.0649
 6344SOL    HW230492   4.450   0.309   3.285  1.5293 -1.2282  0.1022
 6345SOL     OW30493   3.557   0.364   0.846 -0.4806 -0.0791  0.0996
 6345SOL    HW130494   3.555   0.426   0.773 -1.5108 -0.2539 -0.0276
 6345SOL    HW230495   3.646   0.381   0.876 -0.4200 -0.7131  0.2873
 6346SOL     OW30496   4.509   3.730  12.532 -0.3412  0.0241 -0.5942
 6346SOL    HW130497   4.540   3.726  12.442 -0.6935  0.0328 -0.7153
 6346SOL    HW230498   4.583   3.695  12.582  0.0395 -0.0700 -1.2327
 6347SOL     OW30499   3.137   2.810   2.366 -0.6825 -0.1616  0.7018
 6347SOL    HW130500   3.121   2.719   2.340  1.7909 -0.5079  0.4179
 6347SOL    HW230501   3.050   2.849   2.361 -1.1361 -1.5601 -2.1729
 6348SOL     OW30502   4.223   1.855   0.720 -0.1083 -0.2509  0.4038
 6348SOL    HW130503   4.186   1.910   0.650  2.6204 -0.1313 -0.9456
 6348SOL    HW230504   4.149   1.814   0.764 -0.1305  1.7134  2.1663
 6349SOL     OW30505   2.042   0.400   2.292  0.0798 -0.6215 -0.1658
 6349SOL    HW130506   2.025   0.493   2.273 -0.6666 -0.8059 -0.4138
 6349SOL    HW230507   1.952   0.381   2.319  0.0851  0.8210  0.8272
 6350SOL     OW30508   3.884   0.121   5.095 -0.7188  0.2802  0.4880
 6350SOL    HW130509   3.954   0.095   5.155 -0.0380  1.4365  0.1748
 6350SOL    HW230510   3.926   0.192   5.047 -2.1806  1.0970  0.3953
 6351SOL     OW30511   0.800   1.608   6.167  0.1640 -0.0088  0.2651
 6351SOL    HW130512   0.872   1.546   6.173  1.6238  1.8333  1.8450
 6351SOL    HW230513   0.766   1.593   6.079  1.9231 -0.4602 -0.3354
 6352SOL     OW30514   2.365   2.254   2.122 -0.2503 -0.3668  0.8146
 6352SOL    HW130515   2.383   2.295   2.038  1.6615 -0.3181  1.2529
 6352SOL    HW230516   2.458   2.233   2.136  0.1114  0.1706 -0.7527
 6353SOL     OW30517   4.583   0.025  11.122  0.2132 -0.4876  0.6622
 6353SOL    HW130518   4.507   0.042  11.066 -0.4146  1.3172  2.0429
 6353SOL    HW230519   4.603   0.117  11.141 -1.2503 -0.0993  0.3844
 6354SOL     OW30520   0.350   1.832   7.690 -0.2412 -0.7321  0.4097
 6354SOL    HW130521   0.314   1.920   7.678  0.6681 -0.0814  2.5995
 6354SOL    HW230522   0.333   1.811   7.782  0.5336 -0.3475  0.6403
 6355SOL     OW30523   2.044   0.152  10.766 -0.0383  0.1943 -0.1186
 6355SOL    HW130524   1.989   0.183  10.838 -0.7425  0.1090 -0.6262
 6355SOL    HW230525   2.123   0.142  10.819  0.2629  1.7272 -0.2813
 6356SOL     OW30526   2.050   0.398   4.411  0.0539  0.1880 -0.3963
 6356SOL    HW130527   2.105   0.457   4.462  0.1626 -0.9752  0.8208
 6356SOL    HW230528   2.039   0.441   4.326  1.6733  1.0696 -0.1615
 6357SOL     OW30529   1.294   0.668   1.891 -0.2355 -0.1730 -0.1910
 6357SOL    HW130530   1.377   0.646   1.935 -0.7493  0.3007  1.0226
 6357SOL    HW230531   1.295   0.631   1.803 -0.6519  3.5378 -1.7390
 6358SOL     OW30532   4.134   3.653   4.681  0.0145 -0.0692  0.5177
 6358SOL    HW130533   4.185   3.590   4.733  3.3997  1.8052 -0.5800
 6358SOL    HW230534   4.154   3.617   4.595  0.3499  1.1600  0.0940
 6359SOL     OW30535   4.099   3.143   5.547 -0.0501 -0.1301 -0.0349
 6359SOL    HW130536   4.041   3.090   5.602 -0.4417  0.0972 -0.2287
 6359SOL    HW230537   4.139   3.075   5.494 -2.0197  0.0468 -1.7565
 6360SOL     OW30538   1.455   1.982   2.050  0.3063  0.5758  0.3325
 6360SOL    HW130539   1.526   1.918   2.060  1.4762  2.0459  1.3482
 6360SOL    HW230540   1.437   1.998   2.143 -1.5111  0.1252  0.0515
 6361SOL     OW30541   4.464   2.681  12.361  0.0397  0.3883  0.1373
 6361SOL    HW130542   4.445   2.774  12.374 -1.5881  0.2359 -1.0923
 6361SOL    HW230543   4.387   2.642  12.320  1.3949  0.3078 -2.3332
 6362SOL     OW30544   2.381   1.095   1.842  0.5748 -0.1838  0.5329
 6362SOL    HW130545   2.334   1.096   1.759 -0.1968 -0.7436  0.9625
 6362SOL    HW230546   2.323   1.042   1.896  0.3696  0.9637  1.4389
 6363SOL     OW30547   0.183   4.487   5.076  0.1132  0.0987 -0.0662
 6363SOL    HW130548   0.117   4.524   5.135 -0.2457 -0.3454 -0.1854
 6363SOL    HW230549   0.266   4.531   5.092  0.3881  0.5134 -2.6750
 6364SOL     OW30550   0.198   2.903   7.552 -0.2655  0.4730 -0.0737
 6364SOL    HW130551   0.154   2.842   7.612 -0.3726  1.1676  0.5481
 6364SOL    HW230552   0.283   2.860   7.557  0.2804  1.5277 -0.3501
 6365SOL     OW30553   2.810   3.902   5.599  0.2131  0.3576 -0.2040
 6365SOL    HW130554   2.903   3.893   5.622 -0.4263  2.0603  3.0863
 6365SOL    HW230555   2.809   3.847   5.521  1.0230  0.9136 -0.6070
 6366SOL     OW30556   0.116   4.273   2.862 -0.2483 -0.6720 -0.2456
 6366SOL    HW130557   0.036   4.221   2.855  0.8221 -2.0767 -2.2438
 6366SOL    HW230558   0.179   4.218   2.909  0.5218 -0.3767 -0.9403
 6367SOL     OW30559   3.476   1.943   3.916  0.4210  0.2651 -0.1080
 6367SOL    HW130560   3.390   1.966   3.952  1.2456  0.3359  1.8081
 6367SOL    HW230561   3.533   1.982   3.983  0.2786  1.0077 -0.4178
 6368SOL     OW30562   0.277   3.222   5.333 -0.1073 -0.6159  0.1705
 6368SOL    HW130563   0.245   3.187   5.250 -0.3899  0.3322 -0.1204
 6368SOL    HW230564   0.372   3.222   5.330 -0.1433  0.6312 -0.8848
 6369SOL     OW30565   0.933   1.896   6.141  0.1839 -0.4198 -0.4180
 6369SOL    HW130566   0.889   1.813   6.161 -1.4596  0.1201 -1.7955
 6369SOL    HW230567   1.014   1.900   6.192 -2.1631  1.3391  3.1942
 6370SOL     OW30568   4.330   1.923   5.959 -0.0544 -0.4979  0.1681
 6370SOL    HW130569   4.296   1.859   5.896  0.0612  0.4740 -0.8849
 6370SOL    HW230570   4.300   1.885   6.041 -0.3804  0.9573  0.7202
 6371SOL     OW30571   2.331   0.937   4.850  0.0190  0.0454  0.2198
 6371SOL    HW130572   2.395   0.883   4.804 -2.5405 -2.4916 -0.3701
 6371SOL    HW230573   2.353   1.028   4.831  1.4456 -0.2092  0.6926
 6372SOL     OW30574   3.722   4.410   2.829 -0.0877  0.1263  0.2561
 6372SOL    HW130575   3.653   4.439   2.888  1.4798 -2.7569  3.4814
 6372SOL    HW230576   3.785   4.481   2.839 -0.0705 -0.1311  2.0246
 6373SOL     OW30577   0.239   2.919   3.870  0.0301  0.1001  0.2180
 6373SOL    HW130578   0.178   2.986   3.840  0.4351 -0.3371 -1.6282
 6373SOL    HW230579   0.240   2.864   3.791 -1.7570 -0.9529  0.9364
 6374SOL     OW30580   1.891   2.378  11.238  0.5172  0.0844  0.2155
 6374SOL    HW130581   1.915   2.462  11.277 -2.2109 -0.8133  3.8310
 6374SOL    HW230582   1.961   2.365  11.174  0.1842 -0.1807 -0.0925
 6375SOL     OW30583   4.377   4.670  14.534 -0.3646 -0.2124 -0.2357
 6375SOL    HW130584   4.390   4.648  14.626 -0.5895  0.9468  0.0703
 6375SOL    HW230585   4.290   4.632  14.518  0.1658 -1.8993  0.8759
 6376SOL     OW30586   4.074   2.669   8.603 -0.3650  0.1648  0.0699
 6376SOL    HW130587   4.117   2.658   8.688  1.1524  0.6527 -0.6282
 6376SOL    HW230588   4.117   2.744   8.562  0.7392 -0.3521  0.2682
 6377SOL     OW30589   2.152   3.589  15.587  0.1593  0.9085 -0.2436
 6377SOL    HW130590   2.208   3.579  15.509 -0.6136 -0.8387 -0.5691
 6377SOL    HW230591   2.214   3.589  15.659  0.6533 -3.5698 -0.7196
 6378SOL     OW30592   0.899   0.853  11.262 -0.5016 -0.3682 -0.2374
 6378SOL    HW130593   0.921   0.868  11.354  1.0835  0.3681 -0.7382
 6378SOL    HW230594   0.963   0.785  11.239 -1.2879 -1.0104 -0.5600
 6379SOL     OW30595   1.177   2.572   0.686 -0.1902  0.3193 -0.0158
 6379SOL    HW130596   1.131   2.584   0.770 -1.0494 -0.5883 -0.3506
 6379SOL    HW230597   1.115   2.620   0.630 -1.4175  0.0492  1.0998
 6380SOL     OW30598   3.846   1.439   7.062  0.2879 -0.5405 -0.0733
 6380SOL    HW130599   3.842   1.419   7.155  1.1331  0.4033  0.1662
 6380SOL    HW230600   3.861   1.533   7.064 -1.5061 -0.2715  0.4888
 6381SOL     OW30601   4.276   3.944   7.154 -0.4390  0.2909 -0.2367
 6381SOL    HW130602   4.246   3.926   7.243  1.4050  1.7416  0.6773
 6381SOL    HW230603   4.217   4.009   7.116  1.7787  1.8258 -1.0719
 6382SOL     OW30604   3.455   1.929  10.450  0.1288 -0.2751  0.1765
 6382SOL    HW130605   3.428   1.908  10.361 -3.2448 -0.4535  1.2744
 6382SOL    HW230606   3.543   1.892  10.457  0.4366  0.4264  0.0334
 6383SOL     OW30607   0.814   1.928   7.553  0.4712 -0.0315 -0.3421
 6383SOL    HW130608   0.804   1.833   7.541 -2.2095  0.3426 -0.9560
 6383SOL    HW230609   0.852   1.952   7.469  2.7643  0.0503  0.6954
 6384SOL     OW30610   1.261   3.908   7.948 -0.4740 -0.4258 -0.4870
 6384SOL    HW130611   1.220   3.916   7.862 -1.4745  0.0697  0.0335
 6384SOL    HW230612   1.204   3.966   7.999  2.4983  0.7516  1.5137
 6385SOL     OW30613   2.216   4.366  11.283  0.1353 -0.0101 -0.3705
 6385SOL    HW130614   2.173   4.434  11.231 -2.2264 -2.0698 -1.1083
 6385SOL    HW230615   2.306   4.399  11.278 -0.5407  1.6360 -1.6747
 6386SOL     OW30616   1.286   0.443   8.379 -0.1141 -0.0939 -0.4341
 6386SOL    HW130617   1.249   0.363   8.416 -0.7819 -0.2282 -1.3968
 6386SOL    HW230618   1.270   0.510   8.445 -0.2348 -0.0674 -0.4907
 6387SOL     OW30619   0.577   2.618   9.394 -0.7507  0.2116  0.1433
 6387SOL    HW130620   0.597   2.662   9.476  0.1408 -0.0632  0.0755
 6387SOL    HW230621   0.481   2.615   9.393 -0.6899 -1.6894 -1.0614
 6388SOL     OW30622   2.170   0.572   4.565  0.5034 -0.0113 -0.3311
 6388SOL    HW130623   2.255   0.547   4.600 -0.4052 -2.4734  0.1008
 6388SOL    HW230624   2.150   0.650   4.617 -0.2822  0.1274 -0.8402
 6389SOL     OW30625   0.411   2.068   6.106  0.3772 -0.3849 -0.4759
 6389SOL    HW130626   0.378   1.985   6.071 -2.0840 -0.2362  1.5021
 6389SOL    HW230627   0.336   2.125   6.123 -1.6153 -2.7138 -1.4240
 6390SOL     OW30628   1.501   4.277   6.357  0.2674 -0.1241  0.2912
 6390SOL    HW130629   1.428   4.257   6.415 -0.1368  1.2163  0.2437
 6390SOL    HW230630   1.527   4.366   6.377 -0.2248 -0.1649  1.0962
 6391SOL     OW30631   2.503   0.843   7.439  0.0133  0.5768 -0.1885
 6391SOL    HW130632   2.589   0.852   7.480  0.3774  0.3795 -0.9100
 6391SOL    HW230633   2.450   0.897   7.498  0.1089 -1.0842  1.4251
 6392SOL     OW30634   0.131   1.425   1.814 -0.0543  0.1500 -0.1750
 6392SOL    HW130635   0.206   1.456   1.866  1.5935 -0.8820 -1.9600
 6392SOL    HW230636   0.057   1.427   1.875  0.6267  0.5769  0.6374
 6393SOL     OW30637   3.785   2.213   7.593 -0.4958  0.2424  0.0451
 6393SOL    HW130638   3.730   2.135   7.590 -1.2118  0.7291  0.4105
 6393SOL    HW230639   3.852   2.187   7.657  0.7237 -0.8429 -1.6793
 6394SOL     OW30640   2.301   0.795   7.265 -0.4494 -0.3185 -0.8037
 6394SOL    HW130641   2.261   0.878   7.292  0.5711  0.2377 -0.9966
 6394SOL    HW230642   2.371   0.785   7.328  0.2224 -0.5611 -1.5911
 6395SOL     OW30643   2.686   3.237  17.595 -0.1388  0.3611  0.2648
 6395SOL    HW130644   2.718   3.324  17.618  0.5017  0.1636  0.1149
 6395SOL    HW230645   2.628   3.227  17.671  2.5492  1.1925  2.4371
 6396SOL     OW30646   0.261   4.060  14.993 -0.1116 -0.4596  0.1085
 6396SOL    HW130647   0.218   4.049  15.077 -0.1006 -0.6646  0.0874
 6396SOL    HW230648   0.193   4.059  14.925  0.7608 -0.6829 -0.7621
 6397SOL     OW30649   0.354   4.445  11.914  0.4805 -0.1165 -0.7353
 6397SOL    HW130650   0.298   4.396  11.975  2.6477 -1.7482 -0.0437
 6397SOL    HW230651   0.445   4.437  11.943  0.9397  2.3734 -1.5616
 6398SOL     OW30652   0.098   4.716   5.335  0.5388  0.0577  0.5043
 6398SOL    HW130653   0.096   4.706   5.431 -0.3219 -1.1891  0.3506
 6398SOL    HW230654   0.050   4.641   5.301 -0.1798  0.0670  1.4769
 6399SOL     OW30655   1.717   2.985   5.287 -0.6524 -0.2160 -0.3868
 6399SOL    HW130656   1.672   2.951   5.365  0.3714 -1.5495 -0.3849
 6399SOL    HW230657   1.708   2.910   5.229  1.1371 -1.1129  0.5046
 6400SOL     OW30658   2.022   4.533   2.848  0.8090  0.1288 -0.7187
 6400SOL    HW130659   1.936   4.505   2.818  0.1651  1.7305 -0.3659
 6400SOL    HW230660   2.060   4.552   2.762 -0.3063 -1.8912 -1.6296
 6401SOL     OW30661   0.341   0.741  10.475  0.3985 -0.2716  0.1759
 6401SOL    HW130662   0.287   0.675  10.517 -0.4299  0.9588  1.0293
 6401SOL    HW230663   0.309   0.735  10.385  1.9220  1.8868 -0.5165
 6402SOL     OW30664   4.230   1.816   2.604  0.2279 -0.4265  0.2467
 6402SOL    HW130665   4.283   1.810   2.684  0.4318 -1.4174  0.0421
 6402SOL    HW230666   4.205   1.725   2.592 -1.3576 -0.0210  0.5761
 6403SOL     OW30667   2.156   1.534   1.762 -0.2081  0.1656 -0.6264
 6403SOL    HW130668   2.158   1.629   1.771  1.0704  0.3247 -2.6097
 6403SOL    HW230669   2.075   1.533   1.711 -1.0489 -0.7405  0.7171
 6404SOL     OW30670   3.565   3.140   8.169  0.3479  0.0496 -0.0550
 6404SOL    HW130671   3.653   3.107   8.151  0.0954 -0.6920  0.0457
 6404SOL    HW230672   3.540   3.190   8.092  1.2712 -0.0620 -0.4346
 6405SOL     OW30673   3.696   0.466   9.601  0.2427  0.0339  0.3404
 6405SOL    HW130674   3.708   0.392   9.661  1.2146  0.3714  0.5589
 6405SOL    HW230675   3.608   0.497   9.625  0.8993  2.0796  0.1285
 6406SOL     OW30676   2.012   2.074   5.148  0.0916 -0.0811 -0.0926
 6406SOL    HW130677   2.070   2.111   5.214  0.7802  1.7222 -1.7211
 6406SOL    HW230678   1.994   2.151   5.094 -1.3632 -1.7235 -1.9551
 6407SOL     OW30679   1.267   0.756   6.836  0.0490 -0.4487 -0.9777
 6407SOL    HW130680   1.188   0.705   6.816 -1.2749  0.7282  1.2216
 6407SOL    HW230681   1.315   0.679   6.868  1.1776  0.7052  0.1078
 6408SOL     OW30682   2.934   1.094  16.443 -0.0582  0.4905 -0.1129
 6408SOL    HW130683   2.909   1.032  16.375  2.0407 -0.8595  0.3636
 6408SOL    HW230684   2.847   1.133  16.455 -0.4922 -0.7694  0.8270
 6409SOL     OW30685   3.172   4.621   2.126  0.2675 -0.3217 -0.1580
 6409SOL    HW130686   3.102   4.569   2.166  0.8602  1.7538  3.6210
 6409SOL    HW230687   3.241   4.587   2.183  1.6977  0.1653 -1.6250
 6410SOL     OW30688   4.322   1.798  15.223 -0.0251 -0.0764  0.5472
 6410SOL    HW130689   4.234   1.777  15.194 -0.2344  0.2754  0.9343
 6410SOL    HW230690   4.363   1.853  15.155 -1.6863  1.9980  1.2068
 6411SOL     OW30691   3.605   4.137   8.023 -0.8490  0.7662  0.3150
 6411SOL    HW130692   3.586   4.215   8.076 -2.9182  0.1249  0.5311
 6411SOL    HW230693   3.631   4.071   8.088 -0.6036  0.3076 -0.2435
 6412SOL     OW30694   4.148   2.938   5.891 -0.2744 -0.0270 -0.4309
 6412SOL    HW130695   4.214   2.901   5.831  0.3656 -1.6490  1.2592
 6412SOL    HW230696   4.117   2.866   5.946  0.3678 -0.8611 -1.1368
 6413SOL     OW30697   4.046   4.689   6.116 -0.3552 -0.0358  0.0781
 6413SOL    HW130698   4.023   4.702   6.024  2.7718  0.5199 -0.6277
 6413SOL    HW230699   4.076   4.598   6.117 -0.7734 -0.1623  1.7134
 6414SOL     OW30700   4.192   1.525   7.935 -0.8246  0.1207  0.2024
 6414SOL    HW130701   4.267   1.559   7.887 -1.2658  0.3236 -0.3521
 6414SOL    HW230702   4.234   1.459   7.991  0.0631  1.0451  0.6150
 6415SOL     OW30703   1.366   0.643   7.569  0.2840  0.1773 -0.8430
 6415SOL    HW130704   1.330   0.556   7.584  0.7269  0.4617  1.8688
 6415SOL    HW230705   1.297   0.701   7.600  0.7352  0.0196  0.4692
 6416SOL     OW30706   0.032   2.954   5.302  0.1423 -0.7873 -0.5036
 6416SOL    HW130707   0.117   2.941   5.344  0.4420  2.2160 -0.1501
 6416SOL    HW230708   4.699   2.970   5.378  1.6798 -1.9851  0.8655
 6417SOL     OW30709   1.902   3.427   2.961  0.6583  0.0534  0.4864
 6417SOL    HW130710   1.889   3.395   2.872  0.5893 -0.9302  0.8569
 6417SOL    HW230711   1.881   3.347   3.008 -2.6478  0.0790 -0.9374
 6418SOL     OW30712   2.311   0.386   9.171  0.1305  0.1610  0.1580
 6418SOL    HW130713   2.244   0.371   9.105  0.2295  1.6024 -0.2682
 6418SOL    HW230714   2.259   0.382   9.252  1.6730 -1.1330  1.0796
 6419SOL     OW30715   3.127   3.396   3.051  0.3989 -0.2734  0.3441
 6419SOL    HW130716   3.223   3.395   3.058  0.5371  0.9811 -1.4218
 6419SOL    HW230717   3.103   3.305   3.068 -1.1939 -0.1158 -1.0396
 6420SOL     OW30718   2.983   2.652  12.714 -0.2120 -0.0647  0.3257
 6420SOL    HW130719   2.985   2.649  12.618 -1.2358  0.6501  0.2828
 6420SOL    HW230720   2.894   2.673  12.744  1.0364  0.8310  3.3877
 6421SOL     OW30721   4.434   2.631   1.135  0.5359  0.2898  0.1713
 6421SOL    HW130722   4.403   2.542   1.121 -0.8265  0.9514 -0.9304
 6421SOL    HW230723   4.364   2.694   1.119  1.1566  0.7463 -0.7731
 6422SOL     OW30724   3.419   3.559   7.505 -0.0786 -0.3032 -0.2086
 6422SOL    HW130725   3.330   3.538   7.531 -0.3286  0.9161 -0.0666
 6422SOL    HW230726   3.434   3.626   7.572  0.5343  0.2428 -0.8838
 6423SOL     OW30727   4.640   0.561  16.587 -0.1431  0.2809  0.2411
 6423SOL    HW130728   0.013   0.569  16.596 -0.2472  1.6548  0.2048
 6423SOL    HW230729   4.607   0.508  16.659 -0.8620 -2.0264 -1.8079
 6424SOL     OW30730   3.466   3.600   6.622  0.1300  0.1603 -0.6722
 6424SOL    HW130731   3.376   3.622   6.646  0.5601  1.6410 -0.4179
 6424SOL    HW230732   3.495   3.529   6.679  1.0450  1.1808  0.1398
 6425SOL     OW30733   4.358   0.064  10.968  0.2821 -0.1174  0.1293
 6425SOL    HW130734   4.348   4.712  10.908 -0.1793  0.5365 -0.6057
 6425SOL    HW230735   4.297   0.123  10.924 -0.1470 -0.7138 -0.0834
 6426SOL     OW30736   4.470   4.430   9.207 -0.2245  0.0313  0.2661
 6426SOL    HW130737   4.553   4.412   9.162  0.3170  1.1023  0.8213
 6426SOL    HW230738   4.462   4.523   9.186  0.1756  0.5233  2.3084
 6427SOL     OW30739   0.107   4.551  13.148 -0.0949  0.2742 -0.2766
 6427SOL    HW130740   0.130   4.513  13.232 -1.4791 -2.8220 -1.2812
 6427SOL    HW230741   0.188   4.592  13.117  1.3652 -0.5603  2.5138
 6428SOL     OW30742   2.083   2.912  14.743  0.0823  0.2767 -0.5918
 6428SOL    HW130743   2.105   3.004  14.757 -0.9507  0.2053  1.3579
 6428SOL    HW230744   2.153   2.890  14.681  0.7384  1.1979 -0.1777
 6429SOL     OW30745   1.629   2.567   0.100  0.1848  0.3753 -0.3594
 6429SOL    HW130746   1.711   2.600   0.062 -0.2115 -0.4581 -1.9451
 6429SOL    HW230747   1.652   2.558   0.192  3.1249 -1.6599 -1.2968
 6430SOL     OW30748   2.439   3.434   6.453  0.0096 -0.3170 -0.6897
 6430SOL    HW130749   2.436   3.339   6.459 -1.3878 -0.2120  0.2517
 6430SOL    HW230750   2.527   3.463   6.476 -0.1003  0.3763 -1.1405
 6431SOL     OW30751   3.894   0.287   6.174  0.0493  0.9253 -0.1115
 6431SOL    HW130752   3.904   0.347   6.248  0.6115  1.0006 -0.2549
 6431SOL    HW230753   3.970   0.307   6.120  0.8872  2.3556  1.6007
 6432SOL     OW30754   3.668   3.953  14.920  0.5652 -0.1671  1.0098
 6432SOL    HW130755   3.731   3.962  14.992 -0.6995 -1.0558  2.2264
 6432SOL    HW230756   3.716   3.898  14.858  0.1239  0.1580  0.3749
 6433SOL     OW30757   0.870   2.009   4.961  0.2735  0.0346 -0.0644
 6433SOL    HW130758   0.950   1.958   4.972  0.6980  0.9671  1.0979
 6433SOL    HW230759   0.830   1.949   4.898  0.5192  0.5883 -0.7548
 6434SOL     OW30760   1.732   3.025   7.527  0.4253 -0.0016  0.4993
 6434SOL    HW130761   1.709   2.933   7.543 -0.7168  0.4987  1.7105
 6434SOL    HW230762   1.670   3.065   7.587 -1.7407 -1.3420 -0.8368
 6435SOL     OW30763   4.564   2.977   8.172 -0.3396  0.0043 -0.3689
 6435SOL    HW130764   4.519   2.925   8.105 -0.1255 -0.8021  0.1188
 6435SOL    HW230765   4.651   2.955   8.138 -0.1936  1.2232 -0.7821
 6436SOL     OW30766   0.078   1.730   2.856  0.3022  0.2275  0.4748
 6436SOL    HW130767   0.058   1.686   2.774 -2.2175  0.8913  0.7113
 6436SOL    HW230768   0.071   1.649   2.905  1.5952  0.3517  0.8572
 6437SOL     OW30769   2.339   3.944   2.130  0.0617  0.4273 -0.0938
 6437SOL    HW130770   2.398   3.956   2.055  0.0911 -0.7695 -0.2726
 6437SOL    HW230771   2.255   3.977   2.101 -1.0876 -1.0457  1.5616
 6438SOL     OW30772   2.180   3.899   7.099  0.5063 -0.5009 -0.1378
 6438SOL    HW130773   2.085   3.906   7.095  0.5138 -0.3525 -0.0445
 6438SOL    HW230774   2.201   3.983   7.140 -1.2557  0.5889 -1.4632
 6439SOL     OW30775   2.187   3.271   4.698 -0.0573 -0.0460 -0.2131
 6439SOL    HW130776   2.099   3.251   4.665 -0.0132  1.5059 -1.3018
 6439SOL    HW230777   2.186   3.367   4.693  0.9686  0.0026  0.6715
 6440SOL     OW30778   0.536   3.354   8.609 -0.0304  0.3897 -0.4966
 6440SOL    HW130779   0.502   3.430   8.655  0.6768  0.4685 -0.1082
 6440SOL    HW230780   0.608   3.342   8.671  0.2948  0.5198 -0.8455
 6441SOL     OW30781   0.166   4.098   5.524 -0.0918  0.3929 -0.9356
 6441SOL    HW130782   0.116   4.178   5.540 -1.5170 -1.0102  1.6266
 6441SOL    HW230783   0.182   4.113   5.431  1.0332  0.6375 -0.6984
 6442SOL     OW30784   1.760   2.517   7.000 -0.0787 -0.8845 -0.2465
 6442SOL    HW130785   1.763   2.501   6.905  1.5487 -2.0122 -0.0193
 6442SOL    HW230786   1.794   2.607   7.002  2.1060 -1.6982 -0.1138
 6443SOL     OW30787   3.508   1.735  15.974 -0.8171 -0.8497  0.3012
 6443SOL    HW130788   3.571   1.731  15.901 -0.9489  0.2295  0.1360
 6443SOL    HW230789   3.495   1.829  15.970 -2.2049 -1.0899 -0.8621
 6444SOL     OW30790   1.634   1.709   3.813 -0.4780 -0.2525  0.4578
 6444SOL    HW130791   1.551   1.709   3.765 -0.2377  1.5115  0.0551
 6444SOL    HW230792   1.639   1.800   3.841 -2.9367  0.0959 -0.2318
 6445SOL     OW30793   2.106   0.440   1.589 -0.0426  0.3703 -0.6693
 6445SOL    HW130794   2.085   0.436   1.496 -1.6439  0.3321 -0.2989
 6445SOL    HW230795   2.023   0.478   1.617 -0.1585 -0.4487  0.1305
 6446SOL     OW30796   3.390   2.432   8.827 -0.2715 -0.2516  0.4357
 6446SOL    HW130797   3.439   2.354   8.799 -1.4923  0.0853 -2.6612
 6446SOL    HW230798   3.387   2.413   8.921  1.0434  0.1596  0.5589
 6447SOL     OW30799   0.614   0.127   5.257 -0.1618  0.2381  0.0268
 6447SOL    HW130800   0.663   0.134   5.175 -0.2404  2.7033  0.2023
 6447SOL    HW230801   0.591   0.218   5.274 -0.3723  0.3017 -0.5885
 6448SOL     OW30802   0.024   1.746   4.476 -0.2134 -0.3288  0.4277
 6448SOL    HW130803   0.061   1.673   4.526 -0.2496 -2.3953 -2.6039
 6448SOL    HW230804   4.653   1.727   4.478 -0.5203  0.8401 -2.4107
 6449SOL     OW30805   2.444   1.890   3.699 -0.0889  0.4346  0.2304
 6449SOL    HW130806   2.406   1.921   3.617  1.3277 -2.1891 -1.4052
 6449SOL    HW230807   2.374   1.902   3.764 -1.8471 -0.3880 -1.5131
 6450SOL     OW30808   0.593   2.224   8.755  0.4066 -0.3047  0.2318
 6450SOL    HW130809   0.542   2.211   8.835  1.2771 -0.0723  0.8151
 6450SOL    HW230810   0.528   2.256   8.692  1.1390  1.5653  0.4294
 6451SOL     OW30811   3.323   2.268  11.691 -0.5623 -0.2782  0.3471
 6451SOL    HW130812   3.301   2.177  11.713 -1.1866 -0.6824 -2.0155
 6451SOL    HW230813   3.416   2.270  11.713 -0.4100  3.0511 -0.6013
 6452SOL     OW30814   2.602   1.320   2.100 -0.0128 -0.3010 -0.1355
 6452SOL    HW130815   2.512   1.292   2.086  0.3094 -1.9290  1.1279
 6452SOL    HW230816   2.605   1.414   2.080 -0.3467 -0.7572 -2.3178
 6453SOL     OW30817   1.964   2.122   7.467  0.4870 -0.0900 -0.2117
 6453SOL    HW130818   2.049   2.096   7.504  0.6477  0.7830  0.0463
 6453SOL    HW230819   1.971   2.079   7.381  0.2440  1.0456 -0.7966
 6454SOL     OW30820   3.843   3.668  12.116 -0.4472 -0.0168 -0.0228
 6454SOL    HW130821   3.755   3.651  12.081 -0.8021 -0.2551  0.9774
 6454SOL    HW230822   3.839   3.616  12.197  2.7592 -1.2428 -0.6375
 6455SOL     OW30823   2.100   0.899  13.446 -0.1262 -0.3979 -0.3059
 6455SOL    HW130824   2.042   0.875  13.518 -1.1086 -0.8986 -1.2734
 6455SOL    HW230825   2.093   0.825  13.386  0.9750 -0.5218 -0.2934
 6456SOL     OW30826   2.024   2.761   1.996 -0.1399  0.3617  0.2926
 6456SOL    HW130827   2.118   2.775   2.007 -0.0772 -0.9523  1.2635
 6456SOL    HW230828   1.977   2.843   2.014  1.3519  0.5853  3.1148
 6457SOL     OW30829   3.521   3.927   2.822 -0.0340 -0.0963  0.1095
 6457SOL    HW130830   3.579   3.945   2.747 -1.0127  1.9534 -0.1560
 6457SOL    HW230831   3.583   3.908   2.892  0.4012 -1.0783 -0.5318
 6458SOL     OW30832   2.378   1.737   3.061 -0.4525  0.2471 -0.0285
 6458SOL    HW130833   2.344   1.654   3.028  0.0750  1.2971 -3.1881
 6458SOL    HW230834   2.371   1.726   3.156  2.5755 -2.6405 -0.1038
 6459SOL     OW30835   0.386   4.495  12.936  0.0267  0.3104 -0.1071
 6459SOL    HW130836   0.448   4.550  12.888 -0.8960  0.1151 -1.5374
 6459SOL    HW230837   0.420   4.412  12.902 -1.4489 -0.0501 -0.7190
 6460SOL     OW30838   0.972   1.561   9.749  0.5143  0.0445 -0.1275
 6460SOL    HW130839   1.049   1.531   9.701 -0.5220 -0.1072 -1.6734
 6460SOL    HW230840   0.964   1.497   9.820  1.8899 -0.6602 -0.6047
 6461SOL     OW30841   0.517   4.011   0.153 -0.1721  0.2817 -0.1930
 6461SOL    HW130842   0.474   3.936   0.112 -1.0199 -0.6110  2.3193
 6461SOL    HW230843   0.454   4.083   0.156 -1.2387 -0.6097 -1.6644
 6462SOL     OW30844   4.487   1.576  13.522 -0.4733 -0.7638  0.0786
 6462SOL    HW130845   4.513   1.635  13.452  1.6537 -0.6418  0.9945
 6462SOL    HW230846   4.559   1.569  13.584 -0.4005  0.3948  0.1071
 6463SOL     OW30847   3.186   3.493   7.934 -0.2585 -0.0130  0.3125
 6463SOL    HW130848   3.117   3.552   7.906  0.5169  0.8535  0.2247
 6463SOL    HW230849   3.245   3.549   7.985 -0.1092 -1.1644  1.3846
 6464SOL     OW30850   1.608   4.455   3.139 -0.1159 -0.2700  0.2939
 6464SOL    HW130851   1.639   4.366   3.158  2.5763  0.5764 -0.0441
 6464SOL    HW230852   1.674   4.515   3.103 -0.6245  1.9997  3.0780
 6465SOL     OW30853   3.454   1.981  15.357 -0.5384  0.1568 -0.0908
 6465SOL    HW130854   3.535   1.943  15.391  0.6676  0.1773 -2.9745
 6465SOL    HW230855   3.388   1.919  15.386  0.8946 -1.2835  0.0730
 6466SOL     OW30856   1.441   4.006   0.559  0.1482 -0.1169 -0.1710
 6466SOL    HW130857   1.403   3.919   0.571  1.7323 -0.5110  2.0609
 6466SOL    HW230858   1.358   4.048   0.536  0.0749 -0.4644 -0.5408
 6467SOL     OW30859   0.914   1.115   1.231  0.1794 -0.2107  0.2844
 6467SOL    HW130860   0.888   1.142   1.319  2.2226  1.0121  0.5194
 6467SOL    HW230861   0.921   1.194   1.177 -0.1490  0.2409  0.9149
 6468SOL     OW30862   1.980   3.239   2.382  0.9651  0.4535  0.6661
 6468SOL    HW130863   2.046   3.193   2.331  2.2263  1.1177  1.7194
 6468SOL    HW230864   1.908   3.220   2.322  2.5169  2.4767 -1.8196
 6469SOL     OW30865   2.780   4.365   3.894 -0.7509  0.0359  0.0714
 6469SOL    HW130866   2.685   4.376   3.899 -0.7784 -0.7892  1.1460
 6469SOL    HW230867   2.782   4.288   3.838  1.1836 -0.0616  0.2874
 6470SOL     OW30868   4.163   3.587   5.849  0.1732 -0.1393 -0.9297
 6470SOL    HW130869   4.172   3.644   5.772 -0.1272 -2.7403 -2.8701
 6470SOL    HW230870   4.091   3.637   5.888  1.1063  1.0044 -0.6359
 6471SOL     OW30871   4.426   4.653   2.143  0.1678  0.7250 -0.0618
 6471SOL    HW130872   4.466   4.717   2.203 -1.7626  1.0822  0.8336
 6471SOL    HW230873   4.454   4.697   2.062  0.3853 -0.7825 -0.8008
 6472SOL     OW30874   2.542   4.141   3.426  0.1379  0.2253  0.5787
 6472SOL    HW130875   2.608   4.209   3.435  1.4429 -0.8026 -1.2349
 6472SOL    HW230876   2.521   4.137   3.332 -0.8839 -1.9429  0.8881
 6473SOL     OW30877   0.608   1.637  11.705  0.3289 -0.0178  0.4261
 6473SOL    HW130878   0.542   1.572  11.729  0.8524 -0.1453  1.5422
 6473SOL    HW230879   0.681   1.615  11.763  0.5446 -0.6247 -0.0725
 6474SOL     OW30880   3.111   4.636   8.402  0.0347 -0.4837  0.2428
 6474SOL    HW130881   3.184   4.677   8.355 -0.8306  3.6437  2.5741
 6474SOL    HW230882   3.070   4.580   8.335  0.8246  1.7279 -2.1022
 6475SOL     OW30883   2.731   3.489  17.424 -0.4130 -0.0869  0.0447
 6475SOL    HW130884   2.724   3.570  17.372 -1.4521 -0.4942 -0.4570
 6475SOL    HW230885   2.653   3.447  17.388  0.5153  0.9536 -3.2212
 6476SOL     OW30886   4.362   3.284   0.262 -0.2168  0.1004  0.1318
 6476SOL    HW130887   4.378   3.191   0.246 -1.4400  0.3840 -2.7519
 6476SOL    HW230888   4.393   3.332   0.184 -1.0798  1.6284  0.7196
 6477SOL     OW30889   3.362   1.931   8.080 -0.0737  0.4877  0.2122
 6477SOL    HW130890   3.380   1.886   8.163 -0.6352 -0.9047 -0.4243
 6477SOL    HW230891   3.370   2.024   8.100 -0.9534  0.8904 -1.3424
 6478SOL     OW30892   1.317   3.518  10.194 -0.4538  0.1523 -0.0589
 6478SOL    HW130893   1.311   3.423  10.198  0.6182  0.1645  2.2520
 6478SOL    HW230894   1.295   3.531  10.102  2.2286 -2.2307 -1.0656
 6479SOL     OW30895   4.469   4.713   7.927  0.2540 -0.1062 -0.7064
 6479SOL    HW130896   4.481   4.625   7.963  0.7673 -0.3967 -1.5724
 6479SOL    HW230897   4.513   0.040   7.996 -0.3696  0.3687 -0.6441
 6480SOL     OW30898   2.296   1.378  14.930 -0.0046 -0.4693  0.0800
 6480SOL    HW130899   2.276   1.448  14.993  1.1042  0.8041 -0.9627
 6480SOL    HW230900   2.276   1.300  14.981  0.9006  0.1940  1.4776
 6481SOL     OW30901   0.241   1.343   2.151 -0.6704  0.5704 -0.0545
 6481SOL    HW130902   0.328   1.351   2.192 -0.3983  1.7136 -0.8593
 6481SOL    HW230903   0.236   1.421   2.096 -0.8719  0.4194 -0.2485
 6482SOL     OW30904   4.641   1.204   7.069 -0.5885 -0.3015 -0.2329
 6482SOL    HW130905   4.626   1.120   7.027  0.7193 -0.7832  0.2726
 6482SOL    HW230906   4.652   1.260   6.992 -1.1049  0.1985  0.0569
 6483SOL     OW30907   3.859   1.611   7.908  0.0513 -0.0206  0.6214
 6483SOL    HW130908   3.838   1.550   7.978  0.0563  0.7599  1.3026
 6483SOL    HW230909   3.831   1.561   7.831  1.4566  0.3329 -0.1353
 6484SOL     OW30910   0.018   4.677   0.442 -0.6487  0.1468  0.1619
 6484SOL    HW130911   0.058   4.626   0.372 -0.0581 -1.5742  1.7684
 6484SOL    HW230912   4.720   4.604   0.500 -0.2185 -1.0725 -1.2001
 6485SOL     OW30913   2.813   2.918  15.163  0.7629 -0.1241 -0.2566
 6485SOL    HW130914   2.827   2.994  15.219  2.2289 -1.1027  0.6958
 6485SOL    HW230915   2.721   2.929  15.139  0.4199  1.0369  1.5687
 6486SOL     OW30916   3.027   3.083   5.090 -0.2394  0.9537 -0.1694
 6486SOL    HW130917   2.959   3.144   5.061  0.3284  1.3751 -0.5974
 6486SOL    HW230918   3.008   3.021   5.020 -0.4682 -0.7567  1.4111
 6487SOL     OW30919   2.254   2.454   4.933 -0.1771  0.1200  0.1099
 6487SOL    HW130920   2.211   2.529   4.973 -0.7417  0.6399 -1.4406
 6487SOL    HW230921   2.238   2.374   4.982  1.6282 -0.3485 -0.0828
 6488SOL     OW30922   1.361   2.767   8.012 -0.6874  0.1901  0.0538
 6488SOL    HW130923   1.429   2.792   8.075  0.6311 -1.0164 -0.9120
 6488SOL    HW230924   1.297   2.838   8.016 -0.9344 -0.0957  1.2823
 6489SOL     OW30925   1.794   2.821   2.985  0.0851  0.2340  0.2406
 6489SOL    HW130926   1.821   2.807   2.894 -2.2122 -1.8694 -0.1068
 6489SOL    HW230927   1.782   2.916   2.974 -1.0148  0.0101 -0.5384
 6490SOL     OW30928   3.693   4.467   3.856 -0.1865  0.1061  0.2006
 6490SOL    HW130929   3.728   4.455   3.767 -0.4254  3.4842 -0.3679
 6490SOL    HW230930   3.652   4.383   3.877  1.1206  0.0391  2.5002
 6491SOL     OW30931   0.255   0.218   3.954 -0.0624 -0.0068  0.0333
 6491SOL    HW130932   0.280   0.126   3.966 -0.6123 -0.0975  0.4445
 6491SOL    HW230933   0.162   0.209   3.938 -0.9026  3.4603  3.0718
 6492SOL     OW30934   1.471   2.371   8.194 -0.2428  0.5293  0.0794
 6492SOL    HW130935   1.476   2.330   8.108 -0.9619 -0.9827  0.7623
 6492SOL    HW230936   1.383   2.348   8.226  0.4429 -2.1598 -0.0197
 6493SOL     OW30937   2.762   3.358  13.081 -0.5462 -0.1584 -0.1542
 6493SOL    HW130938   2.851   3.393  13.076 -1.1340  1.3808  0.1656
 6493SOL    HW230939   2.707   3.430  13.112 -0.8531 -0.0903 -0.8490
 6494SOL     OW30940   1.222   0.134   1.278 -0.1392  0.2463 -0.4100
 6494SOL    HW130941   1.272   0.059   1.246  1.4691  1.0241  0.3038
 6494SOL    HW230942   1.128   0.113   1.276 -0.1350  0.1123  0.9757
 6495SOL     OW30943   3.050   1.674   7.346 -0.2203 -0.5998 -0.1607
 6495SOL    HW130944   3.117   1.716   7.400  1.0029 -1.0636 -1.3215
 6495SOL    HW230945   3.045   1.723   7.265  1.5505 -0.5164 -0.2139
 6496SOL     OW30946   4.403   0.735   4.600 -0.0420 -0.4694 -0.0944
 6496SOL    HW130947   4.312   0.718   4.573  0.0413  0.2123 -0.7906
 6496SOL    HW230948   4.441   0.777   4.523 -0.0364 -0.3535 -0.0284
 6497SOL     OW30949   4.473   3.992   8.291  0.1079  0.2575 -0.3137
 6497SOL    HW130950   4.401   3.963   8.235  1.4706 -1.3096 -1.2508
 6497SOL    HW230951   4.540   3.933   8.256  2.1761  2.0285  0.6612
 6498SOL     OW30952   3.375   0.489  13.167 -0.0391  0.2580  0.3923
 6498SOL    HW130953   3.353   0.417  13.108  2.5653 -0.4517  0.2788
 6498SOL    HW230954   3.404   0.554  13.103 -0.6835 -0.9148 -1.0771
 6499SOL     OW30955   4.096   4.696   6.970 -0.2231 -0.3115  0.1203
 6499SOL    HW130956   4.180   0.009   6.998 -0.4662  1.0454 -0.8984
 6499SOL    HW230957   4.064   0.043   6.912  2.1798 -0.5096 -1.4092
 6500SOL     OW30958   3.708   3.129   3.057 -0.7377 -0.2517 -1.0985
 6500SOL    HW130959   3.650   3.136   3.133  2.6711 -1.8023  1.6206
 6500SOL    HW230960   3.757   3.048   3.067 -1.9612 -0.8469  0.0773
 6501SOL     OW30961   3.279   0.280  10.023  0.1411 -0.0815  0.0415
 6501SOL    HW130962   3.288   0.248   9.933 -1.4621 -1.1764  0.2931
 6501SOL    HW230963   3.301   0.371   9.999  1.1611 -0.0155  1.2261
 6502SOL     OW30964   3.319   2.182  10.497  0.4979 -0.1693  0.6895
 6502SOL    HW130965   3.238   2.151  10.456 -0.0572  1.0467  0.8749
 6502SOL    HW230966   3.365   2.098  10.487  0.3800 -0.3113  1.3599
 6503SOL     OW30967   3.517   0.433  13.972 -0.3076 -0.1160  0.3381
 6503SOL    HW130968   3.427   0.415  14.000 -0.5323  0.8774  0.2715
 6503SOL    HW230969   3.504   0.482  13.891 -1.6092  0.5132  0.9241
 6504SOL     OW30970   3.023   1.336   7.116 -0.2364  0.6407  0.5085
 6504SOL    HW130971   3.113   1.369   7.112 -0.0661  0.2374  1.0405
 6504SOL    HW230972   2.994   1.346   7.026  0.1729  1.1692  0.4319
 6505SOL     OW30973   3.569   0.595   7.457 -0.1556  0.1936 -0.1171
 6505SOL    HW130974   3.638   0.532   7.478 -1.5855 -1.7456 -1.1462
 6505SOL    HW230975   3.616   0.678   7.451 -1.1313  0.7216 -0.5024
 6506SOL     OW30976   0.299   0.422  15.025  0.1252  0.1828 -0.4344
 6506SOL    HW130977   0.316   0.333  14.994  0.9199 -0.0894  0.7895
 6506SOL    HW230978   0.248   0.401  15.103 -0.0160 -0.5627 -0.7223
 6507SOL     OW30979   1.472   2.717  17.495 -0.1022  0.3936 -0.1294
 6507SOL    HW130980   1.494   2.625  17.490  0.2439  0.4697  0.0084
 6507SOL    HW230981   1.413   2.733  17.421  0.3185 -4.7038 -1.5389
 6508SOL     OW30982   2.527   2.937   1.745 -0.4411 -0.0923 -0.2894
 6508SOL    HW130983   2.620   2.913   1.745 -0.4466 -0.1171 -0.0865
 6508SOL    HW230984   2.523   2.996   1.670  1.3250 -0.4281 -0.6409
 6509SOL     OW30985   0.999   4.244   8.884  0.1469 -0.0049  0.5600
 6509SOL    HW130986   1.049   4.171   8.848 -0.6574 -0.2519 -0.0619
 6509SOL    HW230987   1.034   4.232   8.972 -0.9213 -2.8423  0.5678
 6510SOL     OW30988   3.062   4.343   5.121  0.0622  0.7239 -0.3611
 6510SOL    HW130989   2.972   4.343   5.152  0.9640 -0.6120  2.2538
 6510SOL    HW230990   3.094   4.426   5.158 -1.5846  0.9217  0.6246
 6511SOL     OW30991   4.502   0.897   9.142 -0.3028 -0.7892  0.2101
 6511SOL    HW130992   4.559   0.910   9.217 -0.0738 -0.5973  0.0019
 6511SOL    HW230993   4.432   0.961   9.154 -0.5349 -1.0340  0.1668
 6512SOL     OW30994   2.030   1.874   5.439 -0.2100 -0.6744 -0.0681
 6512SOL    HW130995   2.021   1.779   5.447  2.9899 -0.7346  2.8557
 6512SOL    HW230996   2.092   1.880   5.367  1.5888 -0.3872  1.5070
 6513SOL     OW30997   3.845   1.348  13.403 -0.2315  0.0037  0.3283
 6513SOL    HW130998   3.786   1.272  13.408  0.5615 -0.6497 -0.2445
 6513SOL    HW230999   3.928   1.302  13.409 -0.6459 -0.6124  1.3216
 6514SOL     OW31000   2.321   3.772   4.438  0.1484 -0.0098 -0.5833
 6514SOL    HW131001   2.362   3.686   4.432  0.4738  0.1847 -1.1424
 6514SOL    HW231002   2.344   3.802   4.350  1.6940 -0.6503 -0.3912
 6515SOL     OW31003   4.440   4.315   3.637  0.0794  0.2952 -0.3774
 6515SOL    HW131004   4.503   4.380   3.605  0.7380 -0.2444 -0.1687
 6515SOL    HW231005   4.462   4.319   3.730  0.8905  0.4240 -0.5809
 6516SOL     OW31006   4.243   1.133   0.740 -0.1577 -0.3416  0.3237
 6516SOL    HW131007   4.309   1.125   0.672 -0.4287 -0.7347  0.1100
 6516SOL    HW231008   4.183   1.194   0.696 -1.2176 -2.0661 -0.6231
 6517SOL     OW31009   1.452   1.822   7.792 -0.1303 -0.0154 -0.0922
 6517SOL    HW131010   1.538   1.788   7.816 -0.1622  0.0312  0.0859
 6517SOL    HW231011   1.391   1.752   7.817  1.1542 -0.6754  1.1680
 6518SOL     OW31012   2.087   4.691   3.061 -0.0417 -0.1587 -0.2209
 6518SOL    HW131013   2.067   4.626   2.994 -0.3021  0.4380 -0.7254
 6518SOL    HW231014   2.135   0.033   3.009 -1.5437 -1.6110 -3.4460
 6519SOL     OW31015   3.730   1.075   3.874 -0.1651 -0.3353 -0.0662
 6519SOL    HW131016   3.756   1.049   3.962  1.5217 -1.9999 -1.0323
 6519SOL    HW231017   3.661   1.010   3.857  0.9412 -2.1970  2.5981
 6520SOL     OW31018   4.478   3.638   0.471 -0.4213  0.6373  0.2817
 6520SOL    HW131019   4.387   3.658   0.449 -0.1394 -0.1957 -1.5996
 6520SOL    HW231020   4.479   3.655   0.565  0.9715  0.4658  0.2969
 6521SOL     OW31021   3.932   2.496   3.452  0.0539  0.4453  0.4927
 6521SOL    HW131022   4.003   2.496   3.388 -0.4057 -3.3761  0.0063
 6521SOL    HW231023   3.867   2.550   3.408  0.4795  1.7574  1.4301
 6522SOL     OW31024   3.037   3.269   4.603  0.1181 -0.0483 -0.2499
 6522SOL    HW131025   3.107   3.334   4.601  0.9110 -0.8503  1.5331
 6522SOL    HW231026   3.037   3.240   4.512 -0.1576 -1.3807  0.1738
 6523SOL     OW31027   1.506   2.535  13.101 -0.0636 -0.2113  0.4995
 6523SOL    HW131028   1.557   2.615  13.093  1.0184 -1.1076 -1.5880
 6523SOL    HW231029   1.552   2.465  13.055  3.2211  0.6636  2.4963
 6524SOL     OW31030   3.999   2.164   0.407 -0.2713  0.1290 -0.3211
 6524SOL    HW131031   3.980   2.074   0.431 -3.4968  1.4978  2.2501
 6524SOL    HW231032   4.073   2.160   0.347  0.6453  0.4851  0.7785
 6525SOL     OW31033   2.309   3.206   7.372  0.1449  0.1105  0.2617
 6525SOL    HW131034   2.213   3.201   7.369  0.0094  1.8608  1.6548
 6525SOL    HW231035   2.325   3.284   7.426  0.2694  0.0606  0.2974
 6526SOL     OW31036   0.731   3.392   6.160 -0.2464 -0.1845 -0.9604
 6526SOL    HW131037   0.738   3.486   6.175 -0.4121 -0.5497  1.4705
 6526SOL    HW231038   0.649   3.368   6.203 -0.9284  1.8825 -1.1151
 6527SOL     OW31039   1.194   4.518   2.619 -0.5517 -0.0187 -0.3496
 6527SOL    HW131040   1.140   4.569   2.558 -1.7113 -0.3478  0.3905
 6527SOL    HW231041   1.125   4.502   2.684 -0.2686 -2.5924 -0.7112
 6528SOL     OW31042   3.896   1.259  14.291 -0.5344  0.0570 -0.3130
 6528SOL    HW131043   3.933   1.341  14.324 -0.3645 -0.3412  0.4889
 6528SOL    HW231044   3.876   1.216  14.374  3.8038 -2.1534 -0.4184
 6529SOL     OW31045   2.342   0.785   8.411 -0.3027 -0.0428  0.3361
 6529SOL    HW131046   2.292   0.865   8.429  1.2728  1.6544 -3.0146
 6529SOL    HW231047   2.292   0.760   8.334  2.5876  0.8055 -1.7984
 6530SOL     OW31048   2.374   4.049   3.050  0.2380 -1.0753 -0.0190
 6530SOL    HW131049   2.323   4.046   2.969 -1.0311 -1.5767  0.8068
 6530SOL    HW231050   2.367   3.960   3.085  0.1310 -0.9504  0.2720
 6531SOL     OW31051   1.620   0.560  15.709  0.4670 -0.1344  0.1375
 6531SOL    HW131052   1.542   0.599  15.750  1.2526 -0.1104  1.6279
 6531SOL    HW231053   1.639   0.476  15.750  0.3653 -0.1804  0.0897
 6532SOL     OW31054   3.075   1.869   3.479 -0.2925  0.5827 -1.2148
 6532SOL    HW131055   3.127   1.788   3.481 -0.6897  0.3174 -1.7493
 6532SOL    HW231056   3.063   1.892   3.386  0.7137  0.7293 -1.3120
 6533SOL     OW31057   1.692   2.244   5.217  0.5680  0.1508  0.5755
 6533SOL    HW131058   1.701   2.191   5.296  0.7622 -2.8701 -1.4549
 6533SOL    HW231059   1.785   2.244   5.192  0.6246 -2.8373  0.7767
 6534SOL     OW31060   2.674   0.271  14.920  0.8385 -0.6133 -0.4367
 6534SOL    HW131061   2.748   0.212  14.936 -0.1827 -1.0272  2.6686
 6534SOL    HW231062   2.626   0.207  14.868  2.3051 -1.5889 -0.6149
 6535SOL     OW31063   1.393   4.029   5.327 -0.0115 -0.5089 -0.3762
 6535SOL    HW131064   1.481   4.001   5.304  1.1007  1.5633  1.3230
 6535SOL    HW231065   1.382   4.110   5.277  1.0973 -0.2735 -0.2258
 6536SOL     OW31066   1.660   0.109   5.766  0.3883 -0.1349  0.5543
 6536SOL    HW131067   1.713   0.047   5.717 -1.3633 -0.2283 -1.2586
 6536SOL    HW231068   1.582   0.054   5.776 -1.2964  2.1933  0.3951
 6537SOL     OW31069   1.214   3.901   7.137  0.2298 -0.1094 -0.2477
 6537SOL    HW131070   1.278   3.943   7.079 -0.8071  0.9896 -0.6016
 6537SOL    HW231071   1.134   3.939   7.100  1.0644 -0.2368 -2.1753
 6538SOL     OW31072   3.006   1.949  15.513  0.1471 -0.6016  0.7378
 6538SOL    HW131073   3.008   2.044  15.501 -0.2086 -0.7656 -0.6151
 6538SOL    HW231074   2.951   1.918  15.440  1.6538 -1.7117  0.0860
 6539SOL     OW31075   0.685   2.416   7.806  0.7659 -0.7923  0.1105
 6539SOL    HW131076   0.674   2.331   7.763 -0.4633 -0.6527  0.1470
 6539SOL    HW231077   0.730   2.397   7.888  0.9806  0.7086  0.3332
 6540SOL     OW31078   2.115   3.102   8.618 -0.3315  0.6802 -0.3707
 6540SOL    HW131079   2.148   3.133   8.534 -1.5482  1.1349 -0.6760
 6540SOL    HW231080   2.023   3.088   8.594  0.8164 -0.3101 -4.2337
 6541SOL     OW31081   1.350   1.570   9.156  0.4355 -0.6339 -0.4872
 6541SOL    HW131082   1.336   1.601   9.245 -1.2820 -0.4384 -0.8220
 6541SOL    HW231083   1.432   1.524   9.173  1.4316  1.0496 -0.7134
 6542SOL     OW31084   0.640   0.854  11.148  0.4445  0.5296 -0.3984
 6542SOL    HW131085   0.727   0.864  11.185  0.8334 -1.5983 -0.7448
 6542SOL    HW231086   0.660   0.859  11.054 -0.1243 -0.2485 -0.5620
 6543SOL     OW31087   0.923   1.937   5.342 -0.9235 -0.2574 -0.0820
 6543SOL    HW131088   0.917   2.009   5.278 -1.3891  2.6185  3.1915
 6543SOL    HW231089   0.832   1.916   5.363 -1.2529  1.5505  0.2947
 6544SOL     OW31090   3.866   4.719   4.149 -0.1901  0.0968 -0.1484
 6544SOL    HW131091   3.942   0.020   4.203  0.1993 -3.8814  1.0585
 6544SOL    HW231092   3.858   0.085   4.113  1.1884  0.1473 -0.3129
 6545SOL     OW31093   1.736   4.390   8.786  0.7352  0.1142 -0.4908
 6545SOL    HW131094   1.776   4.368   8.870 -0.7015 -0.2703  0.0963
 6545SOL    HW231095   1.767   4.317   8.733 -1.8854  0.7605 -2.9327
 6546SOL     OW31096   1.417   0.240   3.919  0.0150  0.5953  0.2498
 6546SOL    HW131097   1.395   0.333   3.930  2.4554  1.1870  0.3042
 6546SOL    HW231098   1.495   0.229   3.974 -0.4355 -1.1811  0.5228
 6547SOL     OW31099   0.060   1.462  15.262 -0.3334 -0.2025 -0.6263
 6547SOL    HW131100   0.092   1.396  15.201 -0.6175 -2.3446  1.5385
 6547SOL    HW231101   0.089   1.435  15.349 -1.4571 -3.4152 -1.2681
 6548SOL     OW31102   4.506   0.093   3.803  0.2800 -0.1076 -0.4751
 6548SOL    HW131103   4.490   0.041   3.724 -0.5138  1.6738 -1.4762
 6548SOL    HW231104   4.423   0.140   3.810  0.2105  0.0809 -2.5161
 6549SOL     OW31105   1.289   3.744   2.730  0.8360 -0.8798 -0.7274
 6549SOL    HW131106   1.300   3.829   2.773  0.7891 -1.4470  0.3968
 6549SOL    HW231107   1.316   3.766   2.641  1.0204  2.2432  0.0971
 6550SOL     OW31108   1.669   2.141   6.403  0.0382 -0.1976 -0.1167
 6550SOL    HW131109   1.603   2.083   6.441  0.0407  0.7834  1.3560
 6550SOL    HW231110   1.620   2.167   6.325  1.5322  2.9292  0.0010
 6551SOL     OW31111   4.168   0.607   6.513  0.3551 -0.3368  0.8273
 6551SOL    HW131112   4.168   0.703   6.515 -0.9563 -0.3543  1.4245
 6551SOL    HW231113   4.262   0.591   6.508  0.7024  1.7927  0.4099
 6552SOL     OW31114   0.516   0.572   2.479  0.4469 -0.1515  0.0293
 6552SOL    HW131115   0.457   0.599   2.409 -2.3122 -1.6709  1.7442
 6552SOL    HW231116   0.453   0.522   2.531  1.8238 -0.1532  1.7150
 6553SOL     OW31117   0.261   4.683   1.908  0.0438 -0.4028 -0.0367
 6553SOL    HW131118   0.174   4.707   1.875 -0.3288 -0.5604  0.8610
 6553SOL    HW231119   0.313   0.031   1.869 -0.7872  1.2909  1.9301
 6554SOL     OW31120   0.812   1.065  14.780 -0.1723  0.4807 -0.3396
 6554SOL    HW131121   0.810   0.973  14.754  1.2422  0.5686 -0.7560
 6554SOL    HW231122   0.836   1.110  14.699 -1.5686 -1.4264 -1.8160
 6555SOL     OW31123   4.186   0.748   5.576 -0.0395 -0.2190  0.1162
 6555SOL    HW131124   4.236   0.677   5.616 -1.7675 -1.8467 -0.6247
 6555SOL    HW231125   4.189   0.712   5.487  0.4743 -0.7551  0.3480
 6556SOL     OW31126   3.471   0.470   5.829 -0.2568 -0.3750  0.3810
 6556SOL    HW131127   3.402   0.476   5.763 -0.8019  0.2601  1.0025
 6556SOL    HW231128   3.427   0.420   5.898 -0.3491  0.0697  0.6455
 6557SOL     OW31129   2.317   2.468   9.237 -0.4260  0.2404  0.0791
 6557SOL    HW131130   2.226   2.482   9.212  0.2422 -0.4183 -2.6515
 6557SOL    HW231131   2.346   2.424   9.158  1.1029  1.1936  0.0938
 6558SOL     OW31132   0.899   0.339   5.033 -0.1510 -0.2314  0.0792
 6558SOL    HW131133   0.952   0.268   4.996 -1.6662 -1.1350 -0.3857
 6558SOL    HW231134   0.872   0.393   4.959  0.4633 -0.1947 -0.1160
 6559SOL     OW31135   0.335   1.052   1.800 -0.3566 -0.1191 -0.3998
 6559SOL    HW131136   0.378   1.070   1.717  1.3380  0.8913  0.6767
 6559SOL    HW231137   0.412   1.033   1.855  0.2608  1.6439 -0.6455
 6560SOL     OW31138   2.822   1.988   3.588 -0.3898  0.3675  0.1755
 6560SOL    HW131139   2.914   1.965   3.579 -0.2332 -0.0078  2.6149
 6560SOL    HW231140   2.777   1.904   3.603 -0.1395  0.2440  0.2358
 6561SOL     OW31141   3.923   4.598   1.580  0.3797  0.3247  0.5815
 6561SOL    HW131142   3.943   4.513   1.542 -0.6556  0.9967 -1.5062
 6561SOL    HW231143   3.866   4.578   1.653 -0.6220 -0.2721 -0.3691
 6562SOL     OW31144   4.108   2.547   7.345 -0.1509 -0.1058 -0.2100
 6562SOL    HW131145   4.141   2.474   7.397  1.7790  0.9696  0.0598
 6562SOL    HW231146   4.125   2.622   7.401 -1.0631  0.4721 -0.7037
 6563SOL     OW31147   2.783   1.164   2.228  0.2682  0.2094  0.7789
 6563SOL    HW131148   2.725   1.222   2.179  3.4048  1.9213 -0.9279
 6563SOL    HW231149   2.743   1.167   2.314  0.2687  0.7155  0.7626
 6564SOL     OW31150   1.399   3.290   9.462  0.6863 -0.4721  0.3795
 6564SOL    HW131151   1.398   3.208   9.413  0.5108 -0.3245  0.1383
 6564SOL    HW231152   1.444   3.349   9.402  0.7908 -0.3815  0.5443
 6565SOL     OW31153   4.541   0.845  12.514 -0.3778  0.0552  0.0203
 6565SOL    HW131154   4.529   0.867  12.606  1.0563  2.4069 -0.3464
 6565SOL    HW231155   4.591   0.763  12.514  0.5807  0.6372  0.4388
 6566SOL     OW31156   0.251   0.278   9.349 -0.1423 -0.7095 -0.3837
 6566SOL    HW131157   0.167   0.278   9.395  0.5732 -1.7041  0.9193
 6566SOL    HW231158   0.260   0.184   9.334 -1.3511 -1.2036  1.8503
 6567SOL     OW31159   0.530   3.538   6.835 -0.2295 -0.0491  0.0611
 6567SOL    HW131160   0.435   3.544   6.826 -0.1947 -0.7544 -0.7751
 6567SOL    HW231161   0.559   3.568   6.749 -0.1279 -0.7456 -0.1480
 6568SOL     OW31162   0.120   3.546   4.431 -0.5533  0.0509  0.4295
 6568SOL    HW131163   0.136   3.459   4.394  3.1558  1.5214 -1.4335
 6568SOL    HW231164   0.202   3.544   4.481 -0.7023 -0.5748  0.6532
 6569SOL     OW31165   2.391   4.484   3.398  0.2487 -0.3911  0.1658
 6569SOL    HW131166   2.362   4.426   3.328  2.3627 -0.7548 -0.3956
 6569SOL    HW231167   2.471   4.513   3.356 -0.6237  0.1998 -1.0987
 6570SOL     OW31168   0.960   0.007  11.125 -0.0827 -0.3037 -0.0911
 6570SOL    HW131169   0.972   0.030  11.032 -2.5369 -0.5946 -0.4869
 6570SOL    HW231170   1.051   0.006  11.153 -0.0820  0.1993 -0.0783
 6571SOL     OW31171   0.400   2.741   6.803 -0.0713  0.0729 -1.1414
 6571SOL    HW131172   0.432   2.688   6.730  0.0397 -0.4343 -0.7288
 6571SOL    HW231173   0.339   2.798   6.756 -0.6102 -0.7288 -1.4215
 6572SOL     OW31174   3.310   3.054   4.870  0.1296  0.0455  0.2035
 6572SOL    HW131175   3.401   3.082   4.881  0.2844 -0.6613  0.7329
 6572SOL    HW231176   3.307   3.015   4.783  0.7717 -1.6723  0.9443
 6573SOL     OW31177   4.312   0.256   9.605  0.5567  0.5117  0.4312
 6573SOL    HW131178   4.384   0.308   9.567  1.0091  0.3282  1.0322
 6573SOL    HW231179   4.266   0.260   9.521  0.5667 -0.0861  0.3979
 6574SOL     OW31180   0.520   1.774   6.585 -0.1369 -0.1655 -0.0538
 6574SOL    HW131181   0.520   1.856   6.635 -0.9839 -0.9046  1.1604
 6574SOL    HW231182   0.584   1.768   6.515 -1.7687 -1.2215 -1.4434
 6575SOL     OW31183   2.076   3.824   6.479 -0.2340  0.7538 -0.1739
 6575SOL    HW131184   2.079   3.771   6.399 -0.9188  0.8743 -0.2812
 6575SOL    HW231185   2.166   3.820   6.509 -0.0317  0.6933 -0.7806
 6576SOL     OW31186   3.941   3.116   9.202  0.7478  0.2905  0.1468
 6576SOL    HW131187   3.861   3.168   9.200  0.3692 -0.2808  0.2933
 6576SOL    HW231188   3.912   3.044   9.259  0.3416  1.6873  1.6845
 6577SOL     OW31189   4.094   0.795   7.725  0.2110  0.0535 -0.0371
 6577SOL    HW131190   4.117   0.859   7.793 -1.2958  1.6441 -1.0288
 6577SOL    HW231191   4.002   0.817   7.713 -0.2219 -2.0938 -0.6662
 6578SOL     OW31192   2.111   2.809   0.049 -0.3110 -0.4049  0.2095
 6578SOL    HW131193   2.161   2.831   0.127  2.3258  2.2499 -2.2141
 6578SOL    HW231194   2.175   2.807  17.670 -0.0425  0.5652  0.4247
 6579SOL     OW31195   1.191   3.552   3.932 -0.2971  0.0688 -0.3474
 6579SOL    HW131196   1.156   3.588   4.013  0.0428 -2.7091  1.0028
 6579SOL    HW231197   1.107   3.536   3.888 -0.2295 -1.7327  0.1879
 6580SOL     OW31198   2.191   2.398   3.088 -0.0160  0.0860 -0.2482
 6580SOL    HW131199   2.259   2.339   3.120 -0.7244  0.0054  1.1286
 6580SOL    HW231200   2.155   2.432   3.170  0.1228 -1.2392  0.3564
 6581SOL     OW31201   0.633   4.512   5.054  0.3382  0.1539  0.4446
 6581SOL    HW131202   0.608   4.476   4.969 -1.4972  0.3703  0.8894
 6581SOL    HW231203   0.558   4.561   5.088  0.0565  1.6993 -2.3876
 6582SOL     OW31204   4.101   2.159   5.608  0.5871 -0.7869 -0.1589
 6582SOL    HW131205   4.174   2.213   5.637 -1.0678  0.7396  1.2036
 6582SOL    HW231206   4.049   2.166   5.688 -0.0287 -1.6961 -0.4761
 6583SOL     OW31207   1.502   0.715   1.606 -0.1459  0.4084  0.1592
 6583SOL    HW131208   1.493   0.786   1.543 -1.0111 -0.4406 -0.6638
 6583SOL    HW231209   1.565   0.755   1.666  0.4545  1.6395 -1.2868
 6584SOL     OW31210   4.022   1.141   4.734 -0.6609  0.1029 -0.2762
 6584SOL    HW131211   4.094   1.164   4.794 -0.9823  3.0418 -1.0703
 6584SOL    HW231212   4.054   1.177   4.651  1.5061 -1.9506 -0.3543
 6585SOL     OW31213   4.570   1.086   3.473  0.1986 -0.3818 -0.3351
 6585SOL    HW131214   4.611   1.170   3.454  0.4774 -0.8146 -1.6338
 6585SOL    HW231215   4.640   1.028   3.443  0.6303 -0.3136  0.5281
 6586SOL     OW31216   3.602   1.481   6.788  0.2329  0.3697 -0.4090
 6586SOL    HW131217   3.694   1.486   6.760  0.5332 -1.2460  0.2959
 6586SOL    HW231218   3.575   1.399   6.746  0.3683 -0.4588  1.1427
 6587SOL     OW31219   2.431   2.747   4.581 -0.2294 -0.0431 -0.0484
 6587SOL    HW131220   2.474   2.664   4.603  0.5674  1.0997  2.6595
 6587SOL    HW231221   2.345   2.751   4.623 -1.0917 -1.6572 -1.6112
 6588SOL     OW31222   0.764   2.152  13.572  0.0501  0.3484  0.0432
 6588SOL    HW131223   0.811   2.091  13.514  1.0609  2.0998 -0.9854
 6588SOL    HW231224   0.674   2.147  13.541  0.1025 -0.5213  0.0264
 6589SOL     OW31225   3.775   1.907   7.903 -0.4544 -0.5741  0.1727
 6589SOL    HW131226   3.688   1.929   7.869 -0.8798 -2.4316  0.0584
 6589SOL    HW231227   3.769   1.812   7.913  1.1605 -0.5991  0.9021
 6590SOL     OW31228   0.867   4.618   2.160 -0.6172  0.4235 -0.4231
 6590SOL    HW131229   0.870   4.706   2.197  0.6435  0.0104  0.5034
 6590SOL    HW231230   0.790   4.652   2.115 -0.5355 -1.3417 -1.8830
 6591SOL     OW31231   3.323   1.443   6.133  0.1091  0.1256 -0.2177
 6591SOL    HW131232   3.281   1.397   6.205  1.0484 -1.0828 -0.4366
 6591SOL    HW231233   3.365   1.366   6.095  1.0327  0.6670 -0.2931
 6592SOL     OW31234   2.467   0.606   9.640  0.4451  0.4617 -0.0492
 6592SOL    HW131235   2.514   0.689   9.635 -0.9407  1.2674  0.3688
 6592SOL    HW231236   2.428   0.604   9.553  2.1152 -0.6812 -0.7681
 6593SOL     OW31237   2.790   2.726   3.342  0.5400 -0.1317  0.3926
 6593SOL    HW131238   2.788   2.630   3.349 -2.8280  0.0962  2.6491
 6593SOL    HW231239   2.697   2.747   3.332  0.4173 -1.4483 -1.3376
 6594SOL     OW31240   1.677   1.692   3.534 -0.0980  0.0132  0.5227
 6594SOL    HW131241   1.710   1.711   3.621 -0.5684 -1.8543  1.1010
 6594SOL    HW231242   1.759   1.676   3.487 -0.5508 -3.2488  0.8891
 6595SOL     OW31243   0.371   0.926  10.089 -0.5633  0.0706  0.2979
 6595SOL    HW131244   0.355   0.970  10.172  1.2807  0.4777  0.4205
 6595SOL    HW231245   0.440   0.984  10.056  0.7395  0.4044  3.6705
 6596SOL     OW31246   3.127   0.246   6.294  0.6308  0.2898  0.2821
 6596SOL    HW131247   3.157   0.332   6.267 -1.2413  0.4852 -1.1752
 6596SOL    HW231248   3.035   0.256   6.269  0.2810  0.6418  1.7023
 6597SOL     OW31249   2.041   3.115  12.498  0.1201  0.2762 -0.1702
 6597SOL    HW131250   1.946   3.109  12.506 -0.1500  0.8268 -3.3602
 6597SOL    HW231251   2.057   3.027  12.464  0.7771  0.8914 -1.4631
 6598SOL     OW31252   1.836   2.357   7.188 -0.1803  0.7237 -0.0819
 6598SOL    HW131253   1.809   2.408   7.111 -0.0775 -0.8330 -1.1406
 6598SOL    HW231254   1.868   2.276   7.150  3.1210  1.4519  1.1275
 6599SOL     OW31255   2.454   2.916   6.148 -0.9349 -0.1421 -0.6259
 6599SOL    HW131256   2.446   2.920   6.244 -3.6372 -0.0410 -0.8761
 6599SOL    HW231257   2.363   2.912   6.120 -0.8928  1.5440 -1.0328
 6600SOL     OW31258   4.624   2.772   0.983  0.5481  0.1566  0.5101
 6600SOL    HW131259   4.557   2.736   1.041  1.3132 -0.8445  0.7610
 6600SOL    HW231260   4.678   2.694   0.980  0.2147 -0.0063 -1.2690
 6601SOL     OW31261   3.830   0.872   2.792 -0.0720  0.6420  0.1005
 6601SOL    HW131262   3.911   0.899   2.834  0.3465 -1.1826  0.4954
 6601SOL    HW231263   3.841   0.911   2.705  0.4553 -0.6180 -0.3973
 6602SOL     OW31264   3.017   1.224   4.646 -0.1934  0.2153 -0.4029
 6602SOL    HW131265   3.053   1.165   4.579 -1.0154  1.6762 -2.1169
 6602SOL    HW231266   3.099   1.257   4.682 -2.2507  2.8550  1.8209
 6603SOL     OW31267   0.500   2.594   2.361 -0.4269 -0.3861 -0.0740
 6603SOL    HW131268   0.515   2.618   2.452  1.3691 -1.8133 -0.0040
 6603SOL    HW231269   0.423   2.536   2.364 -0.8558  0.1855 -0.0948
 6604SOL     OW31270   3.896   2.306  11.287 -0.3879 -0.7218  0.0347
 6604SOL    HW131271   3.981   2.337  11.258  0.2613 -0.3919  2.3156
 6604SOL    HW231272   3.843   2.343  11.216 -0.7729 -1.4296 -0.0501
 6605SOL     OW31273   1.719   4.523   8.039 -0.2508 -0.1387  0.1431
 6605SOL    HW131274   1.747   4.562   8.122  0.6423 -2.8792  1.1334
 6605SOL    HW231275   1.626   4.501   8.043 -0.4806  0.8271  0.0600
 6606SOL     OW31276   3.500   2.548   7.167 -0.7730 -0.1362 -0.1956
 6606SOL    HW131277   3.536   2.606   7.100 -0.9920  0.9746  0.6511
 6606SOL    HW231278   3.515   2.461   7.131  1.1240  0.6935 -1.4170
 6607SOL     OW31279   0.243   0.490  11.941 -0.0405 -0.6219 -0.1516
 6607SOL    HW131280   0.196   0.411  11.916  0.1709 -0.9046  0.3537
 6607SOL    HW231281   0.210   0.555  11.879  0.9060  1.0235  1.0673
 6608SOL     OW31282   1.904   3.945   2.157  0.3695  0.0010  0.4977
 6608SOL    HW131283   1.883   3.852   2.145  1.8159  0.1886 -3.4077
 6608SOL    HW231284   1.979   3.946   2.098  0.8218 -0.8567  1.0510
 6609SOL     OW31285   2.814   1.714   3.646 -0.2785  0.3196 -0.6162
 6609SOL    HW131286   2.760   1.697   3.724 -0.7237 -1.5721 -1.3355
 6609SOL    HW231287   2.893   1.673   3.680  0.4749  1.1712 -1.3614
 6610SOL     OW31288   2.171   2.575   1.661  0.3982 -0.2713 -0.2483
 6610SOL    HW131289   2.085   2.609   1.685  1.0638  0.6155  0.8602
 6610SOL    HW231290   2.155   2.491   1.618  1.8260 -0.8713  0.4019
 6611SOL     OW31291   0.651   4.473   7.373  0.3800 -0.1990 -0.0391
 6611SOL    HW131292   0.587   4.429   7.317 -1.8242  0.7228  1.7784
 6611SOL    HW231293   0.685   4.538   7.311 -1.2469  1.2528  0.6264
 6612SOL     OW31294   0.045   0.412   2.499 -0.4046 -0.0684 -0.2493
 6612SOL    HW131295   0.085   0.419   2.586 -0.1772  0.7208 -0.4171
 6612SOL    HW231296   4.699   0.348   2.514  0.5291 -1.5345 -2.2559
 6613SOL     OW31297   3.792   3.063   5.893 -0.3359  0.0205  0.1972
 6613SOL    HW131298   3.807   3.143   5.942 -1.5398 -0.6702  1.6892
 6613SOL    HW231299   3.743   3.103   5.822  2.2466  2.5977 -0.1346
 6614SOL     OW31300   0.923   1.120   6.241  0.3717  0.4687 -0.0461
 6614SOL    HW131301   0.863   1.048   6.261 -0.4363  1.2001  0.1558
 6614SOL    HW231302   0.873   1.177   6.182 -0.6234 -0.1548  0.2052
 6615SOL     OW31303   3.022   0.169   9.015 -0.3596 -0.4569 -0.2693
 6615SOL    HW131304   2.940   0.214   9.038 -0.2354  0.0200 -0.7606
 6615SOL    HW231305   3.061   0.227   8.949  0.9566  0.1713  1.0578
 6616SOL     OW31306   3.771   1.560  13.910 -0.2521  0.0754 -0.4779
 6616SOL    HW131307   3.805   1.633  13.857 -0.0341 -1.4508 -2.4480
 6616SOL    HW231308   3.855   1.519  13.931 -0.9768 -0.4265  1.3915
 6617SOL     OW31309   0.809   2.428  15.084  0.2121 -0.0202  0.2652
 6617SOL    HW131310   0.741   2.478  15.038  1.6504 -0.2313 -2.0887
 6617SOL    HW231311   0.888   2.449  15.035 -0.0235 -0.2195 -0.2076
 6618SOL     OW31312   3.103   1.297   8.616 -0.1786  0.0494  0.5969
 6618SOL    HW131313   3.060   1.212   8.613  0.1098 -0.0969  0.6232
 6618SOL    HW231314   3.028   1.354   8.600 -0.1344 -0.6629 -2.0695
 6619SOL     OW31315   3.207   0.104   6.526  0.8890  0.1678  0.2504
 6619SOL    HW131316   3.172   0.131   6.441  2.5847  1.1849 -0.1305
 6619SOL    HW231317   3.138   0.144   6.580  1.4608  1.8857 -0.3025
 6620SOL     OW31318   1.720   2.349   4.870  0.0425  0.4493 -0.1673
 6620SOL    HW131319   1.734   2.300   4.790 -1.2940  0.0083 -0.1265
 6620SOL    HW231320   1.630   2.382   4.864 -1.0258 -2.4344  0.0798
 6621SOL     OW31321   0.101   1.552  14.504 -0.8818  0.0186 -0.7143
 6621SOL    HW131322   0.143   1.466  14.495  0.5072  0.7347 -1.1722
 6621SOL    HW231323   0.111   1.555  14.599  1.6026 -1.7077 -0.9140
 6622SOL     OW31324   3.941   2.433  15.482 -0.0826  0.1151  0.4094
 6622SOL    HW131325   3.948   2.345  15.446  0.7415  0.4447 -0.2500
 6622SOL    HW231326   3.863   2.469  15.438 -0.6195 -1.8111 -0.2059
 6623SOL     OW31327   0.115   0.928   3.107  0.3250 -0.3775  0.9795
 6623SOL    HW131328   0.167   0.919   3.027 -1.0297 -0.0478  0.0630
 6623SOL    HW231329   0.096   0.834   3.108 -3.1023  0.3446  1.9215
 6624SOL     OW31330   4.551   3.104   6.805  0.0874  0.8548 -0.1790
 6624SOL    HW131331   4.541   3.101   6.900  1.1992  2.2406 -0.0275
 6624SOL    HW231332   4.460   3.114   6.776 -0.4587 -0.6681  0.9879
 6625SOL     OW31333   2.506   2.468  13.176  0.3799  0.1259  0.0602
 6625SOL    HW131334   2.556   2.395  13.213  0.5219 -0.9891 -2.3646
 6625SOL    HW231335   2.450   2.481  13.253  1.8314  0.0112  1.1375
 6626SOL     OW31336   3.522   4.504   6.874  0.1786 -0.1941  0.3133
 6626SOL    HW131337   3.546   4.576   6.932  0.6824 -0.3432  0.2900
 6626SOL    HW231338   3.578   4.431   6.902  0.2132 -0.3558 -0.1729
 6627SOL     OW31339   4.065   4.273   4.875 -0.3524 -0.3666 -0.0934
 6627SOL    HW131340   4.024   4.276   4.961 -0.0377  3.4996 -0.1193
 6627SOL    HW231341   3.999   4.319   4.823 -0.8859 -2.5495 -1.3928
 6628SOL     OW31342   2.982   2.600   7.990 -0.0832 -0.0624 -0.2425
 6628SOL    HW131343   2.940   2.562   8.068 -0.0020 -2.7656 -1.4949
 6628SOL    HW231344   3.072   2.572   8.008  0.1701  1.5843  1.0521
 6629SOL     OW31345   1.816   0.478   5.571  0.1765 -0.0675  0.6567
 6629SOL    HW131346   1.878   0.528   5.517  1.7316 -2.3036  0.3591
 6629SOL    HW231347   1.772   0.449   5.491 -2.3643 -1.1001  2.4307
 6630SOL     OW31348   4.566   2.345  16.163 -0.5846  0.6581  0.0539
 6630SOL    HW131349   4.571   2.324  16.069 -1.2011 -1.2111  0.4377
 6630SOL    HW231350   4.550   2.439  16.158 -0.7987  0.5892 -0.6592
 6631SOL     OW31351   2.261   4.688   4.996  0.3074 -0.4029 -0.3654
 6631SOL    HW131352   2.193   4.621   4.990 -0.9172  0.8899 -0.8616
 6631SOL    HW231353   2.240   4.718   5.085  0.9778 -0.0947 -0.3077
 6632SOL     OW31354   2.042   3.101   0.130  0.0554 -0.5896 -0.3683
 6632SOL    HW131355   2.109   3.072   0.068 -1.0807 -1.0362 -1.3855
 6632SOL    HW231356   1.962   3.062   0.095 -1.2364 -0.6591  2.6417
 6633SOL     OW31357   3.441   1.634   7.485 -0.2764 -0.0544  0.0889
 6633SOL    HW131358   3.373   1.700   7.479 -0.5963 -0.1489  2.8264
 6633SOL    HW231359   3.444   1.597   7.397 -0.1059 -0.4645  0.2668
 6634SOL     OW31360   1.876   2.731   3.219 -0.0192  0.5451  0.2818
 6634SOL    HW131361   1.809   2.736   3.287  1.5998  0.0524  1.8776
 6634SOL    HW231362   1.829   2.781   3.152  2.7216 -0.4790 -2.3811
 6635SOL     OW31363   1.222   3.660   0.212  0.2583 -0.4794  0.1924
 6635SOL    HW131364   1.137   3.703   0.224  1.6206  2.3801 -0.3000
 6635SOL    HW231365   1.211   3.570   0.243 -0.5084 -1.0458 -1.7404
 6636SOL     OW31366   4.109   0.349   9.158  0.1131  0.0158  0.5096
 6636SOL    HW131367   4.054   0.407   9.210 -0.7964 -0.4552  0.0804
 6636SOL    HW231368   4.163   0.313   9.227  1.3552 -0.0389 -0.4909
 6637SOL     OW31369   2.540   1.544   5.436 -0.0776 -0.0846 -0.1731
 6637SOL    HW131370   2.472   1.554   5.370 -0.8184  0.0495  0.6130
 6637SOL    HW231371   2.489   1.558   5.515  2.1456 -1.5537  1.5382
 6638SOL     OW31372   4.531   3.496   3.041  0.4221 -0.3964  0.1158
 6638SOL    HW131373   4.536   3.510   3.136  2.6770 -1.3275  0.1365
 6638SOL    HW231374   4.579   3.569   3.003  2.4254 -1.6339  0.2920
 6639SOL     OW31375   4.541   0.499  12.180  0.4424  0.2056  0.1204
 6639SOL    HW131376   4.548   0.409  12.212 -3.1851 -0.2906 -0.4988
 6639SOL    HW231377   4.631   0.531  12.190  0.3065 -0.1488  2.5626
 6640SOL     OW31378   2.919   1.360   3.919 -0.4245  0.2288 -0.0713
 6640SOL    HW131379   2.892   1.329   3.833 -1.4073 -0.7254  0.5829
 6640SOL    HW231380   3.000   1.309   3.925 -1.0200 -0.8957 -1.6704
 6641SOL     OW31381   4.201   1.107   0.003 -0.1032 -0.7272  0.0155
 6641SOL    HW131382   4.262   1.119  17.622  0.2517  0.1307  0.4508
 6641SOL    HW231383   4.181   1.200   0.018 -0.2059 -0.8114  0.4073
 6642SOL     OW31384   2.584   1.948  10.176 -0.4765 -0.2258 -0.2858
 6642SOL    HW131385   2.494   1.962  10.148 -0.7625 -1.0935  0.2032
 6642SOL    HW231386   2.616   1.910  10.094 -0.9591  1.5917 -1.3130
 6643SOL     OW31387   2.043   1.594   5.125 -0.4587 -0.8977  0.4754
 6643SOL    HW131388   2.023   1.679   5.088  0.6646  0.0232  1.9942
 6643SOL    HW231389   2.114   1.549   5.079  1.6492  2.7491  0.2316
 6644SOL     OW31390   0.039   3.678   0.474 -0.1310  0.7983  0.1587
 6644SOL    HW131391   0.093   3.599   0.484  0.0209  0.6747 -1.6573
 6644SOL    HW231392   4.674   3.661   0.508 -1.1471  1.1014 -2.2732
 6645SOL     OW31393   2.014   2.765   1.370  0.1745 -0.1984  0.1829
 6645SOL    HW131394   2.028   2.671   1.376  0.7182 -0.0852  0.6557
 6645SOL    HW231395   1.963   2.779   1.290 -1.4840  3.3153  1.8716
 6646SOL     OW31396   3.635   1.590   3.319  0.3049  0.0949 -0.1243
 6646SOL    HW131397   3.648   1.520   3.382 -0.6327  2.6825  2.9265
 6646SOL    HW231398   3.586   1.649   3.376 -1.3439  1.0912 -2.5619
 6647SOL     OW31399   1.615   3.961   9.989  0.2496  0.2283  0.0862
 6647SOL    HW131400   1.644   4.041  10.032  4.7351 -1.6961  0.6457
 6647SOL    HW231401   1.631   3.887  10.047  0.8301 -0.4079 -0.8835
 6648SOL     OW31402   4.120   3.133  12.428  0.3601 -0.0672 -0.2381
 6648SOL    HW131403   4.056   3.171  12.367  2.0443  1.7963 -0.8305
 6648SOL    HW231404   4.202   3.173  12.398  0.3393  0.7944  0.8453
 6649SOL     OW31405   2.453   3.867   8.669 -0.0279 -0.0577  0.1534
 6649SOL    HW131406   2.427   3.855   8.760 -2.1148  0.3264 -0.3932
 6649SOL    HW231407   2.527   3.806   8.667  2.1628  2.5563  1.1196
 6650SOL     OW31408   1.379   1.834   0.552 -0.0651 -0.2876 -0.3126
 6650SOL    HW131409   1.459   1.887   0.563 -0.5388  0.0735  1.4774
 6650SOL    HW231410   1.310   1.900   0.562  1.1020  1.1377 -1.6395
 6651SOL     OW31411   2.132   1.314  14.697 -0.7139  0.3068  0.8029
 6651SOL    HW131412   2.195   1.249  14.665 -1.1817  0.3325 -0.1570
 6651SOL    HW231413   2.192   1.355  14.760  0.1604 -0.7493  0.6554
 6652SOL     OW31414   2.158   2.472   6.540  0.4826 -0.1501  0.4122
 6652SOL    HW131415   2.096   2.423   6.594 -0.5369 -0.9571 -1.4739
 6652SOL    HW231416   2.119   2.464   6.453 -0.9094  1.4793  0.8976
 6653SOL     OW31417   4.326   2.997   8.711  0.3976  0.1541 -0.1413
 6653SOL    HW131418   4.388   2.998   8.784  0.0671  0.2420  0.1366
 6653SOL    HW231419   4.379   2.960   8.641  1.1301  0.1759  0.3997
 6654SOL     OW31420   2.440   1.993   3.129  0.2424  0.7895  0.3355
 6654SOL    HW131421   2.347   1.975   3.113  0.3563  0.7275 -0.2575
 6654SOL    HW231422   2.473   1.929   3.193 -1.1479  0.2019  0.4646
 6655SOL     OW31423   3.918   4.513   7.072 -0.0654 -0.0531  0.1376
 6655SOL    HW131424   3.909   4.542   7.162  1.7337 -1.8679  0.9104
 6655SOL    HW231425   3.980   4.574   7.033 -0.8784  1.2288  0.8541
 6656SOL     OW31426   2.270   4.697   5.609 -0.2540 -0.0444 -0.1889
 6656SOL    HW131427   2.197   4.636   5.619 -0.4988  0.2594 -0.1162
 6656SOL    HW231428   2.235   0.048   5.559 -1.0466  1.8129  3.1230
 6657SOL     OW31429   1.195   0.090   3.941 -0.1872  0.4946 -0.1829
 6657SOL    HW131430   1.286   0.119   3.936 -0.7217  1.6312 -3.3501
 6657SOL    HW231431   1.207   4.718   3.931 -0.9559  0.4862 -0.9594
 6658SOL     OW31432   1.449   2.205   0.879 -0.2230  0.3371 -0.5811
 6658SOL    HW131433   1.362   2.184   0.843  0.0012 -1.7343  0.1100
 6658SOL    HW231434   1.442   2.289   0.926  1.0509  0.1265 -0.0246
 6659SOL     OW31435   1.028   0.751   1.574  0.2310 -0.0388  0.0693
 6659SOL    HW131436   0.976   0.692   1.628 -0.0980  0.8275  0.7003
 6659SOL    HW231437   1.113   0.708   1.578  0.8310  1.3417  2.0877
 6660SOL     OW31438   2.440   4.433   2.733  0.8427 -0.3905  0.7832
 6660SOL    HW131439   2.369   4.492   2.759  0.7330  1.4146 -3.6079
 6660SOL    HW231440   2.517   4.489   2.741 -1.3797  2.8876 -0.6007
 6661SOL     OW31441   4.601   4.226   7.527 -0.1581 -0.3430  0.6111
 6661SOL    HW131442   4.520   4.230   7.579 -0.2530  1.2756  0.3432
 6661SOL    HW231443   4.603   4.135   7.497  1.4655  0.0731 -0.5054
 6662SOL     OW31444   3.501   4.222   2.375  0.0389 -0.0356 -0.1032
 6662SOL    HW131445   3.572   4.157   2.369 -1.3318 -1.7303  2.0496
 6662SOL    HW231446   3.523   4.275   2.451 -1.1050 -0.7392  0.7307
 6663SOL     OW31447   1.274   0.763   5.024  0.3455  0.3568 -0.0142
 6663SOL    HW131448   1.201   0.759   4.961 -0.5514 -2.0174  1.1856
 6663SOL    HW231449   1.327   0.685   5.009 -1.3239 -1.2941  2.5035
 6664SOL     OW31450   1.334   2.917  14.539  0.6222 -0.1029  0.0743
 6664SOL    HW131451   1.294   2.951  14.619  1.1702  0.8999 -0.0742
 6664SOL    HW231452   1.314   2.988  14.478 -3.0640 -2.4060 -1.3699
 6665SOL     OW31453   3.577   2.498   1.210  0.0536  0.1963 -0.8545
 6665SOL    HW131454   3.534   2.417   1.240 -0.9408  1.7549  1.9310
 6665SOL    HW231455   3.616   2.518   1.295 -1.1507  2.2334 -0.7824
 6666SOL     OW31456   3.963   1.840   5.825 -0.1096  0.0975 -0.5358
 6666SOL    HW131457   3.885   1.882   5.789 -0.1278  1.7162  1.3934
 6666SOL    HW231458   3.996   1.799   5.745 -0.4618 -2.6775  0.7585
 6667SOL     OW31459   3.346   0.210   2.503  0.0361  0.2058  0.3347
 6667SOL    HW131460   3.348   0.249   2.416 -1.8652 -0.5365 -0.0311
 6667SOL    HW231461   3.368   0.118   2.488 -0.9943 -0.0888  0.6281
 6668SOL     OW31462   0.021   3.792   9.903 -0.4192  0.3189 -0.1065
 6668SOL    HW131463   0.000   3.747   9.821  1.8566 -1.4539  0.3178
 6668SOL    HW231464   4.706   3.742   9.976 -0.4575 -1.1470 -1.1339
 6669SOL     OW31465   2.402   4.569  11.615  0.4656 -0.0834 -0.1541
 6669SOL    HW131466   2.362   4.628  11.680  3.0802  1.4318  0.0976
 6669SOL    HW231467   2.436   4.497  11.668 -1.3254 -0.3962  0.5761
 6670SOL     OW31468   4.557   3.386   5.751  0.0185 -0.0449 -0.4473
 6670SOL    HW131469   4.479   3.340   5.721 -0.2447  1.4025 -1.9891
 6670SOL    HW231470   4.622   3.321   5.777 -0.9380  0.6187  3.4996
 6671SOL     OW31471   2.124   0.153   1.533 -0.1800 -0.2463  0.5860
 6671SOL    HW131472   2.196   0.091   1.530  0.2879  0.2125  1.9640
 6671SOL    HW231473   2.169   0.236   1.551  0.8779 -0.6675 -0.1981
 6672SOL     OW31474   1.779   2.461   5.727  0.4738  0.4943 -0.0655
 6672SOL    HW131475   1.841   2.424   5.789 -0.1297 -1.8151 -0.8125
 6672SOL    HW231476   1.825   2.530   5.680  1.8123  0.2986  0.9826
 6673SOL     OW31477   1.930   1.196  15.943 -0.2026  0.7175  0.1102
 6673SOL    HW131478   1.975   1.112  15.954 -1.0907  0.1532 -0.5719
 6673SOL    HW231479   1.891   1.218  16.028 -0.4595 -2.0465  0.7155
 6674SOL     OW31480   2.232   1.437  10.963 -0.4299 -0.0633 -0.8830
 6674SOL    HW131481   2.150   1.440  10.914 -1.1971 -0.0481  0.4033
 6674SOL    HW231482   2.258   1.526  10.989 -0.8397 -0.2618  0.1969
 6675SOL     OW31483   1.256   0.068  12.652  0.0095  0.2193  0.6407
 6675SOL    HW131484   1.314   0.109  12.716  0.0913  1.5822 -0.2836
 6675SOL    HW231485   1.253   4.703  12.689  1.0699  0.3132  0.9373
 6676SOL     OW31486   3.555   2.688   2.418 -0.0418  0.4833 -0.2234
 6676SOL    HW131487   3.494   2.751   2.457  0.9795 -0.3858  2.7585
 6676SOL    HW231488   3.494   2.615   2.424  0.1380  0.2199 -1.6166
 6677SOL     OW31489   4.378   2.219   3.114 -0.1586 -0.1343 -0.2526
 6677SOL    HW131490   4.303   2.171   3.079  2.5157 -4.6470  0.2420
 6677SOL    HW231491   4.346   2.261   3.194 -0.9826 -0.8453 -0.2089
 6678SOL     OW31492   1.825   2.727   6.110  0.9073 -0.5072  0.0024
 6678SOL    HW131493   1.811   2.716   6.204 -2.0716  0.0577 -0.3700
 6678SOL    HW231494   1.904   2.674   6.099  0.2458 -1.4684 -0.1172
 6679SOL     OW31495   4.050   3.043   7.780 -0.0479  0.0811 -0.2973
 6679SOL    HW131496   4.088   3.026   7.694  2.0702 -1.4775  0.9269
 6679SOL    HW231497   3.978   2.981   7.785 -1.2966  1.7218  1.9023
 6680SOL     OW31498   4.484   3.632   5.257 -0.1042  0.6440  1.2526
 6680SOL    HW131499   4.534   3.607   5.335 -1.1361  0.0432  1.7126
 6680SOL    HW231500   4.534   3.701   5.214 -0.4756  0.4039  0.4338
 6681SOL     OW31501   4.009   3.548   1.821  0.5732 -0.3650 -0.5202
 6681SOL    HW131502   3.947   3.482   1.792  0.6608  0.6228 -2.9333
 6681SOL    HW231503   4.024   3.518   1.911 -0.3743 -1.3759 -0.6928
 6682SOL     OW31504   0.003   3.054   7.774 -0.5589  0.4452  0.3096
 6682SOL    HW131505   4.712   3.101   7.692 -1.0326 -1.3062 -0.6118
 6682SOL    HW231506   0.043   2.973   7.742  0.6425  1.0967  0.1597
 6683SOL     OW31507   1.972   2.940   6.369 -0.4321 -0.3074  0.1722
 6683SOL    HW131508   1.878   2.953   6.355 -0.4683 -0.4597  0.2788
 6683SOL    HW231509   1.968   2.895   6.453  1.5634  0.2477  0.5531
 6684SOL     OW31510   0.625   4.023   1.772  0.1838  0.0709  0.5893
 6684SOL    HW131511   0.667   4.028   1.685 -0.5148 -0.0351  0.2468
 6684SOL    HW231512   0.657   3.935   1.792 -1.2955 -0.2492  1.5089
 6685SOL     OW31513   1.019   0.131   3.073  0.0972  0.1179  0.1438
 6685SOL    HW131514   1.058   0.199   3.127  0.2178  0.3634 -0.2542
 6685SOL    HW231515   1.070   0.143   2.993 -1.4293 -0.0622 -0.8614
 6686SOL     OW31516   2.556   3.166   5.010 -0.4974  0.9804 -0.0953
 6686SOL    HW131517   2.508   3.242   4.978  0.0348  1.3552 -0.0064
 6686SOL    HW231518   2.519   3.099   4.953  0.5009  0.7884 -0.5181
 6687SOL     OW31519   4.164   3.999   8.513  0.0032  0.0277  0.0301
 6687SOL    HW131520   4.186   4.080   8.466 -0.0216  0.2874  0.4597
 6687SOL    HW231521   4.246   3.987   8.562  0.4726 -1.5406 -1.1507
 6688SOL     OW31522   3.675   0.733   0.864 -0.4431  0.1705 -0.4014
 6688SOL    HW131523   3.650   0.782   0.786 -1.7173  0.4242  0.1606
 6688SOL    HW231524   3.650   0.647   0.828  1.0898  0.3173 -1.8389
 6689SOL     OW31525   3.620   1.252   9.066 -0.5257 -0.0755  0.1938
 6689SOL    HW131526   3.680   1.223   9.134 -1.4141  0.0834  1.0588
 6689SOL    HW231527   3.627   1.339   9.106  1.9369 -0.3297  0.2519
 6690SOL     OW31528   2.404   2.645   2.269  0.2418 -0.8043  0.2966
 6690SOL    HW131529   2.353   2.651   2.350  0.7620  0.8376  0.5073
 6690SOL    HW231530   2.450   2.562   2.283  0.5058 -0.4666  1.4112
 6691SOL     OW31531   0.903   3.042   0.336  0.3315 -0.4232 -0.7874
 6691SOL    HW131532   0.926   3.079   0.421  0.9864 -2.1129 -0.2248
 6691SOL    HW231533   0.901   3.121   0.281 -2.4787 -0.0648 -0.1658
 6692SOL     OW31534   2.710   3.074   9.879  0.1227  0.3634 -0.2106
 6692SOL    HW131535   2.753   3.100   9.797  0.8888 -0.9074 -0.2132
 6692SOL    HW231536   2.670   3.153   9.915  3.2055  2.0568 -0.4657
 6693SOL     OW31537   0.748   1.375   4.539 -0.8402  0.2686 -0.2136
 6693SOL    HW131538   0.750   1.336   4.451  1.5064  0.1761 -0.1204
 6693SOL    HW231539   0.828   1.427   4.532  0.1458 -1.1354  0.5939
 6694SOL     OW31540   2.104   0.467   5.873 -0.4261  0.1563  0.0047
 6694SOL    HW131541   2.159   0.490   5.948  0.6432 -2.5112  0.0425
 6694SOL    HW231542   2.027   0.458   5.929 -0.0097  0.6323  0.6481
 6695SOL     OW31543   4.572   1.871  11.608 -0.4439  0.4426 -0.3608
 6695SOL    HW131544   4.524   1.858  11.526  0.7512 -1.5020 -0.7465
 6695SOL    HW231545   4.603   1.961  11.618 -0.6693  0.5983 -1.0893
 6696SOL     OW31546   2.142   1.026   1.031  0.0130  0.1473  0.0313
 6696SOL    HW131547   2.106   0.956   1.087  1.1408  0.3967  1.0594
 6696SOL    HW231548   2.218   1.055   1.080  0.1020 -0.8591  0.4921
 6697SOL     OW31549   3.129   1.782   8.630  0.3076  0.4977  0.3809
 6697SOL    HW131550   3.131   1.835   8.550 -2.5623 -1.7156 -1.1780
 6697SOL    HW231551   3.196   1.813   8.691  0.0864 -1.8536  1.8032
 6698SOL     OW31552   0.290   2.567   9.125  0.1163  0.1934  0.2365
 6698SOL    HW131553   0.248   2.481   9.133  0.7223 -0.0950  0.2814
 6698SOL    HW231554   0.239   2.614   9.191  0.3677 -0.0696  0.6207
 6699SOL     OW31555   0.017   1.485   5.740 -0.0209 -0.1445  0.2231
 6699SOL    HW131556   4.673   1.442   5.794  0.2421 -1.1132 -0.2285
 6699SOL    HW231557   4.694   1.485   5.656 -0.5746  1.7941  0.5404
 6700SOL     OW31558   2.190   1.632  17.551  0.4655  0.0228  0.4499
 6700SOL    HW131559   2.195   1.665  17.640  0.4862  0.0483  0.4393
 6700SOL    HW231560   2.248   1.559  17.570  0.3279 -0.5893 -1.4070
 6701SOL     OW31561   4.133   2.664   5.235  0.0467 -0.7380  0.3243
 6701SOL    HW131562   4.136   2.734   5.300  0.1181 -0.6276  0.2026
 6701SOL    HW231563   4.073   2.705   5.172 -0.0788 -1.8632 -0.2907
 6702SOL     OW31564   0.550   2.632   3.905  0.0218 -0.0415  0.1450
 6702SOL    HW131565   0.559   2.574   3.829  1.0543  0.0796  0.1810
 6702SOL    HW231566   0.578   2.581   3.980 -0.5443 -2.0783 -1.0131
 6703SOL     OW31567   3.562   4.547   6.124  0.1902 -0.0711 -0.4359
 6703SOL    HW131568   3.567   4.641   6.143 -0.0128 -0.4873  1.6020
 6703SOL    HW231569   3.570   4.554   6.029 -1.0186 -0.7084 -0.5812
 6704SOL     OW31570   3.012   2.821   6.513  0.4175  0.0626 -0.0603
 6704SOL    HW131571   2.917   2.829   6.522  0.3186 -0.7292 -0.3947
 6704SOL    HW231572   3.022   2.865   6.428  2.4149 -0.3164 -0.0159
 6705SOL     OW31573   2.104   0.161  15.480 -0.1662  0.0892  0.4699
 6705SOL    HW131574   2.035   0.122  15.533  0.0833  0.6496  1.2002
 6705SOL    HW231575   2.169   0.194  15.542  1.1681 -0.3675 -0.6876
 6706SOL     OW31576   4.268   0.835   0.379 -0.1543 -0.2819 -0.1046
 6706SOL    HW131577   4.299   0.807   0.293 -2.8523 -0.1593 -1.1210
 6706SOL    HW231578   4.294   0.926   0.361 -2.5559  0.5054  0.3876
 6707SOL     OW31579   2.255   2.783   0.306 -0.4546 -0.1839 -0.1739
 6707SOL    HW131580   2.175   2.761   0.354 -0.0777 -0.5168  0.3042
 6707SOL    HW231581   2.309   2.706   0.321  0.0637  0.1463 -0.3311
 6708SOL     OW31582   0.194   3.887   9.685  0.9058  0.5196  0.1487
 6708SOL    HW131583   0.201   3.874   9.590 -2.0938 -1.6619  0.2483
 6708SOL    HW231584   0.277   3.926   9.712  2.1255 -1.7710 -0.2985
 6709SOL     OW31585   4.220   2.933  17.445 -0.1549  0.8626 -0.1579
 6709SOL    HW131586   4.233   2.931  17.540  3.1049  1.7278 -0.5898
 6709SOL    HW231587   4.188   3.023  17.439 -0.9061  0.6627  0.7576
 6710SOL     OW31588   3.230   2.068   4.039 -0.3517  0.3622  0.2167
 6710SOL    HW131589   3.295   2.105   4.099 -1.8122  2.3411  0.5786
 6710SOL    HW231590   3.157   2.130   4.046 -0.0618  0.9669 -2.2696
 6711SOL     OW31591   0.610   3.801   9.221  0.2668  0.1208 -0.0146
 6711SOL    HW131592   0.563   3.879   9.191 -0.0018 -0.3249 -0.7615
 6711SOL    HW231593   0.697   3.840   9.233  0.5627 -0.2724 -0.9038
 6712SOL     OW31594   1.418   1.895  16.128  0.0525  0.1364 -0.0345
 6712SOL    HW131595   1.371   1.865  16.050  0.0306 -2.0479  0.8287
 6712SOL    HW231596   1.509   1.907  16.100 -0.2044 -0.5960 -1.1783
 6713SOL     OW31597   4.223   0.222  17.075  0.2468 -0.0150 -0.0211
 6713SOL    HW131598   4.169   0.238  17.152  1.1475 -1.0738  0.8342
 6713SOL    HW231599   4.218   0.127  17.078  1.1821  0.0132  2.4754
 6714SOL     OW31600   0.469   0.594   0.720 -0.2581  0.0491  0.0266
 6714SOL    HW131601   0.430   0.614   0.635  0.6849 -1.6828 -0.7938
 6714SOL    HW231602   0.419   0.659   0.770  2.2127  4.9674 -3.9308
 6715SOL     OW31603   2.571   2.388  10.895 -0.0431  0.0904 -0.3614
 6715SOL    HW131604   2.625   2.315  10.863  1.2258  1.2385 -0.8587
 6715SOL    HW231605   2.493   2.395  10.841  0.8411  1.1401 -1.4948
 6716SOL     OW31606   0.573   2.491   4.137 -0.1561  0.8508  0.0789
 6716SOL    HW131607   0.555   2.401   4.163  0.5878  0.4896 -0.6488
 6716SOL    HW231608   0.490   2.534   4.155 -0.0394  1.5091 -0.9529
 6717SOL     OW31609   0.522   3.226   3.808 -0.4325  0.6520 -0.1958
 6717SOL    HW131610   0.503   3.156   3.745  3.5821 -0.4685 -0.1336
 6717SOL    HW231611   0.595   3.186   3.855 -1.3435 -1.1491 -0.3055
 6718SOL     OW31612   4.496   3.134   1.238  0.0095 -0.4340  0.4970
 6718SOL    HW131613   4.457   3.059   1.194  1.6260 -0.8529 -0.2057
 6718SOL    HW231614   4.590   3.120   1.228 -0.4655 -1.9641 -1.9285
 6719SOL     OW31615   4.252   1.823   1.007  0.3265 -0.0914  0.7024
 6719SOL    HW131616   4.262   1.864   0.921 -0.1966  2.3078  1.7677
 6719SOL    HW231617   4.343   1.840   1.030  0.1244 -1.1703  2.3099
 6720SOL     OW31618   4.009   0.655  14.466  0.2842  0.0769 -1.2734
 6720SOL    HW131619   3.990   0.737  14.510 -0.2733 -1.1914  0.8695
 6720SOL    HW231620   4.099   0.667  14.435  0.4072 -1.0470 -1.3805
 6721SOL     OW31621   1.435   3.534   1.619  0.1874  0.1916 -0.2363
 6721SOL    HW131622   1.420   3.578   1.703 -0.6204  0.2370 -0.4062
 6721SOL    HW231623   1.349   3.545   1.579  0.5043  2.2095 -0.3655
 6722SOL     OW31624   0.861   0.602   1.768  0.0602 -0.3508 -0.1271
 6722SOL    HW131625   0.821   0.521   1.736 -0.4151 -0.7905  1.5849
 6722SOL    HW231626   0.810   0.612   1.849 -2.6037 -0.8326 -1.7426
 6723SOL     OW31627   3.670   0.202  13.179  0.6016  0.0964 -0.4068
 6723SOL    HW131628   3.646   0.132  13.240 -1.2104  1.2034  0.1599
 6723SOL    HW231629   3.677   0.278  13.237  0.7727 -2.2895  2.6867
 6724SOL     OW31630   3.975   4.719   4.801  0.5968  0.1422  0.3252
 6724SOL    HW131631   3.882   4.712   4.781  0.2086  0.5383  1.9693
 6724SOL    HW231632   3.978   0.076   4.854  0.3449 -0.5645  1.4183
 6725SOL     OW31633   0.372   1.817  10.751 -0.6044  0.0810  0.2944
 6725SOL    HW131634   0.315   1.861  10.814 -0.1344  0.5660  0.3834
 6725SOL    HW231635   0.309   1.824  10.679  1.7099 -0.5253 -1.7659
 6726SOL     OW31636   0.195   2.415  15.348  0.1059 -0.2695 -0.0285
 6726SOL    HW131637   0.178   2.422  15.254  1.1421  0.8112 -0.1349
 6726SOL    HW231638   0.251   2.338  15.341  0.5227  0.1433 -1.4248
 6727SOL     OW31639   2.208   3.140   8.859 -0.4719  0.2758  0.4378
 6727SOL    HW131640   2.175   3.137   8.770  1.9869  1.5964 -0.5297
 6727SOL    HW231641   2.177   3.055   8.889  0.1525  0.5814  1.9778
 6728SOL     OW31642   4.095   0.100  10.206  0.0681 -0.4856 -0.0623
 6728SOL    HW131643   4.023   0.149  10.245 -0.1073 -1.6235  1.0615
 6728SOL    HW231644   4.038   0.026  10.183 -0.3400 -0.0984 -0.2983
 6729SOL     OW31645   3.288   2.489   5.232 -0.1112  0.5340  0.7947
 6729SOL    HW131646   3.275   2.396   5.247  3.4654 -0.3413 -1.4325
 6729SOL    HW231647   3.372   2.497   5.186  1.5865  0.3870  3.8774
 6730SOL     OW31648   0.483   0.189  16.850  0.1725  0.2101 -0.8088
 6730SOL    HW131649   0.412   0.146  16.897  1.3122  1.2009  1.8368
 6730SOL    HW231650   0.536   0.113  16.827 -0.2877 -0.1616 -0.6447
 6731SOL     OW31651   4.541   0.325  11.356 -0.2315 -0.1072 -0.1969
 6731SOL    HW131652   4.464   0.381  11.350  0.6804  1.3864  1.8676
 6731SOL    HW231653   4.558   0.344  11.448  0.4227  2.8257 -0.9181
 6732SOL     OW31654   2.799   1.660   8.605 -0.8531 -0.4204 -0.2705
 6732SOL    HW131655   2.756   1.745   8.607  2.5658  1.2710  0.7357
 6732SOL    HW231656   2.880   1.694   8.644 -1.2413  0.6787 -0.4394
 6733SOL     OW31657   2.526   0.838   6.494 -0.1534  0.1200  0.0159
 6733SOL    HW131658   2.590   0.847   6.423  0.5893  0.4599  0.7149
 6733SOL    HW231659   2.560   0.754   6.524 -0.5163 -0.2889 -0.7266
 6734SOL     OW31660   0.190   0.407  13.577 -0.1389  0.1685 -0.1256
 6734SOL    HW131661   0.188   0.418  13.481 -2.7206 -0.2950 -0.1166
 6734SOL    HW231662   0.282   0.429  13.593  0.3243 -1.8313  0.0258
 6735SOL     OW31663   4.471   0.635   3.466  0.0548  0.2351 -0.0127
 6735SOL    HW131664   4.531   0.580   3.516 -1.7355  0.6939  2.6744
 6735SOL    HW231665   4.502   0.619   3.377 -0.7620 -1.5906  0.0307
 6736SOL     OW31666   0.975   2.437  11.489 -0.0679  0.5456 -0.7532
 6736SOL    HW131667   0.944   2.349  11.467 -1.9120  0.4881  1.9415
 6736SOL    HW231668   0.995   2.427  11.582  0.6915  1.9467 -0.7786
 6737SOL     OW31669   2.236   3.651   1.039 -0.6013 -0.0754  0.4541
 6737SOL    HW131670   2.312   3.678   0.988 -2.6962  0.2643 -2.5021
 6737SOL    HW231671   2.161   3.694   0.998  0.9567  1.3783 -0.8949
 6738SOL     OW31672   1.842   2.110   2.510  0.3648 -0.1379  0.0232
 6738SOL    HW131673   1.782   2.147   2.445  0.1021  0.1715  0.4478
 6738SOL    HW231674   1.807   2.153   2.587 -0.6225 -1.9365  0.5795
 6739SOL     OW31675   1.412   2.265   6.324  0.0040  0.0628  0.4860
 6739SOL    HW131676   1.330   2.299   6.288  0.8349  0.0506 -1.4087
 6739SOL    HW231677   1.382   2.272   6.414 -0.4501 -1.6147  0.4714
 6740SOL     OW31678   0.488   2.237   5.549  0.0604  0.3767  0.1726
 6740SOL    HW131679   0.530   2.286   5.479 -0.1440  1.3746  0.7398
 6740SOL    HW231680   0.550   2.261   5.619 -1.3024  3.6509  0.2670
 6741SOL     OW31681   2.793   1.513   2.668  0.2397  0.2513 -0.1141
 6741SOL    HW131682   2.877   1.541   2.703 -0.7476  0.7207  1.8784
 6741SOL    HW231683   2.762   1.454   2.737  1.1074  0.0173  0.0673
 6742SOL     OW31684   1.299   0.703   0.231  0.6797 -0.1203  0.3344
 6742SOL    HW131685   1.287   0.692   0.136  0.4223  0.4423  0.3034
 6742SOL    HW231686   1.349   0.623   0.244  0.4974 -0.3024 -0.0694
 6743SOL     OW31687   2.347   0.041  11.805  0.3023  0.2568 -0.0335
 6743SOL    HW131688   2.305   0.091  11.874  1.0812  2.3574 -1.0688
 6743SOL    HW231689   2.440   0.054  11.822  0.3595  1.2620 -1.1052
 6744SOL     OW31690   1.354   0.276   6.777  0.5262 -0.3367  0.2667
 6744SOL    HW131691   1.308   0.312   6.701 -0.7810 -2.7012 -0.0631
 6744SOL    HW231692   1.422   0.342   6.776  2.7115 -2.6188 -1.5708
 6745SOL     OW31693   0.189   2.021   6.519  0.0949  0.1180 -0.2764
 6745SOL    HW131694   0.095   2.008   6.530  0.1059 -0.5126 -0.9416
 6745SOL    HW231695   0.197   1.972   6.437  1.4796 -1.3246  0.7359
 6746SOL     OW31696   3.154   4.660   8.966 -0.5334 -0.5137 -0.1950
 6746SOL    HW131697   3.102   4.650   8.886  2.3487 -1.8229 -1.9314
 6746SOL    HW231698   3.129   0.025   8.992  1.5100 -0.4505  1.5328
 6747SOL     OW31699   0.771   2.664   1.901  0.0051 -0.1587 -0.1404
 6747SOL    HW131700   0.743   2.754   1.916  1.7752  0.5356 -0.9174
 6747SOL    HW231701   0.749   2.620   1.983 -1.2733 -3.0318 -2.0190
 6748SOL     OW31702   0.939   2.711   0.585 -0.1584 -0.0891  0.3085
 6748SOL    HW131703   0.878   2.666   0.526 -0.4848 -0.6454  1.0706
 6748SOL    HW231704   0.902   2.798   0.602  4.9488  1.7485  1.9110
 6749SOL     OW31705   4.290   2.340   1.593  0.3529 -0.0848 -0.0408
 6749SOL    HW131706   4.275   2.263   1.538  1.1140  0.2381 -0.7010
 6749SOL    HW231707   4.210   2.392   1.578 -1.0370 -2.0395  0.5541
 6750SOL     OW31708   1.163   3.617   5.667 -0.3218  0.4549  0.1606
 6750SOL    HW131709   1.164   3.522   5.659  0.4764  0.4345  0.4893
 6750SOL    HW231710   1.071   3.626   5.641 -0.0881 -1.1633 -1.2296
 6751SOL     OW31711   0.359   0.398  13.929  0.0464  0.8721 -0.1157
 6751SOL    HW131712   0.276   0.381  13.884 -0.4200  0.9983  0.6918
 6751SOL    HW231713   0.422   0.390  13.858 -2.2507 -0.2013 -2.0433
 6752SOL     OW31714   1.959   3.145   7.538  0.1083  0.4787  0.1807
 6752SOL    HW131715   2.013   3.089   7.594  1.0532  0.6848 -0.5305
 6752SOL    HW231716   1.871   3.110   7.551 -0.4521  2.3035  1.2642
 6753SOL     OW31717   3.240   0.013   0.414  0.3552  0.1148  0.3151
 6753SOL    HW131718   3.210   0.040   0.500 -1.2014  1.4500 -0.6418
 6753SOL    HW231719   3.185   0.070   0.361 -0.6479 -1.0165  0.1572
 6754SOL     OW31720   0.573   3.672   8.525 -0.1397  0.4157  0.0821
 6754SOL    HW131721   0.656   3.697   8.484 -0.8588  2.3355 -0.2178
 6754SOL    HW231722   0.603   3.628   8.605 -4.0250  1.1573  1.9574
 6755SOL     OW31723   2.740   4.337   7.186 -0.3244 -0.4180 -0.2849
 6755SOL    HW131724   2.648   4.353   7.164 -0.5492 -0.9868  0.2599
 6755SOL    HW231725   2.773   4.286   7.112 -1.1007 -0.8776 -0.3070
 6756SOL     OW31726   0.214   2.275   2.528  0.6271  0.0481  0.0677
 6756SOL    HW131727   0.121   2.253   2.518  0.1748  1.2971  1.6252
 6756SOL    HW231728   0.238   2.285   2.436 -1.1783 -0.4272 -0.4627
 6757SOL     OW31729   0.408   1.487  11.767 -0.4252  0.0364  0.9020
 6757SOL    HW131730   0.420   1.400  11.728  2.0430  1.6373 -1.9230
 6757SOL    HW231731   0.315   1.483  11.786 -0.2240 -0.6483  1.7540
 6758SOL     OW31732   0.859   3.625   9.501 -0.5088  0.2070  0.4052
 6758SOL    HW131733   0.834   3.715   9.482 -2.1168  0.0553  1.8099
 6758SOL    HW231734   0.808   3.611   9.581  1.1487 -0.2367  1.3650
 6759SOL     OW31735   2.081   0.150   5.482  0.0770  0.1659 -0.2623
 6759SOL    HW131736   1.993   0.153   5.520 -0.8640 -0.3742 -2.3475
 6759SOL    HW231737   2.111   0.234   5.517 -1.7775  1.1569 -1.0259
 6760SOL     OW31738   4.074   1.930  11.160 -0.2181  0.0618  0.0413
 6760SOL    HW131739   4.147   1.872  11.181  1.4088  1.6818 -1.1953
 6760SOL    HW231740   4.117   2.006  11.121 -1.4283 -0.5872 -2.5807
 6761SOL     OW31741   3.776   1.424   3.888  0.3700  0.6790 -0.2370
 6761SOL    HW131742   3.685   1.399   3.871 -0.3503  2.2618  1.3460
 6761SOL    HW231743   3.799   1.363   3.958 -1.2630  2.5603  1.9424
 6762SOL     OW31744   1.563   0.489   2.881  0.1295 -0.2396  0.1555
 6762SOL    HW131745   1.517   0.457   2.803  1.5047  1.1843 -1.2452
 6762SOL    HW231746   1.549   0.582   2.862 -1.0294 -0.7984 -1.7054
 6763SOL     OW31747   3.294   2.849   9.111  0.5623 -0.0574  0.6343
 6763SOL    HW131748   3.215   2.795   9.115  0.3088  0.3535  1.2249
 6763SOL    HW231749   3.355   2.787   9.151  0.2312  0.8321  2.5661
 6764SOL     OW31750   0.673   3.647   7.022 -0.1923 -0.3409  0.7305
 6764SOL    HW131751   0.635   3.604   6.946 -0.2544  0.2561  0.4263
 6764SOL    HW231752   0.731   3.577   7.054  2.5474  1.0254 -1.1973
 6765SOL     OW31753   2.093   1.548   6.946 -0.2512 -0.0860  0.5188
 6765SOL    HW131754   2.057   1.551   7.035 -2.4780  0.2400 -0.3877
 6765SOL    HW231755   2.053   1.466   6.915  2.5263 -0.9523 -0.7085
 6766SOL     OW31756   1.092   3.527  11.548  1.0187  0.1516  0.3806
 6766SOL    HW131757   1.159   3.463  11.525 -1.0965 -0.8146 -3.1747
 6766SOL    HW231758   1.046   3.532  11.464 -0.4985 -0.7307  1.1636
 6767SOL     OW31759   0.542   3.507   3.967  0.2570 -0.5226  0.3355
 6767SOL    HW131760   0.527   3.490   4.060  3.0743  1.9995  1.2367
 6767SOL    HW231761   0.600   3.439   3.932 -0.6169 -0.7552 -0.6676
 6768SOL     OW31762   2.025   0.533   7.777 -0.7363  0.1630 -0.7210
 6768SOL    HW131763   1.954   0.474   7.751 -2.0552  1.4005  0.0329
 6768SOL    HW231764   1.976   0.612   7.799 -0.6317 -0.2108  0.8181
 6769SOL     OW31765   0.062   3.044   3.085  0.9163  0.2913 -0.3092
 6769SOL    HW131766   4.714   3.064   3.147  0.8085  0.9452 -0.6367
 6769SOL    HW231767   0.011   3.047   3.003  0.1266  1.0915  0.2076
 6770SOL     OW31768   2.457   0.168  10.265 -0.2048  0.0224  0.1132
 6770SOL    HW131769   2.499   0.114  10.198  0.4224 -0.6378  1.0328
 6770SOL    HW231770   2.504   0.148  10.346  2.1362  1.1791 -0.9575
 6771SOL     OW31771   0.030   2.154   2.035 -0.0549 -0.6116  0.3113
 6771SOL    HW131772   4.717   2.169   2.122 -0.1502 -0.3500  0.2269
 6771SOL    HW231773   0.058   2.243   2.014  0.3047 -1.0623 -1.1788
 6772SOL     OW31774   1.815   2.425  17.579  0.1454 -0.1765  0.1787
 6772SOL    HW131775   1.835   2.503  17.630  0.4926 -0.9703  1.2682
 6772SOL    HW231776   1.817   2.359  17.649 -2.9357  0.6398  1.0230
 6773SOL     OW31777   2.724   4.539   2.318  0.7508  0.3067  0.2079
 6773SOL    HW131778   2.789   4.489   2.269  1.5278  0.0540  1.4864
 6773SOL    HW231779   2.646   4.490   2.291 -0.7128  2.1156  1.1430
 6774SOL     OW31780   2.936   3.772   8.314  0.3209  0.1384  0.4566
 6774SOL    HW131781   2.980   3.712   8.373  0.7477  1.6287  1.6482
 6774SOL    HW231782   2.849   3.754   8.350 -1.2137  3.3839 -1.5433
 6775SOL     OW31783   3.699   4.696   7.150 -0.3255 -0.0179  0.2294
 6775SOL    HW131784   3.695   4.644   7.231 -0.6387 -0.8279 -0.3035
 6775SOL    HW231785   3.793   4.712   7.144 -0.4195  0.2136 -0.6241
 6776SOL     OW31786   3.922   1.308   9.075  0.1219  0.5801 -0.0004
 6776SOL    HW131787   3.958   1.220   9.068  0.9966  1.1016 -2.2591
 6776SOL    HW231788   3.830   1.300   9.050  0.7587  0.8915 -2.4882
 6777SOL     OW31789   3.968   3.179   0.140  0.6760  0.6326  0.2772
 6777SOL    HW131790   3.937   3.107   0.085  0.2114 -0.6168  2.1749
 6777SOL    HW231791   3.884   3.218   0.162 -0.1801 -0.0362 -1.7416
 6778SOL     OW31792   2.301   0.390  14.983  0.2310  0.5271  0.3678
 6778SOL    HW131793   2.235   0.405  15.050 -2.1618 -2.7051 -1.2820
 6778SOL    HW231794   2.252   0.411  14.903  1.6227  1.7059 -0.1758
 6779SOL     OW31795   1.113   2.913   7.720  0.1478  0.1272  0.1230
 6779SOL    HW131796   1.094   2.948   7.634 -0.5628 -1.0589 -0.2032
 6779SOL    HW231797   1.058   2.966   7.777 -0.0432  0.6927 -0.5965
 6780SOL     OW31798   2.829   1.761  15.697 -0.1019 -0.5643  1.0853
 6780SOL    HW131799   2.753   1.794  15.649 -0.4460  0.1692  2.1382
 6780SOL    HW231800   2.884   1.832  15.664 -1.3335  0.7728  1.9248
 6781SOL     OW31801   1.533   1.115   5.443 -0.3600  0.2225  0.3205
 6781SOL    HW131802   1.521   1.129   5.349 -0.0366  0.3649  0.3010
 6781SOL    HW231803   1.465   1.049   5.454  0.0805  0.0717  2.1506
 6782SOL     OW31804   0.031   1.782   7.680  0.1337  0.1007 -0.2029
 6782SOL    HW131805   0.100   1.766   7.616  0.2914  1.6636 -0.4236
 6782SOL    HW231806   0.067   1.757   7.765  0.4460 -1.0290 -0.6800
 6783SOL     OW31807   0.292   2.887   8.686 -0.2051 -0.2244 -0.4041
 6783SOL    HW131808   0.362   2.874   8.750  2.4063 -0.9741 -3.4202
 6783SOL    HW231809   0.318   2.967   8.639 -2.0555 -1.4849 -3.5420
 6784SOL     OW31810   2.632   1.790   3.865  0.8935  0.2589  0.0198
 6784SOL    HW131811   2.573   1.741   3.922  0.3203 -1.2040 -1.8523
 6784SOL    HW231812   2.571   1.813   3.795 -1.4603  3.5246  3.1628
 6785SOL     OW31813   0.131   2.051   1.538  0.2960 -0.3968  0.1113
 6785SOL    HW131814   0.089   2.104   1.605  3.9943 -0.8170  2.7378
 6785SOL    HW231815   0.094   1.965   1.556 -1.9080  1.1198  2.6460
 6786SOL     OW31816   0.071   2.841   6.378 -0.1433 -0.5846  0.2235
 6786SOL    HW131817   0.127   2.769   6.407 -0.6649 -1.3114 -0.5602
 6786SOL    HW231818   4.711   2.812   6.418 -1.4308  0.5555 -1.6128
 6787SOL     OW31819   1.665   2.786   7.629  0.2781  0.2360 -0.2507
 6787SOL    HW131820   1.719   2.708   7.619 -0.0142  0.2052 -1.6800
 6787SOL    HW231821   1.690   2.827   7.712  0.2248  0.5863 -0.4063
 6788SOL     OW31822   0.303   3.432   4.184 -0.6852  0.4960  0.3045
 6788SOL    HW131823   0.330   3.360   4.127 -1.4006  1.3800 -1.1525
 6788SOL    HW231824   0.239   3.378   4.232  1.6758 -1.9152  0.7263
 6789SOL     OW31825   3.660   3.773  12.364  0.1066  0.9725  0.0551
 6789SOL    HW131826   3.716   3.844  12.397 -0.4508  0.8536  1.2394
 6789SOL    HW231827   3.665   3.715  12.440  0.7568  0.1166 -0.6390
 6790SOL     OW31828   2.565   2.963   5.537  0.2957 -0.2467  0.2501
 6790SOL    HW131829   2.580   3.053   5.565 -1.1057  0.6407 -1.8412
 6790SOL    HW231830   2.570   2.976   5.442 -0.7701  3.2120  0.6861
 6791SOL     OW31831   0.239   4.125   5.256 -0.0861 -0.3208  0.6580
 6791SOL    HW131832   0.318   4.074   5.273  0.4322  0.1074 -0.4459
 6791SOL    HW231833   0.259   4.193   5.191 -0.7030  1.0165  1.8741
 6792SOL     OW31834   0.550   0.022  10.307 -0.2274  0.0827  0.1088
 6792SOL    HW131835   0.558   4.716  10.398  1.9683 -1.5618 -0.6255
 6792SOL    HW231836   0.471   0.077  10.300 -0.0570  0.6235  2.1450
 6793SOL     OW31837   0.018   1.423   7.902  0.4140  0.5450  0.3430
 6793SOL    HW131838   0.012   1.335   7.939  1.4440  1.3834  2.4982
 6793SOL    HW231839   4.658   1.437   7.855 -0.4028 -0.6334  1.4033
 6794SOL     OW31840   3.023   4.645   2.395 -0.8112 -0.3066  0.2961
 6794SOL    HW131841   2.940   4.682   2.365  1.1551  1.1629 -3.3422
 6794SOL    HW231842   2.997   4.553   2.408 -0.9159 -0.5150 -1.3772
 6795SOL     OW31843   4.569   3.578  13.053  0.8240  0.5456  0.6113
 6795SOL    HW131844   4.609   3.560  13.138  0.5864  0.5456  0.7226
 6795SOL    HW231845   4.490   3.525  13.046  0.4088  1.3994 -1.1875
 6796SOL     OW31846   2.322   1.360   5.598  0.1951 -0.1129  0.6051
 6796SOL    HW131847   2.374   1.430   5.637  0.0900 -2.1162  4.3726
 6796SOL    HW231848   2.353   1.293   5.659  2.5705  0.3463 -0.1174
 6797SOL     OW31849   3.436   0.542   8.408  0.4939 -0.4718  0.2884
 6797SOL    HW131850   3.450   0.591   8.489  0.3135  0.1890 -0.0834
 6797SOL    HW231851   3.453   0.450   8.430  1.2979 -0.5684 -0.6950
 6798SOL     OW31852   4.623   0.263   7.075 -0.3344  0.3376 -0.3101
 6798SOL    HW131853   4.678   0.221   7.141 -0.9481 -1.8511 -1.1874
 6798SOL    HW231854   4.536   0.245   7.111 -1.0788  1.5700 -1.4873
 6799SOL     OW31855   2.816   1.257  12.960  0.0065 -0.8933 -0.2667
 6799SOL    HW131856   2.751   1.187  12.966 -0.7707 -0.0975  0.5956
 6799SOL    HW231857   2.759   1.332  12.947  0.8307 -0.2730 -0.3103
 6800SOL     OW31858   3.189   4.719   3.523 -0.2134  0.3645 -0.3844
 6800SOL    HW131859   3.097   0.016   3.539 -1.0155 -3.1556 -0.5529
 6800SOL    HW231860   3.202   0.012   3.430 -1.6731  1.9224 -0.3159
 6801SOL     OW31861   2.117   2.119   6.142  0.0494 -0.2914 -0.0795
 6801SOL    HW131862   2.084   2.039   6.184  1.0039 -0.9932 -0.6675
 6801SOL    HW231863   2.085   2.104   6.053 -5.1051  3.5184  1.1238
 6802SOL     OW31864   4.210   3.117  17.078  0.2983 -0.1476 -0.3123
 6802SOL    HW131865   4.148   3.165  17.133 -0.2194 -1.3974  0.1884
 6802SOL    HW231866   4.288   3.101  17.131  0.0658  0.5396  0.2495
 6803SOL     OW31867   0.616   2.461   9.157 -0.0705 -0.2439  0.0066
 6803SOL    HW131868   0.616   2.530   9.223 -1.6893  0.4565 -0.7148
 6803SOL    HW231869   0.669   2.497   9.085 -0.7826  1.1212  0.1601
 6804SOL     OW31870   1.211   1.066   8.544 -0.9620  1.0949  0.0144
 6804SOL    HW131871   1.245   1.044   8.631 -2.3287  2.4083  0.8771
 6804SOL    HW231872   1.176   0.982   8.514 -1.1187  2.0591 -2.5388
 6805SOL     OW31873   2.193   3.924  11.926  0.2666 -0.0185  0.5614
 6805SOL    HW131874   2.126   3.889  11.984 -0.2381  0.7948  0.4689
 6805SOL    HW231875   2.176   3.862  11.856  1.2677 -0.8892  1.0947
 6806SOL     OW31876   2.982   0.885  13.998 -0.0305 -0.3645  0.1941
 6806SOL    HW131877   3.016   0.964  13.955  1.9147 -0.6622  1.1963
 6806SOL    HW231878   2.890   0.895  13.972 -0.0467  0.4922  0.5736
 6807SOL     OW31879   2.611   3.370   9.748  0.5205 -0.2553 -0.0737
 6807SOL    HW131880   2.605   3.291   9.695 -0.1429  1.0631 -1.9658
 6807SOL    HW231881   2.703   3.399   9.750 -0.2316  1.9570  1.5844
 6808SOL     OW31882   0.008   3.885  15.104  0.5038  0.2321 -0.0755
 6808SOL    HW131883   0.018   3.902  15.010  1.7733  1.2970  0.2562
 6808SOL    HW231884   0.094   3.895  15.145  0.7823  0.5467 -0.7410
 6809SOL     OW31885   0.935   0.417   5.293  0.6256  0.5535 -0.7301
 6809SOL    HW131886   0.908   0.384   5.207  0.0893  0.0519 -0.3754
 6809SOL    HW231887   0.964   0.334   5.331 -0.8436 -0.2805 -1.4169
 6810SOL     OW31888   4.018   0.479   0.138  0.0647  0.0781 -0.1973
 6810SOL    HW131889   3.977   0.546   0.192  1.4415  1.8578 -1.3708
 6810SOL    HW231890   3.992   0.500   0.049 -0.5322  1.3780  0.2803
 6811SOL     OW31891   0.627   1.563   6.816  0.4235 -0.0019 -0.4522
 6811SOL    HW131892   0.537   1.573   6.788 -0.3866 -1.2937  1.7005
 6811SOL    HW231893   0.621   1.512   6.898  0.1296 -0.2315 -0.6168
 6812SOL     OW31894   3.699   3.345   0.058 -0.3055 -0.0185 -0.5124
 6812SOL    HW131895   3.638   3.419   0.058  1.6476  1.5800 -1.3059
 6812SOL    HW231896   3.692   3.322   0.150 -0.5462  1.6233 -0.1386
 6813SOL     OW31897   2.485   3.884   6.138 -0.0811  0.8354 -0.1383
 6813SOL    HW131898   2.434   3.920   6.065  3.1235  2.0580 -1.7838
 6813SOL    HW231899   2.518   3.964   6.179 -0.2607  0.4910  0.6630
 6814SOL     OW31900   0.435   3.040   3.619 -0.2283 -0.4916 -0.2049
 6814SOL    HW131901   0.427   2.949   3.648  0.3872 -0.4023  0.2397
 6814SOL    HW231902   0.469   3.024   3.531  0.5021 -0.3421  0.0536
 6815SOL     OW31903   1.701   1.411   1.816 -0.0211 -0.0098  0.0281
 6815SOL    HW131904   1.609   1.426   1.792  0.6687  2.8624 -0.9067
 6815SOL    HW231905   1.702   1.319   1.789  1.6097 -0.5568  1.9802
 6816SOL     OW31906   2.182   0.098  14.111 -0.2070  1.0153 -0.1411
 6816SOL    HW131907   2.183   0.184  14.153 -1.0517  0.0002  1.9174
 6816SOL    HW231908   2.227   0.050  14.180 -0.9232 -0.4239 -0.6807
 6817SOL     OW31909   3.061   2.868   5.547 -0.0635  0.3040  0.1033
 6817SOL    HW131910   3.116   2.826   5.480  0.5845 -1.8948  2.0319
 6817SOL    HW231911   3.068   2.804   5.618 -2.4143 -1.3919 -1.1799
 6818SOL     OW31912   4.214   0.376  16.851  0.2241 -0.8750 -0.3530
 6818SOL    HW131913   4.222   0.312  16.921 -0.2783 -0.1153  0.3924
 6818SOL    HW231914   4.156   0.329  16.791  0.5017 -0.7359 -0.7330
 6819SOL     OW31915   0.216   1.308   6.765 -0.2491  0.0587 -0.4321
 6819SOL    HW131916   0.137   1.279   6.722 -0.1906  1.1632 -1.2967
 6819SOL    HW231917   0.248   1.230   6.810  2.3271  0.2698 -1.8577
 6820SOL     OW31918   3.043   2.447   7.123 -0.4041  0.1794  0.1313
 6820SOL    HW131919   3.125   2.401   7.107 -1.3289 -1.5733  0.4653
 6820SOL    HW231920   2.999   2.421   7.042 -1.1838  1.0524  0.2704
 6821SOL     OW31921   1.547   2.721   4.724  0.1184  0.0723  0.0446
 6821SOL    HW131922   1.469   2.771   4.698  0.0242  0.6385  1.3983
 6821SOL    HW231923   1.576   2.691   4.638 -0.2678  1.5944 -0.6201
 6822SOL     OW31924   0.183   4.054   4.119  0.2647 -0.0764  0.2436
 6822SOL    HW131925   0.099   4.074   4.078 -0.6748  2.0231  3.1741
 6822SOL    HW231926   0.156   3.978   4.171  1.0251 -0.9096 -0.5875
 6823SOL     OW31927   0.309   0.856   2.906 -0.0607  0.0650 -0.4689
 6823SOL    HW131928   0.339   0.766   2.891  2.2990  1.1332 -2.1735
 6823SOL    HW231929   0.387   0.904   2.876  1.3088 -1.7579  0.1768
 6824SOL     OW31930   1.789   3.901   6.009 -0.0520 -0.2415  0.0150
 6824SOL    HW131931   1.843   3.847   5.951  0.8716 -1.2986  1.8621
 6824SOL    HW231932   1.703   3.887   5.968 -1.0509  1.6040  1.4776
 6825SOL     OW31933   2.743   0.319   5.984 -0.4323 -0.9595 -0.2593
 6825SOL    HW131934   2.783   0.245   5.938  0.0697 -1.9395  1.7949
 6825SOL    HW231935   2.798   0.393   5.959  1.5357 -2.1833  0.5008
 6826SOL     OW31936   3.228   1.275   5.678  0.3970 -0.0342  0.2382
 6826SOL    HW131937   3.305   1.254   5.625  0.8354 -0.1402  0.9272
 6826SOL    HW231938   3.153   1.242   5.627 -0.3091 -1.2130  2.0367
 6827SOL     OW31939   2.440   2.655   5.271 -0.3990 -0.5144 -0.2614
 6827SOL    HW131940   2.358   2.684   5.233 -0.3832  0.6965  0.6176
 6827SOL    HW231941   2.469   2.742   5.300 -1.3273 -0.3500  0.1713
 6828SOL     OW31942   1.081   2.581   0.965  0.0911  0.2701 -0.0985
 6828SOL    HW131943   1.152   2.576   1.029 -0.5635  0.9032  0.6812
 6828SOL    HW231944   1.037   2.502   0.995 -0.0695  0.4571  0.1552
 6829SOL     OW31945   3.077   0.479   6.940 -0.5335  0.7526 -0.0521
 6829SOL    HW131946   3.137   0.489   7.013 -1.4777  0.9142  0.7057
 6829SOL    HW231947   3.138   0.472   6.867 -0.8066  1.2295 -0.3299
 6830SOL     OW31948   3.288   4.619  12.239 -0.5681 -0.2096 -0.0081
 6830SOL    HW131949   3.234   4.582  12.170 -0.4057 -1.2373  0.4124
 6830SOL    HW231950   3.366   4.565  12.229  0.9498  2.0372 -0.3758
 6831SOL     OW31951   0.520   3.494  13.324  0.3356 -0.4696 -0.5178
 6831SOL    HW131952   0.559   3.526  13.243  0.0282 -2.5297 -1.4831
 6831SOL    HW231953   0.584   3.432  13.358 -1.3233 -1.2487  1.2111
 6832SOL     OW31954   4.639   3.326   7.754  0.5404 -0.2668 -0.5263
 6832SOL    HW131955   4.662   3.389   7.686  2.3016 -0.5728 -0.2169
 6832SOL    HW231956   4.569   3.282   7.706  0.7661 -0.9724 -0.2122
 6833SOL     OW31957   2.825   0.665  16.324  0.4517 -0.1589  0.1043
 6833SOL    HW131958   2.752   0.604  16.313 -0.8252  1.6342 -1.2706
 6833SOL    HW231959   2.870   0.637  16.404 -0.4774 -0.3599  0.5552
 6834SOL     OW31960   2.273   3.111   5.564  0.2603 -0.2484  0.2094
 6834SOL    HW131961   2.346   3.168   5.538 -0.0721 -0.1224 -0.4446
 6834SOL    HW231962   2.222   3.111   5.483  2.1503 -2.2623 -1.0072
 6835SOL     OW31963   3.403   4.538   8.552  0.2620  0.5092  0.7385
 6835SOL    HW131964   3.333   4.478   8.578 -0.2247  0.2823 -1.0848
 6835SOL    HW231965   3.407   4.510   8.460 -2.6062  0.2810  0.6532
 6836SOL     OW31966   2.441   3.994   1.303  0.5656 -0.2547  0.0006
 6836SOL    HW131967   2.446   4.071   1.359  1.8225  1.2968 -2.2456
 6836SOL    HW231968   2.375   4.028   1.242  1.8100  1.9957 -0.0919
 6837SOL     OW31969   4.427   0.543   8.281 -0.5178  0.2851 -0.3023
 6837SOL    HW131970   4.454   0.492   8.358  2.8740  0.9040 -1.0911
 6837SOL    HW231971   4.349   0.581   8.320 -1.9479 -0.9267 -2.0006
 6838SOL     OW31972   3.495   2.428   3.662  0.1661 -0.4178 -0.1195
 6838SOL    HW131973   3.584   2.394   3.660  0.2117 -0.5573  3.2600
 6838SOL    HW231974   3.447   2.346   3.650 -1.3522  0.5231 -0.5199
 6839SOL     OW31975   2.402   3.022  16.067 -0.0581 -0.0401 -0.7994
 6839SOL    HW131976   2.450   3.099  16.100 -1.0851 -0.4649  1.6764
 6839SOL    HW231977   2.445   2.958  16.124 -2.8790  0.0915  1.4383
 6840SOL     OW31978   3.794   0.176  11.273 -0.3270  0.1731 -0.7215
 6840SOL    HW131979   3.764   0.149  11.360  2.4974 -1.2350 -0.1599
 6840SOL    HW231980   3.759   0.265  11.273 -0.9209 -0.0586  1.3503
 6841SOL     OW31981   0.948   2.949  15.070 -0.3509  0.4828 -0.1486
 6841SOL    HW131982   0.943   3.035  15.112  0.0537  0.5557 -0.2547
 6841SOL    HW231983   0.992   2.900  15.139  0.5043  0.2881 -0.8311
 6842SOL     OW31984   1.987   2.533   5.525  0.1771 -0.1323 -0.2247
 6842SOL    HW131985   2.044   2.467   5.485 -2.2991 -1.4083 -1.6073
 6842SOL    HW231986   1.904   2.488   5.536  0.5568 -0.3772  1.8363
 6843SOL     OW31987   4.631   4.078   8.614 -0.4232  0.1222  0.2154
 6843SOL    HW131988   4.702   4.016   8.634  2.4763  2.7054 -2.1143
 6843SOL    HW231989   4.563   4.011   8.604  1.5878 -1.8491 -0.4025
 6844SOL     OW31990   0.950   0.797   3.136 -0.1252  0.1679 -0.0775
 6844SOL    HW131991   0.937   0.862   3.067  0.3771 -0.8193 -1.0952
 6844SOL    HW231992   1.043   0.776   3.127 -0.8212 -2.6097 -0.6145
 6845SOL     OW31993   1.273   1.276  14.742  0.5842 -0.0527 -0.0780
 6845SOL    HW131994   1.315   1.234  14.667 -0.3708  2.6363 -2.1195
 6845SOL    HW231995   1.187   1.234  14.741  0.3143  0.4504  1.4040
 6846SOL     OW31996   3.288   3.929   5.374 -0.9345  0.0476 -0.1429
 6846SOL    HW131997   3.217   3.886   5.421  0.3134 -2.4648 -0.5545
 6846SOL    HW231998   3.337   3.854   5.340 -1.1828 -0.8003  1.3529
 6847SOL     OW31999   3.798   3.366   3.780 -0.6442  0.0327  0.0405
 6847SOL    HW132000   3.759   3.447   3.812 -0.7610 -0.8118  2.0570
 6847SOL    HW232001   3.744   3.308   3.834  0.0006 -2.6024 -2.1224
 6848SOL     OW32002   2.888   2.603   0.283  0.2596  0.4797 -0.2427
 6848SOL    HW132003   2.910   2.510   0.283  2.1792  0.9347 -3.1790
 6848SOL    HW232004   2.829   2.602   0.208 -0.4057 -1.4417  0.3056
 6849SOL     OW32005   2.955   3.562   8.943 -0.3494  0.2511 -0.1950
 6849SOL    HW132006   2.937   3.640   8.891 -3.1783  1.4760  2.6464
 6849SOL    HW232007   2.867   3.549   8.978 -0.6456  2.3801 -0.1622
 6850SOL     OW32008   2.210   3.407  11.761  0.1830  0.0585 -0.3544
 6850SOL    HW132009   2.136   3.347  11.767  0.0405  0.4758  2.1869
 6850SOL    HW232010   2.272   3.339  11.734  1.4289  0.5670  1.2332
 6851SOL     OW32011   1.512   1.599   2.038  0.4660 -0.5705  0.0409
 6851SOL    HW132012   1.531   1.522   2.092  0.3712  0.5975  1.7728
 6851SOL    HW232013   1.498   1.563   1.951 -0.2374  0.5796 -0.3218
 6852SOL     OW32014   0.835   4.527   5.509  0.1518  0.0959 -0.0191
 6852SOL    HW132015   0.861   4.538   5.418 -0.0050 -1.4645 -0.2430
 6852SOL    HW232016   0.901   4.462   5.533 -1.1823 -1.6511 -1.1701
 6853SOL     OW32017   4.504   3.290   4.699 -0.2858  0.1509  0.1323
 6853SOL    HW132018   4.424   3.240   4.719  0.7810 -1.2837  0.7543
 6853SOL    HW232019   4.488   3.316   4.608  0.5120  3.2543  0.8895
 6854SOL     OW32020   3.155   3.799   6.133 -0.7472 -0.0718  0.0614
 6854SOL    HW132021   3.097   3.872   6.156  2.8289  2.8953 -0.3686
 6854SOL    HW232022   3.164   3.751   6.215 -1.9923 -0.6265 -0.1209
 6855SOL     OW32023   0.226   0.389   0.418  0.4510  0.2921 -0.3650
 6855SOL    HW132024   0.163   0.352   0.479 -0.7272  1.0165 -1.1392
 6855SOL    HW232025   0.161   0.435   0.365  0.6423  0.0230 -0.8319
 6856SOL     OW32026   0.331   3.598  10.819 -0.7514 -0.7761  0.6074
 6856SOL    HW132027   0.296   3.646  10.894 -0.8502 -0.8414  0.6032
 6856SOL    HW232028   0.256   3.541  10.799  1.0165 -2.6691 -0.6068
 6857SOL     OW32029   1.744   3.340  17.676 -0.1879 -0.1448 -0.0585
 6857SOL    HW132030   1.756   3.377  17.588 -0.8467 -1.0881 -0.5493
 6857SOL    HW232031   1.695   3.261  17.654 -0.1404 -0.2651  0.2720
 6858SOL     OW32032   2.292   0.110  13.583  0.0436 -0.1538  0.7398
 6858SOL    HW132033   2.354   0.180  13.603 -1.2057  0.8818  0.9648
 6858SOL    HW232034   2.234   0.125  13.658  0.3895  2.2150  0.5084
 6859SOL     OW32035   2.226   2.086   4.911 -0.0432  0.6895 -0.7290
 6859SOL    HW132036   2.144   2.045   4.884  1.0091 -1.4374 -0.6809
 6859SOL    HW232037   2.277   2.075   4.830  0.7208  3.3261 -0.6082
 6860SOL     OW32038   1.388   4.361   1.143 -0.1017  0.6295 -0.1821
 6860SOL    HW132039   1.355   4.279   1.107  0.8859  0.1916 -0.0845
 6860SOL    HW232040   1.483   4.356   1.142 -0.0890  1.1445 -1.5003
 6861SOL     OW32041   2.832   1.054   3.066 -0.6153 -0.1011  0.0320
 6861SOL    HW132042   2.768   1.004   3.117  0.7817  0.3828  2.2923
 6861SOL    HW232043   2.789   1.066   2.982  0.6929  0.9413 -0.4876
 6862SOL     OW32044   2.822   1.662  15.995  0.0960  0.1959 -0.1948
 6862SOL    HW132045   2.800   1.643  15.903 -0.7571 -3.1018  0.7067
 6862SOL    HW232046   2.774   1.588  16.032 -1.2688  1.7075  1.0647
 6863SOL     OW32047   1.029   4.091  10.402  0.3235  0.2528  0.0887
 6863SOL    HW132048   1.069   4.004  10.397  0.2709  0.3015 -1.1453
 6863SOL    HW232049   0.952   4.081  10.347  1.5338  1.9289 -1.9200
 6864SOL     OW32050   0.865   2.778   4.082  0.6434 -0.0861 -0.2626
 6864SOL    HW132051   0.782   2.771   4.128  1.0023  0.4851  0.4646
 6864SOL    HW232052   0.854   2.739   3.995 -0.0199 -0.4570 -0.0093
 6865SOL     OW32053   2.212   2.806   3.290  0.3701  0.7691 -0.1034
 6865SOL    HW132054   2.276   2.877   3.295  0.5295  0.6802 -0.9629
 6865SOL    HW232055   2.223   2.792   3.196  0.2097 -0.0638  0.0024
 6866SOL     OW32056   0.238   1.142  15.886  0.5696 -0.1811 -0.1242
 6866SOL    HW132057   0.220   1.076  15.819 -0.9521  0.7908 -0.6778
 6866SOL    HW232058   0.211   1.093  15.963 -0.1191 -0.5772 -0.6203
 6867SOL     OW32059   1.718   4.461  14.987  0.3648  0.4423  0.4272
 6867SOL    HW132060   1.793   4.422  15.031  0.4466 -2.5892 -2.4210
 6867SOL    HW232061   1.655   4.391  15.003  0.2461  0.9505  2.2137
 6868SOL     OW32062   3.272   1.757  16.760 -0.0614 -0.2266  0.6358
 6868SOL    HW132063   3.250   1.846  16.734  0.0996  0.2291  2.0282
 6868SOL    HW232064   3.352   1.753  16.708 -0.2606 -1.0067  0.3830
 6869SOL     OW32065   1.493   4.117   7.508  0.4555  0.4465  0.0853
 6869SOL    HW132066   1.473   4.148   7.420 -1.8250  0.8722  0.7601
 6869SOL    HW232067   1.536   4.034   7.488 -1.7809 -0.9649  1.1272
 6870SOL     OW32068   1.682   3.425   7.717 -0.1743  0.0458  0.2096
 6870SOL    HW132069   1.622   3.351   7.729 -1.8220  1.3169 -0.1866
 6870SOL    HW232070   1.765   3.383   7.739  0.7201  1.3404 -0.6926
 6871SOL     OW32071   0.087   3.226  15.291  0.6962 -0.8319 -0.0643
 6871SOL    HW132072   0.149   3.175  15.343  0.7060 -0.3206  0.4263
 6871SOL    HW232073   0.147   3.285  15.246  0.4599  0.4976  1.3657
 6872SOL     OW32074   3.459   2.887   8.895 -0.4154  0.0185  0.5735
 6872SOL    HW132075   3.482   2.977   8.917 -0.4197 -0.0712  0.9511
 6872SOL    HW232076   3.377   2.879   8.943  0.4599 -1.0941  1.9037
 6873SOL     OW32077   1.069   2.526   5.679 -0.0383  0.2285 -0.1680
 6873SOL    HW132078   1.111   2.463   5.737 -1.8115  0.4013  1.3081
 6873SOL    HW232079   1.134   2.595   5.669  2.0356 -1.8560 -0.9721
 6874SOL     OW32080   4.622   3.162   2.309  0.4246  0.0133  0.1578
 6874SOL    HW132081   4.621   3.257   2.305  0.5136 -0.0235 -0.6959
 6874SOL    HW232082   4.716   3.147   2.300  0.4850  0.6935 -0.2760
 6875SOL     OW32083   2.287   2.055   7.974 -0.9990 -0.0329  0.2098
 6875SOL    HW132084   2.378   2.044   7.947 -0.4030  2.4692  1.2353
 6875SOL    HW232085   2.238   2.031   7.896 -1.1170 -2.9151  1.1592
 6876SOL     OW32086   1.852   1.541   0.837  0.5488  0.0409  0.4324
 6876SOL    HW132087   1.799   1.582   0.905 -2.3775 -2.1641 -0.5383
 6876SOL    HW232088   1.924   1.506   0.890 -0.5906  0.4427  2.2528
 6877SOL     OW32089   0.863   1.555   7.809  0.5645  0.1814  0.0217
 6877SOL    HW132090   0.822   1.613   7.746 -3.0712 -2.9788 -0.5726
 6877SOL    HW232091   0.950   1.594   7.801  0.4227  0.4874  0.0001
 6878SOL     OW32092   2.911   2.684   5.357  0.5150  0.1536  0.0819
 6878SOL    HW132093   2.887   2.694   5.449  0.4193  0.3783  0.0320
 6878SOL    HW232094   2.863   2.758   5.320 -1.7285 -1.0361  0.5866
 6879SOL     OW32095   3.642   1.730  12.317  0.5830  0.0989 -0.1901
 6879SOL    HW132096   3.709   1.796  12.338  1.3467 -0.2610 -1.5462
 6879SOL    HW232097   3.555   1.767  12.332  0.1939 -0.8462 -0.1444
 6880SOL     OW32098   1.035   3.249   2.266  0.4642 -0.6649  0.1684
 6880SOL    HW132099   0.979   3.276   2.193  0.1798  1.5870  1.2148
 6880SOL    HW232100   1.074   3.336   2.276 -1.8307  0.3864 -0.1132
 6881SOL     OW32101   0.713   0.938   3.306 -0.2269 -0.6991  0.5004
 6881SOL    HW132102   0.713   0.989   3.387 -1.9620 -0.6571  0.4632
 6881SOL    HW232103   0.748   1.003   3.245  2.6947 -2.5007  0.2084
 6882SOL     OW32104   0.168   1.448   3.857  0.0963 -0.1020  0.5256
 6882SOL    HW132105   0.195   1.403   3.777  0.6560 -0.0584  0.6941
 6882SOL    HW232106   0.088   1.397   3.874  0.2103 -0.4221  0.1028
 6883SOL     OW32107   0.786   3.885  10.011  0.5802 -0.2196  0.4098
 6883SOL    HW132108   0.825   3.957   9.961 -3.2984  2.5492  1.3499
 6883SOL    HW232109   0.798   3.909  10.102 -0.2468  1.2137  0.1497
 6884SOL     OW32110   0.990   0.936   3.754 -0.2049  0.3116 -0.1945
 6884SOL    HW132111   1.048   0.908   3.825 -2.0105  0.2403  1.2515
 6884SOL    HW232112   0.980   0.854   3.705  0.9100  0.6360 -0.9650
 6885SOL     OW32113   4.451   1.621   5.872 -0.2641  0.5187  0.0358
 6885SOL    HW132114   4.456   1.645   5.780  0.4652 -0.6690 -0.2285
 6885SOL    HW232115   4.494   1.535   5.877 -1.5638 -0.0748  0.9035
 6886SOL     OW32116   0.506   1.974   1.057  0.1980 -0.8801  0.1152
 6886SOL    HW132117   0.449   2.042   1.021  2.0445  0.2992 -0.5649
 6886SOL    HW232118   0.565   2.026   1.112 -0.4371 -1.0601  0.9806
 6887SOL     OW32119   1.541   0.102   3.597 -0.1889  0.1485 -0.5535
 6887SOL    HW132120   1.599   0.160   3.547 -2.4756  1.0601 -2.1708
 6887SOL    HW232121   1.595   0.109   3.675  0.1545 -0.0242 -0.7762
 6888SOL     OW32122   3.550   0.889   6.806 -0.1706 -0.8191  0.3372
 6888SOL    HW132123   3.556   0.882   6.902 -1.9177  0.9357  0.5646
 6888SOL    HW232124   3.455   0.895   6.796  0.3257  0.7609 -3.1451
 6889SOL     OW32125   3.817   3.140   8.078 -0.8841 -0.0124 -0.1793
 6889SOL    HW132126   3.846   3.053   8.051 -1.4838 -0.4594  0.6408
 6889SOL    HW232127   3.819   3.186   7.994 -1.6750 -0.3931 -0.4068
 6890SOL     OW32128   1.198   0.490   6.254  0.5374  0.4216 -0.4343
 6890SOL    HW132129   1.136   0.563   6.260  1.2818  1.1624 -1.6846
 6890SOL    HW232130   1.267   0.538   6.299  2.2615 -2.2831 -0.1851
 6891SOL     OW32131   4.431   4.012   9.734  0.4350 -0.4039 -0.0068
 6891SOL    HW132132   4.393   3.971   9.657  0.5313 -0.3753 -0.0698
 6891SOL    HW232133   4.355   4.025   9.790 -1.3466 -0.8249 -2.3538
 6892SOL     OW32134   2.062   2.997   0.875  0.3414  0.2962 -0.2532
 6892SOL    HW132135   2.009   3.056   0.821  2.5569  1.0707 -1.5955
 6892SOL    HW232136   2.069   3.036   0.962  0.5183  1.2536 -0.6960
 6893SOL     OW32137   2.918   0.325   8.012  0.2294 -0.3688 -0.3386
 6893SOL    HW132138   2.827   0.340   8.038  0.2259 -0.3675 -0.3519
 6893SOL    HW232139   2.945   0.417   8.007 -1.5358  0.3252  2.5326
 6894SOL     OW32140   4.338   4.715  12.952  0.5747 -0.2989 -0.1958
 6894SOL    HW132141   4.414   4.699  13.007  0.5564 -1.3696 -0.4665
 6894SOL    HW232142   4.305   4.625  12.942 -1.3035  0.3684 -0.1437
 6895SOL     OW32143   2.174   2.538  17.419 -0.1848  0.0442 -0.1348
 6895SOL    HW132144   2.083   2.561  17.404 -0.0399  0.8745  0.1918
 6895SOL    HW232145   2.175   2.454  17.375 -0.8683  2.0395 -3.9677
 6896SOL     OW32146   3.525   4.346   3.030  0.4753 -0.1845  0.2174
 6896SOL    HW132147   3.540   4.268   2.977 -0.2469 -0.5784  0.5882
 6896SOL    HW232148   3.484   4.309   3.108  0.3347  0.9262  0.6682
 6897SOL     OW32149   1.072   1.082  14.593 -0.2259  0.3937  0.1219
 6897SOL    HW132150   1.143   1.060  14.533 -0.1275 -0.5556  0.5943
 6897SOL    HW232151   1.021   1.002  14.593 -0.1775  0.3639  0.6123
 6898SOL     OW32152   1.603   3.689   0.503  0.1490  0.9548  0.1926
 6898SOL    HW132153   1.514   3.659   0.520  0.4717 -0.0451  0.1364
 6898SOL    HW232154   1.599   3.767   0.558  1.4970  0.6076  0.8002
 6899SOL     OW32155   0.007   4.490   9.031  0.2155 -0.4233 -0.4374
 6899SOL    HW132156   0.042   4.439   8.958 -2.8204 -4.1683  0.7382
 6899SOL    HW232157   0.022   4.434   9.107 -1.5138 -0.4196 -0.1031
 6900SOL     OW32158   0.527   2.640   7.820  0.0492  0.3529  0.1041
 6900SOL    HW132159   0.543   2.549   7.795 -1.7546  0.5523 -1.7026
 6900SOL    HW232160   0.597   2.653   7.884 -0.0039 -0.7140  0.3898
 6901SOL     OW32161   3.475   2.654   0.303  0.4542  0.6124  0.0996
 6901SOL    HW132162   3.392   2.606   0.294 -0.0294  1.3605  0.5502
 6901SOL    HW232163   3.541   2.587   0.287  0.9711  1.1683 -0.0681
 6902SOL     OW32164   2.165   4.026   3.476 -0.0627 -1.0439  0.1970
 6902SOL    HW132165   2.126   4.009   3.390 -1.9591 -1.3075  1.1080
 6902SOL    HW232166   2.189   4.117   3.458  0.2250 -0.8019  1.8475
 6903SOL     OW32167   1.637   1.842  17.327  0.6619  0.0506 -0.5627
 6903SOL    HW132168   1.731   1.833  17.313  0.7126  0.5268 -0.4973
 6903SOL    HW232169   1.608   1.752  17.346 -4.0626  1.3723 -1.5424
 6904SOL     OW32170   1.774   3.010   4.592 -0.3247  0.9363 -0.2271
 6904SOL    HW132171   1.692   2.968   4.566 -0.3786  0.3917  0.8445
 6904SOL    HW232172   1.813   2.942   4.647 -0.7013  1.0440  0.1704
 6905SOL     OW32173   3.947   0.486   2.577 -0.2459  0.4118  0.2079
 6905SOL    HW132174   3.992   0.570   2.569  1.2746 -0.3052  1.3164
 6905SOL    HW232175   3.946   0.467   2.671 -0.9716 -0.5057  0.0151
 6906SOL     OW32176   3.227   3.825   5.012  0.1767  0.1812 -0.0899
 6906SOL    HW132177   3.176   3.825   5.093  0.0466  0.1286 -0.1721
 6906SOL    HW232178   3.190   3.902   4.969 -0.3286  0.3072  0.5614
 6907SOL     OW32179   1.499   2.753   7.376 -0.6923 -0.3856 -1.0306
 6907SOL    HW132180   1.406   2.728   7.373 -1.0151  0.5823  0.6399
 6907SOL    HW232181   1.531   2.689   7.439  0.2640  1.2328  0.1251
 6908SOL     OW32182   3.996   2.901   5.191  0.3973 -0.1777  0.2192
 6908SOL    HW132183   3.993   2.991   5.159 -1.1217  0.0913  1.0796
 6908SOL    HW232184   3.987   2.913   5.286 -0.9891  0.6384 -0.0155
 6909SOL     OW32185   2.487   3.489   7.243 -0.1210 -0.4338  0.2733
 6909SOL    HW132186   2.485   3.488   7.338  0.4278  3.8806  0.3317
 6909SOL    HW232187   2.546   3.558   7.213 -3.3915  1.9552 -0.5811
 6910SOL     OW32188   3.566   4.193   8.702  0.1609  0.0149  0.3882
 6910SOL    HW132189   3.530   4.126   8.644 -0.2852  0.5946  0.0030
 6910SOL    HW232190   3.493   4.209   8.762 -0.8530 -1.2738 -0.5156
 6911SOL     OW32191   0.046   0.318   7.440  0.4629  0.4623 -0.3037
 6911SOL    HW132192   4.678   0.327   7.412  0.9271  0.7936 -1.7313
 6911SOL    HW232193   0.038   0.384   7.509  0.1086 -1.2496  1.2985
 6912SOL     OW32194   3.056   4.180   3.825 -0.4063  0.2603 -0.4836
 6912SOL    HW132195   3.092   4.095   3.800 -0.5077  0.0358  0.1441
 6912SOL    HW232196   3.008   4.157   3.904 -0.1720 -0.7044 -0.6196
 6913SOL     OW32197   3.080   2.524   3.895 -0.0748  0.2803 -0.0337
 6913SOL    HW132198   3.111   2.464   3.826  4.3803  0.7463  1.5749
 6913SOL    HW232199   2.990   2.492   3.906  0.1757 -0.9872 -1.6691
 6914SOL     OW32200   2.861   0.389  10.796 -0.1841  0.4849  0.2049
 6914SOL    HW132201   2.939   0.342  10.769 -0.1756 -0.1828  1.3913
 6914SOL    HW232202   2.899   0.470  10.831  1.6291  0.3599 -1.4783
 6915SOL     OW32203   0.333   1.604  13.027 -0.3132  0.0918  0.5583
 6915SOL    HW132204   0.388   1.529  13.050 -0.6575 -0.4440 -0.3876
 6915SOL    HW232205   0.392   1.677  13.046  0.2841 -0.1887 -0.2581
 6916SOL     OW32206   2.640   1.458   9.292 -0.6294 -0.2666 -0.3954
 6916SOL    HW132207   2.639   1.367   9.261  0.0435 -0.7210  0.8942
 6916SOL    HW232208   2.626   1.436   9.384  0.7464  0.2506 -0.0515
 6917SOL     OW32209   1.316   0.823  15.302 -0.6260 -0.5980 -0.8409
 6917SOL    HW132210   1.261   0.877  15.244 -2.3452 -0.3212  1.0166
 6917SOL    HW232211   1.263   0.829  15.382 -0.0267  0.5911 -0.5313
 6918SOL     OW32212   3.691   2.036   4.098  0.1565 -0.4893  0.0735
 6918SOL    HW132213   3.753   2.074   4.036  0.0294 -1.7818 -0.8506
 6918SOL    HW232214   3.739   1.965   4.140 -0.2885 -1.1950 -0.6097
 6919SOL     OW32215   3.173   0.576   3.894 -0.4017  0.1186  0.2436
 6919SOL    HW132216   3.155   0.588   3.801 -0.8383 -2.4039  0.0106
 6919SOL    HW232217   3.223   0.653   3.922  1.3036 -2.0418  3.2004
 6920SOL     OW32218   4.627   2.130  11.898 -0.9853  0.0139  0.1300
 6920SOL    HW132219   4.631   2.220  11.931  0.3710 -1.0491  2.8270
 6920SOL    HW232220   4.619   2.146  11.804  4.2174  0.7921 -0.2077
 6921SOL     OW32221   3.068   0.007   4.217  0.3579 -0.0477 -0.3532
 6921SOL    HW132222   3.140   4.706   4.158  0.6136  3.2668 -1.3625
 6921SOL    HW232223   2.995   4.710   4.159 -1.1896  2.5279  0.7027
 6922SOL     OW32224   4.554   4.700   9.110 -0.2474 -0.1122 -0.0580
 6922SOL    HW132225   4.523   0.022   9.031  1.4663  1.5386  0.2288
 6922SOL    HW232226   4.643   4.674   9.086  0.0287  0.2803  0.5453
 6923SOL     OW32227   3.617   0.754   8.821  0.6796  0.1348 -0.2450
 6923SOL    HW132228   3.625   0.685   8.886 -0.3538  0.1353 -0.1149
 6923SOL    HW232229   3.603   0.827   8.882 -0.9828  0.3960 -0.9482
 6924SOL     OW32230   1.933   3.628  10.518  0.1855  0.0435 -0.1319
 6924SOL    HW132231   1.986   3.600  10.593  0.5445 -0.5199 -0.6028
 6924SOL    HW232232   1.998   3.651  10.452  0.0873 -1.0981 -0.6198
 6925SOL     OW32233   1.599   3.151   4.142  0.4964  0.6440  1.0489
 6925SOL    HW132234   1.617   3.241   4.115  0.4622  0.3419 -0.0101
 6925SOL    HW232235   1.686   3.124   4.171  0.0928  0.5272  2.1423
 6926SOL     OW32236   1.801   0.703   7.265  0.4967  0.2228 -0.1000
 6926SOL    HW132237   1.789   0.777   7.324 -0.6275  0.4878 -0.6567
 6926SOL    HW232238   1.881   0.662   7.299 -1.2502 -1.2973  2.2558
 6927SOL     OW32239   4.716   3.503  11.893  0.2929 -0.1595 -0.7425
 6927SOL    HW132240   4.703   3.484  11.800 -0.3875 -0.7049 -0.5277
 6927SOL    HW232241   0.086   3.479  11.901 -0.0123 -1.3702 -0.8785
 6928SOL     OW32242   2.336   1.540  10.061  0.5418  0.5271  0.1841
 6928SOL    HW132243   2.431   1.526  10.062  0.3566 -0.7383  0.5117
 6928SOL    HW232244   2.329   1.502   9.973  0.9359 -3.5778  1.9291
 6929SOL     OW32245   1.402   2.503  11.088 -1.3580  0.3747 -0.1899
 6929SOL    HW132246   1.452   2.509  11.169  0.3782 -2.8325 -1.0057
 6929SOL    HW232247   1.420   2.586  11.044 -1.8014  1.0437  0.9089
 6930SOL     OW32248   2.262   2.519  14.806 -0.3938  0.2388 -0.6238
 6930SOL    HW132249   2.261   2.454  14.876  0.8975  3.6607  2.5637
 6930SOL    HW232250   2.330   2.572  14.849 -1.9291  2.2361 -0.6511
 6931SOL     OW32251   0.791   1.399   5.584 -0.4075  0.1562  0.6833
 6931SOL    HW132252   0.720   1.375   5.643 -2.3908  0.1157 -1.7654
 6931SOL    HW232253   0.871   1.400   5.638  0.4183  1.2783 -0.5524
 6932SOL     OW32254   3.161   2.763   7.804  1.0589 -0.0698 -0.5994
 6932SOL    HW132255   3.166   2.695   7.736  2.7422  1.9094 -2.4517
 6932SOL    HW232256   3.085   2.725   7.849  0.0045  0.2136 -2.1170
 6933SOL     OW32257   2.315   1.520   8.265 -0.2826  0.0043 -0.3850
 6933SOL    HW132258   2.293   1.592   8.207 -0.8665  0.3673  0.2892
 6933SOL    HW232259   2.352   1.567   8.340 -2.6291  1.0992  0.0608
 6934SOL     OW32260   0.718   1.920   2.295  0.4101 -0.3154 -0.5239
 6934SOL    HW132261   0.646   1.978   2.270  0.8296  0.2761 -0.3460
 6934SOL    HW232262   0.766   1.927   2.213 -0.9756  0.4338 -1.2631
 6935SOL     OW32263   4.218   0.705   2.606  0.0290  0.0333  0.4837
 6935SOL    HW132264   4.229   0.698   2.511  2.0905 -0.4780  0.7796
 6935SOL    HW232265   4.247   0.793   2.625  2.2643 -1.3872  3.5407
 6936SOL     OW32266   2.557   3.421   3.254 -0.3915  0.2170 -0.7878
 6936SOL    HW132267   2.526   3.354   3.314 -0.7250  0.3022 -0.8669
 6936SOL    HW232268   2.605   3.478   3.314 -1.3279 -0.0280  0.1759
 6937SOL     OW32269   3.829   3.310   0.573  0.3925 -0.0859  0.3758
 6937SOL    HW132270   3.795   3.228   0.609 -3.2052  0.3927 -1.9725
 6937SOL    HW232271   3.895   3.343   0.635  2.4504 -0.7188 -1.4829
 6938SOL     OW32272   2.780   2.060   8.141  0.0950 -0.4968 -0.5192
 6938SOL    HW132273   2.761   1.971   8.171 -1.3293 -0.7202 -2.0831
 6938SOL    HW232274   2.873   2.070   8.162 -0.0546 -0.3581  0.0559
 6939SOL     OW32275   1.579   4.672   2.902  0.6178 -0.1230  0.7783
 6939SOL    HW132276   1.669   4.683   2.871 -0.1117  1.1889 -0.8939
 6939SOL    HW232277   1.543   4.611   2.838  0.1877  0.4435  0.4787
 6940SOL     OW32278   3.297   2.647   3.678 -0.0031 -0.7234 -0.5774
 6940SOL    HW132279   3.209   2.637   3.641  0.4508 -0.4122 -1.7366
 6940SOL    HW232280   3.328   2.557   3.668  2.0528  0.0494 -1.0786
 6941SOL     OW32281   2.283   4.284   8.023  0.5605 -0.3849  0.4076
 6941SOL    HW132282   2.197   4.266   8.060  1.1855  1.3024  2.7304
 6941SOL    HW232283   2.332   4.209   8.057  2.7822  0.2705 -1.3135
 6942SOL     OW32284   1.278   0.023   5.653  0.3439  0.0848 -0.1346
 6942SOL    HW132285   1.295   0.022   5.747  0.0771 -1.6945 -0.0994
 6942SOL    HW232286   1.266   0.114   5.625  1.9936  0.8566  1.6770
 6943SOL     OW32287   2.853   1.387   8.523 -0.2178  0.5436 -0.4302
 6943SOL    HW132288   2.787   1.394   8.592  0.6320  0.1974  0.4025
 6943SOL    HW232289   2.869   1.481   8.517  1.2839  0.4382  2.1120
 6944SOL     OW32290   3.822   1.419   0.399 -0.2371  0.7146 -0.3623
 6944SOL    HW132291   3.790   1.371   0.476  1.4001  0.5093  0.1976
 6944SOL    HW232292   3.739   1.443   0.357 -1.5430 -1.1662  1.1383
 6945SOL     OW32293   3.928   0.082  16.903 -0.0078 -0.6433  0.1467
 6945SOL    HW132294   3.921   4.717  16.938  2.1599 -0.5331  0.8909
 6945SOL    HW232295   4.004   0.071  16.845  1.7484  2.7342  1.7885
 6946SOL     OW32296   1.738   1.591  17.470 -0.1376  0.1965 -0.4174
 6946SOL    HW132297   1.745   1.571  17.376  1.7321  0.3115 -0.3051
 6946SOL    HW232298   1.682   1.521  17.503 -1.8051  1.8947  0.3268
 6947SOL     OW32299   0.064   2.407  16.318 -0.4986  0.0984  0.0840
 6947SOL    HW132300   0.054   2.439  16.407 -3.2725  1.7854 -0.8360
 6947SOL    HW232301   4.698   2.396  16.283 -0.3431 -1.7897  0.2699
 6948SOL     OW32302   3.622   3.719   8.306  0.0608  0.0947  0.5858
 6948SOL    HW132303   3.709   3.693   8.337 -0.1799 -0.2942  0.9403
 6948SOL    HW232304   3.639   3.799   8.257  3.1304 -1.0556 -0.1789
 6949SOL     OW32305   2.709   4.505   6.910  0.1816 -0.2032  0.8675
 6949SOL    HW132306   2.672   4.562   6.978  1.4450  2.0512 -0.3189
 6949SOL    HW232307   2.801   4.526   6.928 -0.0372  1.2888  0.2727
 6950SOL     OW32308   4.457   3.464  14.119  0.1103  0.0101  0.3241
 6950SOL    HW132309   4.504   3.478  14.037  1.8126  1.2458  1.5223
 6950SOL    HW232310   4.483   3.550  14.153  0.5502 -0.1363  0.3518
 6951SOL     OW32311   0.426   2.380  10.518 -0.1268  0.4067  0.2981
 6951SOL    HW132312   0.453   2.453  10.573 -2.4279  2.8606 -1.8152
 6951SOL    HW232313   0.483   2.309  10.547 -0.1664 -0.0788 -0.7755
 6952SOL     OW32314   0.738   2.170   2.863 -0.3039 -0.2808  0.1638
 6952SOL    HW132315   0.728   2.115   2.785  0.2502 -1.2073  0.7456
 6952SOL    HW232316   0.655   2.208   2.890 -0.9598 -2.4083  1.0838
 6953SOL     OW32317   0.698   0.179   2.552  0.4596 -0.1887 -0.0868
 6953SOL    HW132318   0.755   0.240   2.598 -0.0333  0.7085 -0.6758
 6953SOL    HW232319   0.689   0.105   2.611 -0.6555  0.7943  0.9593
 6954SOL     OW32320   2.059   0.003   6.767  0.1928  0.8610 -0.0223
 6954SOL    HW132321   2.018   0.046   6.842 -1.6353  0.7266 -0.9605
 6954SOL    HW232322   2.103   0.085   6.741 -1.6629  1.9318  0.2231
 6955SOL     OW32323   2.124   1.803   1.924 -0.2638  0.2713 -0.1450
 6955SOL    HW132324   2.187   1.873   1.940 -0.6009  1.6113 -4.5889
 6955SOL    HW232325   2.044   1.849   1.896  0.6975  2.2122  0.3128
 6956SOL     OW32326   0.857   1.886   9.761 -0.2348 -0.3388  0.0137
 6956SOL    HW132327   0.842   1.896   9.667 -1.2790  2.9881  0.5142
 6956SOL    HW232328   0.788   1.946   9.792 -1.3276 -0.7382 -1.6346
 6957SOL     OW32329   2.128   1.910  10.549 -0.2715 -0.0722  0.3438
 6957SOL    HW132330   2.096   1.988  10.502 -0.6297 -0.0183  0.6797
 6957SOL    HW232331   2.057   1.915  10.613  1.9825 -1.8128  2.9816
 6958SOL     OW32332   2.136   2.798   6.800  0.7601 -0.1409 -0.0955
 6958SOL    HW132333   2.194   2.756   6.865 -1.9780 -0.7621  1.9333
 6958SOL    HW232334   2.144   2.734   6.730 -0.7019 -2.3956  1.8124
 6959SOL     OW32335   4.291   3.061   4.671  0.1893  0.1167 -0.4055
 6959SOL    HW132336   4.250   3.033   4.752 -0.1901 -0.6223 -0.8562
 6959SOL    HW232337   4.353   2.989   4.665  1.0632  0.8104  0.3596
 6960SOL     OW32338   3.163   4.147   2.521 -0.4511  0.6260  0.3032
 6960SOL    HW132339   3.139   4.131   2.431  0.7138 -1.9243  0.4558
 6960SOL    HW232340   3.222   4.074   2.542 -1.6884  0.0567  1.8313
 6961SOL     OW32341   2.152   3.662   6.260  0.2458  0.3699 -0.4971
 6961SOL    HW132342   2.185   3.580   6.224 -0.1799 -0.7560  1.6853
 6961SOL    HW232343   2.173   3.723   6.189  2.3342  1.6332  1.1913
 6962SOL     OW32344   0.910   2.790   1.684 -0.0331 -0.6199 -0.1188
 6962SOL    HW132345   0.860   2.738   1.747  0.1696  0.8258  1.2416
 6962SOL    HW232346   0.930   2.871   1.731 -1.9511 -0.3508  0.2106
 6963SOL     OW32347   3.730   4.709   7.528  0.1113  0.4994 -0.3645
 6963SOL    HW132348   3.703   0.070   7.566 -2.1268  1.0496 -3.1437
 6963SOL    HW232349   3.646   4.688   7.485 -0.7074 -2.4104  2.7043
 6964SOL     OW32350   3.097   3.832  17.005 -0.0942  0.2071  0.3155
 6964SOL    HW132351   3.189   3.806  17.001 -0.1922 -0.1830  0.6469
 6964SOL    HW232352   3.115   3.912  16.954  0.4819 -0.4720 -0.5582
 6965SOL     OW32353   4.334   1.092   3.271 -0.6007 -0.4350 -0.3354
 6965SOL    HW132354   4.369   1.082   3.360  1.4023 -3.5424 -1.4908
 6965SOL    HW232355   4.402   1.137   3.220 -0.6449  1.3760  1.2065
 6966SOL     OW32356   0.441   0.154   1.030  0.3499 -0.6878 -0.3334
 6966SOL    HW132357   0.523   0.184   0.991  2.2336 -1.9166  2.6793
 6966SOL    HW232358   0.374   0.210   0.991  1.6895  0.0467 -1.5705
 6967SOL     OW32359   0.030   1.936   4.256 -0.6103 -0.4037  0.7392
 6967SOL    HW132360   0.024   1.873   4.329  2.1175 -1.9811 -0.3843
 6967SOL    HW232361   0.011   2.023   4.292  2.3087 -0.0161  1.3063
 6968SOL     OW32362   0.791   4.529   4.449  0.0975 -0.2753 -0.2734
 6968SOL    HW132363   0.832   4.517   4.534  0.5695  2.0891 -0.1709
 6968SOL    HW232364   0.701   4.527   4.483 -0.1808 -3.3711 -1.1451
 6969SOL     OW32365   3.977   1.393  13.982 -0.0570  0.1899  0.2045
 6969SOL    HW132366   3.970   1.299  13.994  0.3332  0.0866 -0.4114
 6969SOL    HW232367   4.033   1.416  14.056  1.3761 -2.8510  0.0250
 6970SOL     OW32368   2.459   3.274   5.786  0.4444  0.6367  0.6332
 6970SOL    HW132369   2.405   3.196   5.799  0.6367  0.1199 -1.6796
 6970SOL    HW232370   2.395   3.342   5.808 -0.8068 -0.4628  0.4332
 6971SOL     OW32371   4.379   0.780   4.116 -0.2429 -0.0009  0.3157
 6971SOL    HW132372   4.453   0.811   4.064  0.0298  0.3930  0.9341
 6971SOL    HW232373   4.376   0.688   4.091  1.3390  0.3004 -0.9323
 6972SOL     OW32374   1.295   1.292   3.016  0.4558 -0.3245  0.3974
 6972SOL    HW132375   1.288   1.198   3.033  2.3978 -0.6030 -0.3629
 6972SOL    HW232376   1.227   1.301   2.949  1.9596 -0.4803 -1.1582
 6973SOL     OW32377   0.032   3.417   9.899  0.3212  0.1778 -0.3563
 6973SOL    HW132378   0.045   3.328   9.865  0.8519  0.8665 -1.8927
 6973SOL    HW232379   4.659   3.418   9.905  0.1575 -1.3367 -2.6225
 6974SOL     OW32380   3.161   4.598   5.217 -0.2437  0.3934  0.2355
 6974SOL    HW132381   3.119   4.634   5.295  0.0636  1.0956  0.0787
 6974SOL    HW232382   3.254   4.596   5.241  0.0787  0.5539 -0.9537
 6975SOL     OW32383   2.344   2.795   5.004  0.4567 -0.3991 -0.2152
 6975SOL    HW132384   2.389   2.877   4.984  0.3617 -0.3149 -0.0883
 6975SOL    HW232385   2.280   2.827   5.068  0.5173 -2.7327  1.0016
 6976SOL     OW32386   4.238   4.510  12.526  0.1838 -0.5837  0.8351
 6976SOL    HW132387   4.273   4.478  12.610 -0.1767  1.2035  1.6607
 6976SOL    HW232388   4.148   4.511  12.558 -0.1788  0.3914 -0.2367
 6977SOL     OW32389   0.093   0.472   7.047  0.2537  0.4705 -0.1316
 6977SOL    HW132390   0.006   0.432   7.045 -0.4780  2.0142  0.7034
 6977SOL    HW232391   0.147   0.399   7.017  0.4757  0.3699  0.5122
 6978SOL     OW32392   3.255   0.753   2.442  0.1873  0.0206  0.5885
 6978SOL    HW132393   3.173   0.710   2.468  0.1502 -1.4755 -1.9858
 6978SOL    HW232394   3.319   0.696   2.484 -0.8552  0.0667  2.2577
 6979SOL     OW32395   3.546   1.960   2.342  0.2057  0.5895 -0.2156
 6979SOL    HW132396   3.544   1.957   2.246 -0.0658  0.9410 -0.2221
 6979SOL    HW232397   3.484   1.890   2.363 -1.5287  2.0378 -0.4362
 6980SOL     OW32398   0.724   0.299  16.250 -0.3050  0.2137 -0.5928
 6980SOL    HW132399   0.741   0.231  16.186 -1.2020 -3.1944  2.7748
 6980SOL    HW232400   0.742   0.383  16.208  2.3721  0.0754  0.2681
 6981SOL     OW32401   4.240   2.145   8.166  0.3859  0.1764 -0.1844
 6981SOL    HW132402   4.167   2.088   8.139 -0.1889  1.0921 -0.5608
 6981SOL    HW232403   4.244   2.115   8.257  0.9392 -2.3429 -1.0272
 6982SOL     OW32404   3.695   2.651   5.293  1.0683 -0.0805 -0.1762
 6982SOL    HW132405   3.639   2.681   5.364  1.5784 -0.4671  0.3933
 6982SOL    HW232406   3.753   2.724   5.314  1.4174 -0.9205  1.8339
 6983SOL     OW32407   3.948   0.722   0.275  0.6266  0.3205 -0.8436
 6983SOL    HW132408   3.982   0.809   0.254  1.9712  0.6086  2.3804
 6983SOL    HW232409   3.931   0.751   0.365  0.7083  1.4616 -1.1990
 6984SOL     OW32410   0.161   2.373   9.824  0.0174 -0.1354 -0.6341
 6984SOL    HW132411   0.112   2.321   9.889 -0.9884  1.5011 -0.0975
 6984SOL    HW232412   0.099   2.437   9.790 -0.1378  0.3196  0.5151
 6985SOL     OW32413   3.575   4.203   5.797  0.5117 -0.7756  0.3180
 6985SOL    HW132414   3.524   4.168   5.724  0.2974 -1.1984  0.6703
 6985SOL    HW232415   3.562   4.138   5.867 -1.0846 -1.0741 -0.2579
 6986SOL     OW32416   2.423   0.821  13.607 -0.0803  0.0218 -0.2948
 6986SOL    HW132417   2.329   0.837  13.613 -0.0721 -0.2656  0.5658
 6986SOL    HW232418   2.421   0.733  13.644 -0.1349 -0.6224 -1.8258
 6987SOL     OW32419   4.430   0.662   7.285  0.6038  0.2945 -0.0614
 6987SOL    HW132420   4.437   0.717   7.363  1.0678 -0.2235  0.2635
 6987SOL    HW232421   4.394   0.713   7.213 -1.2118 -0.8562  0.0242
 6988SOL     OW32422   2.290   3.727   4.795  1.1026 -0.0073 -0.3056
 6988SOL    HW132423   2.273   3.681   4.878 -2.4236  0.0073 -1.0431
 6988SOL    HW232424   2.282   3.650   4.738  0.1067  0.6351 -1.0269
 6989SOL     OW32425   1.237   3.524  17.224  0.1939  0.2192 -0.2842
 6989SOL    HW132426   1.154   3.552  17.184 -1.1391 -1.1102  1.5404
 6989SOL    HW232427   1.298   3.595  17.204 -2.6174  2.4922 -0.7921
 6990SOL     OW32428   0.204   1.292  15.095 -0.1554  0.2271  0.0561
 6990SOL    HW132429   0.179   1.332  15.012  0.3677  0.6472  0.1021
 6990SOL    HW232430   0.298   1.305  15.088 -0.0720 -0.0294  0.7449
 6991SOL     OW32431   2.913   3.521   0.210  0.7603  0.3329  0.4917
 6991SOL    HW132432   2.922   3.448   0.271 -1.1518  1.8367  2.6036
 6991SOL    HW232433   2.819   3.512   0.193  0.7929 -1.6989  1.3853
 6992SOL     OW32434   4.576   0.350   7.975 -0.2185 -0.5795  0.5739
 6992SOL    HW132435   4.621   0.414   8.030 -2.2679  0.8813  0.5585
 6992SOL    HW232436   4.598   0.265   8.011  0.2559 -0.6188  0.1927
 6993SOL     OW32437   1.247   1.682  12.994  0.3274 -0.5261 -0.3070
 6993SOL    HW132438   1.241   1.712  13.084  0.6928  1.2814 -0.8769
 6993SOL    HW232439   1.281   1.761  12.953 -0.9892 -0.8288 -1.9911
 6994SOL     OW32440   4.175   3.797   8.786 -0.9764 -0.6406 -0.3110
 6994SOL    HW132441   4.161   3.854   8.711 -0.0916  0.4405  0.3511
 6994SOL    HW232442   4.146   3.851   8.859 -1.0120  0.4637 -1.1472
 6995SOL     OW32443   2.225   4.616   8.690  0.6252 -0.0912  0.7462
 6995SOL    HW132444   2.196   4.568   8.612  1.0849 -1.0356  1.1577
 6995SOL    HW232445   2.224   4.709   8.666 -0.5879 -0.2056  0.3330
 6996SOL     OW32446   2.258   3.504  17.292 -0.1369 -0.1808 -0.7115
 6996SOL    HW132447   2.241   3.517  17.199  0.8619  0.6476 -0.7707
 6996SOL    HW232448   2.276   3.410  17.291 -3.2679 -0.7516 -3.1195
 6997SOL     OW32449   4.139   1.086   2.235 -0.2036  0.0770 -0.0058
 6997SOL    HW132450   4.130   1.135   2.153 -0.7899 -2.8138 -1.6523
 6997SOL    HW232451   4.213   1.137   2.267 -0.8932  1.0527  0.0572
 6998SOL     OW32452   2.150   2.944   0.616 -0.5215  0.0353  0.4887
 6998SOL    HW132453   2.245   2.939   0.622 -0.4642 -0.2213 -0.6286
 6998SOL    HW232454   2.134   2.938   0.711  1.1580 -0.1101  0.7571
 6999SOL     OW32455   3.240   4.063   6.568  0.0701  0.4016  0.5237
 6999SOL    HW132456   3.254   4.144   6.519 -2.6203  0.8883  0.5596
 6999SOL    HW232457   3.244   4.092   6.659 -0.0850 -2.9844  1.6387
 7000SOL     OW32458   0.019   2.925  17.538 -0.5461 -0.7600  0.4812
 7000SOL    HW132459   4.650   2.938  17.515 -0.8561 -1.1153  1.5378
 7000SOL    HW232460   0.020   2.836  17.502  1.3361 -0.1292 -1.0324
 7001SOL     OW32461   3.708   1.386  10.155 -0.6365  0.1864 -0.3003
 7001SOL    HW132462   3.755   1.331  10.217  3.8687  0.8269 -3.1366
 7001SOL    HW232463   3.635   1.334  10.121 -0.2660 -1.5352  1.5645
 7002SOL     OW32464   3.649   1.009  17.616 -0.5303  0.2111  0.4295
 7002SOL    HW132465   3.730   1.012  17.667  0.3850 -3.1121 -0.8020
 7002SOL    HW232466   3.684   0.946  17.553 -0.4126  0.0038  0.7012
 7003SOL     OW32467   3.546   1.768   3.490  0.0209  0.0474 -0.0610
 7003SOL    HW132468   3.533   1.860   3.469  2.8420  0.5461  0.3424
 7003SOL    HW232469   3.553   1.773   3.585  1.0216 -0.1538 -0.1172
 7004SOL     OW32470   3.203   1.801   5.046  0.3083 -0.6596 -0.1903
 7004SOL    HW132471   3.260   1.767   4.977  1.3309 -1.5173  1.0719
 7004SOL    HW232472   3.156   1.867   4.995  0.4962  0.0495  0.5439
 7005SOL     OW32473   1.958   0.210  14.730  0.1637  0.2286  0.4651
 7005SOL    HW132474   1.889   0.275  14.721 -0.0532 -0.2329 -1.2859
 7005SOL    HW232475   1.905   0.137  14.697  1.0683 -1.0561  1.8553
 7006SOL     OW32476   0.835   2.456   4.098  0.2344 -0.1875 -0.0776
 7006SOL    HW132477   0.826   2.363   4.119 -0.3122 -0.5779 -2.0492
 7006SOL    HW232478   0.746   2.488   4.115  0.9003  1.9846 -0.7367
 7007SOL     OW32479   1.535   4.303   3.673  0.4581  0.1284 -0.3347
 7007SOL    HW132480   1.584   4.237   3.622  1.7822  0.3176  0.6852
 7007SOL    HW232481   1.544   4.377   3.612  1.9141  0.7733  0.6706
 7008SOL     OW32482   2.466   1.245   8.915  0.3616 -0.3132  0.0528
 7008SOL    HW132483   2.413   1.237   8.835 -0.5019 -1.7180  0.7730
 7008SOL    HW232484   2.395   1.266   8.976  0.4067  0.7358 -0.2447
 7009SOL     OW32485   0.037   3.508   8.790  0.2733 -0.2291  0.3623
 7009SOL    HW132486   0.065   3.487   8.879 -1.5758 -1.7782  0.5829
 7009SOL    HW232487   4.669   3.534   8.804  0.0765  0.4087 -2.0715
 7010SOL     OW32488   2.667   1.127   2.829  0.7575  0.0723 -0.6590
 7010SOL    HW132489   2.721   1.201   2.857  0.5243  0.3262 -0.8678
 7010SOL    HW232490   2.667   1.134   2.733  0.3288 -1.5096 -0.7619
 7011SOL     OW32491   1.024   4.641   8.522 -0.7353  0.0871  0.4807
 7011SOL    HW132492   1.020   0.000   8.571  0.5791  0.6016 -0.2649
 7011SOL    HW232493   1.109   4.653   8.481 -1.4752 -1.2032 -1.4244
 7012SOL     OW32494   4.669   3.416   2.253 -0.2860 -0.0538 -0.4611
 7012SOL    HW132495   4.711   3.501   2.266  0.5592 -0.6782  0.7844
 7012SOL    HW232496   4.691   3.393   2.162 -0.8582 -0.5052 -0.4843
 7013SOL     OW32497   1.878   3.297   6.183  0.7976 -0.1310 -0.1077
 7013SOL    HW132498   1.866   3.243   6.104  0.1153  0.5208 -0.4437
 7013SOL    HW232499   1.789   3.331   6.180  1.1707  0.6190 -2.6478
 7014SOL     OW32500   4.349   1.580   3.013 -0.2221 -0.2004 -0.0203
 7014SOL    HW132501   4.339   1.536   2.928  1.3116 -0.1424 -0.2280
 7014SOL    HW232502   4.266   1.569   3.060 -1.0728  0.7537 -1.2860
 7015SOL     OW32503   1.532   0.574   2.029  0.4498 -0.1076  0.2446
 7015SOL    HW132504   1.525   0.483   2.001 -1.8578  1.0618 -2.9197
 7015SOL    HW232505   1.564   0.564   2.119  0.2270 -0.3585  0.2957
 7016SOL     OW32506   3.533   3.328   8.371 -0.2096 -0.0703  0.1148
 7016SOL    HW132507   3.558   3.296   8.285  3.3794 -0.2771  1.2301
 7016SOL    HW232508   3.442   3.298   8.364 -1.0412  2.0676  1.9524
 7017SOL     OW32509   1.095   0.332   4.057 -0.2262  0.1187 -0.2741
 7017SOL    HW132510   1.163   0.399   4.045 -1.3125  1.3746  0.5909
 7017SOL    HW232511   1.148   0.257   4.030  0.6719  0.0752  1.6156
 7018SOL     OW32512   1.716   4.152  12.229  0.5483 -0.1349  0.1820
 7018SOL    HW132513   1.709   4.057  12.239 -2.5291  0.0298 -0.1942
 7018SOL    HW232514   1.809   4.161  12.209  0.2566 -1.3169 -1.7432
 7019SOL     OW32515   0.968   1.592   2.031 -0.1765 -0.0057 -0.2536
 7019SOL    HW132516   0.925   1.666   1.989  1.8315  0.6087 -1.2648
 7019SOL    HW232517   1.048   1.575   1.981  1.6400  3.3811  1.5021
 7020SOL     OW32518   4.705   2.278   6.873 -0.5832 -0.4862  0.1931
 7020SOL    HW132519   0.050   2.223   6.834 -1.0729  0.4534 -1.9853
 7020SOL    HW232520   0.027   2.363   6.873 -0.4943 -0.5421 -0.7576
 7021SOL     OW32521   2.982   4.605   6.878 -0.2079  0.2778 -0.6092
 7021SOL    HW132522   2.972   4.696   6.906  0.9890  0.3897 -0.5488
 7021SOL    HW232523   3.067   4.609   6.834  0.6101 -1.0803  0.8366
 7022SOL     OW32524   1.098   3.509  14.126  0.0932 -0.0326 -0.3408
 7022SOL    HW132525   1.071   3.579  14.185 -1.0421 -1.3185  0.6310
 7022SOL    HW232526   1.039   3.524  14.052 -0.7238 -0.7734  0.1730
 7023SOL     OW32527   0.163   4.308  13.327 -0.1794 -0.1976 -0.1048
 7023SOL    HW132528   0.142   4.222  13.365 -2.4538 -0.0934 -1.1459
 7023SOL    HW232529   0.175   4.285  13.235 -1.0305  1.0647 -0.5295
 7024SOL     OW32530   0.555   3.552   7.878 -0.0470 -0.5813  0.4425
 7024SOL    HW132531   0.498   3.485   7.841 -1.0911  0.8669 -0.5918
 7024SOL    HW232532   0.630   3.506   7.917  0.6592 -0.9957 -1.3937
 7025SOL     OW32533   1.131   2.565   3.813  0.1810 -0.1460  0.2339
 7025SOL    HW132534   1.038   2.583   3.828  0.7098  2.3925  0.4487
 7025SOL    HW232535   1.167   2.549   3.901  1.2492 -0.8155 -0.3301
 7026SOL     OW32536   0.268   1.585   4.607 -0.4014  0.0420  0.0750
 7026SOL    HW132537   0.278   1.527   4.532  2.6146 -0.4425  0.8457
 7026SOL    HW232538   0.208   1.540   4.667 -2.1730  2.3907  0.0920
 7027SOL     OW32539   2.450   0.971   5.289  0.2772  0.4265  0.4575
 7027SOL    HW132540   2.546   0.973   5.288  0.4157 -4.0703  0.8102
 7027SOL    HW232541   2.431   1.060   5.317  0.0385 -0.8645  4.4393
 7028SOL     OW32542   0.555   2.816  15.629  0.2055 -0.1054 -0.4152
 7028SOL    HW132543   0.583   2.749  15.567 -1.3110  0.1482 -1.3689
 7028SOL    HW232544   0.596   2.896  15.596 -1.5089  1.0419  0.2298
 7029SOL     OW32545   4.210   3.135   3.249 -0.1623 -0.3531 -0.0218
 7029SOL    HW132546   4.268   3.206   3.224  0.5879 -0.2832  1.9187
 7029SOL    HW232547   4.143   3.168   3.309  0.0566 -1.3244  0.7619
 7030SOL     OW32548   3.722   0.972  12.896 -0.1496  0.0868 -0.0497
 7030SOL    HW132549   3.646   0.964  12.838  0.6763  2.3231 -1.4585
 7030SOL    HW232550   3.744   1.064  12.909  0.9277 -0.2534  0.4864
 7031SOL     OW32551   2.968   3.608   4.711 -0.5979 -0.2000 -0.2008
 7031SOL    HW132552   2.955   3.698   4.738  0.3270  0.1389 -0.8615
 7031SOL    HW232553   2.985   3.555   4.789  1.2595  1.2239  0.3623
 7032SOL     OW32554   1.599   2.828  17.194 -0.6041  0.5974 -0.3225
 7032SOL    HW132555   1.510   2.863  17.200 -0.3593  1.1980 -0.2654
 7032SOL    HW232556   1.582   2.734  17.195  2.5633  0.0542  2.2601
 7033SOL     OW32557   2.763   4.292   4.442  0.1027 -0.6685 -0.3177
 7033SOL    HW132558   2.854   4.317   4.427  0.1808 -0.4280  0.5567
 7033SOL    HW232559   2.719   4.285   4.357 -0.3302  1.6471 -0.2734
 7034SOL     OW32560   3.639   2.391   9.520 -0.2077 -0.1713 -0.1745
 7034SOL    HW132561   3.707   2.458   9.521 -1.1588  0.8018 -0.9237
 7034SOL    HW232562   3.599   2.404   9.606 -0.2665 -1.5937  0.0183
 7035SOL     OW32563   2.410   4.063   7.361 -0.1766  0.0531 -0.1020
 7035SOL    HW132564   2.384   4.088   7.449  0.6566 -0.5864  0.3224
 7035SOL    HW232565   2.339   4.101   7.308 -0.9436  0.1416  0.9918
 7036SOL     OW32566   1.490   0.582   5.014  0.0862  0.2811  0.0622
 7036SOL    HW132567   1.560   0.647   5.015  0.8739 -0.5621 -1.1398
 7036SOL    HW232568   1.545   0.504   5.012 -0.1572  0.1361 -0.7984
 7037SOL     OW32569   0.723   3.496   4.780  0.2965 -0.1805  0.5244
 7037SOL    HW132570   0.646   3.552   4.793  1.4853  1.5163  0.2200
 7037SOL    HW232571   0.678   3.418   4.812 -1.4042  0.1217 -1.0916
 7038SOL     OW32572   1.762   2.774   5.843  0.1034  0.3937 -0.3336
 7038SOL    HW132573   1.841   2.789   5.791 -1.8831  1.0371 -3.1497
 7038SOL    HW232574   1.801   2.762   5.929 -1.5423 -3.2360 -0.1205
 7039SOL     OW32575   2.076   2.090  15.558 -0.4403  0.1702  0.6381
 7039SOL    HW132576   2.053   2.181  15.542  1.5321  0.7705  1.2812
 7039SOL    HW232577   2.027   2.072  15.638  0.6214  1.3973  1.5636
 7040SOL     OW32578   3.898   0.900  15.325 -0.6522  0.5937  0.3749
 7040SOL    HW132579   3.971   0.933  15.274 -1.5281  0.2487 -1.0873
 7040SOL    HW232580   3.871   0.829  15.267  0.3027  0.0042  0.6345
 7041SOL     OW32581   3.225   1.095  10.849 -0.6151  0.0506  0.7550
 7041SOL    HW132582   3.228   1.098  10.945  0.5667  3.4245  0.6349
 7041SOL    HW232583   3.271   1.173  10.818 -1.1142  0.3119  0.6560
 7042SOL     OW32584   1.085   3.954   6.483 -0.4896  0.0204  0.0248
 7042SOL    HW132585   1.135   3.897   6.541 -0.5914  1.7598  1.8275
 7042SOL    HW232586   1.051   4.022   6.540 -0.0944  0.6875 -0.5260
 7043SOL     OW32587   1.741   3.671   2.879  0.1875  0.2797  0.0959
 7043SOL    HW132588   1.670   3.609   2.896  0.2417  0.4481  0.9672
 7043SOL    HW232589   1.818   3.615   2.873 -0.9489 -1.4437  1.6770
 7044SOL     OW32590   1.861   1.277   7.612  0.1855 -0.1695 -0.0715
 7044SOL    HW132591   1.844   1.340   7.683 -0.5505  0.7083 -1.0313
 7044SOL    HW232592   1.822   1.196   7.644 -1.1814  0.5161 -0.0113
 7045SOL     OW32593   4.404   2.662   1.635 -0.2925 -0.8324 -0.0733
 7045SOL    HW132594   4.448   2.715   1.567  1.0839  1.3481  2.5026
 7045SOL    HW232595   4.408   2.576   1.594  2.4188 -0.5243 -0.4917
 7046SOL     OW32596   2.357   2.946   9.104 -0.0751 -0.2865  0.1896
 7046SOL    HW132597   2.424   3.005   9.068  0.9361 -2.0163 -0.7428
 7046SOL    HW232598   2.402   2.862   9.117 -2.2231 -1.1017  2.4084
 7047SOL     OW32599   4.103   3.594   7.040 -0.1118  0.0611 -0.3388
 7047SOL    HW132600   4.056   3.589   6.957 -0.0990  1.8513 -0.4649
 7047SOL    HW232601   4.168   3.659   7.010  0.4497  0.9618  2.7378
 7048SOL     OW32602   1.670   2.205  11.234 -0.2467  0.4973  0.0534
 7048SOL    HW132603   1.625   2.277  11.278  0.6325  1.2672 -0.3091
 7048SOL    HW232604   1.756   2.242  11.214 -0.7778  1.4390 -0.4447
 7049SOL     OW32605   2.023   2.605  11.331 -0.0564  0.2124 -0.3029
 7049SOL    HW132606   2.028   2.683  11.387  0.9795  0.2496 -0.4555
 7049SOL    HW232607   2.112   2.575  11.347  0.4007  2.4720  1.3656
 7050SOL     OW32608   0.507   0.863   6.053  0.6254  0.7646 -0.2479
 7050SOL    HW132609   0.413   0.880   6.060  0.5034  0.7731 -1.9754
 7050SOL    HW232610   0.509   0.825   5.966  0.4360  0.4059 -0.0960
 7051SOL     OW32611   0.683   2.496   2.664  0.3160  0.1787 -0.1856
 7051SOL    HW132612   0.667   2.556   2.591 -2.3184  0.6212  0.7496
 7051SOL    HW232613   0.605   2.513   2.716  0.2920 -1.1525  0.2168
 7052SOL     OW32614   1.493   1.243   2.728 -0.2507 -0.5630 -0.6769
 7052SOL    HW132615   1.479   1.238   2.634  1.9356  0.4429 -1.0389
 7052SOL    HW232616   1.458   1.332   2.729  0.8221 -0.1609  0.5799
 7053SOL     OW32617   2.612   3.783  15.909  0.0623 -0.3386  0.3035
 7053SOL    HW132618   2.622   3.801  15.815 -2.3458 -0.9423 -0.0633
 7053SOL    HW232619   2.701   3.756  15.929 -0.0538 -0.9063  0.0369
 7054SOL     OW32620   2.157   2.367   4.390  0.1694  0.6532  0.4047
 7054SOL    HW132621   2.103   2.423   4.334 -2.6521 -2.1810  0.2546
 7054SOL    HW232622   2.241   2.411   4.399 -0.0643  1.2428 -0.2954
 7055SOL     OW32623   0.368   3.923   6.415  0.5326  0.1134 -0.3082
 7055SOL    HW132624   0.345   3.885   6.330 -0.0919 -2.8232  1.1806
 7055SOL    HW232625   0.425   3.854   6.450  1.4665  0.6592 -0.7576
 7056SOL     OW32626   3.796   2.749   6.793 -0.7698  0.0252 -0.1552
 7056SOL    HW132627   3.795   2.844   6.810  1.7813  0.1792 -0.8680
 7056SOL    HW232628   3.841   2.708   6.867 -2.5310 -2.1312 -0.2922
 7057SOL     OW32629   2.303   1.978   5.351  0.0680  0.2688 -0.4982
 7057SOL    HW132630   2.387   1.936   5.334 -0.5219  0.1460 -3.1378
 7057SOL    HW232631   2.319   2.049   5.288  0.9306  1.7183  1.3655
 7058SOL     OW32632   2.862   0.595   6.100  0.4812  0.9242 -0.1237
 7058SOL    HW132633   2.919   0.558   6.167 -1.4911 -0.4561  0.8029
 7058SOL    HW232634   2.793   0.599   6.167 -0.3930  1.6120 -1.0518
 7059SOL     OW32635   0.506   0.424   2.177 -0.2499  0.4326  0.0884
 7059SOL    HW132636   0.556   0.379   2.245 -0.0471  1.8789  0.8963
 7059SOL    HW232637   0.506   0.515   2.206  4.6400  1.0627 -1.9730
 7060SOL     OW32638   3.322   0.548   9.978  0.5887 -0.0056 -0.3549
 7060SOL    HW132639   3.326   0.636  10.013  1.4068 -0.9549  1.9242
 7060SOL    HW232640   3.239   0.549   9.930  0.1097 -0.3350  0.4488
 7061SOL     OW32641   3.899   4.602   0.431 -0.2840 -0.0562  0.0392
 7061SOL    HW132642   3.925   4.666   0.497  0.8457  0.0673 -0.5156
 7061SOL    HW232643   3.808   4.589   0.456 -0.7106 -0.4591 -1.7035
 7062SOL     OW32644   2.804   3.946   5.877  0.8082  0.7778 -0.4409
 7062SOL    HW132645   2.760   3.874   5.922 -1.3104  0.8497 -2.3721
 7062SOL    HW232646   2.803   3.921   5.784 -1.1560  1.2629 -0.5317
 7063SOL     OW32647   2.567   3.201   4.062  0.4073 -0.5760 -0.3549
 7063SOL    HW132648   2.630   3.273   4.063 -1.6415  1.2150 -0.6126
 7063SOL    HW232649   2.632   3.130   4.060 -0.2802 -1.2241  0.4476
 7064SOL     OW32650   0.529   2.918   9.937 -0.6896 -0.6881 -0.9228
 7064SOL    HW132651   0.557   2.965  10.016 -0.5601  1.3616 -2.1664
 7064SOL    HW232652   0.607   2.921   9.882  0.1599  1.5177  0.3894
 7065SOL     OW32653   2.259   4.468   6.228 -0.2862  0.2382  0.4585
 7065SOL    HW132654   2.245   4.374   6.235  0.5101  0.1486  0.8339
 7065SOL    HW232655   2.245   4.479   6.134  0.9790 -0.3376  0.2111
 7066SOL     OW32656   4.413   3.125   5.905 -0.1451  0.0001  0.8695
 7066SOL    HW132657   4.337   3.069   5.888  0.1664 -0.6235  1.5386
 7066SOL    HW232658   4.462   3.135   5.823  2.8795 -3.2176  2.3063
 7067SOL     OW32659   3.666   1.790  11.199  0.0204 -0.3696  0.2521
 7067SOL    HW132660   3.622   1.872  11.222  0.3633  0.0784 -0.7136
 7067SOL    HW232661   3.647   1.773  11.107  1.6230  2.2737 -0.5577
 7068SOL     OW32662   1.095   3.901   2.923  0.4919 -0.5264  0.0610
 7068SOL    HW132663   1.095   3.885   3.018  0.1709  2.5492  0.5856
 7068SOL    HW232664   1.189   3.915   2.924  0.3671  0.2617  1.7358
 7069SOL     OW32665   0.993   1.513  15.396 -0.1045  0.3719  0.4856
 7069SOL    HW132666   0.905   1.549  15.403 -0.6045 -0.6014 -0.7093
 7069SOL    HW232667   0.987   1.475  15.308 -3.6831  0.5059  0.6540
 7070SOL     OW32668   4.144   2.681  14.849  0.4338  0.3212 -0.3701
 7070SOL    HW132669   4.194   2.762  14.840  1.0273 -0.3326 -2.9514
 7070SOL    HW232670   4.063   2.713  14.890  1.0358  0.7900  0.4432
 7071SOL     OW32671   4.487   2.970   3.833  0.8001  0.2815  0.0509
 7071SOL    HW132672   4.535   3.046   3.866 -0.3937  1.0049  0.1216
 7071SOL    HW232673   4.406   3.017   3.813  1.5295  0.9077 -1.4691
 7072SOL     OW32674   3.860   1.225  17.210  1.0001  0.6651 -0.1885
 7072SOL    HW132675   3.941   1.276  17.211  0.4388  1.5697 -0.8217
 7072SOL    HW232676   3.792   1.281  17.248 -1.5775 -1.9015 -1.0015
 7073SOL     OW32677   0.504   1.980   9.252 -0.7315  0.2357  0.1908
 7073SOL    HW132678   0.570   1.947   9.312  0.4534  0.9220 -0.7531
 7073SOL    HW232679   0.494   2.073   9.273  0.9370 -0.0753  2.4384
 7074SOL     OW32680   4.219   3.647   8.533  0.1281 -0.0281 -0.6205
 7074SOL    HW132681   4.265   3.580   8.583 -1.6657 -1.9257 -1.5474
 7074SOL    HW232682   4.236   3.721   8.592 -2.6326  0.0736  0.0176
 7075SOL     OW32683   3.428   3.472   9.218 -0.3187  0.4243  0.3743
 7075SOL    HW132684   3.358   3.489   9.155 -0.5432 -0.8935  0.2560
 7075SOL    HW232685   3.509   3.493   9.172  0.5005 -0.2533  1.5023
 7076SOL     OW32686   0.132   1.186  12.071  0.2813  0.5938  0.2907
 7076SOL    HW132687   0.146   1.116  12.135  0.3847 -0.5129 -0.9466
 7076SOL    HW232688   0.209   1.241  12.082 -0.6557  1.8402  0.6402
 7077SOL     OW32689   3.381   1.989  10.762  0.0351 -0.2060 -0.1084
 7077SOL    HW132690   3.468   1.955  10.741  1.4748  2.8047  0.9684
 7077SOL    HW232691   3.409   2.081  10.753 -0.1407 -0.2954 -1.6603
 7078SOL     OW32692   1.634   1.326  17.496 -0.2335  0.1000 -0.1156
 7078SOL    HW132693   1.653   1.262  17.565  0.9327 -0.7670 -1.2615
 7078SOL    HW232694   1.706   1.306  17.437  0.9198 -0.3359  1.4358
 7079SOL     OW32695   1.179   3.344   1.915  0.8741  0.5554 -0.2966
 7079SOL    HW132696   1.090   3.309   1.923  1.4019 -0.3005  1.8755
 7079SOL    HW232697   1.197   3.344   1.821 -1.7890  0.5024 -0.8034
 7080SOL     OW32698   1.582   4.513  12.659 -0.3029 -0.2855 -0.0299
 7080SOL    HW132699   1.663   4.469  12.630  0.3120  1.0999 -0.4247
 7080SOL    HW232700   1.552   4.448  12.722 -0.0840 -1.1755 -0.8420
 7081SOL     OW32701   1.989   4.164  10.424 -0.1183 -0.4777  0.5661
 7081SOL    HW132702   2.017   4.157  10.333  0.4430  0.4735  0.6712
 7081SOL    HW232703   2.018   4.080  10.459 -1.6870 -1.9765 -1.7058
 7082SOL     OW32704   4.475   0.218  16.527  0.1023  0.4366 -0.4538
 7082SOL    HW132705   4.548   0.160  16.549 -0.9641  0.5483  3.4044
 7082SOL    HW232706   4.407   0.155  16.503  0.1032  0.8687 -1.5940
 7083SOL     OW32707   2.551   2.053   1.748 -0.3101  0.2302 -0.1882
 7083SOL    HW132708   2.627   2.007   1.785 -1.2190 -0.9253  0.2520
 7083SOL    HW232709   2.537   2.012   1.663 -2.9007  0.1299  0.2880
 7084SOL     OW32710   4.087   4.626   3.714  0.1216 -0.6968  0.5387
 7084SOL    HW132711   4.027   4.552   3.724 -3.1317  1.3783 -3.5519
 7084SOL    HW232712   4.030   4.698   3.740  2.7397  1.2209  0.9929
 7085SOL     OW32713   1.593   2.553  17.207  0.3369 -0.3163 -0.3793
 7085SOL    HW132714   1.581   2.504  17.289  0.9663  0.3612  0.1141
 7085SOL    HW232715   1.600   2.466  17.167  1.4867 -0.7148  0.6761
 7086SOL     OW32716   1.720   3.167  12.751  0.0658 -0.4479  0.2040
 7086SOL    HW132717   1.804   3.160  12.796  0.5413  3.6572 -0.0335
 7086SOL    HW232718   1.728   3.107  12.678  0.2282  1.8998 -1.7082
 7087SOL     OW32719   2.764   4.705   7.504  0.5411  0.3399  0.0082
 7087SOL    HW132720   2.692   4.645   7.486 -0.1192  0.1504  3.2280
 7087SOL    HW232721   2.772   4.697   7.599 -0.3712 -0.7888 -0.0076
 7088SOL     OW32722   1.849   1.339  12.302  0.7140 -0.2461 -0.4214
 7088SOL    HW132723   1.924   1.283  12.320 -0.3361 -1.6232 -0.3371
 7088SOL    HW232724   1.826   1.360  12.392  0.0777 -1.2310 -0.3488
 7089SOL     OW32725   1.440   4.289   6.733 -0.1304  0.1802  0.0079
 7089SOL    HW132726   1.424   4.335   6.815 -0.2124 -0.3062  0.2663
 7089SOL    HW232727   1.522   4.327   6.703  0.6771 -2.8557 -1.6364
 7090SOL     OW32728   4.061   4.130   8.035  0.3077  0.6850  0.2646
 7090SOL    HW132729   4.023   4.107   8.120  1.8215 -0.4820  0.6368
 7090SOL    HW232730   4.044   4.050   7.984 -0.1074  0.5150  0.6658
 7091SOL     OW32731   4.502   3.199   8.043 -0.1121  0.0432  0.3301
 7091SOL    HW132732   4.497   3.283   8.089 -0.0760 -0.3665  1.0931
 7091SOL    HW232733   4.493   3.137   8.116  1.7471 -2.0029 -1.1980
 7092SOL     OW32734   4.705   1.246   3.895  0.2890  0.2357  0.4117
 7092SOL    HW132735   4.700   1.169   3.840  1.8321  0.9583 -0.7387
 7092SOL    HW232736   4.615   1.250   3.925 -0.5924 -0.7698 -2.0999
 7093SOL     OW32737   4.690   3.178   5.476  0.1293  0.1773 -0.3110
 7093SOL    HW132738   0.062   3.174   5.462  0.1257  0.5770 -0.4532
 7093SOL    HW232739   4.661   3.209   5.390 -1.5031 -1.9333 -0.5230
 7094SOL     OW32740   4.506   0.466   1.872  0.2938  0.0525 -0.7617
 7094SOL    HW132741   4.464   0.466   1.786  1.9293  0.9088 -1.5638
 7094SOL    HW232742   4.526   0.558   1.889  1.8436 -0.2679 -0.7814
 7095SOL     OW32743   0.127   2.968   7.051  0.1448  0.4093  0.3192
 7095SOL    HW132744   0.065   2.897   7.033 -0.5134  0.1776  3.5113
 7095SOL    HW232745   0.079   3.020   7.115 -0.4272 -0.3915  0.5467
 7096SOL     OW32746   3.034   0.054   7.577 -0.1677 -0.6420 -0.1509
 7096SOL    HW132747   3.024   0.100   7.661  0.6712 -0.4001 -0.1794
 7096SOL    HW232748   2.944   0.043   7.547  0.3421 -0.7129 -1.6322
 7097SOL     OW32749   3.280   1.868   8.853  0.2712  0.2001  0.1635
 7097SOL    HW132750   3.259   1.957   8.881 -2.4246 -0.5104  0.3599
 7097SOL    HW232751   3.298   1.819   8.933  1.3339  0.3024 -0.0056
 7098SOL     OW32752   4.458   1.355   6.841  0.1029 -0.2075 -0.3267
 7098SOL    HW132753   4.537   1.410   6.833 -0.1685  0.2028 -0.1658
 7098SOL    HW232754   4.428   1.374   6.930 -2.4507  1.6038 -1.5850
 7099SOL     OW32755   4.671   0.882   7.547  0.4731 -0.3873 -0.3429
 7099SOL    HW132756   4.711   0.929   7.620  0.1356  1.3280 -1.2666
 7099SOL    HW232757   4.577   0.896   7.561  0.5667  0.9473 -1.0142
 7100SOL     OW32758   4.070   4.071  11.239 -0.2135 -0.2223  0.5230
 7100SOL    HW132759   4.148   4.071  11.184  0.0409 -1.4843  0.8878
 7100SOL    HW232760   4.016   3.999  11.207 -2.0854  2.0265 -1.3238
 7101SOL     OW32761   0.682   4.283   6.899 -0.8165 -0.1193  0.6684
 7101SOL    HW132762   0.693   4.190   6.882 -2.2176 -0.3152  0.8107
 7101SOL    HW232763   0.718   4.313   6.816 -1.1333 -2.9030 -0.4490
 7102SOL     OW32764   1.850   2.821  15.486  0.0281  0.0722  0.4610
 7102SOL    HW132765   1.865   2.902  15.533  2.4354 -0.5129  0.6972
 7102SOL    HW232766   1.756   2.816  15.503 -0.3520  1.3082 -1.3293
 7103SOL     OW32767   3.987   3.818  11.178 -0.2021  0.2115 -0.1984
 7103SOL    HW132768   3.986   3.750  11.245  3.7471  1.1103  0.8006
 7103SOL    HW232769   4.059   3.789  11.123 -1.1947  1.3629 -2.0951
 7104SOL     OW32770   1.664   1.348   6.102  0.0970  0.3373  0.6765
 7104SOL    HW132771   1.690   1.256   6.104  3.0280  1.1650 -0.4728
 7104SOL    HW232772   1.704   1.380   6.022 -0.7007  1.1571  0.6047
 7105SOL     OW32773   2.796   3.208   6.498 -0.2769  0.0361  0.0742
 7105SOL    HW132774   2.808   3.191   6.592  1.9720  2.1885  0.1895
 7105SOL    HW232775   2.825   3.129   6.453  0.3516 -1.4610  3.0975
 7106SOL     OW32776   0.908   2.369   7.524 -0.4795 -0.2278  0.4265
 7106SOL    HW132777   0.889   2.380   7.432 -1.5970 -2.7974  0.3372
 7106SOL    HW232778   0.962   2.289   7.523  0.9874  0.7172  2.1277
 7107SOL     OW32779   1.460   2.168  17.429 -0.4784  0.0967 -0.0533
 7107SOL    HW132780   1.369   2.139  17.423 -0.8753  1.1092  1.0217
 7107SOL    HW232781   1.498   2.115  17.358  2.9444  1.2570  0.9437
 7108SOL     OW32782   3.300   1.985   6.094 -0.6013 -0.2680 -0.0532
 7108SOL    HW132783   3.239   2.021   6.029  0.7206  1.1225 -0.5247
 7108SOL    HW232784   3.271   1.894   6.084  2.6462 -1.1553 -1.2204
 7109SOL     OW32785   4.209   0.888   0.932 -0.1684  0.3697 -0.3428
 7109SOL    HW132786   4.234   0.971   0.892  2.1392 -1.2284 -2.2724
 7109SOL    HW232787   4.190   0.842   0.850  0.3399 -2.4899  1.1465
 7110SOL     OW32788   3.500   1.642   5.168 -0.0840 -0.7619  0.4030
 7110SOL    HW132789   3.518   1.584   5.094 -0.8965 -0.3584 -0.1178
 7110SOL    HW232790   3.430   1.588   5.204  0.9280 -0.5033  2.7270
 7111SOL     OW32791   3.123   2.046   2.784  0.0134 -0.2972 -0.7053
 7111SOL    HW132792   3.193   1.981   2.780  2.3192  2.0722  0.5030
 7111SOL    HW232793   3.050   1.988   2.764  0.6032 -1.2323 -0.1425
 7112SOL     OW32794   4.646   0.051   5.117 -0.3223  0.1621 -0.0387
 7112SOL    HW132795   4.703   0.076   5.190  0.5318 -0.1071 -0.6144
 7112SOL    HW232796   4.710   0.066   5.047  0.4770  1.0917  0.8890
 7113SOL     OW32797   1.036   4.509  13.416  0.5763  0.0083  0.0300
 7113SOL    HW132798   1.123   4.516  13.454 -1.2791  0.2743  4.2568
 7113SOL    HW232799   1.023   4.598  13.382  3.3394 -0.6479 -2.7496
 7114SOL     OW32800   3.949   3.751   5.600 -0.0561  0.1050 -0.3420
 7114SOL    HW132801   4.003   3.803   5.659 -0.4936  0.9423 -0.6770
 7114SOL    HW232802   3.865   3.760   5.643 -1.5371  1.0137 -3.3965
 7115SOL     OW32803   0.896   0.351   2.641 -0.5388 -0.0953  0.3650
 7115SOL    HW132804   0.884   0.415   2.571  2.3540 -0.8314 -0.7992
 7115SOL    HW232805   0.892   0.404   2.720  3.4087  0.7684  0.0129
 7116SOL     OW32806   4.333   1.358  14.285 -0.2533  0.5052  0.3817
 7116SOL    HW132807   4.340   1.283  14.226  0.5699 -0.5716  1.8764
 7116SOL    HW232808   4.252   1.396  14.252 -0.7992 -0.0251  1.1236
 7117SOL     OW32809   0.755   2.294  10.415 -0.4306  0.3399  0.0470
 7117SOL    HW132810   0.675   2.249  10.443  0.7484 -2.2528 -0.8750
 7117SOL    HW232811   0.728   2.385  10.434  0.5209  0.8810 -1.2066
 7118SOL     OW32812   1.486   0.885   8.796 -0.0810 -0.2321  0.3952
 7118SOL    HW132813   1.495   0.790   8.797  2.5659  0.0152  0.4072
 7118SOL    HW232814   1.529   0.912   8.877  0.9309  0.5792 -0.4013
 7119SOL     OW32815   3.547   0.498   7.182 -0.5735 -0.2508 -0.0185
 7119SOL    HW132816   3.627   0.448   7.163 -1.5364 -1.0961 -1.7712
 7119SOL    HW232817   3.572   0.541   7.264  0.0535 -0.8218  0.0924
 7120SOL     OW32818   1.888   4.301   8.982  0.6181 -0.2355 -0.0642
 7120SOL    HW132819   1.965   4.356   8.969  0.8111 -0.2596  0.9831
 7120SOL    HW232820   1.925   4.216   9.005  2.0251  2.0702  5.9370
 7121SOL     OW32821   0.289   0.621   6.175  0.7245  0.2828 -0.6560
 7121SOL    HW132822   0.376   0.601   6.139  0.5137  0.9799 -1.5720
 7121SOL    HW232823   0.239   0.612   6.094 -0.2415 -1.3694  0.1174
 7122SOL     OW32824   0.356   2.461   5.363  0.2633  0.1202 -0.0942
 7122SOL    HW132825   0.349   2.524   5.434 -1.9776 -1.2060  0.8489
 7122SOL    HW232826   0.451   2.448   5.359  0.4736  2.4397 -2.2087
 7123SOL     OW32827   3.664   2.239   4.901  0.2454  0.5235  0.1414
 7123SOL    HW132828   3.702   2.160   4.862 -1.5616  0.6158 -1.7962
 7123SOL    HW232829   3.731   2.264   4.965  2.2856 -1.1030 -1.3533
 7124SOL     OW32830   1.566   1.253   3.743  0.5549 -0.1028  0.9029
 7124SOL    HW132831   1.630   1.191   3.708 -1.2027 -1.8921  0.8583
 7124SOL    HW232832   1.495   1.244   3.679 -0.8612  0.6064  2.3614
 7125SOL     OW32833   3.798   4.509   1.811  0.3167 -0.0417 -0.5481
 7125SOL    HW132834   3.808   4.558   1.892  1.6919 -1.0665 -0.1050
 7125SOL    HW232835   3.709   4.478   1.825  0.5872 -1.4897 -1.9573
 7126SOL     OW32836   1.542   1.670  12.906  0.0435  0.4452  0.3060
 7126SOL    HW132837   1.487   1.747  12.923 -0.7300  0.2830 -1.3511
 7126SOL    HW232838   1.513   1.606  12.970 -2.0564  0.6410 -0.4238
 7127SOL     OW32839   2.968   0.734   7.478  0.5472  0.8750 -0.0115
 7127SOL    HW132840   2.962   0.716   7.572 -0.8042 -2.4191 -0.7223
 7127SOL    HW232841   3.061   0.733   7.455  0.7184 -1.8354  0.8551
 7128SOL     OW32842   3.049   1.557   3.719  0.2697 -0.1929  0.3295
 7128SOL    HW132843   3.097   1.522   3.644 -0.8841 -2.3642  0.5779
 7128SOL    HW232844   3.102   1.632   3.745  1.1403 -0.8665  0.4972
 7129SOL     OW32845   1.293   0.951   5.529 -0.3851 -0.6706 -0.1381
 7129SOL    HW132846   1.302   0.951   5.434 -1.6151  1.6562 -0.2325
 7129SOL    HW232847   1.210   0.907   5.547 -1.1752  1.2214  0.7836
 7130SOL     OW32848   3.187   4.381  16.600  0.1469  0.0621  0.3322
 7130SOL    HW132849   3.183   4.415  16.511  0.4764 -0.7367  0.0180
 7130SOL    HW232850   3.261   4.434  16.631  1.4471  0.1475 -2.9569
 7131SOL     OW32851   2.179   1.292   3.580 -0.1810 -0.0960 -0.5769
 7131SOL    HW132852   2.162   1.386   3.585  0.5850  0.1489 -2.5728
 7131SOL    HW232853   2.216   1.279   3.667 -1.5699 -0.9794 -0.1039
 7132SOL     OW32854   3.804   3.317   0.895 -0.2373  0.1008 -0.2203
 7132SOL    HW132855   3.809   3.246   0.830  3.3856  0.6177 -0.5270
 7132SOL    HW232856   3.727   3.291   0.946  1.5736 -1.0925  1.9327
 7133SOL     OW32857   2.112   0.079   7.569  0.5642 -0.0551  0.0430
 7133SOL    HW132858   2.081   0.026   7.642  0.0387  0.9293  0.5354
 7133SOL    HW232859   2.040   0.050   7.513 -0.1677 -2.0789  2.0682
 7134SOL     OW32860   2.071   2.732   5.734 -0.3509 -0.2350 -0.0287
 7134SOL    HW132861   2.153   2.718   5.686 -0.7996  0.7413 -1.0786
 7134SOL    HW232862   2.021   2.676   5.675 -0.3961  2.1524 -2.2472
 7135SOL     OW32863   0.952   3.355  16.538  0.4483  0.0141  0.5189
 7135SOL    HW132864   0.865   3.384  16.511 -0.0346 -2.9222 -1.1104
 7135SOL    HW232865   0.978   3.431  16.589 -0.0510  0.9296 -0.5916
 7136SOL     OW32866   4.280   1.885   4.479  0.4618  0.0499 -0.0804
 7136SOL    HW132867   4.300   1.881   4.386 -0.1026  2.3430 -0.3071
 7136SOL    HW232868   4.252   1.977   4.487 -1.6738 -0.8751  3.0180
 7137SOL     OW32869   1.242   2.362   6.078  0.3207  0.0688 -0.1972
 7137SOL    HW132870   1.173   2.413   6.122  1.2032  0.7258  0.4186
 7137SOL    HW232871   1.190   2.287   6.050 -0.1991  0.1452  0.5430
 7138SOL     OW32872   3.066   3.033   9.194  0.1182 -0.5644 -0.4184
 7138SOL    HW132873   3.123   2.959   9.171  2.0268  1.5745 -2.6109
 7138SOL    HW232874   3.114   3.072   9.267 -0.3303  0.1342 -0.4949
 7139SOL     OW32875   1.029   1.146  12.640  0.3682 -0.0363  0.7702
 7139SOL    HW132876   1.060   1.067  12.686  0.7668 -1.9262 -2.7649
 7139SOL    HW232877   1.038   1.205  12.715  0.3563  1.4525 -0.3943
 7140SOL     OW32878   1.748   2.321   3.302  0.0929 -0.5200 -0.0314
 7140SOL    HW132879   1.663   2.349   3.336  0.3308 -1.2643  1.1747
 7140SOL    HW232880   1.762   2.236   3.343 -0.4447 -0.6648 -0.1509
 7141SOL     OW32881   1.658   1.482   6.980 -0.0715 -0.0796  0.0855
 7141SOL    HW132882   1.705   1.548   6.929  1.1262 -0.4767  0.6495
 7141SOL    HW232883   1.570   1.485   6.944  0.7855  0.8224 -1.9318
 7142SOL     OW32884   0.573   2.986   5.380 -0.1169  0.1277  0.6232
 7142SOL    HW132885   0.646   2.926   5.364  0.2464  0.7034  0.1256
 7142SOL    HW232886   0.562   2.981   5.475 -0.4810 -2.9365  0.4341
 7143SOL     OW32887   2.882   0.575   3.634 -0.1131  0.1944 -0.6709
 7143SOL    HW132888   2.971   0.609   3.621 -1.0593  2.0382 -2.2884
 7143SOL    HW232889   2.896   0.519   3.711 -0.5107  0.2922 -0.5276
 7144SOL     OW32890   4.126   4.403   6.527  0.4294 -0.0367 -0.2357
 7144SOL    HW132891   4.076   4.485   6.524  0.0440 -0.3098 -1.2627
 7144SOL    HW232892   4.170   4.408   6.613  0.2771 -2.3155 -0.0305
 7145SOL     OW32893   1.972   3.353  17.237  0.0475  0.5033  0.0682
 7145SOL    HW132894   2.006   3.323  17.153  0.4649  0.9788  0.0672
 7145SOL    HW232895   2.036   3.310  17.294 -0.4240 -1.5467 -0.9413
 7146SOL     OW32896   2.916   2.047   6.818 -0.2777 -0.1436  0.0189
 7146SOL    HW132897   2.856   2.025   6.746 -0.5976 -0.3938  0.3613
 7146SOL    HW232898   2.988   1.991   6.788 -0.0026  0.7206 -0.9530
 7147SOL     OW32899   3.362   3.098   0.159  0.6491  0.5044 -0.3417
 7147SOL    HW132900   3.372   3.095   0.254 -2.7967  3.5615  0.0808
 7147SOL    HW232901   3.368   3.004   0.141  0.5389  0.6370 -1.0734
 7148SOL     OW32902   3.444   0.326   8.920  0.2710 -0.1297  0.3272
 7148SOL    HW132903   3.499   0.345   8.844 -0.2942 -4.6407 -1.2114
 7148SOL    HW232904   3.420   0.413   8.952 -0.8349 -0.0137 -0.8209
 7149SOL     OW32905   1.681   1.610  12.315 -0.4665  0.0625  0.7946
 7149SOL    HW132906   1.704   1.628  12.406  0.0306 -2.8677  1.2612
 7149SOL    HW232907   1.711   1.518  12.315 -1.1941 -0.1754  0.2109
 7150SOL     OW32908   3.087   1.223  16.610 -0.2080 -0.1573 -0.0177
 7150SOL    HW132909   3.016   1.286  16.622  0.1704  0.4548 -1.0601
 7150SOL    HW232910   3.040   1.183  16.536 -0.6126 -1.2815  0.8429
 7151SOL     OW32911   0.428   3.467   8.840 -0.1916 -0.0094  0.6135
 7151SOL    HW132912   0.487   3.524   8.888  0.7116 -0.5965  0.2002
 7151SOL    HW232913   0.367   3.432   8.905  0.5056  0.4688  1.5090
 7152SOL     OW32914   1.264   1.823  17.602  0.1368  0.2123  0.0714
 7152SOL    HW132915   1.253   1.897  17.543 -3.3504  0.8889  1.5891
 7152SOL    HW232916   1.352   1.791  17.581  0.4937  0.4190  1.2416
 7153SOL     OW32917   3.534   1.139   0.733 -0.0784 -0.5857 -0.5441
 7153SOL    HW132918   3.512   1.095   0.815 -3.5035 -0.7992 -1.5721
 7153SOL    HW232919   3.458   1.195   0.720  1.7798  1.7998 -1.2884
 7154SOL     OW32920   1.122   3.968   8.318 -0.5822 -0.3608 -0.4517
 7154SOL    HW132921   1.094   3.986   8.407  0.9938  0.4736 -0.1264
 7154SOL    HW232922   1.136   3.873   8.316  0.0160 -0.2816  0.1355
 7155SOL     OW32923   2.818   2.452   3.480 -0.0584  0.1855  0.2249
 7155SOL    HW132924   2.767   2.404   3.414  1.6285  0.2636 -1.1489
 7155SOL    HW232925   2.783   2.429   3.566 -0.4028 -0.8101 -0.1787
 7156SOL     OW32926   4.283   2.891  11.987 -0.3960 -0.5942 -0.1227
 7156SOL    HW132927   4.370   2.852  11.997 -0.0797  0.2395  0.4119
 7156SOL    HW232928   4.304   2.941  11.908  0.3098  0.8754  0.9878
 7157SOL     OW32929   3.513   2.177   6.024  0.0352 -0.1780  0.0212
 7157SOL    HW132930   3.489   2.109   5.961  0.1565 -0.7934  0.6457
 7157SOL    HW232931   3.532   2.135   6.108  1.0572  1.6786  0.7177
 7158SOL     OW32932   2.655   2.235   8.855  0.5579  0.1822  0.3164
 7158SOL    HW132933   2.593   2.271   8.792  0.3605  0.9310  0.9381
 7158SOL    HW232934   2.690   2.153   8.821 -1.7568 -0.2050 -1.1494
 7159SOL     OW32935   0.662   1.551  10.170 -0.0476  0.9119 -0.6183
 7159SOL    HW132936   0.744   1.579  10.211 -1.1559  2.2072  0.7432
 7159SOL    HW232937   0.679   1.586  10.083  0.6517  0.3143 -0.7121
 7160SOL     OW32938   3.638   1.925  12.869  0.2170  0.1707 -0.2794
 7160SOL    HW132939   3.715   1.892  12.823  0.1638  2.6738 -2.1465
 7160SOL    HW232940   3.654   1.876  12.950 -0.7574  0.0212 -0.1733
 7161SOL     OW32941   1.350   3.220   6.646  0.3619  0.4563 -0.3855
 7161SOL    HW132942   1.336   3.310   6.616  1.1837  0.5132 -0.5944
 7161SOL    HW232943   1.401   3.255   6.719  1.0264  0.6346 -0.9331
 7162SOL     OW32944   1.212   0.614   5.945 -0.8866 -0.1573  0.6863
 7162SOL    HW132945   1.202   0.630   6.039  0.5706  0.7727  0.6782
 7162SOL    HW232946   1.291   0.661   5.922 -1.2876  0.5934  0.8445
 7163SOL     OW32947   3.440   3.523  11.412 -0.0484 -0.0811 -0.3946
 7163SOL    HW132948   3.368   3.503  11.353  0.0061 -1.7519  0.0996
 7163SOL    HW232949   3.415   3.504  11.503 -0.8536 -0.1640 -0.6386
 7164SOL     OW32950   4.482   1.670   4.491  0.0662  0.5909  0.2888
 7164SOL    HW132951   4.425   1.593   4.492  0.7388  0.0532 -1.9699
 7164SOL    HW232952   4.418   1.741   4.476 -1.8381 -0.8120  1.8091
 7165SOL     OW32953   2.641   0.028   6.716  0.1154  0.2791 -0.2182
 7165SOL    HW132954   2.697   4.674   6.703  1.9326  1.6065 -0.0607
 7165SOL    HW232955   2.566   0.009   6.772 -0.2009 -2.9745 -1.6916
 7166SOL     OW32956   3.578   4.717  13.294  0.4252 -0.0263  0.1716
 7166SOL    HW132957   3.623   4.635  13.315  1.4030  1.4194  3.7526
 7166SOL    HW232958   3.520   4.677  13.229 -0.0685  0.3664  0.3719
 7167SOL     OW32959   1.349   0.866  10.786  0.7464 -0.1259  0.1156
 7167SOL    HW132960   1.383   0.825  10.865  0.1786 -1.7859 -0.5109
 7167SOL    HW232961   1.420   0.930  10.777  1.8878 -1.2931  0.8729
 7168SOL     OW32962   4.144   0.270   4.228  0.0817 -0.0985  0.4795
 7168SOL    HW132963   4.207   0.280   4.157  1.7459 -1.4103  1.7790
 7168SOL    HW232964   4.125   0.176   4.224 -1.2545  0.1529  0.8045
 7169SOL     OW32965   4.455   0.824   5.496  0.1500 -0.6586 -0.6818
 7169SOL    HW132966   4.378   0.838   5.552  0.9889  1.3010 -0.0062
 7169SOL    HW232967   4.417   0.762   5.434  1.5169 -0.5457 -1.6127
 7170SOL     OW32968   1.291   0.687   5.602 -0.4158  0.5352  0.5108
 7170SOL    HW132969   1.358   0.666   5.667  0.1032 -0.9786 -0.4989
 7170SOL    HW232970   1.312   0.779   5.584 -1.1572  0.4947 -0.5544
 7171SOL     OW32971   1.754   2.884   0.651  0.3863  0.1241  0.0825
 7171SOL    HW132972   1.776   2.897   0.559  3.1685 -2.3106  0.4049
 7171SOL    HW232973   1.822   2.931   0.699 -0.5970 -0.4506  2.0440
 7172SOL     OW32974   1.926   2.058  17.206 -0.8262  0.3235  0.3679
 7172SOL    HW132975   1.921   1.966  17.232  0.8064  0.3265  0.6980
 7172SOL    HW232976   1.895   2.053  17.116  0.6113 -1.4797 -0.0207
 7173SOL     OW32977   2.396   4.291   3.628  0.3351  0.1465 -0.6361
 7173SOL    HW132978   2.435   4.218   3.579  0.8682  1.0316 -1.5236
 7173SOL    HW232979   2.367   4.354   3.563 -0.8094  0.9645  0.6835
 7174SOL     OW32980   3.055   2.019   9.235 -0.9184 -0.2612  0.2415
 7174SOL    HW132981   3.076   2.068   9.314  0.0459  0.3498 -0.3960
 7174SOL    HW232982   3.015   1.941   9.273 -0.0954 -0.5291  0.5659
 7175SOL     OW32983   2.052   3.900  15.270  0.0725  0.4086 -0.4310
 7175SOL    HW132984   1.997   3.845  15.326 -1.1086 -0.6981 -2.6945
 7175SOL    HW232985   2.141   3.865  15.270 -0.9712 -2.2675  1.0595
 7176SOL     OW32986   3.640   3.512   7.082 -0.2251  0.0799  0.1190
 7176SOL    HW132987   3.678   3.570   7.149 -0.1592 -1.2497  1.2295
 7176SOL    HW232988   3.578   3.459   7.132  0.4204 -1.2008 -0.4527
 7177SOL     OW32989   2.411   0.728   8.870 -0.0596  0.5707  0.3315
 7177SOL    HW132990   2.362   0.784   8.929 -0.4256  1.1734 -0.5473
 7177SOL    HW232991   2.458   0.789   8.814 -2.7304  1.0630 -1.3854
 7178SOL     OW32992   1.990   1.945   0.120 -0.0480 -1.2092  0.5726
 7178SOL    HW132993   1.930   1.981   0.185 -0.6174  0.3052 -0.7793
 7178SOL    HW232994   1.929   1.939   0.046  0.1951  2.2767  0.0950
 7179SOL     OW32995   3.248   2.941   0.812  0.3457  0.1711  0.1719
 7179SOL    HW132996   3.340   2.957   0.791  0.0245 -2.2162 -3.0609
 7179SOL    HW232997   3.245   2.915   0.904  0.7941  0.5527  0.2963
 7180SOL     OW32998   0.561   1.177   3.724  0.4010  0.2063 -0.2995
 7180SOL    HW132999   0.646   1.177   3.766  0.1544 -0.7126  0.2153
 7180SOL    HW233000   0.512   1.241   3.775  1.6305  1.6569 -0.9370
 7181SOL     OW33001   0.055   1.444  10.678 -0.0971 -0.3577  0.5523
 7181SOL    HW133002   0.079   1.351  10.680  1.8167  0.1553  1.7456
 7181SOL    HW233003   0.114   1.471  10.749  1.3076  0.1760 -0.8329
 7182SOL     OW33004   4.226   1.550   3.840 -0.7943  0.5857  0.2335
 7182SOL    HW133005   4.249   1.608   3.767  1.3079 -1.4005 -0.6805
 7182SOL    HW233006   4.155   1.497   3.804  0.7237 -1.1777 -0.2173
 7183SOL     OW33007   0.891   1.821   6.871 -0.3399 -0.2057  0.8808
 7183SOL    HW133008   0.901   1.884   6.800  0.2505  0.0238  1.1657
 7183SOL    HW233009   0.913   1.736   6.833 -0.6251  0.5193 -0.8917
 7184SOL     OW33010   0.421   4.617   0.872  0.1036 -0.5783 -0.3866
 7184SOL    HW133011   0.326   4.628   0.882  0.1092 -0.1628 -0.8432
 7184SOL    HW233012   0.452   4.692   0.822 -0.9565 -1.2911 -2.1324
 7185SOL     OW33013   4.106   2.797   6.668 -0.1755 -0.3049  0.1407
 7185SOL    HW133014   4.026   2.747   6.650 -0.8686  0.9072 -0.0908
 7185SOL    HW233015   4.087   2.821   6.759  1.8261  1.1024  0.1740
 7186SOL     OW33016   3.569   0.611   7.908  0.2713  0.4788 -0.2821
 7186SOL    HW133017   3.589   0.603   8.002 -1.9419 -2.7953 -0.0695
 7186SOL    HW233018   3.657   0.598   7.872  0.4278 -0.9871  0.6109
 7187SOL     OW33019   1.022   4.464   6.529 -0.2337 -0.3346 -0.2492
 7187SOL    HW133020   0.954   4.520   6.492 -0.7876 -0.8804 -0.0629
 7187SOL    HW233021   1.090   4.471   6.462  0.0715  4.0062  0.4674
 7188SOL     OW33022   1.487   4.308  15.203 -0.3865 -0.1706 -0.4709
 7188SOL    HW133023   1.462   4.360  15.280  1.8179  1.5265 -0.8997
 7188SOL    HW233024   1.488   4.228  15.256  0.7316 -0.9984 -1.7262
 7189SOL     OW33025   2.286   4.563   0.599  0.5927  0.4418  0.4580
 7189SOL    HW133026   2.232   4.639   0.621  0.0169  0.7174 -1.8414
 7189SOL    HW233027   2.313   4.522   0.681  1.8481  0.2601 -0.0315
 7190SOL     OW33028   2.920   2.789   4.678  0.0843  1.1015  0.3737
 7190SOL    HW133029   2.882   2.814   4.594 -0.4439  0.2233  0.3511
 7190SOL    HW233030   2.953   2.872   4.712  0.5101  0.1530  2.2588
 7191SOL     OW33031   2.084   1.864  12.443 -0.2352  0.2021 -0.2194
 7191SOL    HW133032   2.139   1.866  12.521  1.3434 -0.1986 -1.3304
 7191SOL    HW233033   2.152   1.902  12.388  0.2921 -1.4857 -0.7282
 7192SOL     OW33034   3.769   1.364  15.786  0.0348  0.4358 -0.4884
 7192SOL    HW133035   3.738   1.419  15.714 -1.3425 -0.3001 -0.4734
 7192SOL    HW233036   3.691   1.381  15.840 -0.0358 -1.9584  0.1825
 7193SOL     OW33037   1.576   0.441   1.424  0.0835 -0.6417  0.2824
 7193SOL    HW133038   1.584   0.529   1.463 -4.1838 -0.0670 -0.2008
 7193SOL    HW233039   1.652   0.394   1.460 -0.5526 -2.2740 -0.5412
 7194SOL     OW33040   0.601   1.118   7.886  0.0837  0.5073 -0.2192
 7194SOL    HW133041   0.534   1.125   7.818  1.9513 -0.3658 -2.1595
 7194SOL    HW233042   0.663   1.186   7.858  0.5031 -0.2414 -1.1091
 7195SOL     OW33043   2.138   4.616  10.709  0.0088 -0.4039  0.5049
 7195SOL    HW133044   2.106   4.574  10.629  1.7488 -2.4964  0.9163
 7195SOL    HW233045   2.117   4.706  10.685 -0.2541 -0.8070 -0.7978
 7196SOL     OW33046   2.578   0.843   9.579  0.0062 -0.1438 -0.2499
 7196SOL    HW133047   2.660   0.882   9.607 -0.3147  0.2449  0.1552
 7196SOL    HW233048   2.559   0.903   9.506  0.0392 -1.0722 -1.0230
 7197SOL     OW33049   0.849   0.484   7.779  0.2813 -0.1717  0.0737
 7197SOL    HW133050   0.928   0.473   7.726 -1.2322 -0.1856 -2.1642
 7197SOL    HW233051   0.815   0.399   7.807 -0.8183 -0.1418 -1.2200
 7198SOL     OW33052   1.409   4.376  12.828  0.3149  0.3634 -0.3181
 7198SOL    HW133053   1.335   4.426  12.794 -1.1444 -0.9863  0.8906
 7198SOL    HW233054   1.368   4.290  12.837  0.6542  0.1358 -0.9542
 7199SOL     OW33055   0.079   1.595  13.167  0.1184 -0.2446 -0.0980
 7199SOL    HW133056   0.156   1.569  13.118  1.2903  1.0604  1.0517
 7199SOL    HW233057   0.103   1.556  13.251 -0.4783 -1.5150 -0.5141
 7200SOL     OW33058   2.320   2.243   5.947  0.1013  0.0548  0.4157
 7200SOL    HW133059   2.393   2.212   6.000 -0.0354 -0.2801  0.4131
 7200SOL    HW233060   2.270   2.162   5.933 -0.6003  0.7421 -1.1133
 7201SOL     OW33061   0.480   0.846   6.779  0.0762 -0.5180  0.1764
 7201SOL    HW133062   0.539   0.771   6.773 -1.7197 -1.7531 -1.9997
 7201SOL    HW233063   0.523   0.909   6.837 -1.1701 -0.2818  0.8563
 7202SOL     OW33064   1.419   3.523   7.215 -0.1081 -0.2768  0.5433
 7202SOL    HW133065   1.469   3.481   7.285 -1.4044 -1.4530  0.7538
 7202SOL    HW233066   1.480   3.533   7.141 -0.1583 -0.2139  0.5109
 7203SOL     OW33067   3.293   0.898   6.743 -0.2546 -0.5585 -0.4081
 7203SOL    HW133068   3.305   0.819   6.691 -1.1931  0.7054 -2.5844
 7203SOL    HW233069   3.223   0.880   6.806  0.8495 -2.7951  0.1940
 7204SOL     OW33070   0.971   2.991   6.740 -0.3762 -0.1832 -0.1211
 7204SOL    HW133071   1.041   3.009   6.677 -1.0608  2.3300 -0.1710
 7204SOL    HW233072   0.968   3.077   6.783  0.0290  0.1057 -0.6728
 7205SOL     OW33073   1.979   2.763   5.394 -0.2122 -0.2329 -0.2763
 7205SOL    HW133074   1.956   2.694   5.456  1.1204 -0.1145  0.3455
 7205SOL    HW233075   1.891   2.798   5.375 -0.6852 -0.2806  1.8085
 7206SOL     OW33076   1.731   1.496  17.213 -0.1710 -0.0198  0.2223
 7206SOL    HW133077   1.728   1.546  17.131  0.0314  0.9952  0.8301
 7206SOL    HW233078   1.779   1.417  17.190  1.4994  0.9929  0.2265
 7207SOL     OW33079   1.507   1.190   7.994  0.1180  0.0874  0.1380
 7207SOL    HW133080   1.542   1.262   8.047  0.2284 -0.7074  1.1528
 7207SOL    HW233081   1.455   1.149   8.063  0.2230  0.0485  0.1954
 7208SOL     OW33082   0.265   2.872   9.895  0.1428 -0.4761 -0.1881
 7208SOL    HW133083   0.279   2.781   9.869 -1.1697 -0.5548 -0.6556
 7208SOL    HW233084   0.358   2.891   9.901  0.3400 -1.6555  0.4653
 7209SOL     OW33085   0.971   1.766   3.956  0.0878 -0.0305  0.4309
 7209SOL    HW133086   1.064   1.744   3.948 -0.3445 -1.1361 -1.6225
 7209SOL    HW233087   0.963   1.852   3.914 -2.2319 -0.6915 -0.4892
 7210SOL     OW33088   0.170   0.440   4.117 -0.1393  0.6257  0.1845
 7210SOL    HW133089   0.204   0.496   4.187  0.2160 -1.8190  1.9834
 7210SOL    HW233090   0.241   0.386   4.081  1.6127  0.7528  3.4387
 7211SOL     OW33091   1.241   4.695   4.252  0.2087 -0.5476 -0.6364
 7211SOL    HW133092   1.245   4.625   4.187  1.5802 -0.6046 -0.4938
 7211SOL    HW233093   1.243   4.634   4.326 -1.9087 -0.1992 -0.2931
 7212SOL     OW33094   2.996   2.560   7.649  0.0959  0.3206 -0.8424
 7212SOL    HW133095   3.005   2.573   7.554  0.1357  2.1468 -0.5852
 7212SOL    HW233096   3.082   2.520   7.658 -0.2455  0.0829  1.3148
 7213SOL     OW33097   3.108   0.109   2.657  0.3093 -0.4254 -0.4559
 7213SOL    HW133098   3.038   0.064   2.609 -0.7564 -0.2855  0.9815
 7213SOL    HW233099   3.174   0.117   2.588  0.1294 -2.0837 -0.8202
 7214SOL     OW33100   4.355   4.509   8.926  0.0724 -0.1639 -0.6581
 7214SOL    HW133101   4.289   4.543   8.987  1.1908  0.7664  0.0329
 7214SOL    HW233102   4.349   4.570   8.853  1.9160 -0.2366 -0.8605
 7215SOL     OW33103   1.601   3.673   8.443 -0.0220  0.1512  0.2244
 7215SOL    HW133104   1.555   3.596   8.409 -1.2825  1.3158 -0.6461
 7215SOL    HW233105   1.647   3.692   8.361 -0.0495  1.0190  0.4120
 7216SOL     OW33106   2.545   1.937  14.372  0.2302 -0.0807 -0.7342
 7216SOL    HW133107   2.581   1.875  14.308 -0.8388 -1.4275 -0.0421
 7216SOL    HW233108   2.534   2.016  14.318 -2.7414  1.2368  1.8433
 7217SOL     OW33109   1.063   0.296   6.891 -0.5658 -0.0998  0.1374
 7217SOL    HW133110   1.033   0.212   6.858 -0.9052 -1.0348  2.8626
 7217SOL    HW233111   1.152   0.294   6.855 -0.7890 -3.0293 -0.1798
 7218SOL     OW33112   2.681   4.145   5.176 -0.0633 -0.7303 -0.3351
 7218SOL    HW133113   2.681   4.238   5.199  0.1323 -0.4934 -1.2915
 7218SOL    HW233114   2.592   4.145   5.142  0.2154  0.5943 -1.0944
 7219SOL     OW33115   4.191   2.746  15.594 -0.2412 -0.0772  0.2797
 7219SOL    HW133116   4.273   2.697  15.595  0.1550  0.6025  1.7733
 7219SOL    HW233117   4.150   2.693  15.662 -0.9086 -0.7394 -0.6404
 7220SOL     OW33118   0.925   0.296   1.663  0.3775  0.1411  0.0034
 7220SOL    HW133119   0.967   0.352   1.597 -0.3516 -0.0166 -0.5934
 7220SOL    HW233120   0.998   0.256   1.709  0.1827 -0.7083 -0.4195
 7221SOL     OW33121   1.575   3.697  16.217 -0.4272 -0.2884 -0.2315
 7221SOL    HW133122   1.668   3.677  16.207 -0.3363  0.1775 -0.3325
 7221SOL    HW233123   1.560   3.643  16.294  2.0403  0.9126  1.1069
 7222SOL     OW33124   2.305   2.665   7.418  0.5863  0.5848  0.2928
 7222SOL    HW133125   2.249   2.743   7.419 -0.1186  0.0710  0.6489
 7222SOL    HW233126   2.377   2.698   7.364  2.4455 -1.4287  1.5529
 7223SOL     OW33127   3.915   0.016  11.089  0.6110 -0.1589 -0.2383
 7223SOL    HW133128   3.987   0.077  11.076  1.5047 -1.3450 -0.8835
 7223SOL    HW233129   3.861   0.061  11.155  0.6030 -1.3043  0.5465
 7224SOL     OW33130   3.071   2.654   6.145  0.7036 -0.0924  0.2242
 7224SOL    HW133131   2.980   2.679   6.129  0.8141 -0.0878 -0.3991
 7224SOL    HW233132   3.110   2.740   6.162 -1.7827  0.4115  3.3702
 7225SOL     OW33133   4.138   2.809   7.455 -0.2941 -0.4266 -0.1791
 7225SOL    HW133134   4.107   2.781   7.541 -1.8389 -0.1751 -0.6521
 7225SOL    HW233135   4.225   2.846   7.465  0.1838 -1.0876 -1.8186
 7226SOL     OW33136   2.829   4.558  16.937  0.2516 -0.3842  0.0754
 7226SOL    HW133137   2.915   4.527  16.966  0.1278 -0.8405 -0.0416
 7226SOL    HW233138   2.853   4.592  16.850  2.1666  2.7672  1.8243
 7227SOL     OW33139   1.644   0.022  14.305  0.3742  0.2670  0.4405
 7227SOL    HW133140   1.666   0.102  14.353 -0.8163  0.4916  0.6245
 7227SOL    HW233141   1.657   0.061  14.218  1.2780 -0.2427  0.3555
 7228SOL     OW33142   0.500   0.539   4.772  0.2595  0.5736 -0.1718
 7228SOL    HW133143   0.484   0.594   4.695 -2.8115  2.0925  1.5546
 7228SOL    HW233144   0.442   0.465   4.758 -3.3562  3.2168  0.8208
 7229SOL     OW33145   4.537   2.698   7.761 -0.4456  0.0685  0.6362
 7229SOL    HW133146   4.494   2.634   7.817 -0.0574 -1.1212 -0.4183
 7229SOL    HW233147   4.581   2.749   7.829  0.8907  0.4178 -0.4839
 7230SOL     OW33148   3.434   4.567   3.381 -0.1367  0.0049 -0.3383
 7230SOL    HW133149   3.478   4.484   3.364  2.0598  1.0436  0.1687
 7230SOL    HW233150   3.359   4.527   3.425 -0.3681  1.8881  1.0018
 7231SOL     OW33151   0.679   3.237   1.931  0.8158  0.0410 -0.0163
 7231SOL    HW133152   0.608   3.291   1.896  1.7663  1.8797  0.8950
 7231SOL    HW233153   0.686   3.269   2.021 -0.4548 -0.4730  0.2740
 7232SOL     OW33154   0.768   4.463   1.706 -0.6246 -0.2978  0.4208
 7232SOL    HW133155   0.717   4.480   1.786  0.5973 -0.8222  1.3052
 7232SOL    HW233156   0.706   4.499   1.642 -0.6137  1.0829  1.1905
 7233SOL     OW33157   3.564   2.775  16.236 -0.1141 -0.7747 -0.0096
 7233SOL    HW133158   3.525   2.691  16.211 -1.9881  0.2736 -0.6114
 7233SOL    HW233159   3.654   2.777  16.203 -0.9076 -0.0944 -2.1551
 7234SOL     OW33160   2.671   0.132   0.573  0.0390  0.0529  0.2987
 7234SOL    HW133161   2.637   0.113   0.660  1.6077  0.2987  0.9645
 7234SOL    HW233162   2.594   0.165   0.527  0.5424 -0.4456 -0.9104
 7235SOL     OW33163   1.821   2.420  16.794  0.2129  0.3265 -0.2227
 7235SOL    HW133164   1.788   2.505  16.825 -0.1304  1.7433 -4.4542
 7235SOL    HW233165   1.738   2.372  16.790  0.9034 -0.8663 -0.0473
 7236SOL     OW33166   1.611   2.407  14.450 -0.1419  0.2971 -0.6542
 7236SOL    HW133167   1.679   2.342  14.432 -0.1415  0.4568 -1.2415
 7236SOL    HW233168   1.552   2.371  14.383  0.6713 -1.5653 -0.3793
 7237SOL     OW33169   4.405   1.626  12.521 -0.8896  0.3151 -0.4791
 7237SOL    HW133170   4.391   1.538  12.555 -0.5380  1.0117  1.5183
 7237SOL    HW233171   4.425   1.607  12.430 -0.4095 -0.4737 -0.2092
 7238SOL     OW33172   1.672   0.117  10.659  0.0013 -0.3793  0.0295
 7238SOL    HW133173   1.757   0.127  10.615 -0.0712  3.2941  0.6982
 7238SOL    HW233174   1.685   0.159  10.744 -2.7749 -1.6734  1.0813
 7239SOL     OW33175   0.132   2.839  14.118 -0.1776  0.0695  0.1161
 7239SOL    HW133176   0.205   2.860  14.176 -0.0972  0.0451  0.0241
 7239SOL    HW233177   0.065   2.904  14.138  0.9724  0.9761  1.0075
 7240SOL     OW33178   2.596   0.677   8.036  0.3389  0.2476  0.6502
 7240SOL    HW133179   2.580   0.583   8.051 -2.0173  0.8677  2.0558
 7240SOL    HW233180   2.509   0.707   8.008  1.0687  0.4154 -1.4415
 7241SOL     OW33181   3.797   3.295  15.189  0.3560 -0.4724 -0.4459
 7241SOL    HW133182   3.866   3.334  15.135 -0.9968  0.8607 -1.1970
 7241SOL    HW233183   3.846   3.215  15.210  0.4825  0.0269  1.1449
 7242SOL     OW33184   2.813   3.238   5.424 -0.4688  0.3623  0.1655
 7242SOL    HW133185   2.884   3.183   5.392 -0.3105 -0.0448  1.2193
 7242SOL    HW233186   2.845   3.279   5.504 -0.5815  0.3043  0.2410
 7243SOL     OW33187   4.662   0.857   6.690 -0.2650  0.4365 -0.3439
 7243SOL    HW133188   0.035   0.860   6.692 -0.2525 -0.7943  0.9622
 7243SOL    HW233189   4.648   0.764   6.709 -0.2544  0.2301 -1.3161
 7244SOL     OW33190   1.581   4.303   2.580 -0.4665  0.0907 -0.1870
 7244SOL    HW133191   1.585   4.212   2.612  0.5102 -0.1666 -1.0417
 7244SOL    HW233192   1.492   4.293   2.546 -0.0733 -1.9269 -0.6677
 7245SOL     OW33193   4.242   3.932   0.579  0.2266  0.8243 -0.0240
 7245SOL    HW133194   4.221   3.955   0.488  0.3777  1.3158  0.0605
 7245SOL    HW233195   4.224   3.839   0.582  0.7308  0.7803  1.7093
 7246SOL     OW33196   2.200   3.233   0.309  0.6299  0.2863  0.4779
 7246SOL    HW133197   2.164   3.163   0.254  1.0306 -0.4330  1.1271
 7246SOL    HW233198   2.144   3.230   0.386 -0.4074 -0.2440 -0.3037
 7247SOL     OW33199   0.323   0.022  13.024 -0.3280  0.3224 -0.2503
 7247SOL    HW133200   0.290   0.067  12.947 -0.7473  1.5665  0.6413
 7247SOL    HW233201   0.341   4.658  12.988 -1.1681  0.4961 -1.0809
 7248SOL     OW33202   1.359   2.761   0.926 -0.7039 -0.4315  0.0618
 7248SOL    HW133203   1.275   2.799   0.950 -1.3860 -1.7969 -0.1789
 7248SOL    HW233204   1.404   2.836   0.887  0.8561 -1.7500 -0.6793
 7249SOL     OW33205   0.097   0.554   3.378  0.5241  0.1113 -0.4244
 7249SOL    HW133206   0.033   0.556   3.449 -2.7287  2.4702 -3.4458
 7249SOL    HW233207   0.109   0.462   3.356  1.4809  0.2144 -0.3514
 7250SOL     OW33208   3.742   1.715   2.903  0.2150  0.3301  0.1124
 7250SOL    HW133209   3.674   1.656   2.871  0.5965 -0.8604  1.4989
 7250SOL    HW233210   3.765   1.676   2.987 -0.6294 -0.1701  0.1104
 7251SOL     OW33211   3.197   4.428   4.862 -0.4880 -0.5606 -0.1055
 7251SOL    HW133212   3.206   4.366   4.790  0.0472  0.0975 -0.6030
 7251SOL    HW233213   3.140   4.380   4.922 -0.4580 -0.5451 -0.0648
 7252SOL     OW33214   0.482   2.165   7.860  0.0651  0.0259 -0.1312
 7252SOL    HW133215   0.548   2.189   7.794  0.3086  0.1902  0.1716
 7252SOL    HW233216   0.502   2.231   7.926  0.7819  0.0713 -0.3945
 7253SOL     OW33217   2.064   3.214   0.537 -0.7225 -0.1678  0.3671
 7253SOL    HW133218   2.074   3.127   0.577 -0.6710  0.7298  2.3114
 7253SOL    HW233219   2.103   3.272   0.603 -0.3638  0.5696 -0.5063
 7254SOL     OW33220   4.303   0.690   2.332 -0.0719 -0.5015  0.5969
 7254SOL    HW133221   4.323   0.736   2.251 -0.1994  0.4194  1.0894
 7254SOL    HW233222   4.387   0.645   2.338 -0.4166 -1.1020  0.9497
 7255SOL     OW33223   1.106   2.388   2.834  0.6240 -0.1218 -0.0593
 7255SOL    HW133224   1.033   2.338   2.798 -1.2149  0.8545  2.2908
 7255SOL    HW233225   1.149   2.429   2.759 -1.0481 -0.5869 -1.2572
 7256SOL     OW33226   0.415   3.434   7.291 -0.1009 -0.5105 -0.3274
 7256SOL    HW133227   0.447   3.416   7.379 -3.8804 -0.0466  1.1506
 7256SOL    HW233228   0.478   3.388   7.236 -0.4900 -1.0617 -0.3136
 7257SOL     OW33229   4.392   3.189   3.565 -0.2385 -0.0514 -0.4466
 7257SOL    HW133230   4.380   3.277   3.530  4.2354  0.3082 -1.1449
 7257SOL    HW233231   4.462   3.209   3.627  0.3926  0.0404 -1.1742
 7258SOL     OW33232   0.056   1.938   5.580 -0.0245 -0.3507 -0.7323
 7258SOL    HW133233   0.073   1.885   5.658 -2.2993 -0.4208 -0.2884
 7258SOL    HW233234   0.106   1.888   5.516 -2.0081 -1.3318 -1.5094
 7259SOL     OW33235   0.720   4.017   8.876  0.2075  0.1866 -0.3937
 7259SOL    HW133236   0.713   4.101   8.923  0.9733 -0.7574  1.4203
 7259SOL    HW233237   0.784   3.972   8.932 -0.4129  1.0161  0.9945
 7260SOL     OW33238   4.380   3.795   2.938 -0.0346  0.3252 -1.0625
 7260SOL    HW133239   4.408   3.882   2.910 -0.5395  0.1639 -2.0703
 7260SOL    HW233240   4.464   3.756   2.963  0.3450  1.8091 -0.0008
 7261SOL     OW33241   4.513   3.536   8.295 -0.2585 -0.0603  0.4335
 7261SOL    HW133242   4.589   3.544   8.238  0.1869  1.4583  1.2342
 7261SOL    HW233243   4.517   3.442   8.315  0.7666 -0.2330 -0.5806
 7262SOL     OW33244   1.326   4.064  15.978 -0.3103 -0.4976 -0.0979
 7262SOL    HW133245   1.316   4.146  15.930  0.7960 -0.1050  0.3492
 7262SOL    HW233246   1.405   4.033  15.934 -0.8956 -0.5580 -1.1002
 7263SOL     OW33247   2.793   1.890   9.397 -0.5247 -0.1945  0.2991
 7263SOL    HW133248   2.755   1.968   9.437 -0.4632  0.4260 -0.8637
 7263SOL    HW233249   2.724   1.853   9.341 -0.3939 -1.4168  0.9341
 7264SOL     OW33250   2.461   3.532   4.391 -0.2001  0.7912 -0.1703
 7264SOL    HW133251   2.526   3.585   4.345  0.4713 -1.0553 -1.3705
 7264SOL    HW233252   2.488   3.443   4.367 -0.7133  0.9734 -1.4119
 7265SOL     OW33253   4.414   4.101   1.893  0.1189 -0.8402  0.2282
 7265SOL    HW133254   4.459   4.035   1.945 -1.9889 -1.1054  1.7317
 7265SOL    HW233255   4.492   4.146   1.860  0.7437 -1.5921  0.6721
 7266SOL     OW33256   0.430   1.081   0.949  0.2319 -0.0542 -0.5960
 7266SOL    HW133257   0.451   1.029   1.026 -0.3990  0.5746 -0.0016
 7266SOL    HW233258   0.520   1.105   0.924  1.1434 -0.1065  2.6279
 7267SOL     OW33259   2.382   4.605   4.605 -0.1748  0.1586 -0.2904
 7267SOL    HW133260   2.415   4.672   4.664 -2.2730 -0.3192  1.4204
 7267SOL    HW233261   2.455   4.543   4.606  1.0226  1.5359 -2.5856
 7268SOL     OW33262   4.439   0.019   9.434  0.5843 -0.0028 -0.1570
 7268SOL    HW133263   4.456   4.677   9.502 -1.5365 -0.1115  0.2670
 7268SOL    HW233264   4.508   4.715   9.373 -1.2846 -0.2171 -2.1935
 7269SOL     OW33265   0.395   2.262   4.999 -0.1875  0.8485 -0.4683
 7269SOL    HW133266   0.480   2.233   5.032 -1.2244  0.0705  1.5087
 7269SOL    HW233267   0.340   2.247   5.076  1.1300  1.0831  0.5084
 7270SOL     OW33268   3.736   1.057   0.447  0.1487 -1.0791 -0.1327
 7270SOL    HW133269   3.661   1.114   0.430  1.3219  1.2322  2.5548
 7270SOL    HW233270   3.774   1.090   0.528 -2.7574  0.2567  0.6588
 7271SOL     OW33271   4.112   0.314   7.997 -0.2065 -0.1118  0.1408
 7271SOL    HW133272   4.173   0.388   7.985 -0.6482  0.3919  1.0403
 7271SOL    HW233273   4.040   0.371   8.026  0.0396  0.9133 -1.2479
 7272SOL     OW33274   1.446   0.111   3.291  0.3884  0.2649 -0.1593
 7272SOL    HW133275   1.428   0.019   3.272  2.5307 -0.3818  0.9876
 7272SOL    HW233276   1.517   0.118   3.228  1.6189 -0.4250  1.1504
 7273SOL     OW33277   4.331   2.383  15.293  0.0493  0.0194  0.2755
 7273SOL    HW133278   4.422   2.385  15.262 -0.7464  1.5403 -1.9046
 7273SOL    HW233279   4.343   2.405  15.386  1.0034  0.1636  0.1234
 7274SOL     OW33280   0.356   0.133   0.405  0.4063  1.0882 -0.5160
 7274SOL    HW133281   0.380   0.109   0.315 -2.2922 -0.0615 -0.9581
 7274SOL    HW233282   0.326   0.224   0.395 -1.5289  0.5263  0.1476
 7275SOL     OW33283   3.829   0.645   4.192 -0.1993 -0.2496 -0.0865
 7275SOL    HW133284   3.753   0.673   4.243  0.8125  0.7278  0.8623
 7275SOL    HW233285   3.871   0.588   4.256 -0.5252 -0.3248  0.0610
 7276SOL     OW33286   0.865   0.015  12.602  0.2056 -0.2791 -0.0952
 7276SOL    HW133287   0.803   4.696  12.542 -0.4643  1.5907 -0.6963
 7276SOL    HW233288   0.892   0.099  12.566 -0.8216 -0.4194 -1.1711
 7277SOL     OW33289   2.232   2.977   7.086  0.0101  0.0299  0.3353
 7277SOL    HW133290   2.183   2.977   7.004  3.2590 -2.0741 -1.6199
 7277SOL    HW233291   2.158   2.982   7.146  0.4306  0.4874  0.8111
 7278SOL     OW33292   1.394   1.538   7.675  0.1902 -0.1471  0.2068
 7278SOL    HW133293   1.488   1.533   7.656 -0.3995  0.5197 -2.8525
 7278SOL    HW233294   1.371   1.451   7.708 -1.3529 -0.7111 -2.3481
 7279SOL     OW33295   3.370   1.284   7.710 -0.0701  0.0573  0.3147
 7279SOL    HW133296   3.360   1.207   7.655  3.1047 -0.2568  0.1737
 7279SOL    HW233297   3.279   1.309   7.723 -0.5626 -2.0869  0.9983
 7280SOL     OW33298   0.128   1.505   3.100  0.4116 -0.6280 -0.2728
 7280SOL    HW133299   0.122   1.415   3.069  0.1392 -0.5517 -0.4522
 7280SOL    HW233300   0.196   1.502   3.166  0.2508  1.8304  0.0221
 7281SOL     OW33301   3.955   4.313   3.376  0.0916  0.1648 -0.0335
 7281SOL    HW133302   3.962   4.229   3.332 -2.2522 -0.2661  0.4161
 7281SOL    HW233303   4.047   4.322   3.402  0.1124 -0.0585 -0.0260
 7282SOL     OW33304   3.622   4.689   0.463 -0.0788  0.5825 -0.5073
 7282SOL    HW133305   3.606   4.705   0.556  0.1461  0.7025 -0.4883
 7282SOL    HW233306   3.659   0.047   0.428  1.3647  0.6872  1.2626
 7283SOL     OW33307   2.170   4.401   0.421 -0.0282  0.0950  0.6625
 7283SOL    HW133308   2.212   4.432   0.341 -1.1016  0.3019  0.1767
 7283SOL    HW233309   2.211   4.458   0.486 -1.3874  0.9588  0.7608
 7284SOL     OW33310   2.388   3.158   8.149  0.5404  0.8440  0.4436
 7284SOL    HW133311   2.403   3.072   8.188  0.8070  1.6255  2.0945
 7284SOL    HW233312   2.475   3.175   8.112 -0.6884  5.0872 -0.5312
 7285SOL     OW33313   4.188   0.727   8.679 -0.2685 -0.6320 -0.1831
 7285SOL    HW133314   4.159   0.725   8.770 -1.5341  1.4190 -0.5276
 7285SOL    HW233315   4.161   0.814   8.651 -3.1174 -1.4922 -0.1450
 7286SOL     OW33316   1.034   0.690  12.327  0.3215  0.6755  0.0900
 7286SOL    HW133317   1.107   0.740  12.362 -0.1715  0.1169  1.9496
 7286SOL    HW233318   1.006   0.740  12.251  2.1713  2.1768  0.3941
 7287SOL     OW33319   2.621   4.409   5.210 -0.1427  0.9552  0.3146
 7287SOL    HW133320   2.597   4.472   5.142 -0.4243 -1.0420 -1.4296
 7287SOL    HW233321   2.532   4.394   5.241  0.0346 -2.2895 -0.8230
 7288SOL     OW33322   0.870   2.733   3.266 -0.2579  0.4805 -0.1626
 7288SOL    HW133323   0.821   2.676   3.207 -0.5988 -0.9097  1.5010
 7288SOL    HW233324   0.874   2.687   3.349 -0.0767 -2.2572 -1.7029
 7289SOL     OW33325   3.386   4.277   2.115 -0.2469 -0.1874  0.2304
 7289SOL    HW133326   3.349   4.196   2.082 -2.5703  0.5974  0.9247
 7289SOL    HW233327   3.435   4.244   2.190 -2.3190 -2.5346  0.5427
 7290SOL     OW33328   3.273   1.468  12.677 -0.1618 -0.3535 -0.8778
 7290SOL    HW133329   3.231   1.396  12.724 -0.9430 -0.0783 -1.1652
 7290SOL    HW233330   3.286   1.541  12.738 -0.2296 -0.9282 -0.1788
 7291SOL     OW33331   1.585   3.861   4.215 -0.9344 -0.3123 -0.7372
 7291SOL    HW133332   1.511   3.915   4.240  1.0728  0.9584  2.6118
 7291SOL    HW233333   1.602   3.909   4.135  2.5513  1.4773  1.0320
 7292SOL     OW33334   4.533   4.181  17.483 -0.4484 -0.2353  0.2133
 7292SOL    HW133335   4.623   4.173  17.515  0.0415 -0.5056 -1.2289
 7292SOL    HW233336   4.540   4.261  17.430 -0.0084  0.1708  0.8813
 7293SOL     OW33337   1.949   2.550  17.061 -0.0908 -0.3041  0.3440
 7293SOL    HW133338   2.019   2.486  17.068  0.6919  0.5250  0.1251
 7293SOL    HW233339   1.882   2.508  17.007 -0.4532 -0.9894  1.3229
 7294SOL     OW33340   4.016   2.432  16.428 -0.3899  0.5588 -0.6131
 7294SOL    HW133341   4.003   2.418  16.522  1.8570 -0.4400 -0.4467
 7294SOL    HW233342   4.112   2.426  16.424 -0.4061  0.2250 -0.4771
 7295SOL     OW33343   2.674   0.838   2.745  0.4982  0.4489 -0.0344
 7295SOL    HW133344   2.660   0.881   2.660  1.5195 -1.0269 -0.9486
 7295SOL    HW233345   2.648   0.902   2.811 -0.5426  0.4552 -0.4542
 7296SOL     OW33346   2.724   1.267   6.613  0.1373 -0.2809 -0.5729
 7296SOL    HW133347   2.816   1.241   6.618 -0.1171 -1.4083 -1.6571
 7296SOL    HW233348   2.686   1.191   6.657 -1.4333  2.2244  2.3708
 7297SOL     OW33349   1.654   0.583   8.317  0.3391 -0.2407  0.7547
 7297SOL    HW133350   1.707   0.505   8.299 -0.2236 -0.0493 -1.6423
 7297SOL    HW233351   1.695   0.626   8.392 -0.8888 -0.0739  1.3318
 7298SOL     OW33352   3.929   3.512   7.837  0.4582  0.0767 -0.3087
 7298SOL    HW133353   3.900   3.423   7.858 -2.4902  0.8272 -1.1020
 7298SOL    HW233354   4.003   3.495   7.780  0.0478  1.0887 -1.1514
 7299SOL     OW33355   3.769   0.001   2.499  0.2776 -0.2189  0.4514
 7299SOL    HW133356   3.736   0.070   2.441 -3.5828 -0.4690  2.3488
 7299SOL    HW233357   3.859   0.032   2.492  1.2642 -2.7350  2.0601
 7300SOL     OW33358   3.057   3.993   8.761 -0.1527 -0.3605 -0.2340
 7300SOL    HW133359   3.013   3.910   8.779 -2.1383  0.7098 -0.1638
 7300SOL    HW233360   3.027   4.048   8.834 -1.0267  1.4388 -1.9406
 7301SOL     OW33361   0.886   0.903  15.009  0.2188 -0.0126  0.1930
 7301SOL    HW133362   0.915   0.948  14.929  0.2832  1.0910  0.8475
 7301SOL    HW233363   0.844   0.822  14.980  1.3458 -1.0564  1.4367
 7302SOL     OW33364   4.639   3.947   1.990  0.4420  0.3939 -0.4162
 7302SOL    HW133365   4.616   3.858   2.017  0.5151  0.5378  0.1284
 7302SOL    HW233366   4.707   3.975   2.052  0.1377  0.4973 -0.1293
 7303SOL     OW33367   1.631   2.460  15.839 -0.8253  0.0345  0.2502
 7303SOL    HW133368   1.708   2.454  15.783 -0.2680  0.1954  0.9958
 7303SOL    HW233369   1.606   2.368  15.849 -0.9968 -0.1832 -2.1936
 7304SOL     OW33370   3.048   2.418   4.409  0.1468  0.1710  0.5609
 7304SOL    HW133371   2.996   2.341   4.389  0.8172 -0.5643  1.6819
 7304SOL    HW233372   3.010   2.482   4.348  1.1753  0.8481  0.6271
 7305SOL     OW33373   4.458   0.022   6.635 -0.0805 -0.5863  0.0351
 7305SOL    HW133374   4.485   0.090   6.697 -1.4128 -0.6153  0.6324
 7305SOL    HW233375   4.444   0.083   6.563  0.4544 -1.0091 -0.4322
 7306SOL     OW33376   2.627   3.710   3.584 -0.0932 -0.0186  0.6340
 7306SOL    HW133377   2.635   3.764   3.663 -0.6789  0.1480  0.5791
 7306SOL    HW233378   2.560   3.645   3.604  1.9477 -1.4832  2.7349
 7307SOL     OW33379   0.999   1.446   2.395  0.3845  0.0676 -0.4569
 7307SOL    HW133380   1.084   1.445   2.438 -1.8325  0.5034  3.9759
 7307SOL    HW233381   0.968   1.532   2.424  0.3618  0.0265 -0.3628
 7308SOL     OW33382   2.511   4.087  16.257 -0.2058 -0.0411  0.4596
 7308SOL    HW133383   2.496   4.058  16.167  1.3563  1.2068 -0.2058
 7308SOL    HW233384   2.423   4.094  16.294 -0.9401 -0.8592 -1.1575
 7309SOL     OW33385   1.972   4.310   9.445  0.0584  0.1969 -0.9243
 7309SOL    HW133386   1.906   4.259   9.396  0.0353  0.5714 -1.2815
 7309SOL    HW233387   2.018   4.244   9.497 -0.0304  1.6453  0.9899
 7310SOL     OW33388   1.899   3.014   4.277  0.0842 -0.2290  0.3984
 7310SOL    HW133389   1.842   2.945   4.313  1.1051 -0.0131  2.4326
 7310SOL    HW233390   1.937   2.981   4.196  0.2756  1.2651 -0.1221
 7311SOL     OW33391   2.474   3.503  17.082 -0.0705  0.1304  0.5319
 7311SOL    HW133392   2.449   3.422  17.036  2.1635 -0.1995 -0.0795
 7311SOL    HW233393   2.458   3.478  17.173  1.6387  0.0384  0.7942
 7312SOL     OW33394   1.628   0.782  10.665  0.5206 -0.1186  0.7369
 7312SOL    HW133395   1.711   0.783  10.616  1.0386  0.1465  1.6125
 7312SOL    HW233396   1.650   0.841  10.738  1.3465  1.7548 -1.0309
 7313SOL     OW33397   2.773   3.635   7.533  0.1186  0.1664  0.0392
 7313SOL    HW133398   2.688   3.654   7.495 -0.4389 -2.2915  0.1139
 7313SOL    HW233399   2.809   3.720   7.506 -1.2710  0.4515 -0.9179
 7314SOL     OW33400   1.502   0.006   6.640  0.6868  0.0352  0.2297
 7314SOL    HW133401   1.585   0.050   6.655 -1.0859  4.0531 -1.7249
 7314SOL    HW233402   1.452   0.052   6.708  0.0782 -0.3150  0.0236
 7315SOL     OW33403   2.258   0.634   2.535 -0.0965  0.5314  0.2199
 7315SOL    HW133404   2.246   0.716   2.485  0.9797  0.5592  0.0096
 7315SOL    HW233405   2.166   0.622   2.557  0.0531 -0.4352  0.2921
 7316SOL     OW33406   3.945   4.258  13.300  0.0853  0.3717  0.0634
 7316SOL    HW133407   3.931   4.315  13.224 -0.1658  2.4370  1.6317
 7316SOL    HW233408   3.865   4.207  13.291  0.8633 -1.0704  1.3659
 7317SOL     OW33409   3.381   3.582  11.707 -0.3055  0.3835 -0.2415
 7317SOL    HW133410   3.371   3.526  11.784 -2.3991 -0.0028 -0.7794
 7317SOL    HW233411   3.329   3.659  11.729  1.1336  1.0160  0.9340
 7318SOL     OW33412   3.223   4.323   6.065  0.5557 -0.0376  0.4593
 7318SOL    HW133413   3.302   4.277   6.094  1.8707  1.5882 -0.5403
 7318SOL    HW233414   3.261   4.400   6.023 -2.1715 -0.4168 -2.6703
 7319SOL     OW33415   2.179   2.692   2.418  0.0030 -0.1971 -0.2670
 7319SOL    HW133416   2.147   2.778   2.446 -0.5681 -0.5393  0.1423
 7319SOL    HW233417   2.170   2.645   2.501 -1.1945  0.4677 -0.0179
 7320SOL     OW33418   1.233   3.737   9.503 -0.0142 -0.0932  0.1796
 7320SOL    HW133419   1.220   3.719   9.596  1.0000  0.6378  0.4631
 7320SOL    HW233420   1.310   3.792   9.517 -0.2024  0.1681  0.1772
 7321SOL     OW33421   2.167   1.237   8.191 -0.7922 -0.1762 -0.0143
 7321SOL    HW133422   2.098   1.299   8.167 -0.5846 -0.7236 -2.0249
 7321SOL    HW233423   2.238   1.298   8.173  0.5770 -2.0893 -1.1895
 7322SOL     OW33424   2.907   0.852  12.964 -0.3203  0.1314  0.7960
 7322SOL    HW133425   2.949   0.865  12.879 -0.1302 -0.3460  0.8172
 7322SOL    HW233426   2.935   0.933  13.007 -1.5622  1.5150 -0.9994
 7323SOL     OW33427   3.226   1.264   4.818  0.6668  0.1418 -0.1264
 7323SOL    HW133428   3.215   1.356   4.841  1.1745  0.3397 -0.6745
 7323SOL    HW233429   3.315   1.255   4.785  1.0455 -0.2521  0.9791
 7324SOL     OW33430   2.199   1.643   3.824  0.2270 -0.3593 -0.0815
 7324SOL    HW133431   2.154   1.662   3.906 -0.7907  0.5513 -0.8473
 7324SOL    HW233432   2.292   1.646   3.844  0.3125  0.0476 -0.5347
 7325SOL     OW33433   2.607   4.460   4.617 -0.2109 -0.6657  0.0178
 7325SOL    HW133434   2.661   4.401   4.564  2.1914  0.2895  1.4032
 7325SOL    HW233435   2.670   4.484   4.685  0.3390  1.8060 -1.3836
 7326SOL     OW33436   1.165   2.955   1.054 -0.4274 -0.0735  0.0591
 7326SOL    HW133437   1.174   2.931   1.147 -2.5242  0.1820  0.3260
 7326SOL    HW233438   1.243   3.009   1.044  1.3423 -2.7085 -0.3991
 7327SOL     OW33439   4.519   2.725   8.793 -0.0692 -0.5268  0.3000
 7327SOL    HW133440   4.575   2.649   8.777 -0.1901  0.0833 -2.8867
 7327SOL    HW233441   4.431   2.690   8.799  0.4870 -1.7762  1.2963
 7328SOL     OW33442   0.994   0.705   5.033  0.6604 -0.3834  0.1874
 7328SOL    HW133443   0.960   0.615   5.040  0.4194 -0.2066  1.2224
 7328SOL    HW233444   0.987   0.714   5.128 -2.5697  1.4686 -0.2385
 7329SOL     OW33445   3.529   0.063   3.523 -0.0170  0.2254  0.2211
 7329SOL    HW133446   3.602   0.087   3.466  1.1648 -1.1421  1.1443
 7329SOL    HW233447   3.498   4.705   3.481  1.1336 -0.5127  0.7865
 7330SOL     OW33448   4.683   1.937   7.237  0.3388  0.9365  0.0725
 7330SOL    HW133449   4.629   1.987   7.176 -2.7122 -1.4452  0.7974
 7330SOL    HW233450   0.025   2.002   7.264  0.6262 -0.2662  2.2316
 7331SOL     OW33451   0.142   4.175   1.487 -0.3900  0.3148  0.2846
 7331SOL    HW133452   0.139   4.079   1.478 -1.7773  0.4538 -0.7107
 7331SOL    HW233453   0.149   4.212   1.399 -1.8246  1.5620  0.6967
 7332SOL     OW33454   4.681   4.123   1.759 -0.0833 -0.5166  0.4645
 7332SOL    HW133455   4.644   4.062   1.695 -1.6161  1.6346 -0.7194
 7332SOL    HW233456   4.706   4.065   1.831  1.8831 -1.0782 -0.6574
 7333SOL     OW33457   0.880   4.138   7.310 -0.5751  0.1381  0.2492
 7333SOL    HW133458   0.859   4.182   7.393  0.5741 -3.6499  2.5567
 7333SOL    HW233459   0.800   4.138   7.258 -0.4045 -1.9121 -0.0046
 7334SOL     OW33460   4.552   3.819   6.745  0.2477  0.9177 -0.1168
 7334SOL    HW133461   4.475   3.859   6.785  0.6222  2.2413 -0.7381
 7334SOL    HW233462   4.620   3.886   6.754  0.5625  0.5184  0.5106
 7335SOL     OW33463   0.264   3.226   3.486  0.2955  0.0570 -0.0764
 7335SOL    HW133464   0.289   3.264   3.402 -2.4019  0.8745 -0.5023
 7335SOL    HW233465   0.341   3.180   3.520  0.4983  1.2426  1.0831
 7336SOL     OW33466   1.770   1.227   2.848 -0.1782 -0.3934  0.3756
 7336SOL    HW133467   1.820   1.233   2.767 -2.6130  0.3038 -1.0680
 7336SOL    HW233468   1.685   1.268   2.833  0.6652  0.2776 -2.6514
 7337SOL     OW33469   0.320   4.447  15.066 -0.3922  0.0319  0.0179
 7337SOL    HW133470   0.325   4.542  15.081  0.1529 -0.1314  0.9349
 7337SOL    HW233471   0.408   4.423  15.096 -1.5797 -3.1697  0.8596
 7338SOL     OW33472   0.365   0.914   4.499  0.1667  0.4607 -0.0905
 7338SOL    HW133473   0.340   0.950   4.584  1.3734 -1.0845  0.8930
 7338SOL    HW233474   0.455   0.946   4.501 -0.0974  1.2812 -0.9306
 7339SOL     OW33475   3.425   2.835   6.168  0.1171 -0.0245  0.2287
 7339SOL    HW133476   3.519   2.839   6.153 -0.0605 -0.5220 -1.0070
 7339SOL    HW233477   3.434   2.778   6.244  0.5626 -0.2558 -0.0012
 7340SOL     OW33478   4.336   2.399   0.897  0.6508 -0.4633  0.3099
 7340SOL    HW133479   4.419   2.409   0.850  0.3494  0.4813 -0.0284
 7340SOL    HW233480   4.310   2.310   0.874 -1.0101  0.3673 -0.9953
 7341SOL     OW33481   2.976   2.387   9.265 -0.2406  0.2371 -0.6026
 7341SOL    HW133482   2.913   2.352   9.202  0.5274 -0.4745 -0.9722
 7341SOL    HW233483   3.002   2.308   9.312 -4.3644 -0.4605  0.5222
 7342SOL     OW33484   2.354   4.670  11.122  0.1206 -0.4325 -0.0736
 7342SOL    HW133485   2.435   4.720  11.111  0.2839 -0.3799  1.3453
 7342SOL    HW233486   2.372   4.628  11.206  2.4427 -1.1471 -0.9217
 7343SOL     OW33487   3.323   4.618   5.954 -0.0182  0.1731 -0.1700
 7343SOL    HW133488   3.327   4.663   6.039 -0.9028 -0.3962  0.1768
 7343SOL    HW233489   3.270   4.677   5.900 -1.6018  0.5561  1.7924
 7344SOL     OW33490   1.900   3.401   7.399 -0.1982  0.0606  0.4879
 7344SOL    HW133491   1.846   3.378   7.323 -1.9545 -0.8038  1.9866
 7344SOL    HW233492   1.922   3.313   7.430  0.8620  0.1616 -0.0062
 7345SOL     OW33493   0.905   4.248   3.226  0.0482 -0.2641 -0.1939
 7345SOL    HW133494   0.955   4.211   3.153  0.4067  0.5003 -0.3495
 7345SOL    HW233495   0.875   4.167   3.266  0.3945  1.0541  2.7153
 7346SOL     OW33496   3.553   2.180   2.680 -0.1141  0.1146  0.1828
 7346SOL    HW133497   3.642   2.206   2.657  1.1861 -0.7205  4.3227
 7346SOL    HW233498   3.561   2.103   2.736  1.2558 -0.3170 -0.6277
 7347SOL     OW33499   3.919   0.118   3.708 -0.0421  0.0465  0.1520
 7347SOL    HW133500   3.829   0.133   3.738  0.4630 -0.8659  2.0903
 7347SOL    HW233501   3.931   0.206   3.672 -0.2501 -0.7816 -1.9236
 7348SOL     OW33502   3.479   1.361   3.044 -0.0703  0.8729  0.2149
 7348SOL    HW133503   3.393   1.404   3.038 -0.9743 -0.7518  1.6557
 7348SOL    HW233504   3.449   1.270   3.047  0.5598  0.6517 -0.3034
 7349SOL     OW33505   3.167   0.707   8.086  0.0556  0.0888 -0.1048
 7349SOL    HW133506   3.190   0.799   8.096 -0.0781 -0.1121  2.0433
 7349SOL    HW233507   3.072   0.713   8.095  0.0511 -0.3197  0.1245
 7350SOL     OW33508   0.982   3.308   2.925 -0.7753 -0.5913  0.8369
 7350SOL    HW133509   0.992   3.214   2.944 -1.0426 -0.6630  0.6222
 7350SOL    HW233510   0.932   3.347   2.996 -1.4000 -2.1824  1.2864
 7351SOL     OW33511   1.876   0.260   3.258 -0.3807 -0.4132 -0.0299
 7351SOL    HW133512   1.806   0.195   3.267 -0.0806 -0.5610  1.2280
 7351SOL    HW233513   1.819   0.335   3.276  0.8044 -0.3007  3.2949
 7352SOL     OW33514   4.231   4.310   3.441 -0.0115 -0.1217  0.4309
 7352SOL    HW133515   4.292   4.384   3.432 -2.1645  1.7004  0.6989
 7352SOL    HW233516   4.258   4.287   3.529 -1.0173 -2.3914  0.1424
 7353SOL     OW33517   2.682   1.322   5.541  0.0044  0.7260  0.0387
 7353SOL    HW133518   2.663   1.395   5.481 -0.7997 -1.2163 -2.0807
 7353SOL    HW233519   2.607   1.327   5.601 -0.4333 -0.0151 -0.4408
 7354SOL     OW33520   3.077   4.371  11.694 -0.4038  0.0827 -0.1637
 7354SOL    HW133521   3.106   4.430  11.625 -1.4879 -0.3754 -1.0162
 7354SOL    HW233522   3.149   4.309  11.700 -0.5062 -0.0740 -0.5747
 7355SOL     OW33523   0.568   3.825   9.482 -0.1481 -0.1768  0.3127
 7355SOL    HW133524   0.592   3.819   9.389  1.0169 -0.8950  0.6609
 7355SOL    HW233525   0.647   3.859   9.523 -0.6392  0.9093  0.3475
 7356SOL     OW33526   2.554   3.269   8.828  0.0425 -0.1940 -0.3289
 7356SOL    HW133527   2.490   3.240   8.764  1.0853  0.6711 -1.7557
 7356SOL    HW233528   2.555   3.206   8.901  1.8343  0.1738 -0.0234
 7357SOL     OW33529   2.918   4.151  15.962 -0.2484 -0.1512  0.5789
 7357SOL    HW133530   2.894   4.082  16.024  0.2930 -0.0368  0.9207
 7357SOL    HW233531   2.842   4.162  15.905  1.7036 -0.5320 -2.0924
 7358SOL     OW33532   2.548   3.938  16.737 -0.2873  0.4258 -0.0887
 7358SOL    HW133533   2.582   4.003  16.676 -0.4677 -2.0934 -2.8553
 7358SOL    HW233534   2.631   3.915  16.778 -0.4143 -0.2315 -0.1952
 7359SOL     OW33535   0.461   3.585   4.799  0.3260  0.0331  0.1285
 7359SOL    HW133536   0.456   3.680   4.812 -1.7362 -0.1951  0.9462
 7359SOL    HW233537   0.381   3.555   4.841  0.5775  0.0612  0.6195
 7360SOL     OW33538   0.489   3.680   3.540 -0.2855 -0.4610  0.3686
 7360SOL    HW133539   0.460   3.612   3.600 -1.0857 -1.3014 -0.9630
 7360SOL    HW233540   0.509   3.628   3.462  0.6650  3.0235 -1.7156
 7361SOL     OW33541   2.979   1.332   1.872 -0.3045  0.1818 -0.5028
 7361SOL    HW133542   2.961   1.248   1.829 -2.9073  0.1511  0.6595
 7361SOL    HW233543   2.913   1.387   1.831 -0.8544 -1.9743 -2.4938
 7362SOL     OW33544   1.061   2.833   6.335 -0.2839 -0.3722 -0.1026
 7362SOL    HW133545   1.153   2.860   6.329 -0.3817  0.0496  0.2373
 7362SOL    HW233546   1.040   2.824   6.428  1.7185  1.3264  0.5136
 7363SOL     OW33547   2.355   2.739   7.102 -0.2515  0.6521 -0.6266
 7363SOL    HW133548   2.326   2.830   7.099  1.4860  1.1637 -1.9246
 7363SOL    HW233549   2.414   2.748   7.176 -0.6076 -1.0298 -0.1275
 7364SOL     OW33550   3.191   3.954   1.196 -0.4410 -0.5710 -0.6844
 7364SOL    HW133551   3.164   4.046   1.195  1.4783 -0.0159 -0.3756
 7364SOL    HW233552   3.110   3.917   1.160 -1.0303  1.2241 -1.1946
 7365SOL     OW33553   1.865   3.527   4.724 -0.0737  0.2095 -0.2130
 7365SOL    HW133554   1.786   3.522   4.670  0.5340  0.7892 -1.1705
 7365SOL    HW233555   1.870   3.442   4.767 -0.6201  0.4436  0.3056
 7366SOL     OW33556   1.281   2.081   5.558  0.3471 -0.7386 -0.3559
 7366SOL    HW133557   1.272   2.002   5.504 -0.3244 -1.7165  1.1738
 7366SOL    HW233558   1.193   2.116   5.564  0.9833  0.5661  1.3060
 7367SOL     OW33559   3.268   2.378   9.086  0.0870 -0.0466  0.2095
 7367SOL    HW133560   3.205   2.433   9.040  2.0236  1.0535 -1.1685
 7367SOL    HW233561   3.258   2.418   9.172  0.3558 -0.6680  0.5340
 7368SOL     OW33562   1.431   2.471   7.625 -0.2791  0.4368 -0.1766
 7368SOL    HW133563   1.397   2.506   7.707  1.8483  0.4837  0.6691
 7368SOL    HW233564   1.525   2.485   7.629 -0.7985  3.8098  0.2806
 7369SOL     OW33565   4.346   0.847   6.357 -0.0628  0.0082 -0.0226
 7369SOL    HW133566   4.309   0.768   6.317 -0.0503 -0.7777  1.5151
 7369SOL    HW233567   4.354   0.889   6.272  1.1546  0.4390  0.2987
 7370SOL     OW33568   4.179   4.106   3.228 -0.4293 -0.1884 -0.5362
 7370SOL    HW133569   4.238   4.110   3.153  1.8379  0.6089  1.2987
 7370SOL    HW233570   4.246   4.114   3.295 -1.1207 -2.3179  0.4017
 7371SOL     OW33571   4.225   4.209  13.336 -0.3871  0.0984 -0.0117
 7371SOL    HW133572   4.260   4.248  13.256 -0.4231  0.1361 -0.0090
 7371SOL    HW233573   4.136   4.243  13.332 -0.8518 -1.0870  0.2891
 7372SOL     OW33574   4.602   1.068   4.144  0.0676 -0.5479 -0.3634
 7372SOL    HW133575   4.667   1.020   4.195 -1.8929 -1.6941  1.0444
 7372SOL    HW233576   4.583   1.003   4.076  1.9224 -1.2846 -0.1927
 7373SOL     OW33577   1.798   3.804   5.099  0.2944 -0.5335  0.3704
 7373SOL    HW133578   1.805   3.716   5.134  1.8685 -0.7398 -0.4926
 7373SOL    HW233579   1.744   3.783   5.023  0.0524 -0.9179  0.6503
 7374SOL     OW33580   2.073   0.545   5.456  0.3687 -0.1653 -0.3528
 7374SOL    HW133581   2.140   0.508   5.514 -2.0374 -0.4417  2.2248
 7374SOL    HW233582   2.123   0.563   5.376 -0.3222 -0.0905 -0.7688
 7375SOL     OW33583   0.942   4.218   4.174 -0.0908  0.0695  0.3305
 7375SOL    HW133584   0.850   4.201   4.151  1.1274 -1.6178 -3.2525
 7375SOL    HW233585   0.985   4.167   4.105 -0.6306  1.1362 -0.7896
 7376SOL     OW33586   0.513   3.412   1.776  0.6587 -0.0060 -0.5051
 7376SOL    HW133587   0.530   3.496   1.819  0.5417  0.0892 -0.6414
 7376SOL    HW233588   0.556   3.415   1.691  0.6765  0.6953 -0.4742
 7377SOL     OW33589   0.851   0.069   4.483  0.0111 -0.3648  0.0658
 7377SOL    HW133590   0.906   0.108   4.415 -1.8295 -1.3135 -1.9871
 7377SOL    HW233591   0.855   4.702   4.449  1.4860 -0.9253  1.7005
 7378SOL     OW33592   1.087   2.371  17.321 -0.3288  0.4155  0.0653
 7378SOL    HW133593   1.043   2.326  17.248  1.7598 -0.7178 -0.4912
 7378SOL    HW233594   1.153   2.425  17.277 -0.4421  0.5370  0.0430
 7379SOL     OW33595   0.844   0.851   2.685 -0.3803 -0.1643  0.7759
 7379SOL    HW133596   0.840   0.929   2.740  0.1362  0.1299  0.3924
 7379SOL    HW233597   0.818   0.888   2.601 -0.1231  0.2724  0.8881
 7380SOL     OW33598   2.968   3.968  14.181  0.1237  0.0006 -0.0750
 7380SOL    HW133599   2.995   3.941  14.093 -0.0934 -1.5473  0.3399
 7380SOL    HW233600   2.918   4.047  14.162  0.3028  0.3904  1.0956
 7381SOL     OW33601   1.287   1.728  13.274 -0.1262 -0.2801  0.0253
 7381SOL    HW133602   1.246   1.720  13.360 -0.1792 -0.3180 -0.0042
 7381SOL    HW233603   1.377   1.711  13.304 -0.1951 -1.0555 -0.2151
 7382SOL     OW33604   0.305   1.036  16.711  0.1743 -0.2893 -0.0603
 7382SOL    HW133605   0.221   1.024  16.667  0.8036 -0.5220 -1.1943
 7382SOL    HW233606   0.342   1.124  16.698  0.5042 -0.6378 -1.4131
 7383SOL     OW33607   0.641   1.898   5.330  0.2911 -0.3613 -0.0422
 7383SOL    HW133608   0.654   1.848   5.249 -0.3238  0.5083 -0.6788
 7383SOL    HW233609   0.546   1.899   5.334  0.2920 -1.0637  0.0860
 7384SOL     OW33610   4.467   0.420  16.723  0.2238  0.8776  0.0223
 7384SOL    HW133611   4.401   0.382  16.780 -1.2381  1.5057 -1.2311
 7384SOL    HW233612   4.465   0.353  16.654  2.4912  1.1237 -0.2945
 7385SOL     OW33613   1.332   0.057   6.946 -0.2561 -0.4214 -0.4994
 7385SOL    HW133614   1.350   0.123   7.012  2.0122 -0.6857 -0.8467
 7385SOL    HW233615   1.343   0.117   6.873 -0.8836 -1.4858 -1.4695
 7386SOL     OW33616   3.548   3.921   9.606  0.6472  0.3718 -0.4242
 7386SOL    HW133617   3.591   3.837   9.619  1.2151  0.8693  0.9528
 7386SOL    HW233618   3.515   3.942   9.694  0.0530 -0.1161 -0.5333
 7387SOL     OW33619   3.376   0.249   0.197  0.2670  0.7588  0.2728
 7387SOL    HW133620   3.464   0.252   0.157 -0.9786 -2.0243 -2.6636
 7387SOL    HW233621   3.385   0.331   0.246 -1.1949  1.3448 -0.4335
 7388SOL     OW33622   1.527   4.310   5.951 -0.0524 -0.4488 -0.4072
 7388SOL    HW133623   1.470   4.383   5.974 -1.2465 -1.0687 -1.4014
 7388SOL    HW233624   1.608   4.360   5.964 -0.2199 -0.1412 -0.5381
 7389SOL     OW33625   2.217   0.387   7.458 -0.0056 -0.1058  0.6554
 7389SOL    HW133626   2.133   0.424   7.429  1.1169 -0.3921 -3.0086
 7389SOL    HW233627   2.265   0.468   7.475  1.3927 -1.2290  2.0056
 7390SOL     OW33628   3.329   3.422  14.922  0.2741 -0.3323 -0.4677
 7390SOL    HW133629   3.296   3.493  14.978  3.3548 -1.1604  2.3678
 7390SOL    HW233630   3.336   3.460  14.834  3.3813  2.7565  1.1070
 7391SOL     OW33631   2.003   1.665   4.623  0.5758 -0.4090  0.4897
 7391SOL    HW133632   2.032   1.643   4.534 -0.0130  0.4070  0.0900
 7391SOL    HW233633   1.951   1.588   4.645 -0.7138  0.9446  2.1072
 7392SOL     OW33634   1.721   1.876  13.044 -0.3195  0.4250  0.8509
 7392SOL    HW133635   1.702   1.817  12.971 -3.1024 -0.8872  2.6595
 7392SOL    HW233636   1.657   1.939  13.009  0.2883  0.4846 -0.1626
 7393SOL     OW33637   2.276   3.819   4.143 -0.3687 -0.1518  0.3449
 7393SOL    HW133638   2.200   3.871   4.169  0.5720  0.6122  1.5657
 7393SOL    HW233639   2.227   3.744   4.178 -0.9666  0.2444  0.3626
 7394SOL     OW33640   4.718   4.200  12.948  0.0493 -0.2832  0.1830
 7394SOL    HW133641   4.636   4.214  12.995 -1.3960 -0.5310 -2.2472
 7394SOL    HW233642   4.695   4.120  12.900 -1.3692  0.3721 -0.2310
 7395SOL     OW33643   1.056   2.791   5.948  0.0950  0.0400  0.4670
 7395SOL    HW133644   1.066   2.874   5.901  2.3042 -0.1097  0.6606
 7395SOL    HW233645   1.146   2.771   5.976 -0.1289 -1.4058  0.1611
 7396SOL     OW33646   2.553   2.996  15.247  0.2783 -0.3115 -0.3420
 7396SOL    HW133647   2.554   2.954  15.333  0.9284  1.4843  0.5311
 7396SOL    HW233648   2.594   3.080  15.270 -0.9187  0.3301 -0.5434
 7397SOL     OW33649   0.739   2.876  13.463  0.1200  0.1334 -0.1762
 7397SOL    HW133650   0.772   2.791  13.492 -2.1601 -0.3323  1.0083
 7397SOL    HW233651   0.798   2.946  13.490 -0.4978  0.4975  0.2104
 7398SOL     OW33652   2.196   1.052   7.273  0.2343  0.0874  0.2164
 7398SOL    HW133653   2.252   1.127   7.258 -0.3537  0.4308 -0.2515
 7398SOL    HW233654   2.161   1.073   7.360 -2.0120  0.1521 -0.7033
 7399SOL     OW33655   4.192   2.347   4.029 -0.1206  0.3231  0.1488
 7399SOL    HW133656   4.109   2.359   3.983 -0.0644 -1.9954 -0.5338
 7399SOL    HW233657   4.235   2.432   4.018  0.5313 -0.0392 -0.0821
 7400SOL     OW33658   3.822   0.622   7.800  0.5210  0.8300 -0.0776
 7400SOL    HW133659   3.900   0.598   7.750  0.7486 -0.8398  1.0927
 7400SOL    HW233660   3.853   0.598   7.887  0.2269  0.5547 -0.0471
 7401SOL     OW33661   2.542   2.526   3.213 -0.2293  0.0102 -0.4511
 7401SOL    HW133662   2.503   2.440   3.197 -0.9802  0.4626 -1.0323
 7401SOL    HW233663   2.609   2.519   3.145  0.8025  2.2874  0.3097
 7402SOL     OW33664   0.678   0.827   5.355  0.0054 -0.2452  0.3402
 7402SOL    HW133665   0.663   0.773   5.277  1.3805 -0.8397  0.4776
 7402SOL    HW233666   0.627   0.776   5.418  0.0163 -0.2862  0.3158
 7403SOL     OW33667   2.911   3.410   3.395  0.1121 -0.1696  0.0981
 7403SOL    HW133668   2.859   3.490   3.400  0.9723  0.4706 -1.0799
 7403SOL    HW233669   2.999   3.449   3.386 -0.1851  0.0914 -1.8035
 7404SOL     OW33670   0.925   3.791  16.864  1.0567 -0.4979 -0.2061
 7404SOL    HW133671   0.843   3.840  16.863  2.3703  1.7101 -0.2772
 7404SOL    HW233672   0.952   3.812  16.953  0.9385  0.8077 -0.4737
 7405SOL     OW33673   3.129   3.468   2.490  0.4588 -0.0474 -0.1497
 7405SOL    HW133674   3.193   3.397   2.485 -0.9082 -1.1710 -1.7532
 7405SOL    HW233675   3.173   3.538   2.442  1.8202  0.1991  1.4346
 7406SOL     OW33676   2.516   0.230  14.171 -0.0974 -0.2791 -0.2218
 7406SOL    HW133677   2.444   0.184  14.213  0.5773  0.1497  1.3914
 7406SOL    HW233678   2.475   0.313  14.148 -0.5435 -0.4379  0.0020
 7407SOL     OW33679   1.229   1.719   0.233 -0.2720 -0.1008 -0.4343
 7407SOL    HW133680   1.207   1.642   0.181 -1.9984  0.3174 -0.3381
 7407SOL    HW233681   1.267   1.674   0.308 -0.1302  0.0926 -0.3877
 7408SOL     OW33682   4.585   1.400   5.931  0.3894 -0.0941  0.2938
 7408SOL    HW133683   4.595   1.428   6.022  1.2030 -3.7025  1.3271
 7408SOL    HW233684   4.564   1.307   5.945  2.3096 -0.6450 -0.5284
 7409SOL     OW33685   3.349   4.309   6.418  0.0297  0.1850  0.4977
 7409SOL    HW133686   3.402   4.330   6.495 -1.9458 -1.4678  2.3150
 7409SOL    HW233687   3.399   4.245   6.368 -0.1148  1.0789 -0.8007
 7410SOL     OW33688   2.940   0.625   1.627  0.2049 -0.1575  0.1072
 7410SOL    HW133689   2.945   0.562   1.555  0.1735 -0.4840  0.3921
 7410SOL    HW233690   2.880   0.694   1.598  1.2553  0.9491  0.5570
 7411SOL     OW33691   2.941   3.856   1.137  0.1184 -0.2874 -0.3272
 7411SOL    HW133692   2.913   3.847   1.046 -0.3290 -0.0574 -0.2125
 7411SOL    HW233693   2.863   3.837   1.189 -0.1977 -1.5092 -1.2276
 7412SOL     OW33694   2.517   2.063   6.784  0.3355 -0.1726 -0.0983
 7412SOL    HW133695   2.495   2.147   6.744  1.9116  0.2834  0.0041
 7412SOL    HW233696   2.487   2.092   6.870 -0.1539 -0.9190 -0.0198
 7413SOL     OW33697   4.119   2.589   2.424 -0.3022 -0.1005 -0.2812
 7413SOL    HW133698   4.167   2.584   2.341 -0.0698 -1.7431 -0.0535
 7413SOL    HW233699   4.099   2.682   2.434 -1.3336 -0.6084  2.4098
 7414SOL     OW33700   1.280   3.470  17.508 -0.0571 -0.3012  0.1993
 7414SOL    HW133701   1.262   3.451  17.415 -0.4537 -0.6612  0.3507
 7414SOL    HW233702   1.373   3.494  17.505 -0.5458  1.7131  0.5599
 7415SOL     OW33703   3.883   0.357  11.843 -0.1929 -0.2472  0.0001
 7415SOL    HW133704   3.900   0.344  11.750  1.6950  1.3855  0.1090
 7415SOL    HW233705   3.952   0.304  11.882  1.7860  2.7954  0.6582
 7416SOL     OW33706   1.516   3.936  14.356  0.8017 -0.1407  0.0490
 7416SOL    HW133707   1.580   3.954  14.425  1.3347  0.8363 -0.6818
 7416SOL    HW233708   1.457   4.010  14.341  0.6296 -0.5393 -1.2360
 7417SOL     OW33709   0.500   3.231   7.750 -0.4572  0.0242  0.3247
 7417SOL    HW133710   0.454   3.183   7.681 -2.2297  0.3101  1.3028
 7417SOL    HW233711   0.584   3.185   7.753 -0.8869 -0.8561 -1.3553
 7418SOL     OW33712   1.224   4.402  14.944  0.3272 -0.0485 -0.7795
 7418SOL    HW133713   1.264   4.488  14.959 -0.4879  0.2372 -0.2691
 7418SOL    HW233714   1.263   4.377  14.861  1.1916  0.3173 -0.4826
 7419SOL     OW33715   3.119   1.275   4.228  0.2976 -0.1203  0.0332
 7419SOL    HW133716   3.113   1.358   4.274  1.3567  0.4306 -0.8228
 7419SOL    HW233717   3.145   1.207   4.290 -0.8983  0.2469  0.9259
 7420SOL     OW33718   3.124   3.315   4.250 -0.2473  0.1345  0.3717
 7420SOL    HW133719   3.039   3.354   4.228 -0.3996 -0.2836  0.2076
 7420SOL    HW233720   3.090   3.228   4.270  0.4005  0.3078  2.2202
 7421SOL     OW33721   0.192   2.639   5.976 -0.0369 -0.1075 -0.5026
 7421SOL    HW133722   0.255   2.573   5.946 -0.1975 -1.0620  1.3054
 7421SOL    HW233723   0.259   2.704   5.998 -1.6832  1.1303  0.7734
 7422SOL     OW33724   0.765   3.170   4.291  0.0533 -0.1056 -0.4962
 7422SOL    HW133725   0.736   3.202   4.376 -0.9125 -0.1157 -0.8246
 7422SOL    HW233726   0.729   3.081   4.290  0.1701 -0.1622  0.6808
 7423SOL     OW33727   2.900   2.920   3.582 -0.0093 -0.3471  0.1439
 7423SOL    HW133728   2.990   2.950   3.589 -0.9251  2.7396 -1.2871
 7423SOL    HW233729   2.900   2.841   3.528 -1.8607  1.6147 -2.7676
 7424SOL     OW33730   2.696   2.670   3.955 -0.1834 -1.1045 -1.0413
 7424SOL    HW133731   2.617   2.719   3.931 -0.0597 -0.4370 -0.1028
 7424SOL    HW233732   2.766   2.719   3.911  0.4866 -1.2138 -0.1098
 7425SOL     OW33733   1.147   3.069   6.555  0.2973 -0.4342 -0.3694
 7425SOL    HW133734   1.224   3.126   6.565 -0.9516  1.5284 -1.9313
 7425SOL    HW233735   1.109   3.119   6.483 -0.7783 -2.1295 -0.9733
 7426SOL     OW33736   0.761   0.061   1.500  0.6425  0.0752  0.0612
 7426SOL    HW133737   0.804   0.035   1.418 -2.1374 -2.3480 -0.6384
 7426SOL    HW233738   0.827   0.105   1.553 -0.0539  0.3916  0.6654
 7427SOL     OW33739   1.282   1.900   6.653 -0.0211 -0.6339  0.1688
 7427SOL    HW133740   1.298   1.811   6.687 -1.7441 -1.3747 -0.9899
 7427SOL    HW233741   1.203   1.874   6.606  0.2954 -0.2217 -0.5888
 7428SOL     OW33742   1.225   1.835   8.310 -0.4249  0.2840  0.2948
 7428SOL    HW133743   1.260   1.756   8.351 -4.3257 -0.8524  1.3517
 7428SOL    HW233744   1.162   1.802   8.246 -0.4297 -0.7277  0.8298
 7429SOL     OW33745   4.399   3.789   2.146  0.5047 -0.4323  0.2463
 7429SOL    HW133746   4.393   3.783   2.051  1.7502 -2.5483  0.2875
 7429SOL    HW233747   4.398   3.696   2.172 -0.1387 -0.3919  0.3545
 7430SOL     OW33748   2.968   0.555   9.323 -0.0310 -0.2188 -0.1724
 7430SOL    HW133749   2.934   0.475   9.364  1.5142 -2.0362 -2.4199
 7430SOL    HW233750   2.902   0.616   9.356 -2.2314 -3.1931  0.9148
 7431SOL     OW33751   1.141   0.971  15.690 -0.5774  0.1085 -0.6303
 7431SOL    HW133752   1.179   1.057  15.672 -0.1776 -0.6833 -3.5912
 7431SOL    HW233753   1.083   0.989  15.764 -0.7115 -0.6177 -0.5581
 7432SOL     OW33754   3.695   0.856   7.749 -0.4630 -0.0360 -0.6325
 7432SOL    HW133755   3.741   0.774   7.769  0.5779  0.6206 -0.2958
 7432SOL    HW233756   3.619   0.820   7.704 -0.7919  1.7729 -1.5288
 7433SOL     OW33757   1.474   3.928   6.186 -0.2393 -0.4201 -0.4129
 7433SOL    HW133758   1.404   3.984   6.218  1.3919  1.6131 -0.4101
 7433SOL    HW233759   1.432   3.843   6.201  0.6700 -0.4905  1.5769
 7434SOL     OW33760   4.208   3.991  17.424 -0.2088  0.1300 -0.3388
 7434SOL    HW133761   4.292   3.968  17.387 -0.7345 -1.4217 -0.5499
 7434SOL    HW233762   4.234   4.066  17.478  1.6350 -0.1962 -0.7821
 7435SOL     OW33763   3.440   0.610  16.689  0.0185 -0.4588  0.4670
 7435SOL    HW133764   3.504   0.556  16.733  1.1898  1.0538  0.6146
 7435SOL    HW233765   3.396   0.546  16.633 -0.1339 -0.1031  0.1759
 7436SOL     OW33766   3.306   4.659   4.982 -0.8327  0.2581  0.5751
 7436SOL    HW133767   3.351   4.637   5.063  1.0856 -1.6050 -0.9891
 7436SOL    HW233768   3.300   4.573   4.942 -1.5061  1.0480 -1.0500
 7437SOL     OW33769   1.902   0.342   6.275  0.0542 -0.7456 -0.1667
 7437SOL    HW133770   1.981   0.290   6.293 -2.8431 -3.7929  3.6323
 7437SOL    HW233771   1.852   0.335   6.356 -1.5536 -0.2998 -1.1151
 7438SOL     OW33772   2.808   4.051   6.446  0.0072  0.0333 -0.4609
 7438SOL    HW133773   2.829   4.140   6.476  0.9244 -0.0721 -0.7840
 7438SOL    HW233774   2.850   4.005   6.519  0.0520 -1.8897 -1.7077
 7439SOL     OW33775   3.822   4.097   7.174  0.0659 -0.5865 -0.4233
 7439SOL    HW133776   3.833   4.005   7.147 -1.2955 -0.1557 -2.4725
 7439SOL    HW233777   3.882   4.116   7.246 -0.4613 -3.6470  0.8082
 7440SOL     OW33778   3.423   3.594   3.439  0.4414  0.3162 -0.2620
 7440SOL    HW133779   3.401   3.593   3.346 -1.6277  1.2416  0.2205
 7440SOL    HW233780   3.409   3.504   3.469  1.5342 -0.0368 -0.7911
 7441SOL     OW33781   0.029   1.817   4.773  0.3638 -0.1695  0.0133
 7441SOL    HW133782   0.048   1.724   4.767 -0.1816 -0.1163 -2.5469
 7441SOL    HW233783   0.098   1.844   4.833  1.7513 -0.8921 -1.2703
 7442SOL     OW33784   0.402   4.580   5.823  0.4363 -0.1294  0.0390
 7442SOL    HW133785   0.313   4.577   5.857 -0.4135  0.0198 -2.1676
 7442SOL    HW233786   0.410   4.488   5.798  1.8875  0.7144 -2.6135
 7443SOL     OW33787   4.166   3.647   0.156  0.3958  0.2142 -0.4788
 7443SOL    HW133788   4.162   3.692   0.072 -0.8132 -0.1498 -0.6110
 7443SOL    HW233789   4.087   3.594   0.148  0.2318 -0.0461  2.7675
 7444SOL     OW33790   1.333   0.624  17.634 -0.0601  0.3600  0.1131
 7444SOL    HW133791   1.327   0.671  17.550  1.0530 -0.1329 -0.2394
 7444SOL    HW233792   1.426   0.621  17.654  0.4638  0.2532 -2.2704
 7445SOL     OW33793   1.936   4.623   1.722  0.4737  0.4099 -0.7004
 7445SOL    HW133794   1.924   4.643   1.815 -1.2482  1.7062 -1.2151
 7445SOL    HW233795   1.863   4.669   1.681  0.6954  2.0730  0.7675
 7446SOL     OW33796   3.336   3.922   1.490 -0.3097  0.3576  0.2396
 7446SOL    HW133797   3.374   3.960   1.411 -0.4432 -0.6427 -0.3131
 7446SOL    HW233798   3.359   3.830   1.477  2.5119  0.6135  3.5034
 7447SOL     OW33799   2.198   3.230   6.622  0.2297  1.0116 -0.0356
 7447SOL    HW133800   2.163   3.232   6.533 -1.3006 -0.3239  0.5325
 7447SOL    HW233801   2.287   3.203   6.598  0.0269  1.2638 -1.0878
 7448SOL     OW33802   4.692   2.806   5.638 -0.2390 -0.0267 -0.3526
 7448SOL    HW133803   4.707   2.836   5.728  0.1351 -1.2883  0.0105
 7448SOL    HW233804   4.673   2.713   5.654  1.7158 -0.4192 -0.2370
 7449SOL     OW33805   4.588   1.919  16.196 -0.1280  0.0316 -0.1697
 7449SOL    HW133806   4.676   1.942  16.227  0.5161 -1.5568 -0.8171
 7449SOL    HW233807   4.535   1.990  16.234  0.6065  0.6354 -0.2514
 7450SOL     OW33808   0.697   0.515   0.905 -0.2405 -0.0307 -0.4542
 7450SOL    HW133809   0.630   0.544   0.844  0.3672  0.9328 -0.6666
 7450SOL    HW233810   0.684   0.420   0.905  0.4408 -0.1304 -0.2778
 7451SOL     OW33811   2.719   0.419   4.736 -0.1726  0.3277 -0.4177
 7451SOL    HW133812   2.757   0.438   4.650  1.1305  1.0475  0.3032
 7451SOL    HW233813   2.753   0.331   4.749 -0.8085  0.2138  0.4323
 7452SOL     OW33814   2.679   4.026  17.128 -0.0103 -0.3808  0.1210
 7452SOL    HW133815   2.593   3.999  17.097 -1.3293  2.7394  1.0327
 7452SOL    HW233816   2.665   4.052  17.219 -2.3234 -0.3868 -0.2361
 7453SOL     OW33817   4.174   4.064   6.194 -0.5027 -0.5061  0.1815
 7453SOL    HW133818   4.091   4.073   6.240 -0.5599 -0.7687  0.1256
 7453SOL    HW233819   4.156   3.991   6.135 -0.2678 -1.6824  1.5809
 7454SOL     OW33820   2.244   4.553   6.878 -0.4444 -0.6011 -0.6045
 7454SOL    HW133821   2.309   4.619   6.900  0.0092 -0.6854 -1.7103
 7454SOL    HW233822   2.166   4.606   6.863  1.9773  3.0919 -0.1126
 7455SOL     OW33823   4.707   2.187   6.093  0.0182  0.8377  0.0980
 7455SOL    HW133824   0.058   2.226   6.139  0.5466  1.7022 -1.4565
 7455SOL    HW233825   4.655   2.267   6.091 -0.3445  0.6476  3.0017
 7456SOL     OW33826   1.991   3.344  13.865 -0.0143 -0.0839 -0.0852
 7456SOL    HW133827   1.939   3.337  13.944 -3.0345  2.4678 -1.8497
 7456SOL    HW233828   2.082   3.335  13.895 -0.0153  1.3990  0.3643
 7457SOL     OW33829   3.024   1.427   9.300 -0.1345 -0.6633  0.0918
 7457SOL    HW133830   3.075   1.500   9.333 -0.2879 -0.0076 -1.1375
 7457SOL    HW233831   2.990   1.391   9.382  0.1658 -2.3636 -0.5206
 7458SOL     OW33832   3.806   1.261   5.181 -0.4000 -0.0745 -0.9858
 7458SOL    HW133833   3.865   1.268   5.107 -0.0119  0.4582 -0.6310
 7458SOL    HW233834   3.858   1.310   5.245  0.5165  0.0355 -1.8254
 7459SOL     OW33835   0.432   4.587   1.336 -0.3628 -0.4400 -0.4057
 7459SOL    HW133836   0.437   4.519   1.269  0.2479 -1.6481  0.8547
 7459SOL    HW233837   0.382   4.649   1.284  1.9914  1.4251 -0.4709
 7460SOL     OW33838   3.373   3.699   8.692  0.3632 -0.7567  0.5526
 7460SOL    HW133839   3.365   3.604   8.686 -1.7437 -0.4668 -1.6717
 7460SOL    HW233840   3.380   3.716   8.598  1.2927 -1.0324  0.5760
 7461SOL     OW33841   2.533   1.528   4.856 -0.0411 -0.5517  0.1199
 7461SOL    HW133842   2.521   1.437   4.832 -0.1778 -1.0487  2.0411
 7461SOL    HW233843   2.547   1.567   4.770  0.7709  1.0489  0.9629
 7462SOL     OW33844   0.545   4.604   1.596  0.1432  0.1748 -0.0140
 7462SOL    HW133845   0.602   4.674   1.563 -1.4865 -0.0519 -3.3720
 7462SOL    HW233846   0.495   4.577   1.519  0.3717 -0.6402  0.1261
 7463SOL     OW33847   0.828   4.439  16.996  0.3324  0.5956 -0.3485
 7463SOL    HW133848   0.908   4.462  16.947 -0.1265  1.0195 -0.8985
 7463SOL    HW233849   0.791   4.364  16.950 -2.4627  0.1787  2.5995
 7464SOL     OW33850   0.880   4.193  12.046  0.4352  0.4478  0.5482
 7464SOL    HW133851   0.912   4.211  11.958 -3.3886  0.0114 -0.9375
 7464SOL    HW233852   0.785   4.185  12.031  0.3824  2.0077  0.0928
 7465SOL     OW33853   3.060   2.014   3.223 -0.4387  0.4162 -0.1737
 7465SOL    HW133854   3.073   2.099   3.181  2.3032  0.7412  1.3150
 7465SOL    HW233855   3.111   1.960   3.163 -1.0626 -1.1622  0.7167
 7466SOL     OW33856   3.978   3.643   5.359  0.2524  0.4965  0.3819
 7466SOL    HW133857   4.067   3.660   5.329 -0.2793  1.5017 -0.6366
 7466SOL    HW233858   3.973   3.696   5.439  3.5113  0.5010  0.5772
 7467SOL     OW33859   3.899   0.488   8.053 -0.4006 -0.1941  0.3574
 7467SOL    HW133860   3.860   0.571   8.080  0.4191 -0.1087  1.2375
 7467SOL    HW233861   3.831   0.427   8.082 -1.7887  1.3018  0.3096
 7468SOL     OW33862   0.168   4.513   9.961 -0.3490  0.6971  0.4477
 7468SOL    HW133863   0.089   4.566   9.972 -1.8738 -1.3443 -0.6259
 7468SOL    HW233864   0.135   4.440  10.013 -1.1252  1.1056  0.5325
 7469SOL     OW33865   4.260   3.168   6.756  0.6024 -0.3167  0.0491
 7469SOL    HW133866   4.231   3.258   6.741 -0.5424 -0.7120 -0.1033
 7469SOL    HW233867   4.231   3.145   6.844  0.9091  2.2370  0.8083
 7470SOL     OW33868   0.526   0.064   4.644  0.2124  0.1690 -0.1700
 7470SOL    HW133869   0.605   0.027   4.684  0.0043  1.1689  1.1886
 7470SOL    HW233870   0.512   0.000   4.575  0.5059 -0.8182  0.6794
 7471SOL     OW33871   3.197   0.861  13.106 -0.3998 -0.3724  0.0953
 7471SOL    HW133872   3.150   0.792  13.152 -0.1794  1.0592  2.4858
 7471SOL    HW233873   3.188   0.924  13.178 -0.8656 -1.9878  1.4587
 7472SOL     OW33874   1.721   2.133   4.685 -0.4016 -0.8045 -0.0480
 7472SOL    HW133875   1.681   2.119   4.600 -1.5460  2.3368 -0.0608
 7472SOL    HW233876   1.684   2.054   4.723 -1.5058 -1.0913 -1.7019
 7473SOL     OW33877   2.364   4.473  15.505 -0.3388 -0.1838 -0.2887
 7473SOL    HW133878   2.281   4.513  15.479  0.7616  2.0481 -0.3755
 7473SOL    HW233879   2.414   4.545  15.543 -1.7774  0.5009  0.2972
 7474SOL     OW33880   0.585   2.305   3.857  0.4081 -0.5751 -0.1120
 7474SOL    HW133881   0.503   2.258   3.873  0.3253 -0.3727  0.0645
 7474SOL    HW233882   0.634   2.276   3.935  1.3533 -0.3371 -0.6184
 7475SOL     OW33883   1.233   1.120   1.798  0.1911 -0.7355 -0.4359
 7475SOL    HW133884   1.167   1.075   1.745 -0.8537 -2.6660  2.4539
 7475SOL    HW233885   1.292   1.049   1.822  0.8656  1.1482  3.4384
 7476SOL     OW33886   0.213   2.008   7.445 -0.2720  0.3232  0.6431
 7476SOL    HW133887   0.122   2.035   7.455 -0.3082  0.4504  0.0053
 7476SOL    HW233888   0.226   2.043   7.533 -0.1702  0.2963  0.6385
 7477SOL     OW33889   0.227   0.127   4.516 -0.5189 -0.3134  0.3627
 7477SOL    HW133890   0.248   0.044   4.473  0.3485 -1.0084  2.1547
 7477SOL    HW233891   0.140   0.153   4.486 -0.8465  2.4636  3.7473
 7478SOL     OW33892   2.836   3.952   7.167 -0.7325 -0.1168 -0.8094
 7478SOL    HW133893   2.828   4.018   7.098 -1.2172 -1.4775 -2.0572
 7478SOL    HW233894   2.904   3.988   7.223 -1.4328 -1.7859  1.0898
 7479SOL     OW33895   1.789   1.808  10.407 -0.0591  0.2277 -0.5037
 7479SOL    HW133896   1.879   1.792  10.436  0.7641  0.2677 -3.0282
 7479SOL    HW233897   1.796   1.750  10.332  2.5736  1.0507 -0.8965
 7480SOL     OW33898   4.497   4.211   8.436  0.2557 -0.1812 -0.4810
 7480SOL    HW133899   4.471   4.126   8.399 -1.4887 -0.4062  1.2296
 7480SOL    HW233900   4.551   4.176   8.508 -1.7535  0.4418  1.3463
 7481SOL     OW33901   0.537   2.537   4.829 -0.4059 -0.5453  0.0697
 7481SOL    HW133902   0.514   2.470   4.893 -1.9609  0.0889  0.1883
 7481SOL    HW233903   0.474   2.606   4.852  0.0751  0.4205 -1.5217
 7482SOL     OW33904   0.010   0.519  15.946  0.1301 -0.4343  0.5084
 7482SOL    HW133905   4.721   0.480  16.033 -0.7341 -1.6384 -0.1582
 7482SOL    HW233906   4.679   0.463  15.890  1.8117 -0.8697 -0.6518
 7483SOL     OW33907   4.469   3.954   4.084 -0.1930  0.1038 -0.7424
 7483SOL    HW133908   4.482   3.960   4.179 -1.4683 -3.0101 -0.3775
 7483SOL    HW233909   4.536   4.013   4.049 -0.9675  2.2654  1.3982
 7484SOL     OW33910   3.643   3.503   8.560 -0.2750  0.6022 -0.0447
 7484SOL    HW133911   3.617   3.452   8.636  1.4788  0.3268  0.3788
 7484SOL    HW233912   3.600   3.446   8.496  1.1406  1.2136 -1.5514
 7485SOL     OW33913   1.798   4.683   8.611  0.5948 -0.2474  0.4189
 7485SOL    HW133914   1.823   4.715   8.698  0.5951  0.7181  0.0697
 7485SOL    HW233915   1.813   4.589   8.622  1.4505  0.1251  2.5471
 7486SOL     OW33916   0.015   0.599  17.667 -0.1375  0.1267 -0.0924
 7486SOL    HW133917   4.717   0.648   0.055  1.9813 -0.7886  1.0217
 7486SOL    HW233918   0.040   0.513   0.010 -3.2091  0.5374  3.1538
 7487SOL     OW33919   2.085   3.532  12.027 -0.6283 -0.2294  0.8678
 7487SOL    HW133920   2.096   3.544  12.121 -2.2108 -0.8274  1.1241
 7487SOL    HW233921   2.169   3.488  12.017 -0.0045  1.2047 -0.2271
 7488SOL     OW33922   4.135   0.261   0.234  0.0185 -0.4276 -0.0383
 7488SOL    HW133923   4.082   0.181   0.235 -2.4203  1.2097  0.3171
 7488SOL    HW233924   4.079   0.326   0.190  0.7844  0.0799 -0.2685
 7489SOL     OW33925   3.301   0.079   8.506  0.9344  0.1832 -0.0855
 7489SOL    HW133926   3.266   0.101   8.593 -0.1298 -2.8813  0.2517
 7489SOL    HW233927   3.326   4.710   8.517  0.0829  0.0728  0.9605
 7490SOL     OW33928   2.311   1.988   8.758 -0.3925  0.5731  0.1527
 7490SOL    HW133929   2.264   2.028   8.832 -0.2069 -2.5709  1.9685
 7490SOL    HW233930   2.244   1.950   8.701  0.7885  0.6307 -1.2663
 7491SOL     OW33931   2.146   2.283   3.711 -0.4050 -0.9735  0.4346
 7491SOL    HW133932   2.194   2.337   3.773  1.1501 -0.3546 -1.3175
 7491SOL    HW233933   2.127   2.209   3.769 -2.0458 -0.9200 -0.0143
 7492SOL     OW33934   0.064   2.814   2.288  0.2935 -0.2392  1.6063
 7492SOL    HW133935   0.117   2.893   2.270  0.4986 -0.4794  1.1653
 7492SOL    HW233936   4.701   2.857   2.286 -0.1249 -1.1864 -0.7190
 7493SOL     OW33937   0.992   2.777   2.574  0.1701 -0.2615 -0.0036
 7493SOL    HW133938   0.922   2.761   2.511  1.0748 -2.1994 -0.5153
 7493SOL    HW233939   0.994   2.873   2.569  2.1034 -0.3370 -0.6492
 7494SOL     OW33940   4.693   0.321   9.214  0.2969  0.5944 -0.1559
 7494SOL    HW133941   0.023   0.245   9.188 -0.1463  0.5835 -1.0108
 7494SOL    HW233942   0.032   0.376   9.263 -1.0665  0.4418  1.7344
 7495SOL     OW33943   3.332   2.740  10.666  0.8140 -0.1933 -0.1503
 7495SOL    HW133944   3.306   2.742  10.758  0.7773  0.2840 -0.1713
 7495SOL    HW233945   3.377   2.656  10.672 -1.7321 -1.6759 -1.7295
 7496SOL     OW33946   1.822   0.207  14.404  0.0695 -0.2609  0.0123
 7496SOL    HW133947   1.863   0.284  14.443 -1.7482  0.9367 -0.4302
 7496SOL    HW233948   1.896   0.147  14.407  0.0096 -0.3570 -0.4664
 7497SOL     OW33949   0.325   3.228   1.796 -0.1420  0.0529  0.6702
 7497SOL    HW133950   0.406   3.278   1.795 -0.4128  0.4946  0.1915
 7497SOL    HW233951   0.273   3.289   1.743  3.7646  2.3764 -0.4571
 7498SOL     OW33952   2.912   2.837   0.421 -0.8830  0.0475  0.0001
 7498SOL    HW133953   2.900   2.875   0.334 -0.8529 -0.2262 -0.1208
 7498SOL    HW233954   2.878   2.749   0.408  0.0164  0.0465 -2.2304
 7499SOL     OW33955   4.666   0.607   0.891  0.0035 -0.0265  0.5014
 7499SOL    HW133956   0.007   0.673   0.866  0.8387 -1.8482 -2.3292
 7499SOL    HW233957   4.707   0.530   0.851  0.9195  0.3227  0.7845
 7500SOL     OW33958   2.352   2.606   6.355 -0.1073  0.0404 -0.0855
 7500SOL    HW133959   2.417   2.569   6.295 -0.4142 -0.7938  0.1049
 7500SOL    HW233960   2.338   2.544   6.426  2.6513 -0.7678 -0.2676
 7501SOL     OW33961   1.946   4.230   6.739  0.2897  0.1628 -0.1574
 7501SOL    HW133962   1.914   4.318   6.720  0.1704  0.1526  0.0044
 7501SOL    HW233963   2.025   4.250   6.788  0.6251 -3.5818  0.8143
 7502SOL     OW33964   2.592   0.618   7.118  0.1682  0.5587  0.7133
 7502SOL    HW133965   2.669   0.570   7.086 -0.6582 -1.7811  2.2391
 7502SOL    HW233966   2.537   0.545   7.147  0.3562  1.1198  2.4510
 7503SOL     OW33967   1.727   1.137   9.212 -0.5889  0.3054  0.1722
 7503SOL    HW133968   1.778   1.123   9.133 -0.9886  1.6125 -0.3243
 7503SOL    HW233969   1.787   1.086   9.266 -2.0126 -2.6462 -1.0566
 7504SOL     OW33970   1.531   0.655   5.793 -0.1691 -0.3025  0.2160
 7504SOL    HW133971   1.623   0.663   5.768 -0.3299  2.2274  0.4061
 7504SOL    HW233972   1.509   0.563   5.779  0.6057 -0.6034  0.9805
 7505SOL     OW33973   2.187   3.538   1.660 -0.3647  0.2621  0.4626
 7505SOL    HW133974   2.222   3.479   1.594  0.1321  0.2416  0.7435
 7505SOL    HW233975   2.102   3.496   1.663  0.5154 -1.6272 -1.7486
 7506SOL     OW33976   0.242   1.001   5.755 -0.2914 -0.1447 -0.4956
 7506SOL    HW133977   0.318   0.944   5.766  0.5990  1.4083  1.3955
 7506SOL    HW233978   0.188   0.982   5.832  1.7024  3.7854  1.8819
 7507SOL     OW33979   4.542   0.094  11.520 -0.2328  0.6921  0.7191
 7507SOL    HW133980   4.549   0.144  11.439 -1.3737  0.9962  0.8042
 7507SOL    HW233981   4.630   0.057  11.516 -1.7700 -2.6381 -1.8950
 7508SOL     OW33982   1.411   1.619   0.397  0.3338  0.0493 -0.7662
 7508SOL    HW133983   1.394   1.704   0.438 -2.3061 -1.5173  1.4151
 7508SOL    HW233984   1.432   1.570   0.476  2.1622  4.2515  1.3192
 7509SOL     OW33985   2.499   1.354   3.655 -0.5371  0.0720  0.4700
 7509SOL    HW133986   2.593   1.365   3.640 -0.6986 -0.9074 -1.2998
 7509SOL    HW233987   2.465   1.435   3.618  0.8720  0.8807  0.9472
 7510SOL     OW33988   1.127   4.213   5.861  0.6882  0.3511  0.0468
 7510SOL    HW133989   1.217   4.230   5.888  0.4479  0.9463  0.4682
 7510SOL    HW233990   1.119   4.288   5.801 -2.6741 -0.8560 -0.9923
 7511SOL     OW33991   3.787   0.890   9.126 -0.0269 -0.0990  0.4131
 7511SOL    HW133992   3.872   0.934   9.130 -0.2644  0.3110  1.0769
 7511SOL    HW233993   3.754   0.913   9.040 -0.3080  2.7056  1.2804
 7512SOL     OW33994   1.226   0.211   1.955 -0.6491  0.3083  0.1488
 7512SOL    HW133995   1.186   0.192   1.870 -1.3948  0.1850  0.5249
 7512SOL    HW233996   1.303   0.155   1.943  0.7701  1.8155  2.2533
 7513SOL     OW33997   4.343   2.692   6.574 -0.2852 -0.1018 -0.1898
 7513SOL    HW133998   4.393   2.679   6.655 -1.0431 -0.8014  0.1743
 7513SOL    HW233999   4.263   2.720   6.618  0.6595 -0.5446  1.8342
 7514SOL     OW34000   0.591   3.247   3.166  0.0386 -0.0521 -0.0218
 7514SOL    HW134001   0.564   3.172   3.112 -0.9564  0.1532  0.1876
 7514SOL    HW234002   0.615   3.315   3.103  2.1645 -2.1265 -1.4571
 7515SOL     OW34003   0.479   0.106   5.690 -0.2921 -0.4908  0.2914
 7515SOL    HW134004   0.538   0.077   5.620 -0.2019  1.6644 -0.5184
 7515SOL    HW234005   0.445   0.020   5.717  2.6690 -1.6582  0.3167
 7516SOL     OW34006   1.649   2.641   0.711  0.5077 -0.3494  0.2328
 7516SOL    HW134007   1.581   2.660   0.647  1.3142  0.3332 -0.4207
 7516SOL    HW234008   1.704   2.717   0.692 -0.6969  0.8429  1.4784
 7517SOL     OW34009   4.595   3.962   8.005 -0.1472 -0.3892  0.3612
 7517SOL    HW134010   4.513   4.012   8.000 -0.1553 -0.3293  1.0938
 7517SOL    HW234011   4.647   4.010   8.069  0.0573  0.1525 -0.2090
 7518SOL     OW34012   3.421   2.766   6.488  0.1018  0.2328  0.1231
 7518SOL    HW134013   3.509   2.794   6.464  0.2810 -2.2031 -2.1140
 7518SOL    HW234014   3.432   2.726   6.575 -0.1545  0.0611  0.0768
 7519SOL     OW34015   4.451   3.608   4.617  0.8676  0.3078  0.4536
 7519SOL    HW134016   4.407   3.630   4.698 -1.0157  2.1072 -1.0548
 7519SOL    HW234017   4.535   3.585   4.656  0.7451 -0.0957  0.4763
 7520SOL     OW34018   0.786   4.013   3.270 -0.8512  0.3343 -0.5122
 7520SOL    HW134019   0.699   3.996   3.305 -0.9734  0.6601 -0.6492
 7520SOL    HW234020   0.843   4.002   3.345  0.5481 -0.9222 -1.7629
 7521SOL     OW34021   4.474   1.964   8.320  0.0069  0.5978  0.0076
 7521SOL    HW134022   4.420   1.975   8.242 -0.9480  1.2466  0.7473
 7521SOL    HW234023   4.528   1.888   8.297  1.4032  1.2632  1.0956
 7522SOL     OW34024   1.171   1.071  10.362  0.4302  0.2696 -0.0830
 7522SOL    HW134025   1.249   1.041  10.314 -1.3181 -0.0512 -2.7171
 7522SOL    HW234026   1.202   1.155  10.397  1.9336 -0.3587  0.1354
 7523SOL     OW34027   4.308   4.514   1.827  0.3525 -0.1750 -0.0569
 7523SOL    HW134028   4.317   4.435   1.880  1.0491  1.1978  1.8370
 7523SOL    HW234029   4.232   4.561   1.861  0.2820  0.9128 -1.7033
 7524SOL     OW34030   2.052   2.000  11.154  0.1910 -0.0302 -0.0660
 7524SOL    HW134031   2.134   1.950  11.154 -0.7293 -1.5371 -0.4019
 7524SOL    HW234032   1.992   1.943  11.202 -2.6397  1.5291 -1.7272
 7525SOL     OW34033   4.557   0.837   5.778  0.1684 -0.1495  0.0920
 7525SOL    HW134034   4.483   0.897   5.783  0.0513 -0.3018  0.1839
 7525SOL    HW234035   4.521   0.778   5.712 -1.4502  1.8189 -0.7783
 7526SOL     OW34036   3.318   1.462  11.525 -0.2724 -0.0915  0.2331
 7526SOL    HW134037   3.243   1.439  11.580 -0.1469 -3.9767 -1.2253
 7526SOL    HW234038   3.326   1.557  11.537  1.3678 -0.1080 -0.6724
 7527SOL     OW34039   3.669   2.235   1.414  0.0486  0.3302 -0.2377
 7527SOL    HW134040   3.597   2.261   1.357  0.4958  0.7186 -0.6219
 7527SOL    HW234041   3.623   2.255   1.495  0.8458 -0.6370  0.4522
 7528SOL     OW34042   1.983   3.387   1.781 -0.0834  0.4935 -0.5946
 7528SOL    HW134043   1.905   3.441   1.774 -0.6896 -0.1460  1.4268
 7528SOL    HW234044   1.945   3.300   1.779 -0.2656  0.6086 -1.9268
 7529SOL     OW34045   3.836   2.205   9.401  0.3400  0.0434  0.6161
 7529SOL    HW134046   3.782   2.275   9.439  0.2766  0.3476 -0.0231
 7529SOL    HW234047   3.904   2.256   9.358  0.6072 -0.9151 -0.0815
 7530SOL     OW34048   1.197   2.434   1.774 -0.0673 -0.1360 -0.2418
 7530SOL    HW134049   1.292   2.432   1.769 -0.0485  0.1577 -0.0176
 7530SOL    HW234050   1.174   2.509   1.718  1.3948  0.8338  0.4581
 7531SOL     OW34051   0.524   1.277   4.379  0.4180 -0.0918  0.0133
 7531SOL    HW134052   0.584   1.333   4.429  3.2928  1.1995 -4.8110
 7531SOL    HW234053   0.521   1.196   4.430  1.4173 -0.7510 -0.9944
 7532SOL     OW34054   1.386   0.355   5.375 -0.6173 -0.2901  0.4127
 7532SOL    HW134055   1.330   0.327   5.447  0.2656  1.1944  1.6715
 7532SOL    HW234056   1.344   0.438   5.353 -2.1869 -1.6051 -1.5658
 7533SOL     OW34057   3.854   3.061   6.463 -0.2127  0.8444  0.4840
 7533SOL    HW134058   3.890   3.125   6.402  0.6505 -0.9549 -0.9050
 7533SOL    HW234059   3.936   3.023   6.496 -1.0110  1.1977  2.8331
 7534SOL     OW34060   3.135   4.042  11.636 -0.3107 -0.5059  0.2841
 7534SOL    HW134061   3.066   4.075  11.693  0.6737  1.1004  0.5580
 7534SOL    HW234062   3.075   4.009  11.570 -1.3799 -2.2514  2.1311
 7535SOL     OW34063   4.352   0.794   0.115 -0.2053 -0.2280 -0.0050
 7535SOL    HW134064   4.380   0.707   0.088 -1.0656  0.4835 -3.1954
 7535SOL    HW234065   4.320   0.831   0.033  0.0977 -0.1340 -0.0822
 7536SOL     OW34066   0.065   4.183  17.562  0.1209 -0.3958  0.3465
 7536SOL    HW134067   0.121   4.227  17.499 -0.1010  0.2554  0.6031
 7536SOL    HW234068   0.130   4.129  17.607 -0.5335 -0.4037  1.2824
 7537SOL     OW34069   1.593   3.228   5.489  0.3080  0.0315  0.4730
 7537SOL    HW134070   1.681   3.245   5.521  1.3018 -2.3933 -0.9777
 7537SOL    HW234071   1.545   3.303   5.525 -0.7759 -0.0289 -0.8411
 7538SOL     OW34072   2.181   2.901   4.471 -0.8216  0.3083 -0.0590
 7538SOL    HW134073   2.162   2.873   4.560  3.1400  0.4349  0.8249
 7538SOL    HW234074   2.274   2.877   4.481 -0.8520 -0.4263 -1.5750
 7539SOL     OW34075   4.455   1.083   0.567 -0.1907  0.0829  0.1526
 7539SOL    HW134076   4.506   1.053   0.492  2.8399 -0.1038  2.2816
 7539SOL    HW234077   4.490   1.023   0.634 -1.0800 -0.6558 -0.0313
 7540SOL     OW34078   0.408   1.272   3.420 -0.3977 -0.3519  0.2024
 7540SOL    HW134079   0.365   1.240   3.340  0.7461 -2.8434  0.5767
 7540SOL    HW234080   0.456   1.192   3.440 -0.5495 -0.1421  1.3661
 7541SOL     OW34081   2.784   0.974   9.664  0.3862  0.3930  0.3707
 7541SOL    HW134082   2.831   1.028   9.601  1.6351 -1.8020 -0.5637
 7541SOL    HW234083   2.812   1.015   9.746  1.1438  1.4635 -0.4271
 7542SOL     OW34084   3.522   1.515   7.258 -0.5142 -0.5132 -0.0417
 7542SOL    HW134085   3.609   1.547   7.281 -0.3111  1.0614 -3.0690
 7542SOL    HW234086   3.538   1.427   7.224  3.7426  0.7648 -1.3261
 7543SOL     OW34087   3.554   3.043  15.413 -0.3837  0.7902 -0.7632
 7543SOL    HW134088   3.640   3.001  15.423 -1.1298 -1.1311 -2.5721
 7543SOL    HW234089   3.536   3.034  15.320  0.7354 -0.7129 -0.8293
 7544SOL     OW34090   3.489   0.651   6.396 -1.1242  0.0772  0.1654
 7544SOL    HW134091   3.537   0.576   6.431  1.4093  0.1052 -3.2668
 7544SOL    HW234092   3.560   0.714   6.411  1.5869 -3.2432  1.1538
 7545SOL     OW34093   1.277   2.799   3.943 -0.5332  0.3831  0.2193
 7545SOL    HW134094   1.335   2.874   3.932  0.6667 -0.6691 -0.6068
 7545SOL    HW234095   1.195   2.847   3.957  0.2177  1.7121  0.0634
 7546SOL     OW34096   1.358   2.311   0.617 -0.0163 -0.3058 -0.6069
 7546SOL    HW134097   1.393   2.363   0.545  0.0437  0.3063 -0.1324
 7546SOL    HW234098   1.311   2.386   0.654  2.0712  2.4446 -3.5221
 7547SOL     OW34099   2.565   2.914   2.007 -0.0395  0.5169 -0.4961
 7547SOL    HW134100   2.476   2.904   2.042 -0.5049 -0.1897 -1.8544
 7547SOL    HW234101   2.556   2.952   1.919  2.2565  0.9252 -0.5601
 7548SOL     OW34102   1.105   1.118   6.480 -0.3616  0.1071 -0.0733
 7548SOL    HW134103   1.057   1.035   6.480  0.2295 -0.2338 -0.6039
 7548SOL    HW234104   1.089   1.142   6.571 -0.4704  1.3652 -0.4214
 7549SOL     OW34105   0.472   2.801   8.877  0.0876  0.6932 -0.0077
 7549SOL    HW134106   0.460   2.827   8.968  0.3494 -2.4613  0.9325
 7549SOL    HW234107   0.461   2.706   8.880 -0.7105  0.7303 -1.7290
 7550SOL     OW34108   3.310   3.940   3.513 -0.0651  0.5005 -0.4159
 7550SOL    HW134109   3.316   4.033   3.490  1.4685  0.5821  0.2755
 7550SOL    HW234110   3.349   3.902   3.434 -1.0744  2.5959 -1.9075
 7551SOL     OW34111   0.431   3.654   9.051  0.2337  0.7958  0.4596
 7551SOL    HW134112   0.486   3.649   9.129  1.0994 -2.9747 -0.4135
 7551SOL    HW234113   0.441   3.747   9.032 -2.1025  1.1530  1.0208
 7552SOL     OW34114   2.304   1.161   1.597  0.1227 -0.1638 -0.2827
 7552SOL    HW134115   2.217   1.190   1.569  0.1974 -0.1847 -0.5326
 7552SOL    HW234116   2.337   1.119   1.517  2.8382  0.9590  0.2415
 7553SOL     OW34117   1.387   1.701   1.357  0.4706 -0.1178  0.3959
 7553SOL    HW134118   1.415   1.633   1.418  0.2802  0.5150  1.1979
 7553SOL    HW234119   1.419   1.786   1.386  2.3073 -0.8355  0.4504
 7554SOL     OW34120   3.754   3.817   4.047  0.4904  0.0059  0.4949
 7554SOL    HW134121   3.674   3.868   4.034 -0.9129 -1.8929  1.8054
 7554SOL    HW234122   3.760   3.827   4.142 -2.9758 -1.5488  0.8808
 7555SOL     OW34123   3.108   1.160   3.976 -0.1068  0.0987  1.0635
 7555SOL    HW134124   3.202   1.150   3.958 -0.1584 -1.6523  1.7226
 7555SOL    HW234125   3.112   1.195   4.065  2.3065  2.7311 -0.0641
 7556SOL     OW34126   0.941   3.896   6.905  0.1351 -0.0921  0.4396
 7556SOL    HW134127   0.906   3.821   6.856 -2.1410  0.9504  0.4574
 7556SOL    HW234128   0.878   3.894   6.977 -0.4409  2.5454 -0.0025
 7557SOL     OW34129   4.225   1.714  12.757 -0.8520 -0.4549 -0.3482
 7557SOL    HW134130   4.183   1.649  12.701  0.9365  1.3555 -3.7784
 7557SOL    HW234131   4.179   1.706  12.841  0.3496  0.2447  0.3743
 7558SOL     OW34132   3.765   4.189   6.449  0.8081  0.0737 -0.7096
 7558SOL    HW134133   3.731   4.273   6.419  0.7096  0.0817 -0.5762
 7558SOL    HW234134   3.803   4.224   6.529  0.7960  0.8317 -1.0319
 7559SOL     OW34135   1.281   4.514  12.041  0.1825  0.3847 -0.1250
 7559SOL    HW134136   1.193   4.538  12.012 -0.3648 -1.2683  0.1485
 7559SOL    HW234137   1.303   4.595  12.086  0.9168 -0.4149  0.9468
 7560SOL     OW34138   4.460   1.498   2.219 -0.1144 -0.1817  0.5654
 7560SOL    HW134139   4.366   1.481   2.213 -0.0949 -0.1671  0.2046
 7560SOL    HW234140   4.487   1.415   2.179 -0.0642  0.1143 -0.0133
 7561SOL     OW34141   1.239   0.177  13.968 -0.0029 -0.5595  0.0633
 7561SOL    HW134142   1.228   0.101  13.911 -1.0219 -1.2089  1.1318
 7561SOL    HW234143   1.278   0.247  13.915 -0.8400 -0.1672 -0.0379
 7562SOL     OW34144   2.026   4.040   2.610 -0.5546 -0.4696 -0.7012
 7562SOL    HW134145   2.070   4.026   2.526  0.0762 -2.0562 -0.1083
 7562SOL    HW234146   1.952   3.979   2.612 -0.1313 -0.9542  0.2212
 7563SOL     OW34147   3.166   1.492  12.438 -0.3216 -0.0687 -0.1548
 7563SOL    HW134148   3.211   1.492  12.523  1.4467 -0.1571 -1.0924
 7563SOL    HW234149   3.095   1.552  12.460 -0.2845  0.2620 -0.9462
 7564SOL     OW34150   1.034   1.293   1.903  0.7539 -0.6264  0.1746
 7564SOL    HW134151   1.070   1.206   1.888 -0.3201 -0.9312 -0.6029
 7564SOL    HW234152   0.989   1.291   1.988 -2.5732  2.5513 -1.4772
 7565SOL     OW34153   0.239   2.417   7.355  0.4598  0.4344  0.1358
 7565SOL    HW134154   0.320   2.439   7.401  0.0166  2.6419 -0.1701
 7565SOL    HW234155   0.266   2.353   7.289  3.3150  3.7702 -1.9047
 7566SOL     OW34156   4.307   3.377   4.140  0.0842 -0.7977 -0.4693
 7566SOL    HW134157   4.329   3.470   4.129 -0.5790 -0.2864  2.4060
 7566SOL    HW234158   4.248   3.366   4.065 -1.0233  1.7495  0.0022
 7567SOL     OW34159   1.403   3.099   1.045 -0.6606  0.0444  0.6843
 7567SOL    HW134160   1.387   3.155   0.970 -1.7690 -4.1555 -2.1832
 7567SOL    HW234161   1.498   3.087   1.041 -0.5806  0.8384  0.2883
 7568SOL     OW34162   3.623   1.683   6.461  0.1454 -0.0847  0.2600
 7568SOL    HW134163   3.646   1.612   6.400  2.8966  1.2160 -0.2102
 7568SOL    HW234164   3.560   1.740   6.417 -0.1297  0.0953  0.8995
 7569SOL     OW34165   4.111   1.882   7.045 -0.1602  0.6120  0.2919
 7569SOL    HW134166   4.145   1.820   7.109  1.0982  1.1798  0.1789
 7569SOL    HW234167   4.181   1.887   6.980 -0.6737 -0.7483 -0.3466
 7570SOL     OW34168   2.549   1.331   5.947 -0.2456  0.1408 -0.3155
 7570SOL    HW134169   2.563   1.300   6.037  0.3795  1.7994  0.1575
 7570SOL    HW234170   2.454   1.338   5.952 -0.2595  0.7894 -1.4979
 7571SOL     OW34171   2.207   1.357   3.852 -0.0186  0.1179  0.2819
 7571SOL    HW134172   2.117   1.332   3.873 -0.0168  0.6731  0.9445
 7571SOL    HW234173   2.201   1.453   3.853 -0.0908  0.0931  1.9694
 7572SOL     OW34174   2.127   3.946   2.354 -0.1040 -0.6356 -0.0309
 7572SOL    HW134175   2.146   4.035   2.322  1.3200 -0.2650  1.8246
 7572SOL    HW234176   2.048   3.930   2.304  0.6253 -0.0645 -1.3597
 7573SOL     OW34177   1.886   2.370   2.044  0.1771  0.0379  0.5549
 7573SOL    HW134178   1.935   2.431   2.100  2.5446 -1.6017  0.2417
 7573SOL    HW234179   1.955   2.306   2.029  0.3048  0.6845 -1.5579
 7574SOL     OW34180   4.610   0.879  11.437  0.2289  0.4699  0.4663
 7574SOL    HW134181   4.658   0.835  11.507 -1.2796 -0.6856  0.7817
 7574SOL    HW234182   4.607   0.808  11.372  0.0034 -1.3215  2.4375
 7575SOL     OW34183   0.499   4.572   2.192  0.6405  0.6240 -0.0128
 7575SOL    HW134184   0.547   4.498   2.154  0.7873  0.6330  0.1572
 7575SOL    HW234185   0.553   4.648   2.172  1.8705 -0.0039  0.9303
 7576SOL     OW34186   0.248   2.669  15.432  0.4132 -0.3227  0.0602
 7576SOL    HW134187   0.335   2.687  15.395  0.6283 -1.0479  0.2131
 7576SOL    HW234188   0.223   2.580  15.410 -0.3752  0.0524 -0.5535
 7577SOL     OW34189   3.699   0.079  10.233 -0.4666 -0.3984  0.5395
 7577SOL    HW134190   3.641   0.153  10.254 -0.4538  0.4669 -2.4757
 7577SOL    HW234191   3.765   0.082  10.303  0.7179 -2.3995 -0.5198
 7578SOL     OW34192   3.223   1.185  13.602  0.0331  0.6700  0.2631
 7578SOL    HW134193   3.148   1.126  13.613  0.9569 -0.3849  0.9099
 7578SOL    HW234194   3.197   1.231  13.522 -0.9778  1.0292  0.7886
 7579SOL     OW34195   3.956   2.469   2.966  0.4026  0.3030  0.0761
 7579SOL    HW134196   3.863   2.456   2.945  0.5110  2.1766 -1.5497
 7579SOL    HW234197   3.999   2.393   2.928  1.8144  1.7442 -1.1891
 7580SOL     OW34198   1.107   2.165   5.950  0.1334 -0.1098  0.0038
 7580SOL    HW134199   1.129   2.073   5.938 -1.1463 -0.6178  1.6496
 7580SOL    HW234200   1.146   2.207   5.873  0.1162 -0.0855  0.0083
 7581SOL     OW34201   3.132   2.346   3.693 -0.1358 -0.2582  0.0872
 7581SOL    HW134202   3.164   2.270   3.645 -2.5899 -0.0861 -1.8035
 7581SOL    HW234203   3.126   2.410   3.622  1.4523  0.8572  0.9575
 7582SOL     OW34204   3.570   3.209  15.051 -0.5006 -0.8430 -0.0601
 7582SOL    HW134205   3.612   3.288  15.086 -2.9321 -0.1910  1.3414
 7582SOL    HW234206   3.622   3.146  15.100  1.2081  1.1014  0.6390
 7583SOL     OW34207   4.028   2.249   8.392 -0.5598 -0.3787  0.2213
 7583SOL    HW134208   3.955   2.193   8.362 -1.6386  1.5786 -0.8319
 7583SOL    HW234209   3.983   2.316   8.443 -0.1599 -0.6967  0.9782
 7584SOL     OW34210   1.734   1.662   5.003  0.0618 -0.2117  0.8524
 7584SOL    HW134211   1.817   1.709   5.004  0.3078 -0.5980 -0.7426
 7584SOL    HW234212   1.759   1.587   4.949  0.5236  0.1245  0.6058
 7585SOL     OW34213   2.297   0.427   2.745  0.5218  0.1776 -0.3460
 7585SOL    HW134214   2.276   0.486   2.818  0.0323  0.4824 -0.7341
 7585SOL    HW234215   2.315   0.483   2.669  1.1031  2.6023  1.5690
 7586SOL     OW34216   4.358   1.391   7.105  0.3106  0.5736  0.1517
 7586SOL    HW134217   4.415   1.361   7.176  0.3414  0.5814  0.1302
 7586SOL    HW234218   4.277   1.359   7.145  0.0275 -0.0076 -0.8961
 7587SOL     OW34219   1.171   1.068  10.661  0.9134 -0.3299  0.0790
 7587SOL    HW134220   1.224   0.993  10.688  0.2918 -0.7613  0.1174
 7587SOL    HW234221   1.166   1.046  10.568 -0.7027 -0.0225  0.0835
 7588SOL     OW34222   0.711   0.876   7.258  0.0048  0.1816 -0.4929
 7588SOL    HW134223   0.778   0.847   7.196  1.1944  0.9220  0.4476
 7588SOL    HW234224   0.646   0.807   7.243 -1.0818  0.6056  2.2051
 7589SOL     OW34225   0.505   1.456   9.562  0.0413 -0.4191 -0.0177
 7589SOL    HW134226   0.444   1.391   9.527 -0.7861  0.0667  0.5167
 7589SOL    HW234227   0.504   1.529   9.499  0.0255 -1.0387 -0.7385
 7590SOL     OW34228   0.529   4.577   0.498 -0.5517 -0.2730  1.1289
 7590SOL    HW134229   0.569   4.618   0.422  0.6946 -2.0916  0.8156
 7590SOL    HW234230   0.588   4.609   0.566  0.3890  0.1950  0.0810
 7591SOL     OW34231   4.610   1.564   9.470  0.4815 -0.7442 -0.1920
 7591SOL    HW134232   4.577   1.530   9.553 -1.6887 -0.8816 -1.1256
 7591SOL    HW234233   4.526   1.560   9.424 -0.5907  0.7296  1.6241
 7592SOL     OW34234   1.113   0.856   7.135 -0.2711 -0.0689  0.7245
 7592SOL    HW134235   1.033   0.803   7.143 -0.1399 -0.2329  0.9530
 7592SOL    HW234236   1.078   0.944   7.148 -0.7060 -0.0571 -0.5871
 7593SOL     OW34237   2.614   0.899   8.766  0.1558 -0.4659  0.4168
 7593SOL    HW134238   2.654   0.843   8.699  0.4341 -0.3239  0.4683
 7593SOL    HW234239   2.661   0.873   8.845 -0.7522 -2.9079  0.1709
 7594SOL     OW34240   0.961   1.416   6.027  0.4802 -0.2071  0.3443
 7594SOL    HW134241   1.033   1.474   6.052 -0.8491  0.4472  2.6176
 7594SOL    HW234242   0.977   1.395   5.934  2.2581  1.8289  0.1876
 7595SOL     OW34243   2.313   3.005  17.359 -0.0289  0.9019  0.2688
 7595SOL    HW134244   2.407   2.991  17.369 -0.6372 -4.1672 -1.5685
 7595SOL    HW234245   2.279   2.929  17.405 -0.1281  1.0073  0.3681
 7596SOL     OW34246   3.693   0.536   5.664 -0.4564 -0.5012  0.1558
 7596SOL    HW134247   3.719   0.628   5.678  0.8491 -0.4918 -2.2539
 7596SOL    HW234248   3.664   0.526   5.754 -1.9808  0.6940 -0.1964
 7597SOL     OW34249   0.850   4.129   9.886  0.9507  0.1177  0.1434
 7597SOL    HW134250   0.912   4.199   9.906  1.7918 -0.7958  0.7903
 7597SOL    HW234251   0.790   4.183   9.835  1.0369 -0.1159 -0.2081
 7598SOL     OW34252   3.918   1.994   6.906  0.2965 -0.2496  0.8355
 7598SOL    HW134253   3.980   1.948   6.962  0.7923  2.3338  2.4034
 7598SOL    HW234254   3.961   1.968   6.825 -2.6279  1.3867 -1.2431
 7599SOL     OW34255   0.105   1.810   2.286 -0.6933  0.8996 -0.0482
 7599SOL    HW134256   0.170   1.789   2.353 -1.4674 -1.7609 -0.1076
 7599SOL    HW234257   0.047   1.736   2.307  1.4254 -1.1729 -1.4284
 7600SOL     OW34258   1.724   0.024   5.090 -0.1561  0.1418  0.6616
 7600SOL    HW134259   1.726   4.698   5.008 -1.4343  1.5693 -0.2128
 7600SOL    HW234260   1.631   0.044   5.083  0.0182  1.3710  1.8211
 7601SOL     OW34261   3.068   1.588   4.075  0.4769 -0.0615 -0.4963
 7601SOL    HW134262   3.022   1.670   4.060 -1.8702 -1.1085  0.8926
 7601SOL    HW234263   2.999   1.531   4.040  0.5996 -0.5881  0.1170
 7602SOL     OW34264   3.114   4.593   8.693  0.0308  0.2350 -0.1295
 7602SOL    HW134265   3.143   4.667   8.639 -0.0270  0.0659 -0.3945
 7602SOL    HW234266   3.127   4.517   8.636  0.2243 -0.6300  1.0804
 7603SOL     OW34267   3.685   1.900  10.230  0.4566 -0.0179 -0.2991
 7603SOL    HW134268   3.731   1.867  10.152  0.9916  1.4483 -0.6052
 7603SOL    HW234269   3.688   1.835  10.300  0.0433 -0.2372 -0.4854
 7604SOL     OW34270   0.733   1.061   8.145  0.2926  0.1367 -0.7119
 7604SOL    HW134271   0.687   1.089   8.065  0.0809 -0.0245 -0.6476
 7604SOL    HW234272   0.671   1.087   8.213 -1.2886  0.9599 -2.4754
 7605SOL     OW34273   4.205   4.180   4.129  0.5063 -0.2114 -0.3215
 7605SOL    HW134274   4.153   4.148   4.203 -0.7318  1.8278 -0.3143
 7605SOL    HW234275   4.204   4.275   4.135 -2.3188 -0.1671 -1.3409
 7606SOL     OW34276   3.118   3.966   7.040 -0.4884 -0.3915 -0.0145
 7606SOL    HW134277   3.152   3.906   7.107 -1.6229 -1.2818 -0.2253
 7606SOL    HW234278   3.063   3.901   6.995 -1.5993  0.5586 -0.0323
 7607SOL     OW34279   4.474   3.040   4.274  0.6185 -0.0758 -0.0499
 7607SOL    HW134280   4.497   3.064   4.184 -0.2325  1.6415  0.1892
 7607SOL    HW234281   4.544   2.986   4.311 -0.0730  0.0971  1.4633
 7608SOL     OW34282   0.934   2.664   2.238  0.1603  0.3032 -0.3090
 7608SOL    HW134283   0.887   2.586   2.210 -0.2605  0.5490 -0.2751
 7608SOL    HW234284   0.874   2.707   2.298  0.3681 -0.3263  0.3518
 7609SOL     OW34285   4.161   4.278   9.420  0.8357  0.3814 -0.3615
 7609SOL    HW134286   4.155   4.186   9.396 -0.0881  0.6159 -1.0462
 7609SOL    HW234287   4.248   4.280   9.460  0.9093  0.6388 -0.5372
 7610SOL     OW34288   3.811   2.252   5.446 -0.3866 -0.4028 -0.7961
 7610SOL    HW134289   3.894   2.297   5.428  0.1312  0.1796  2.9369
 7610SOL    HW234290   3.748   2.324   5.450 -0.1688 -0.3477  1.5758
 7611SOL     OW34291   4.068   2.964   6.226 -0.5670  0.1168 -0.0554
 7611SOL    HW134292   4.046   3.054   6.201  1.3674  0.1465 -1.6898
 7611SOL    HW234293   4.078   2.976   6.320  2.9552  0.5732 -0.5024
 7612SOL     OW34294   1.452   1.708   3.403  0.4346  0.6867  0.3815
 7612SOL    HW134295   1.459   1.660   3.321  2.1374  1.9310 -0.2085
 7612SOL    HW234296   1.532   1.691   3.453 -0.7002  0.2795  2.0676
 7613SOL     OW34297   0.726   0.196  10.409  0.5875  0.1915 -0.7028
 7613SOL    HW134298   0.656   0.255  10.382  2.3932  1.6913 -2.1515
 7613SOL    HW234299   0.694   0.117  10.366 -0.0894 -0.7224  1.4775
 7614SOL     OW34300   1.293   1.790   2.385  0.1851  0.1746  0.7494
 7614SOL    HW134301   1.290   1.744   2.301  3.2675  0.8460  0.2856
 7614SOL    HW234302   1.319   1.880   2.363 -2.3101  0.7552  0.2144
 7615SOL     OW34303   1.781   3.507  14.186  0.2128 -0.0535  0.1270
 7615SOL    HW134304   1.780   3.430  14.129 -1.1431 -0.6382  0.9643
 7615SOL    HW234305   1.861   3.485  14.234  0.6890  2.0701  0.3196
 7616SOL     OW34306   2.061   3.286   9.221  0.6532  0.2270  0.1622
 7616SOL    HW134307   2.124   3.221   9.252  1.3204  0.6425 -0.3474
 7616SOL    HW234308   2.025   3.321   9.303 -1.6532  1.3085 -1.3045
 7617SOL     OW34309   1.651   3.115   1.926  0.1336  0.1188 -0.3151
 7617SOL    HW134310   1.613   3.052   1.988 -2.5282  0.5096 -1.5440
 7617SOL    HW234311   1.606   3.090   1.845  0.5460  1.3805 -0.9353
 7618SOL     OW34312   3.048   3.489  15.760  0.3155  0.0046 -0.2856
 7618SOL    HW134313   3.113   3.427  15.727 -0.6426 -0.2417 -1.7226
 7618SOL    HW234314   3.003   3.518  15.680 -0.5657 -2.4106 -0.6830
 7619SOL     OW34315   0.294   3.235   4.859 -0.3011  0.1034 -0.2335
 7619SOL    HW134316   0.387   3.257   4.866 -0.7694  1.5386  1.2479
 7619SOL    HW234317   0.257   3.317   4.827 -0.1306 -0.3404 -1.5806
 7620SOL     OW34318   0.537   0.935  14.398  0.1193 -0.2172 -0.2934
 7620SOL    HW134319   0.545   0.944  14.303 -0.3985  0.5216 -0.2682
 7620SOL    HW234320   0.493   0.852  14.412  0.3740 -0.3300 -0.1776
 7621SOL     OW34321   1.952   0.288   5.704 -0.5712  0.1209  0.1616
 7621SOL    HW134322   2.009   0.365   5.702 -3.0064  1.9402  0.3602
 7621SOL    HW234323   1.885   0.336   5.655 -0.0122 -0.7162 -1.4151
 7622SOL     OW34324   4.640   2.068  17.151 -0.7103  0.1603 -0.2549
 7622SOL    HW134325   4.599   2.086  17.066 -3.9552  1.0372  1.5226
 7622SOL    HW234326   4.601   1.983  17.170  1.3520 -0.1925  2.3733
 7623SOL     OW34327   3.095   1.022   3.136  0.8423 -0.0877 -0.2930
 7623SOL    HW134328   3.065   0.978   3.216 -2.1471  1.4239 -0.5614
 7623SOL    HW234329   3.013   1.052   3.096 -0.1389 -0.8926  1.0935
 7624SOL     OW34330   1.879   1.269  16.591 -0.4296  0.1932 -0.0113
 7624SOL    HW134331   1.795   1.230  16.567  0.7253 -0.4552 -2.9835
 7624SOL    HW234332   1.903   1.208  16.661  0.2367  0.0914 -0.3363
 7625SOL     OW34333   0.401   0.324  16.554 -0.2575  0.1494  0.3687
 7625SOL    HW134334   0.407   0.305  16.648  0.0730  1.0441  0.5387
 7625SOL    HW234335   0.453   0.255  16.514  0.1145  0.5827  0.0951
 7626SOL     OW34336   0.946   1.478   3.131 -0.4939  0.8351  0.4139
 7626SOL    HW134337   0.965   1.431   3.212 -1.9483 -1.1261 -0.3667
 7626SOL    HW234338   1.008   1.431   3.074 -1.2360  0.0910  0.2135
 7627SOL     OW34339   0.157   1.024  10.446  0.2898 -0.3379  0.0170
 7627SOL    HW134340   0.204   1.058  10.371  1.4313 -1.7823  0.0734
 7627SOL    HW234341   0.119   0.939  10.424 -2.0787  1.6131 -3.4452
 7628SOL     OW34342   1.548   0.120   7.870  0.0148  0.3111 -0.3327
 7628SOL    HW134343   1.575   0.163   7.951  2.8227 -0.1060 -1.0578
 7628SOL    HW234344   1.475   0.178   7.848 -0.8528 -0.7697 -0.2753
 7629SOL     OW34345   3.066   2.139  13.458  0.9643 -0.4299  0.2515
 7629SOL    HW134346   3.031   2.154  13.546  0.8071 -0.7988  0.2515
 7629SOL    HW234347   3.061   2.229  13.426  2.0378 -0.5612 -0.2776
 7630SOL     OW34348   3.455   2.109   8.453  0.2802 -0.4876  0.6047
 7630SOL    HW134349   3.422   2.050   8.385 -0.9329 -0.1595  0.9065
 7630SOL    HW234350   3.448   2.066   8.538 -0.4231 -0.1179  0.7331
 7631SOL     OW34351   1.037   0.476   3.250  0.9562 -0.1009 -0.1128
 7631SOL    HW134352   1.101   0.544   3.226 -1.8862  1.8488 -2.2543
 7631SOL    HW234353   1.087   0.395   3.245  0.4656 -0.2893 -2.0657
 7632SOL     OW34354   3.804   2.116   3.268  0.2888 -0.2795  0.2072
 7632SOL    HW134355   3.737   2.125   3.335 -0.4148 -0.6002 -0.4572
 7632SOL    HW234356   3.823   2.023   3.255 -1.5862 -0.3333 -2.2323
 7633SOL     OW34357   4.503   2.901  17.423 -0.0483  0.3203  0.3576
 7633SOL    HW134358   4.498   2.854  17.340 -2.6362  0.5723  0.3856
 7633SOL    HW234359   4.414   2.932  17.436 -0.3977 -0.5833  0.1108
 7634SOL     OW34360   0.714   1.247   5.317 -0.3981 -0.7344 -0.0270
 7634SOL    HW134361   0.780   1.278   5.380  0.1179 -2.1103  0.1175
 7634SOL    HW234362   0.752   1.162   5.296  0.1353 -0.4190 -0.3634
 7635SOL     OW34363   4.594   3.745   8.506  0.4175  0.4666 -0.0109
 7635SOL    HW134364   4.560   3.715   8.422  1.3982  1.7683 -0.8738
 7635SOL    HW234365   4.682   3.752   8.470  0.3925 -1.8167 -0.5188
 7636SOL     OW34366   0.883   3.416   1.663  0.0295 -0.2347  0.1100
 7636SOL    HW134367   0.927   3.480   1.608 -0.9884  0.0161 -0.4141
 7636SOL    HW234368   0.789   3.431   1.650  0.2725  0.7945 -0.4704
 7637SOL     OW34369   3.920   2.813   9.063 -0.0854 -0.4966  0.0536
 7637SOL    HW134370   3.990   2.831   9.000 -0.0838 -1.0413 -0.0971
 7637SOL    HW234371   3.869   2.894   9.074  0.5304 -0.0773 -0.1662
 7638SOL     OW34372   3.328   0.454  16.508  0.1731 -0.8520  0.0450
 7638SOL    HW134373   3.247   0.435  16.461 -0.5085 -0.6852  1.1392
 7638SOL    HW234374   3.401   0.410  16.465  2.1131  2.2209  0.2092
 7639SOL     OW34375   2.449   0.978   3.587  0.3438  0.6789  0.3455
 7639SOL    HW134376   2.508   0.903   3.593  2.2240  2.1398  0.1552
 7639SOL    HW234377   2.390   0.947   3.655 -0.8947  1.1338 -0.5222
 7640SOL     OW34378   3.396   0.662   6.965 -0.2266 -0.0010  0.5270
 7640SOL    HW134379   3.349   0.724   7.022 -1.6199 -1.2398  0.7200
 7640SOL    HW234380   3.413   0.590   7.026 -4.4416 -2.1106 -0.7872
 7641SOL     OW34381   2.478   2.451  11.140 -0.0345  0.0375 -0.1897
 7641SOL    HW134382   2.518   2.438  11.054  1.5257 -0.0503  0.5489
 7641SOL    HW234383   2.484   2.363  11.177  0.0414 -0.0345 -0.3712
 7642SOL     OW34384   3.982   3.143   3.905  0.2927  0.5434  0.2134
 7642SOL    HW134385   4.050   3.075   3.911 -0.6800 -0.4446 -0.0789
 7642SOL    HW234386   4.026   3.205   3.847 -0.4879  1.0281  0.1418
 7643SOL     OW34387   3.663   0.164   3.800  0.2161 -0.6637 -0.3660
 7643SOL    HW134388   3.635   0.077   3.828 -0.5160  0.0974  1.2844
 7643SOL    HW234389   3.577   0.205   3.810  1.2724  0.4014  4.5935
 7644SOL     OW34390   2.318   1.403  17.607 -0.1492 -0.0045 -0.8874
 7644SOL    HW134391   2.338   1.347  17.532  2.6341  1.4844 -1.2916
 7644SOL    HW234392   2.287   1.342  17.674  0.2587  0.5095 -0.2317
 7645SOL     OW34393   4.348   1.615   3.387  1.2708 -0.1442  0.2423
 7645SOL    HW134394   4.329   1.658   3.470  2.0951 -1.9040  1.3294
 7645SOL    HW234395   4.392   1.689   3.343  1.7438  0.1696  1.2344
 7646SOL     OW34396   1.954   1.803  13.865  0.0628  0.0983 -0.0077
 7646SOL    HW134397   1.948   1.712  13.894 -0.5197  0.2191  0.2443
 7646SOL    HW234398   2.030   1.796  13.806  0.5046  0.2457  0.5413
 7647SOL     OW34399   4.588   2.864  11.683 -0.3263 -0.0822 -0.3021
 7647SOL    HW134400   4.608   2.900  11.770 -0.8108 -0.1588 -0.1601
 7647SOL    HW234401   4.588   2.771  11.707 -1.9819 -0.0531 -0.1998
 7648SOL     OW34402   2.560   2.521   6.205 -0.4653 -0.2027  0.4767
 7648SOL    HW134403   2.605   2.567   6.134  1.4352 -0.3381  1.5938
 7648SOL    HW234404   2.562   2.434   6.165 -0.8977 -0.5683  1.2461
 7649SOL     OW34405   2.089   1.444   0.927 -0.0465  0.7790 -0.2757
 7649SOL    HW134406   2.101   1.359   0.884 -0.4200  1.1556 -1.1420
 7649SOL    HW234407   2.096   1.416   1.018 -0.1909  1.0907 -0.1695
 7650SOL     OW34408   4.151   3.000  15.677 -0.3241  0.0911  0.2064
 7650SOL    HW134409   4.191   2.929  15.628  0.9750 -0.4939  2.0882
 7650SOL    HW234410   4.135   3.061  15.605  4.1923  0.8863 -0.1297
 7651SOL     OW34411   2.693   0.869   3.196 -0.3991  0.0136 -0.2379
 7651SOL    HW134412   2.598   0.877   3.183 -0.8134  0.6337  3.2337
 7651SOL    HW234413   2.709   0.775   3.186 -0.8359 -0.0010 -0.8398
 7652SOL     OW34414   3.852   1.417  16.915  0.7426  0.2706  0.1849
 7652SOL    HW134415   3.771   1.469  16.916  1.0699  0.8543 -3.4591
 7652SOL    HW234416   3.815   1.339  16.873  0.1637  0.9425 -0.5504
 7653SOL     OW34417   2.544   2.421   2.336 -0.3281  0.6692  0.0404
 7653SOL    HW134418   2.530   2.327   2.331  1.0037  0.4247  1.0918
 7653SOL    HW234419   2.499   2.448   2.417 -0.8143  0.9068 -0.3101
 7654SOL     OW34420   1.638   3.704   6.219  0.7074  0.2861 -0.0869
 7654SOL    HW134421   1.724   3.682   6.255  0.6398 -0.8405 -0.5977
 7654SOL    HW234422   1.641   3.789   6.175 -3.3863  1.4664  1.9365
 7655SOL     OW34423   2.541   2.685  14.265  0.0768 -0.0682 -0.3890
 7655SOL    HW134424   2.562   2.615  14.203 -1.0646 -0.8859  0.1578
 7655SOL    HW234425   2.451   2.670  14.293 -0.5467  3.7195 -0.2762
 7656SOL     OW34426   3.539   2.744  17.645 -0.0946  0.8076 -0.1148
 7656SOL    HW134427   3.604   2.776   0.015  0.1519 -1.3970  0.8025
 7656SOL    HW234428   3.459   2.787  17.675 -0.7915  0.7369 -1.9047
 7657SOL     OW34429   2.952   2.039   2.084 -0.0917  0.1146  0.2869
 7657SOL    HW134430   3.013   2.060   2.154  1.4179  0.5214 -1.1455
 7657SOL    HW234431   2.865   2.057   2.119  0.1552 -0.6463  1.3026
 7658SOL     OW34432   2.190   1.502   8.884 -0.5023  0.5131  0.0618
 7658SOL    HW134433   2.136   1.452   8.822 -3.1363  2.7431  0.5616
 7658SOL    HW234434   2.213   1.429   8.942 -0.7520 -0.2297 -0.7729
 7659SOL     OW34435   1.151   1.403  17.389  0.2974 -0.0186 -0.6356
 7659SOL    HW134436   1.101   1.468  17.438 -0.3250 -0.8295 -0.1897
 7659SOL    HW234437   1.227   1.406  17.446 -1.5714 -0.6024  1.8767
 7660SOL     OW34438   4.145   4.485   3.141  0.8231  0.0606 -0.2744
 7660SOL    HW134439   4.145   4.419   3.072  1.3191  0.3340 -0.5366
 7660SOL    HW234440   4.059   4.458   3.172  0.8177  2.2121  1.5998
 7661SOL     OW34441   4.281   0.748  14.416  1.0531  0.0448  0.0175
 7661SOL    HW134442   4.256   0.778  14.504  1.5951 -0.2730  0.2729
 7661SOL    HW234443   4.376   0.739  14.425  0.8847 -1.5345  0.2106
 7662SOL     OW34444   0.648   0.219   8.149 -0.0120  0.2768 -0.1319
 7662SOL    HW134445   0.660   0.314   8.142  1.0437  0.0726 -0.9748
 7662SOL    HW234446   0.593   0.217   8.227 -0.3716 -0.4146 -0.4074
 7663SOL     OW34447   2.876   0.395   2.316 -0.3231  0.2293 -0.0126
 7663SOL    HW134448   2.787   0.423   2.297 -0.7904 -0.6248  0.9304
 7663SOL    HW234449   2.859   0.357   2.402 -1.1493 -1.7076 -1.0400
 7664SOL     OW34450   0.962   1.706   5.866  0.2506  0.0308 -0.9650
 7664SOL    HW134451   1.037   1.731   5.919  0.0019 -0.3605 -0.4288
 7664SOL    HW234452   0.889   1.753   5.906  0.8298  0.2701 -0.1791
 7665SOL     OW34453   3.938   1.052   3.701 -0.4772 -0.0281 -0.2715
 7665SOL    HW134454   4.010   1.114   3.687  1.1014 -2.0653 -1.2013
 7665SOL    HW234455   3.887   1.088   3.773  1.0165  0.6431  0.4546
 7666SOL     OW34456   0.566   2.539   4.529  0.2516 -0.2408 -0.2502
 7666SOL    HW134457   0.545   2.498   4.613 -0.4810 -1.2409 -0.9287
 7666SOL    HW234458   0.501   2.494   4.475  1.7114 -1.1664 -1.2310
 7667SOL     OW34459   3.400   4.205   7.139 -0.2407 -0.3333  1.0755
 7667SOL    HW134460   3.362   4.268   7.077  0.1790 -0.2629  0.8895
 7667SOL    HW234461   3.430   4.134   7.082  2.2593  2.5523 -1.2265
 7668SOL     OW34462   3.163   2.608  15.293  0.2659 -0.1185 -0.1494
 7668SOL    HW134463   3.131   2.652  15.214 -0.7337 -1.8309 -0.7097
 7668SOL    HW234464   3.250   2.644  15.309  1.5404 -2.3488 -1.9245
 7669SOL     OW34465   0.172   3.543   9.033 -0.3083 -0.0198  0.1949
 7669SOL    HW134466   0.230   3.619   9.045  1.3106 -1.1764 -0.2909
 7669SOL    HW234467   0.229   3.486   9.085  1.3036  0.0292 -1.5072
 7670SOL     OW34468   4.050   3.596  11.404 -0.3664  0.3834  0.1740
 7670SOL    HW134469   3.972   3.595  11.460 -1.7893 -1.0783 -1.8514
 7670SOL    HW234470   4.111   3.559  11.468  0.4425  2.3773  0.5467
 7671SOL     OW34471   0.233   0.079   8.428 -0.5701 -0.2955  0.1674
 7671SOL    HW134472   0.169   0.085   8.499 -1.0545 -1.3618 -0.1855
 7671SOL    HW234473   0.264   4.713   8.442  0.9801  0.2497  0.1838
 7672SOL     OW34474   1.558   3.705   3.987 -0.2066 -0.2586 -0.4724
 7672SOL    HW134475   1.552   3.731   4.079 -0.6185  0.7139 -0.7808
 7672SOL    HW234476   1.491   3.759   3.947 -0.9152 -0.4549  0.4539
 7673SOL     OW34477   2.099   0.361   3.090 -0.3483 -0.0880  0.1039
 7673SOL    HW134478   2.027   0.314   3.133  0.3874  0.3084  1.7479
 7673SOL    HW234479   2.062   0.383   3.005 -0.3303  2.0223  0.6519
 7674SOL     OW34480   2.357   0.189   2.600 -0.4567  0.4050  0.1699
 7674SOL    HW134481   2.289   0.214   2.538 -0.0094  0.9667 -0.1009
 7674SOL    HW234482   2.373   0.265   2.655 -1.6507 -2.7786  4.9071
 7675SOL     OW34483   1.622   2.060   1.497  0.7249 -0.5472  0.1773
 7675SOL    HW134484   1.561   1.986   1.504 -0.3086  0.4435  1.7527
 7675SOL    HW234485   1.630   2.089   1.588 -0.6152 -4.3011  1.5084
 7676SOL     OW34486   2.951   1.083  11.888  0.0950  0.5827 -0.0553
 7676SOL    HW134487   2.858   1.061  11.888  0.2005  0.1452 -1.8153
 7676SOL    HW234488   2.955   1.179  11.897 -1.8984  0.4094  2.6007
 7677SOL     OW34489   0.496   1.920   3.330 -0.4062 -0.4504  0.2103
 7677SOL    HW134490   0.421   1.936   3.274  0.3563  0.8000 -0.4515
 7677SOL    HW234491   0.554   1.864   3.278 -0.1030 -2.1675  2.3625
 7678SOL     OW34492   1.299   3.545   3.204 -0.1773 -0.4447  0.0642
 7678SOL    HW134493   1.366   3.562   3.137  1.0535 -0.8335  1.2020
 7678SOL    HW234494   1.282   3.454   3.179  0.4269  0.3102 -3.1908
 7679SOL     OW34495   2.054   4.065   8.547 -0.3653 -0.1197 -0.4248
 7679SOL    HW134496   2.086   4.024   8.466  1.9237 -0.6786  0.7713
 7679SOL    HW234497   2.138   4.089   8.587 -0.8228 -0.2645  0.6112
 7680SOL     OW34498   4.267   3.876  14.374  0.1368 -0.0966 -0.1686
 7680SOL    HW134499   4.193   3.885  14.434  0.8854  2.6040  0.3416
 7680SOL    HW234500   4.327   3.934  14.419  2.3525 -1.6488 -1.1331
 7681SOL     OW34501   3.088   3.857  16.097 -0.0631  0.5081  0.1346
 7681SOL    HW134502   2.995   3.844  16.118 -0.9739  0.4939 -3.7220
 7681SOL    HW234503   3.092   3.949  16.122 -3.0116  0.6708  0.0038
 7682SOL     OW34504   3.062   3.782   5.562 -0.0742  0.4866  0.0460
 7682SOL    HW134505   3.146   3.815   5.595 -0.7115  0.9224  1.2584
 7682SOL    HW234506   3.034   3.720   5.630 -0.4826 -1.7998 -2.2388
 7683SOL     OW34507   1.278   3.747   4.145 -0.2742  0.2961  0.0620
 7683SOL    HW134508   1.294   3.658   4.177 -0.0806  0.5923  0.7925
 7683SOL    HW234509   1.230   3.784   4.219 -1.7567 -1.5501  0.0156
 7684SOL     OW34510   0.444   1.760   4.740  0.2575  0.0587 -0.1597
 7684SOL    HW134511   0.395   1.705   4.679 -1.0800  0.2204  0.7600
 7684SOL    HW234512   0.448   1.696   4.812  0.6877  1.6883  1.2865
 7685SOL     OW34513   1.189   1.674   2.594 -0.6198 -0.4323  0.2938
 7685SOL    HW134514   1.213   1.711   2.509 -0.5714 -0.6935  0.1959
 7685SOL    HW234515   1.243   1.728   2.651 -0.0736 -1.6987  0.9677
 7686SOL     OW34516   3.543   1.714   9.416 -0.7034  0.4639  0.8660
 7686SOL    HW134517   3.511   1.796   9.378  2.5409  1.3083 -0.0392
 7686SOL    HW234518   3.637   1.714   9.400 -0.4106  1.0591  2.5856
 7687SOL     OW34519   4.675   1.491   2.004  0.3824  0.5805  0.6321
 7687SOL    HW134520   4.609   1.437   2.048 -0.5851  0.0427 -1.4676
 7687SOL    HW234521   4.641   1.578   2.025  1.1552  0.4644  2.3432
 7688SOL     OW34522   0.707   0.487  10.506 -0.8670  0.2613 -0.3188
 7688SOL    HW134523   0.638   0.457  10.447 -1.2073  1.4552 -0.5156
 7688SOL    HW234524   0.775   0.507  10.442 -0.8150 -0.4254 -0.4836
 7689SOL     OW34525   1.566   3.465  11.247  0.0535  0.3772 -0.3645
 7689SOL    HW134526   1.609   3.474  11.163 -1.2091  1.3871 -0.8984
 7689SOL    HW234527   1.495   3.407  11.219 -0.2975  0.6892 -0.1262
 7690SOL     OW34528   1.144   0.128   1.705  0.1492 -0.6120 -0.0224
 7690SOL    HW134529   1.209   0.120   1.635  0.0327  1.9893 -0.4386
 7690SOL    HW234530   1.093   0.047   1.700 -0.4688 -0.2538  0.4089
 7691SOL     OW34531   0.485   3.228   5.699 -0.2755 -0.1732 -0.5011
 7691SOL    HW134532   0.479   3.177   5.779 -2.3333  0.4856 -0.2178
 7691SOL    HW234533   0.425   3.190   5.635 -1.5236 -0.9594  1.1512
 7692SOL     OW34534   2.004   0.738   6.138 -0.1576 -0.6808  0.1618
 7692SOL    HW134535   2.006   0.642   6.128  2.2415 -0.9281  3.1756
 7692SOL    HW234536   1.922   0.755   6.090 -0.5672  0.9690  1.4380
 7693SOL     OW34537   3.784   1.571  14.624  0.3725 -0.2878 -0.3357
 7693SOL    HW134538   3.774   1.478  14.644 -2.7393  0.2309  0.6461
 7693SOL    HW234539   3.742   1.606  14.703  0.9329  0.3687 -0.3314
 7694SOL     OW34540   3.519   3.299   2.503 -0.2674  0.3179 -0.8975
 7694SOL    HW134541   3.476   3.362   2.446  2.0971  1.0820 -1.8375
 7694SOL    HW234542   3.608   3.333   2.501 -0.0726 -0.1624 -0.3865
 7695SOL     OW34543   1.501   3.841   5.785  0.1149 -0.0931  0.2787
 7695SOL    HW134544   1.473   3.913   5.842 -0.6409  0.8055 -1.2371
 7695SOL    HW234545   1.438   3.774   5.811  1.8715 -1.4445  1.0013
 7696SOL     OW34546   1.469   0.772  11.880  0.3532  0.7345  0.0529
 7696SOL    HW134547   1.379   0.748  11.860  1.0018 -0.3317 -1.5257
 7696SOL    HW234548   1.461   0.855  11.927 -1.3132  2.3158 -3.0084
 7697SOL     OW34549   4.076   1.620   7.655 -0.1976 -0.8758  0.1967
 7697SOL    HW134550   4.144   1.582   7.711 -0.5654 -0.4137  0.9609
 7697SOL    HW234551   4.057   1.705   7.694 -0.2119 -0.7282 -0.1305
 7698SOL     OW34552   1.161   3.627   1.083  0.2923  0.3851 -0.7431
 7698SOL    HW134553   1.201   3.579   1.156  0.1948  1.2543 -0.1142
 7698SOL    HW234554   1.158   3.559   1.017  4.2898 -0.1269 -0.4119
 7699SOL     OW34555   4.119   1.558   4.908 -0.3485 -0.6480  0.7589
 7699SOL    HW134556   4.113   1.607   4.990 -0.4071 -1.6678  1.3658
 7699SOL    HW234557   4.202   1.585   4.868 -0.5390 -0.9720  0.1438
 7700SOL     OW34558   2.623   0.944   1.995 -0.0305 -0.0681  0.4476
 7700SOL    HW134559   2.637   0.869   1.938  1.6023  0.0480  0.7086
 7700SOL    HW234560   2.619   1.018   1.934  0.9222 -0.4694 -0.0862
 7701SOL     OW34561   1.511   3.652  11.748 -0.5626 -0.5587  0.1775
 7701SOL    HW134562   1.472   3.572  11.713  1.5183 -1.4252 -0.1527
 7701SOL    HW234563   1.596   3.669  11.706  0.2779  0.4698  2.2717
 7702SOL     OW34564   4.529   3.166  11.350  0.4845  0.0781 -0.6666
 7702SOL    HW134565   4.513   3.259  11.332  1.5910  0.4376  0.2246
 7702SOL    HW234566   4.614   3.151  11.308 -0.8001 -1.5105 -2.6747
 7703SOL     OW34567   3.328   1.894   2.719 -0.9085  0.2949 -0.3609
 7703SOL    HW134568   3.348   1.866   2.630 -1.6296 -0.9742 -0.1285
 7703SOL    HW234569   3.412   1.927   2.751 -2.3630  0.6632  3.1582
 7704SOL     OW34570   4.248   2.308   6.500  0.7072 -0.3068  0.1155
 7704SOL    HW134571   4.284   2.393   6.523 -0.0036  0.2139 -0.7002
 7704SOL    HW234572   4.317   2.248   6.528 -0.1101 -1.2524  0.1052
 7705SOL     OW34573   4.182   4.440  10.141 -0.2806  0.5647 -0.0203
 7705SOL    HW134574   4.150   4.497  10.072 -0.9323  0.2106 -0.0054
 7705SOL    HW234575   4.165   4.356  10.099 -0.3493  0.4721  0.1900
 7706SOL     OW34576   3.591   4.080   8.378  0.0133  0.2446  0.3798
 7706SOL    HW134577   3.500   4.096   8.354  0.1061 -2.0990 -1.4655
 7706SOL    HW234578   3.572   4.021   8.451  1.1115 -0.4988  0.0606
 7707SOL     OW34579   1.443   2.989   6.925 -0.1062 -0.3218  0.4512
 7707SOL    HW134580   1.366   3.042   6.943 -0.5058 -0.8486  0.3130
 7707SOL    HW234581   1.455   2.932   7.001  0.9213 -0.9910 -0.2107
 7708SOL     OW34582   3.577   2.674   6.940 -0.1894  0.3669 -0.5713
 7708SOL    HW134583   3.526   2.645   6.864  0.5110  2.6339 -1.9001
 7708SOL    HW234584   3.666   2.681   6.906 -0.4245  1.2710 -0.9861
 7709SOL     OW34585   3.592   3.030   6.633  0.0281  0.3662 -1.0100
 7709SOL    HW134586   3.623   3.092   6.568  0.7625  2.6189  1.4906
 7709SOL    HW234587   3.643   2.957   6.596 -0.6745 -0.3524 -0.5601
 7710SOL     OW34588   3.361   2.111   4.959  0.1977  0.3042 -0.9726
 7710SOL    HW134589   3.267   2.095   4.961  0.0220  1.2376 -1.9787
 7710SOL    HW234590   3.360   2.146   4.870 -0.9936  2.0720 -0.2505
 7711SOL     OW34591   4.100   4.107   7.012  0.2336 -0.2035 -0.2195
 7711SOL    HW134592   4.014   4.085   7.048 -0.7541  2.1519 -1.1373
 7711SOL    HW234593   4.090   4.103   6.917 -0.5087 -0.4053 -0.1249
 7712SOL     OW34594   0.211   4.600   6.881 -0.3253 -0.1211  0.0482
 7712SOL    HW134595   0.268   4.594   6.958  0.5741  0.8007 -0.5404
 7712SOL    HW234596   0.144   4.532   6.882  0.4019 -0.7771  4.4289
 7713SOL     OW34597   1.809   4.165  13.719 -0.0179 -0.1453  0.1498
 7713SOL    HW134598   1.894   4.206  13.709 -0.2398  0.4549  0.7160
 7713SOL    HW234599   1.827   4.074  13.695  0.5066  0.3247 -1.1832
 7714SOL     OW34600   1.159   3.309   1.645  0.1002 -0.1765 -0.2412
 7714SOL    HW134601   1.064   3.307   1.644  0.0934 -0.9292  1.0748
 7714SOL    HW234602   1.180   3.385   1.591 -1.8216  0.9848  0.6720
 7715SOL     OW34603   2.806   2.020   7.061 -0.5634  0.4543  0.1274
 7715SOL    HW134604   2.851   2.025   6.977 -0.8630  0.8198 -0.0123
 7715SOL    HW234605   2.748   1.948   7.038 -2.6635  2.5471 -1.1748
 7716SOL     OW34606   0.272   3.109   5.582 -0.3249  0.3514 -0.1618
 7716SOL    HW134607   0.265   3.146   5.494 -1.7753 -0.7063 -0.4892
 7716SOL    HW234608   0.250   3.018   5.563  0.1931 -0.0381  1.0509
 7717SOL     OW34609   3.569   0.900   1.445  0.2178  0.2510  0.0116
 7717SOL    HW134610   3.553   0.854   1.363  1.1714 -1.5361  0.8068
 7717SOL    HW234611   3.620   0.832   1.491  1.2344  0.6007 -0.6061
 7718SOL     OW34612   1.197   1.877   5.406  0.1707 -0.0181  0.1645
 7718SOL    HW134613   1.106   1.904   5.391  0.9288  1.3553 -1.9318
 7718SOL    HW234614   1.197   1.816   5.480  0.6712  1.7795  1.6405
 7719SOL     OW34615   4.021   2.197   6.603 -0.1057 -0.3616 -0.0174
 7719SOL    HW134616   4.106   2.220   6.564  0.9525 -2.0072  1.3180
 7719SOL    HW234617   4.038   2.112   6.644  1.1049 -0.8199 -1.4473
 7720SOL     OW34618   1.691   1.030   7.889  0.6760 -0.6540  0.2203
 7720SOL    HW134619   1.642   1.108   7.915  1.2619 -0.1027 -0.3430
 7720SOL    HW234620   1.653   0.965   7.948 -1.9115 -0.0896 -0.8295
 7721SOL     OW34621   3.550   0.954  13.824 -0.3452 -0.5635 -0.4228
 7721SOL    HW134622   3.563   0.878  13.881 -1.5105 -0.8177 -0.4949
 7721SOL    HW234623   3.573   1.028  13.880  0.6743 -1.3338  0.1801
 7722SOL     OW34624   1.861   2.476   2.357 -0.6424 -0.4249  0.7733
 7722SOL    HW134625   1.939   2.466   2.302 -0.6144  0.0985  0.7181
 7722SOL    HW234626   1.896   2.506   2.441 -0.1764 -0.5015  0.6054
 7723SOL     OW34627   2.523   2.794   7.294 -0.6410 -0.1609  0.0539
 7723SOL    HW134628   2.555   2.884   7.294  2.6558 -1.3217 -0.6687
 7723SOL    HW234629   2.600   2.739   7.309 -0.6894 -0.0205  0.8041
 7724SOL     OW34630   2.916   1.106   7.925 -0.0906  0.3702  0.5752
 7724SOL    HW134631   2.939   1.130   8.015  0.7782 -1.3973  0.8266
 7724SOL    HW234632   2.844   1.044   7.940  0.4845 -0.2835  0.6068
 7725SOL     OW34633   1.097   3.549   7.483  0.4611 -0.1685 -0.0650
 7725SOL    HW134634   1.127   3.635   7.452 -1.4120  0.9516  1.2228
 7725SOL    HW234635   1.003   3.564   7.491  0.7916  1.3654  0.9995
 7726SOL     OW34636   1.397   4.571   3.258 -0.6074 -0.1972 -0.1315
 7726SOL    HW134637   1.347   4.494   3.286 -1.0732  0.4027  0.6929
 7726SOL    HW234638   1.462   4.515   3.215 -1.9105 -0.7987 -1.3283
 7727SOL     OW34639   1.556   1.064   6.299 -0.1918 -0.0379 -0.0106
 7727SOL    HW134640   1.465   1.094   6.294  0.1355  1.2758  1.7804
 7727SOL    HW234641   1.578   1.053   6.392  1.9447 -3.5371 -0.9338
 7728SOL     OW34642   0.135   2.184   4.922 -0.2787 -0.1174  0.3320
 7728SOL    HW134643   0.093   2.269   4.917 -0.6967 -0.2298  1.7607
 7728SOL    HW234644   0.219   2.222   4.948  0.8377 -3.2154  1.2834
 7729SOL     OW34645   3.267   4.116   6.870  0.0662 -0.2751  0.0353
 7729SOL    HW134646   3.215   4.056   6.923  2.0199 -0.8936  1.2554
 7729SOL    HW234647   3.252   4.199   6.916 -2.0821 -0.8150  0.3191
 7730SOL     OW34648   2.665   3.820  15.639 -0.0065  0.3392 -0.7408
 7730SOL    HW134649   2.610   3.843  15.564 -0.2643  1.0052 -0.3440
 7730SOL    HW234650   2.757   3.832  15.617  0.1560 -0.4015 -0.4576
 7731SOL     OW34651   1.227   4.311   1.686 -0.3103 -0.3525 -0.0595
 7731SOL    HW134652   1.247   4.299   1.593  1.9690  0.4471  0.3400
 7731SOL    HW234653   1.235   4.405   1.703 -1.1950 -0.3267  0.2232
 7732SOL     OW34654   4.209   1.174   4.193  0.5013 -0.4593 -0.0710
 7732SOL    HW134655   4.207   1.112   4.120 -2.6106 -0.6074  0.1417
 7732SOL    HW234656   4.157   1.248   4.161  0.1686 -0.4437  0.5118
 7733SOL     OW34657   0.275   1.923   4.539  0.0101  0.5573 -0.0257
 7733SOL    HW134658   0.356   1.872   4.532  1.4800  3.1126 -1.4811
 7733SOL    HW234659   0.199   1.870   4.514 -0.0050  0.1187  0.9306
 7734SOL     OW34660   1.855   1.918   1.894 -0.1703  0.5357  0.0095
 7734SOL    HW134661   1.817   2.004   1.875  0.2235  0.4036 -1.4053
 7734SOL    HW234662   1.797   1.899   1.968  1.3878 -0.9085  0.8437
 7735SOL     OW34663   3.092   0.538   3.179 -0.1271 -0.3489  0.4731
 7735SOL    HW134664   3.020   0.502   3.230 -1.0403 -1.0913 -1.3401
 7735SOL    HW234665   3.124   0.581   3.258 -3.7010  1.0081  1.1846
 7736SOL     OW34666   3.784   0.055   6.802  0.1424  0.6084  0.0800
 7736SOL    HW134667   3.847   0.112   6.847  0.4779 -0.8051  1.3948
 7736SOL    HW234668   3.700   0.084   6.838 -0.0677  0.0964  0.0031
 7737SOL     OW34669   4.683   2.152   7.462  0.0037 -0.0906 -0.8010
 7737SOL    HW134670   4.596   2.177   7.430 -0.6806 -2.9885 -1.2634
 7737SOL    HW234671   4.721   2.232   7.498 -1.6442  0.2937  0.1085
 7738SOL     OW34672   2.446   0.399   3.039  0.9041 -0.2711 -0.1430
 7738SOL    HW134673   2.474   0.323   3.091  0.5069 -1.8134 -2.2192
 7738SOL    HW234674   2.419   0.453   3.114  1.2028 -0.6528  0.2429
 7739SOL     OW34675   0.826   0.138   2.295 -0.1369 -0.4184 -0.3828
 7739SOL    HW134676   0.783   0.132   2.380  1.7774  0.3962  0.6185
 7739SOL    HW234677   0.793   0.220   2.258 -0.2138  1.8705  4.8351
 7740SOL     OW34678   2.854   3.870   7.785 -0.4280  0.1169 -0.0565
 7740SOL    HW134679   2.908   3.791   7.792  0.3401  0.4300 -2.5715
 7740SOL    HW234680   2.838   3.876   7.691 -0.5688 -0.6900 -0.0841
 7741SOL     OW34681   2.623   3.839  15.203 -0.0511  0.3731  0.3753
 7741SOL    HW134682   2.649   3.886  15.124 -3.7263  0.7570 -0.6112
 7741SOL    HW234683   2.589   3.757  15.166 -1.5633  1.1713  0.0072
 7742SOL     OW34684   0.133   2.583   4.795  0.1131  0.4426 -0.1139
 7742SOL    HW134685   0.113   2.527   4.870  0.7471  4.4415  3.0456
 7742SOL    HW234686   0.200   2.641   4.831  2.1555 -0.6877 -2.1090
 7743SOL     OW34687   2.440   0.867  12.007  0.8617  0.0336 -0.0769
 7743SOL    HW134688   2.377   0.811  12.052  0.3776 -0.3367 -1.2040
 7743SOL    HW234689   2.402   0.877  11.920 -0.1201  0.1439  0.3576
 7744SOL     OW34690   3.117   3.150   9.923  0.2650  0.6222 -0.4249
 7744SOL    HW134691   3.104   3.074   9.979 -1.6289 -0.7126 -2.7029
 7744SOL    HW234692   3.089   3.123   9.835  2.8590  0.3930 -1.1886
 7745SOL     OW34693   3.465   2.412   4.251 -0.2396  0.5088  0.2500
 7745SOL    HW134694   3.405   2.440   4.182  0.6004 -0.6699 -0.9561
 7745SOL    HW234695   3.531   2.480   4.236  0.8787 -1.0216 -1.8241
 7746SOL     OW34696   1.207   0.238   3.238  0.0965  0.8933 -0.8288
 7746SOL    HW134697   1.264   0.273   3.169 -1.7893  1.8033 -1.9214
 7746SOL    HW234698   1.273   0.190   3.288  0.2774  2.4641  0.4321
 7747SOL     OW34699   0.640   2.007   8.622 -0.0567 -0.1378  0.2712
 7747SOL    HW134700   0.585   2.018   8.544  1.2492 -1.7486 -0.8794
 7747SOL    HW234701   0.634   2.090   8.670  4.1161  0.9141 -0.9969
 7748SOL     OW34702   2.939   0.615   1.118  0.0694  0.8898 -0.5264
 7748SOL    HW134703   3.015   0.638   1.173  0.4652 -0.3148 -0.5808
 7748SOL    HW234704   2.868   0.642   1.176 -0.3162  0.0667 -0.6247
 7749SOL     OW34705   0.082   0.484   2.021 -0.1443 -0.4141  0.8283
 7749SOL    HW134706   0.079   0.409   2.079  2.3231 -0.2353  1.2028
 7749SOL    HW234707   4.716   0.519   2.022  0.0269 -0.0203  2.1830
 7750SOL     OW34708   1.791   0.534   3.959 -0.2531  0.4084  0.0321
 7750SOL    HW134709   1.738   0.539   4.038  0.5133 -1.8302  0.6849
 7750SOL    HW234710   1.829   0.618   3.986  0.4959 -0.3545  1.3178
 7751SOL     OW34711   4.552   4.646   1.825  0.6775 -0.4407  0.5192
 7751SOL    HW134712   4.561   0.013   1.858  0.0973 -0.0406 -0.3926
 7751SOL    HW234713   4.464   4.647   1.787  1.4237 -1.4797 -1.2425
 7752SOL     OW34714   1.581   1.834   7.279  0.4179 -0.0743 -0.0280
 7752SOL    HW134715   1.576   1.739   7.278 -0.7214 -0.0157 -0.5042
 7752SOL    HW234716   1.495   1.835   7.238 -0.7428  0.7754  2.4275
 7753SOL     OW34717   3.388   4.346   3.682  0.1810 -0.3699 -0.0152
 7753SOL    HW134718   3.346   4.415   3.733  0.7913 -0.9034  1.2302
 7753SOL    HW234719   3.430   4.297   3.753 -0.4121 -0.8668 -0.0127
 7754SOL     OW34720   1.077   4.187   8.173 -0.2625  0.2574 -0.1458
 7754SOL    HW134721   1.100   4.114   8.230  1.1290 -0.0370 -1.0681
 7754SOL    HW234722   1.150   4.191   8.111  0.5813  1.1569  0.8923
 7755SOL     OW34723   1.878   3.158   0.731  0.3628 -0.3084  0.1853
 7755SOL    HW134724   1.928   3.185   0.654 -1.5573 -0.4655 -1.0949
 7755SOL    HW234725   1.805   3.219   0.730  0.0498 -0.6332  2.1006
 7756SOL     OW34726   2.359   0.289  13.248 -0.1619  0.2890  0.0727
 7756SOL    HW134727   2.406   0.282  13.331  0.3970 -1.0346 -0.3596
 7756SOL    HW234728   2.306   0.210  13.243 -0.3121  0.1593  3.6044
 7757SOL     OW34729   2.767   1.501   5.899 -0.0985 -0.3158  0.0812
 7757SOL    HW134730   2.682   1.464   5.924 -1.2216  0.2475 -2.8733
 7757SOL    HW234731   2.737   1.541   5.817 -0.6486 -4.1093 -1.5734
 7758SOL     OW34732   3.860   3.412   4.403 -0.3182 -0.5737 -0.0807
 7758SOL    HW134733   3.795   3.426   4.333  0.5283 -0.1101 -0.7692
 7758SOL    HW234734   3.901   3.331   4.375 -0.0533 -0.4446 -0.0627
 7759SOL     OW34735   0.199   2.002   3.311  0.2404 -0.1017 -0.2402
 7759SOL    HW134736   0.257   2.062   3.266  0.3858 -1.0619 -1.3251
 7759SOL    HW234737   0.110   2.028   3.289 -0.9411  0.2201  4.7655
 7760SOL     OW34738   2.813   0.450   3.367 -0.0507  0.1617 -0.3182
 7760SOL    HW134739   2.735   0.394   3.366 -0.8652  1.3091 -0.3046
 7760SOL    HW234740   2.792   0.498   3.447 -1.6830 -1.5477  0.2845
 7761SOL     OW34741   3.368   0.167   7.222  0.0368 -0.2193  0.2080
 7761SOL    HW134742   3.432   0.178   7.292  0.0640 -0.8923  0.2898
 7761SOL    HW234743   3.285   0.139   7.261  1.3435 -1.6637  1.9609
 7762SOL     OW34744   4.171   0.188   5.457 -0.2430 -0.0908 -0.1526
 7762SOL    HW134745   4.096   0.180   5.516  0.0339 -1.7912 -0.0148
 7762SOL    HW234746   4.221   0.108   5.475 -2.1151 -1.0591  0.7028
 7763SOL     OW34747   0.364   4.215   4.186  0.2091  0.5022  0.0566
 7763SOL    HW134748   0.304   4.159   4.137 -0.9315  2.4398 -0.7499
 7763SOL    HW234749   0.370   4.171   4.271 -1.7198 -1.3574 -0.7590
 7764SOL     OW34750   3.102   2.591   4.677 -0.5262  0.5210 -0.0373
 7764SOL    HW134751   3.047   2.669   4.676  0.8015  1.4578 -0.5456
 7764SOL    HW234752   3.083   2.554   4.591 -2.0054  2.8883 -0.7278
 7765SOL     OW34753   0.788   3.901   4.128  0.1587 -0.0043  0.2245
 7765SOL    HW134754   0.826   3.903   4.040 -1.4598  1.8784 -0.4306
 7765SOL    HW234755   0.707   3.855   4.107  1.4621 -2.5704  0.8222
 7766SOL     OW34756   4.282   2.095   0.912 -0.5623 -0.1672 -0.4967
 7766SOL    HW134757   4.238   2.084   0.828  1.4576  0.0132 -1.5859
 7766SOL    HW234758   4.219   2.069   0.978  0.9564  0.2375  1.1167
 7767SOL     OW34759   2.120   2.310   5.464  0.3365 -0.0702 -0.2967
 7767SOL    HW134760   2.194   2.324   5.524 -0.0374  0.1741  0.1078
 7767SOL    HW234761   2.079   2.234   5.504 -1.6425  0.6955 -0.8634
 7768SOL     OW34762   3.339   0.754   5.052  0.0096 -0.2128 -0.6707
 7768SOL    HW134763   3.314   0.844   5.069 -2.2289 -0.8612 -0.5520
 7768SOL    HW234764   3.404   0.769   4.983  1.5644 -0.5048  0.7271
 7769SOL     OW34765   1.255   1.004   7.391 -0.0581  0.0845  0.2865
 7769SOL    HW134766   1.182   0.966   7.439  0.6709 -1.1812  0.3834
 7769SOL    HW234767   1.333   0.959   7.424  1.8783  3.0317 -0.2123
 7770SOL     OW34768   2.921   0.718   8.207 -0.1084 -0.1377  0.2623
 7770SOL    HW134769   2.889   0.632   8.236  0.0877 -0.3273 -0.0735
 7770SOL    HW234770   2.928   0.762   8.291 -0.8128 -1.4404  0.9973
 7771SOL     OW34771   3.096   1.286   1.143  0.7753 -0.5454  0.1848
 7771SOL    HW134772   3.037   1.211   1.153  1.8205 -1.4799 -0.5627
 7771SOL    HW234773   3.064   1.348   1.208  1.5609  0.9041 -0.8155
 7772SOL     OW34774   4.530   4.155  11.603 -0.3378  0.4480 -0.0086
 7772SOL    HW134775   4.520   4.237  11.554 -0.9534  0.4971  0.1886
 7772SOL    HW234776   4.448   4.145  11.652 -0.2963 -2.2132 -0.5138
 7773SOL     OW34777   0.963   3.008   0.684  0.2746 -0.3332  0.4245
 7773SOL    HW134778   0.987   2.960   0.763 -1.8591 -2.5185 -0.2426
 7773SOL    HW234779   0.912   3.080   0.721 -0.0956  0.7354 -2.1953
 7774SOL     OW34780   3.879   1.313   7.742 -0.2668 -0.5034  0.0237
 7774SOL    HW134781   3.787   1.331   7.761 -0.7036 -2.4003 -0.3410
 7774SOL    HW234782   3.867   1.226   7.703  1.3590 -0.1640 -1.2578
 7775SOL     OW34783   1.191   1.940   7.597 -0.1873 -0.0789  0.4530
 7775SOL    HW134784   1.277   1.969   7.627  0.5191 -2.1726  0.4944
 7775SOL    HW234785   1.214   1.861   7.547  0.9143  0.3016  0.3751
 7776SOL     OW34786   2.061   4.269  13.707 -0.2510  0.6161  0.6055
 7776SOL    HW134787   2.047   4.275  13.613  0.2273  2.7276  0.6842
 7776SOL    HW234788   2.134   4.330  13.714 -1.0131  1.5577  0.3150
 7777SOL     OW34789   3.039   4.224  10.729  0.1348 -0.1307 -0.0028
 7777SOL    HW134790   3.049   4.135  10.760 -2.0390 -0.1170  0.7312
 7777SOL    HW234791   2.971   4.216  10.661  0.0031 -0.5424  0.1788
 7778SOL     OW34792   2.311   4.470  12.286 -0.3479  0.8159  0.0546
 7778SOL    HW134793   2.295   4.437  12.198 -1.3072 -1.8808  1.2358
 7778SOL    HW234794   2.371   4.402  12.317 -1.8748 -0.4240  0.2493
 7779SOL     OW34795   1.877   1.134  12.780 -0.1181  0.2242  0.5415
 7779SOL    HW134796   1.798   1.079  12.778 -1.1406  1.6081  2.7635
 7779SOL    HW234797   1.944   1.084  12.735 -1.1249 -1.9789  1.4828
 7780SOL     OW34798   4.003   1.450  17.126  0.1940  0.1590  0.7045
 7780SOL    HW134799   3.969   1.537  17.147 -1.0910  0.2175 -1.6154
 7780SOL    HW234800   3.949   1.442  17.047  1.4857  1.6180 -0.3101
 7781SOL     OW34801   3.281   3.529   4.888 -0.2231 -0.0955  0.9679
 7781SOL    HW134802   3.200   3.534   4.939 -0.2530  0.5944  0.8588
 7781SOL    HW234803   3.335   3.487   4.955  0.7894 -0.4103 -0.0350
 7782SOL     OW34804   3.526   0.258   7.435  0.0406 -0.5990 -0.3255
 7782SOL    HW134805   3.475   0.257   7.516  3.4597 -0.1066  1.8492
 7782SOL    HW234806   3.520   0.351   7.412 -1.7052 -1.4218 -3.1092
 7783SOL     OW34807   1.829   0.237   4.504 -0.4559  0.3656 -0.3363
 7783SOL    HW134808   1.920   0.265   4.495  0.2296 -1.7350 -0.0826
 7783SOL    HW234809   1.795   0.297   4.570  0.0678 -0.2957  0.5414
 7784SOL     OW34810   3.919   2.184   4.629  0.2864 -0.0570 -0.2006
 7784SOL    HW134811   3.884   2.129   4.700  0.5555  0.8696  0.6565
 7784SOL    HW234812   4.003   2.141   4.616  0.3632  0.2957 -0.8573
 7785SOL     OW34813   4.306   1.000   2.548 -0.7212  0.3800  0.5563
 7785SOL    HW134814   4.246   0.974   2.478  1.8827  1.0484 -1.9447
 7785SOL    HW234815   4.247   1.067   2.581 -0.9161  0.2740  0.4248
 7786SOL     OW34816   0.648   1.060   1.138 -0.0504  0.5801 -0.1134
 7786SOL    HW134817   0.587   1.110   1.192 -2.2270 -0.7230 -1.3586
 7786SOL    HW234818   0.727   1.052   1.191 -0.7930  3.2142  1.4106
 7787SOL     OW34819   0.024   4.161   3.632 -0.0276 -0.9641 -0.3005
 7787SOL    HW134820   0.022   4.242   3.580 -2.3476 -0.2208  0.9271
 7787SOL    HW234821   0.085   4.191   3.699 -0.2030 -1.2752 -0.0066
 7788SOL     OW34822   2.955   1.253   5.571  0.6163 -0.4313  0.0632
 7788SOL    HW134823   2.941   1.311   5.496  2.6345 -0.7163 -0.5299
 7788SOL    HW234824   2.861   1.239   5.585  0.5076  1.4832  1.1668
 7789SOL     OW34825   1.237   2.784   8.536 -0.5668  0.7296 -0.1463
 7789SOL    HW134826   1.170   2.802   8.470 -1.4027  0.9161  0.7558
 7789SOL    HW234827   1.277   2.871   8.542  1.3437 -0.1988  0.5876
 7790SOL     OW34828   0.639   0.467   1.669  0.0190  0.0843 -0.1330
 7790SOL    HW134829   0.659   0.528   1.598 -2.6947  1.2030  0.0858
 7790SOL    HW234830   0.571   0.516   1.715 -1.3944  0.2979 -2.4502
 7791SOL     OW34831   2.605   3.886  14.447 -0.0804 -0.1869  0.1175
 7791SOL    HW134832   2.678   3.829  14.424 -0.0864 -0.3496  0.4923
 7791SOL    HW234833   2.653   3.963  14.478 -0.4669  0.1406 -0.0974
 7792SOL     OW34834   2.862   3.779   8.801 -0.4686  0.3120 -0.2030
 7792SOL    HW134835   2.809   3.846   8.844  0.7507  1.4485 -0.4415
 7792SOL    HW234836   2.792   3.740   8.750  0.7521 -0.8205 -1.0047
 7793SOL     OW34837   4.485   0.631   6.981 -0.2560 -0.1466  0.1690
 7793SOL    HW134838   4.425   0.698   7.012 -1.0385 -0.1269 -1.3519
 7793SOL    HW234839   4.571   0.652   7.018 -0.4564 -0.4091  0.7679
 7794SOL     OW34840   3.766   1.077  15.791  0.3782  0.4970 -0.0030
 7794SOL    HW134841   3.751   1.017  15.718  0.2305 -0.5568  0.9016
 7794SOL    HW234842   3.747   1.155  15.739  3.4667  0.4782 -1.1469
 7795SOL     OW34843   0.500   0.874   6.341 -0.4753  0.5325  0.5038
 7795SOL    HW134844   0.587   0.910   6.362 -1.7820  4.0604 -0.1647
 7795SOL    HW234845   0.498   0.870   6.246  0.8331  0.6284  0.4703
 7796SOL     OW34846   3.571   0.598   2.399 -0.3246 -0.1244  0.6410
 7796SOL    HW134847   3.632   0.553   2.458 -0.1122  1.1076  1.3491
 7796SOL    HW234848   3.590   0.690   2.415  0.6835 -0.4439  1.2862
 7797SOL     OW34849   2.148   1.796  10.875  0.1693  0.0611  0.4335
 7797SOL    HW134850   2.175   1.851  10.949  0.1685  2.7648 -1.5691
 7797SOL    HW234851   2.061   1.764  10.900 -0.3019 -0.3550 -1.8126
 7798SOL     OW34852   0.056   0.647  13.500  0.2589  0.1401 -0.0781
 7798SOL    HW134853   4.695   0.602  13.511  0.4190 -0.8747 -3.0842
 7798SOL    HW234854   0.104   0.587  13.443 -0.5841 -0.3420 -0.2754
 7799SOL     OW34855   1.412   3.588   9.953 -0.5167 -0.9212 -0.0481
 7799SOL    HW134856   1.461   3.506   9.945 -0.1590 -0.8824  1.8484
 7799SOL    HW234857   1.461   3.634  10.020 -1.5698 -1.6546  1.2304
 7800SOL     OW34858   2.414   3.528   3.059 -0.0394 -0.2741 -0.1980
 7800SOL    HW134859   2.337   3.472   3.060  0.3818 -0.8645 -0.4367
 7800SOL    HW234860   2.460   3.494   3.136  1.3236  0.5552 -0.6248
 7801SOL     OW34861   1.077   1.846   8.857 -0.2086  0.1230  0.3004
 7801SOL    HW134862   1.097   1.913   8.922 -0.5373  2.9936 -2.5666
 7801SOL    HW234863   0.981   1.839   8.859 -0.0765 -1.5323  0.6359
 7802SOL     OW34864   1.409   1.795   8.637 -0.4997 -0.0284  0.3639
 7802SOL    HW134865   1.347   1.804   8.709  1.0790  0.6129  1.6565
 7802SOL    HW234866   1.378   1.712   8.600  1.8286 -0.9440  0.4716
 7803SOL     OW34867   2.636   1.761   7.680 -0.4452  0.2778  0.0452
 7803SOL    HW134868   2.728   1.783   7.670 -0.5441  0.6599 -0.0397
 7803SOL    HW234869   2.628   1.700   7.607  2.5854 -1.8219  1.4540
 7804SOL     OW34870   1.108   3.594   6.922 -0.2473  0.4634 -0.4856
 7804SOL    HW134871   1.068   3.524   6.974  0.4121 -0.6547 -1.4824
 7804SOL    HW234872   1.040   3.655   6.896  1.0857  1.0586 -2.5423
 7805SOL     OW34873   2.102   4.567   4.611 -0.2685 -0.5525 -0.0848
 7805SOL    HW134874   2.106   4.582   4.517 -1.1293 -1.1248 -0.2135
 7805SOL    HW234875   2.193   4.588   4.631 -0.1115 -1.0984 -0.2362
 7806SOL     OW34876   3.759   1.171   9.265  0.1365 -0.1111  0.2044
 7806SOL    HW134877   3.823   1.212   9.323  0.0290 -0.2474  0.4155
 7806SOL    HW234878   3.795   1.082   9.264 -2.1701 -1.0235 -0.2100
 7807SOL     OW34879   1.178   0.153   2.847 -0.4161 -0.5633 -0.4231
 7807SOL    HW134880   1.262   0.106   2.846 -2.2948 -3.9735  1.3625
 7807SOL    HW234881   1.154   0.159   2.755 -1.9167  1.3858  0.0991
 7808SOL     OW34882   3.431   4.572  13.126 -0.1808  0.2936 -0.0307
 7808SOL    HW134883   3.405   4.490  13.085  3.9263 -1.7917  1.5938
 7808SOL    HW234884   3.366   4.635  13.095 -0.4587  0.8455  1.6357
 7809SOL     OW34885   0.338   3.689   7.387  0.4078  0.5326 -0.7560
 7809SOL    HW134886   0.416   3.738   7.415  0.4207  0.8650 -1.3665
 7809SOL    HW234887   0.384   3.607   7.369 -1.5187 -0.5572 -0.7350
 7810SOL     OW34888   1.059   0.527   5.606  0.0807  0.1397  0.2034
 7810SOL    HW134889   1.144   0.572   5.608 -0.2181  0.6543  1.7917
 7810SOL    HW234890   1.083   0.437   5.627  2.1052 -0.0738 -3.1165
 7811SOL     OW34891   1.462   2.066  12.202 -0.9689 -0.4191 -0.7035
 7811SOL    HW134892   1.436   1.986  12.246 -0.0210  0.2852  1.1353
 7811SOL    HW234893   1.384   2.120  12.193  0.6974  1.9779 -0.7117
 7812SOL     OW34894   3.041   1.998   8.441  0.2734 -0.1916 -0.4463
 7812SOL    HW134895   2.971   2.002   8.506  1.2892 -0.7281  0.6736
 7812SOL    HW234896   3.108   2.045   8.490  1.4419 -2.0101 -0.2741
 7813SOL     OW34897   2.500   1.999   7.783  0.1831  0.0874  0.3808
 7813SOL    HW134898   2.577   2.050   7.810 -0.1886 -0.0214  1.6494
 7813SOL    HW234899   2.531   1.909   7.795  0.6039 -0.1617 -2.3977
 7814SOL     OW34900   1.683   4.463  11.877 -0.4476 -0.0439 -0.2917
 7814SOL    HW134901   1.683   4.553  11.910 -0.7041 -0.5951  1.2291
 7814SOL    HW234902   1.756   4.470  11.816 -1.5247  1.9708 -1.3753
 7815SOL     OW34903   0.742   1.631   4.287  0.2507  1.3037  0.1481
 7815SOL    HW134904   0.783   1.677   4.361  2.0223  0.0250 -0.0255
 7815SOL    HW234905   0.760   1.695   4.219  0.5339 -1.1146 -2.0504
 7816SOL     OW34906   1.684   4.146   4.568 -0.0391  0.2051 -0.7429
 7816SOL    HW134907   1.636   4.063   4.576  0.9279 -0.1373  1.7412
 7816SOL    HW234908   1.666   4.195   4.488  1.9073 -0.3467 -1.5328
 7817SOL     OW34909   1.284   0.980   3.721 -0.6696  0.0803  0.1808
 7817SOL    HW134910   1.218   1.031   3.674  0.5828  3.0769  1.6800
 7817SOL    HW234911   1.357   1.023   3.678 -1.5495 -0.0498 -1.4227
 7818SOL     OW34912   0.363   0.633   0.471 -0.1931  0.0058  0.2825
 7818SOL    HW134913   0.360   0.635   0.375 -1.1542 -1.0959  0.2914
 7818SOL    HW234914   0.345   0.540   0.480  2.1437 -0.5145 -0.4631
 7819SOL     OW34915   0.697   0.556   8.796 -0.1822  0.3756 -0.7826
 7819SOL    HW134916   0.640   0.627   8.764 -1.0363  0.4437  0.8882
 7819SOL    HW234917   0.759   0.604   8.850 -0.1635 -0.5984  0.0534
 7820SOL     OW34918   3.553   1.022   2.642 -0.1937  0.0187  0.0313
 7820SOL    HW134919   3.647   1.004   2.634 -0.2142  0.4903 -1.2002
 7820SOL    HW234920   3.528   1.025   2.550 -2.9954 -0.3351  0.7969
 7821SOL     OW34921   2.756   2.232  17.019  0.6621  0.2895  0.2621
 7821SOL    HW134922   2.805   2.214  17.099  0.4637 -0.4367  0.2165
 7821SOL    HW234923   2.822   2.226  16.949 -0.3035 -1.8450 -0.4512
 7822SOL     OW34924   0.298   4.299   4.896  0.2184  0.8843  0.4345
 7822SOL    HW134925   0.264   4.360   4.962  0.0783  0.8489  0.3938
 7822SOL    HW234926   0.255   4.335   4.818  0.8530  1.8423  0.5203
 7823SOL     OW34927   0.718   0.737   7.798  0.4501 -0.0348  0.4904
 7823SOL    HW134928   0.754   0.651   7.779  0.5301 -0.1434  1.1439
 7823SOL    HW234929   0.779   0.794   7.751  0.6329 -0.6090  0.0314
 7824SOL     OW34930   2.998   3.072   7.970  0.0842  0.1928  0.1791
 7824SOL    HW134931   2.943   3.148   7.951  0.7342 -0.0121 -2.5289
 7824SOL    HW234932   2.935   3.000   7.975 -0.4686  0.7261  0.8060
 7825SOL     OW34933   1.376   2.594   4.072  0.1110  0.2551  0.2032
 7825SOL    HW134934   1.332   2.621   4.152 -1.0009 -2.5383  0.5458
 7825SOL    HW234935   1.354   2.664   4.011  0.7081 -0.6480 -1.0653
 7826SOL     OW34936   2.806   1.847   9.051 -0.8373  0.1693  0.3574
 7826SOL    HW134937   2.715   1.852   9.079 -1.4740 -1.5209 -1.4639
 7826SOL    HW234938   2.835   1.766   9.093  2.9256  2.1557  1.6544
 7827SOL     OW34939   4.279   2.935   3.601  0.3714 -0.6929  0.1659
 7827SOL    HW134940   4.301   3.021   3.567  0.7630 -0.4365  1.0391
 7827SOL    HW234941   4.368   2.902   3.619  1.3771  1.4533 -0.8821
 7828SOL     OW34942   3.715   2.899   0.943 -0.0507  0.2453 -1.2071
 7828SOL    HW134943   3.734   2.957   1.017  0.0407 -1.9689  0.5056
 7828SOL    HW234944   3.650   2.849   0.993 -0.9629 -0.3515 -2.9724
 7829SOL     OW34945   2.381   4.653  16.812 -0.1595  0.0432 -0.5929
 7829SOL    HW134946   2.332   4.571  16.807 -1.9196  0.8113  4.4847
 7829SOL    HW234947   2.437   4.644  16.889  0.3425  0.7628 -0.8763
 7830SOL     OW34948   2.802   3.265   2.777  0.1155  0.6163 -0.1465
 7830SOL    HW134949   2.720   3.308   2.755 -0.4999  0.1477  1.2693
 7830SOL    HW234950   2.777   3.238   2.865 -1.7545 -1.0104 -1.1661
 7831SOL     OW34951   4.063   2.880   1.347 -0.2842 -0.0551  0.4652
 7831SOL    HW134952   4.083   2.811   1.410  0.3578  1.1217  1.5545
 7831SOL    HW234953   4.023   2.947   1.402 -1.1166  1.0298 -1.4834
 7832SOL     OW34954   2.155   3.903   5.489 -0.3530  0.1697  0.0520
 7832SOL    HW134955   2.202   3.868   5.565  0.0089  1.0635  0.2395
 7832SOL    HW234956   2.213   3.973   5.459 -0.4263  0.1342 -0.1653
 7833SOL     OW34957   2.013   3.009   3.803  0.6082 -0.5800 -0.3940
 7833SOL    HW134958   1.949   2.988   3.736  1.1223 -3.2170 -0.0694
 7833SOL    HW234959   1.982   3.097   3.823  4.4650  0.6866  0.1436
 7834SOL     OW34960   3.302   0.044  17.421  0.0768 -0.0280  0.2517
 7834SOL    HW134961   3.279   0.046  17.514  0.6104  0.3017  0.3777
 7834SOL    HW234962   3.293   0.138  17.403 -1.2883 -0.5915 -2.0100
 7835SOL     OW34963   3.258   4.650   4.036 -0.5298  0.1713  0.1583
 7835SOL    HW134964   3.323   4.596   4.081  0.3491 -1.2168 -2.7687
 7835SOL    HW234965   3.238   4.618   3.948 -1.0608  0.2465  0.2527
 7836SOL     OW34966   4.525   0.954  17.117  0.0738 -0.1715 -0.2839
 7836SOL    HW134967   4.486   1.036  17.148 -1.7886 -1.1056 -0.2167
 7836SOL    HW234968   4.571   0.996  17.045 -1.9985  2.1197 -0.2729
 7837SOL     OW34969   1.924   4.205   3.709  0.0388 -0.2114  1.0992
 7837SOL    HW134970   2.005   4.220   3.758  0.1019  1.3779  0.5118
 7837SOL    HW234971   1.957   4.193   3.620 -1.0462 -0.5667  0.7395
 7838SOL     OW34972   3.474   4.196   1.492  0.3896 -0.2678  0.4627
 7838SOL    HW134973   3.505   4.205   1.402  2.4331 -0.5974  1.1290
 7838SOL    HW234974   3.557   4.166   1.531  0.8662 -1.0032 -1.1345
 7839SOL     OW34975   4.494   0.455   9.531  0.7330 -0.3854  0.2717
 7839SOL    HW134976   4.537   0.522   9.478  0.9820 -0.8953 -0.1724
 7839SOL    HW234977   4.427   0.508   9.574 -2.3400 -0.5551 -4.4175
 7840SOL     OW34978   1.110   2.441  13.298  0.4357  0.1857 -0.2139
 7840SOL    HW134979   1.081   2.530  13.320 -1.8461 -0.6628  0.2442
 7840SOL    HW234980   1.203   2.459  13.282  1.0284 -1.1293  1.7412
 7841SOL     OW34981   2.592   3.708   7.801  0.0101  0.0546  0.0215
 7841SOL    HW134982   2.670   3.740   7.756  0.4806  0.4067  1.1005
 7841SOL    HW234983   2.619   3.735   7.888  1.0492 -2.5527  0.4970
 7842SOL     OW34984   4.434   0.249   3.454 -0.3069  0.6821  0.8116
 7842SOL    HW134985   4.426   0.162   3.492 -0.0447 -0.3352 -1.4432
 7842SOL    HW234986   4.351   0.292   3.476 -2.0435 -1.7402 -0.9732
 7843SOL     OW34987   3.706   4.193  16.736 -0.1618 -0.4992  0.2257
 7843SOL    HW134988   3.618   4.155  16.747 -0.0841 -1.5491 -2.8303
 7843SOL    HW234989   3.695   4.250  16.660 -0.5027  0.7772  1.2321
 7844SOL     OW34990   2.427   3.364   7.584  0.1716  0.0360  0.4378
 7844SOL    HW134991   2.424   3.460   7.586  0.6361  0.0412  1.2512
 7844SOL    HW234992   2.522   3.352   7.594 -0.0925 -1.1783  1.4263
 7845SOL     OW34993   3.858   4.033   9.539  0.1762 -0.1034  0.1957
 7845SOL    HW134994   3.780   4.088   9.544  0.4151  0.3335 -0.9505
 7845SOL    HW234995   3.831   3.968   9.475  0.0788 -0.5879  0.7257
 7846SOL     OW34996   1.627   2.661   8.663 -0.0520  0.2705  0.3973
 7846SOL    HW134997   1.657   2.597   8.728 -0.0416 -0.7904 -0.6552
 7846SOL    HW234998   1.567   2.608   8.612 -0.7712  1.4021  0.0690
 7847SOL     OW34999   3.395   2.530   0.920 -0.4766 -0.3401  0.2568
 7847SOL    HW135000   3.351   2.609   0.890  2.1989  1.7335  1.7032
 7847SOL    HW235001   3.392   2.540   1.016  0.6223 -0.5573  0.3130
 7848SOL     OW35002   4.203   4.218   5.931  0.2097 -0.3642  0.1159
 7848SOL    HW135003   4.114   4.183   5.935  0.1249 -0.0786  0.7324
 7848SOL    HW235004   4.206   4.246   6.023  2.6426  1.1977 -0.4537
 7849SOL     OW35005   3.903   3.916   3.803  0.4020 -0.5942 -0.5329
 7849SOL    HW135006   3.959   3.841   3.819  2.7273  0.9808 -1.3031
 7849SOL    HW235007   3.857   3.920   3.887 -1.0636  0.1974 -1.3701
 7850SOL     OW35008   3.781   3.549   4.111 -0.4684  0.5929 -0.5677
 7850SOL    HW135009   3.779   3.644   4.100  0.5510  0.6481 -0.1926
 7850SOL    HW235010   3.875   3.538   4.101 -0.6641  0.0991 -1.9699
 7851SOL     OW35011   1.455   2.337   7.920  0.1571  0.1803  0.3732
 7851SOL    HW135012   1.378   2.391   7.939 -2.4506 -2.1784 -3.4241
 7851SOL    HW235013   1.407   2.258   7.894  0.2352 -0.4783  2.1881
 7852SOL     OW35014   1.442   1.593   6.016 -0.0602 -0.3797  0.5319
 7852SOL    HW135015   1.427   1.500   5.995 -0.9837 -0.0812 -0.1290
 7852SOL    HW235016   1.537   1.594   6.025 -0.0385 -1.5910  0.5174
 7853SOL     OW35017   2.057   2.507   9.140  0.2256 -0.1839  0.0630
 7853SOL    HW135018   2.064   2.596   9.105  0.1376  0.5528  1.9254
 7853SOL    HW235019   1.967   2.513   9.174 -0.0682  0.1883 -0.7775
 7854SOL     OW35020   0.722   1.289   6.092 -0.0292 -0.1448 -0.0993
 7854SOL    HW135021   0.773   1.347   6.036 -0.7245 -1.5533 -2.2336
 7854SOL    HW235022   0.743   1.330   6.175  0.9415 -1.0907  0.1122
 7855SOL     OW35023   4.520   4.211   1.455 -0.0190  0.6416 -0.2058
 7855SOL    HW135024   4.593   4.263   1.487 -1.0049  1.5469  0.5807
 7855SOL    HW235025   4.560   4.155   1.389  0.5738  0.2754  0.4761
 7856SOL     OW35026   4.608   3.126  13.478  0.1952  0.3845  0.7021
 7856SOL    HW135027   4.671   3.088  13.417 -1.2236  0.5831 -0.9244
 7856SOL    HW235028   4.664   3.201  13.496  1.9893 -1.1182  1.3111
 7857SOL     OW35029   0.488   3.136  12.219 -0.5784 -0.2207  0.3311
 7857SOL    HW135030   0.489   3.059  12.276 -0.1217 -0.7137 -0.3425
 7857SOL    HW235031   0.495   3.099  12.131 -0.7130  2.1333 -0.6941
 7858SOL     OW35032   0.929   1.961  13.433 -0.2547  0.5713 -0.4984
 7858SOL    HW135033   0.905   1.938  13.343  1.0040  0.1728 -0.7317
 7858SOL    HW235034   0.973   2.041  13.404 -2.3450  1.5136 -1.1161
 7859SOL     OW35035   3.553   2.858   3.096  0.6552 -0.3903 -0.6765
 7859SOL    HW135036   3.648   2.867   3.091  0.5240  1.3364  0.1472
 7859SOL    HW235037   3.533   2.852   3.002  2.3885 -1.1527 -0.9997
 7860SOL     OW35038   3.543   2.548   5.098  0.3538  0.0359 -0.5143
 7860SOL    HW135039   3.617   2.576   5.152 -0.8791  1.7295  0.3169
 7860SOL    HW235040   3.527   2.629   5.049  2.6371  0.7713 -0.0507
 7861SOL     OW35041   3.523   3.353   4.613  0.4605  0.6028  0.8561
 7861SOL    HW135042   3.616   3.338   4.630  0.6512  1.7562  0.8285
 7861SOL    HW235043   3.530   3.447   4.595 -2.1786  0.9180  1.5041
 7862SOL     OW35044   4.309   4.383   4.773  0.2860 -0.2648 -0.0004
 7862SOL    HW135045   4.243   4.363   4.707 -0.0851  2.1246 -0.3251
 7862SOL    HW235046   4.261   4.362   4.853  2.0522  2.1200  1.6912
 7863SOL     OW35047   2.430   4.632   3.612 -0.0184  0.1678  1.1813
 7863SOL    HW135048   2.524   4.617   3.625  0.3145 -1.4857 -2.9586
 7863SOL    HW235049   2.406   4.570   3.543  0.9477 -1.4417  2.3067
 7864SOL     OW35050   0.916   0.063  11.823  0.5789 -0.1571  0.3630
 7864SOL    HW135051   0.962   0.063  11.739 -1.1563  0.5645 -0.5927
 7864SOL    HW235052   0.859   0.140  11.820  2.5668  1.3975  2.0431
 7865SOL     OW35053   1.881   3.255   4.762 -0.2815  0.4178 -0.3073
 7865SOL    HW135054   1.814   3.252   4.831 -0.8434 -0.3683 -0.8869
 7865SOL    HW235055   1.857   3.184   4.704 -2.2463  0.0276  0.9907
 7866SOL     OW35056   1.187   4.464   4.136 -0.1932  0.3450  0.4820
 7866SOL    HW135057   1.093   4.451   4.145 -0.7742  4.8770  1.2679
 7866SOL    HW235058   1.185   4.492   4.044 -1.2212 -1.0271  0.0924
 7867SOL     OW35059   0.234   0.830  13.819 -0.3286 -0.6284 -0.2540
 7867SOL    HW135060   0.171   0.759  13.810 -0.4037 -0.5176 -0.5774
 7867SOL    HW235061   0.253   0.818  13.912  2.0530 -2.1182 -0.9332
 7868SOL     OW35062   0.596   4.066   7.635 -0.0536 -0.4570 -0.1401
 7868SOL    HW135063   0.630   4.152   7.611 -0.8539 -0.5045 -1.4667
 7868SOL    HW235064   0.567   4.078   7.725  0.9821  1.1826 -0.0364
 7869SOL     OW35065   0.738   1.175  10.932  0.1199  0.2854 -0.2797
 7869SOL    HW135066   0.795   1.104  10.959  1.3926  1.5254  0.3177
 7869SOL    HW235067   0.656   1.143  10.895 -0.5791  0.1472  1.4333
 7870SOL     OW35068   3.652   0.204   5.827  0.2169 -0.0992  0.0545
 7870SOL    HW135069   3.600   0.274   5.788  0.0078 -0.8283 -0.9553
 7870SOL    HW235070   3.663   0.146   5.753  0.0762 -0.4659  0.3216
 7871SOL     OW35071   2.415   0.360  10.746 -0.0946 -0.0521 -0.5331
 7871SOL    HW135072   2.490   0.374  10.804  1.6006  0.8525 -2.9451
 7871SOL    HW235073   2.366   0.440  10.765  2.2451  0.5080  3.2258
 7872SOL     OW35074   4.527   2.734  12.095 -0.1077 -0.1106  0.4050
 7872SOL    HW135075   4.530   2.730  12.190 -1.2539  1.7636  0.5219
 7872SOL    HW235076   4.470   2.659  12.078 -3.6598  2.3338  1.3444
 7873SOL     OW35077   2.607   2.501   0.146  0.0991 -0.6290 -0.1087
 7873SOL    HW135078   2.535   2.510   0.209  2.3505 -0.6420  2.4688
 7873SOL    HW235079   2.619   2.408   0.165 -2.5918 -1.1569 -0.9697
 7874SOL     OW35080   1.634   1.409   9.138  0.3014 -0.0429  0.4137
 7874SOL    HW135081   1.697   1.365   9.195 -1.1662 -1.6162  0.8218
 7874SOL    HW235082   1.630   1.353   9.060  0.5437 -0.7177  0.8882
 7875SOL     OW35083   3.964   2.920  10.930  0.3901  0.1327  0.5393
 7875SOL    HW135084   4.046   2.877  10.953 -1.3738 -3.1146  0.7653
 7875SOL    HW235085   3.998   3.005  10.901 -0.4352 -0.2763 -1.6344
 7876SOL     OW35086   3.945   3.577   0.883  0.1894 -0.0855  0.5796
 7876SOL    HW135087   3.944   3.484   0.903 -1.3342 -0.3869 -0.9033
 7876SOL    HW235088   3.870   3.591   0.826  1.2078 -0.8044 -0.9249
 7877SOL     OW35089   1.380   0.097   7.358  0.4259  0.2252 -0.4982
 7877SOL    HW135090   1.466   0.061   7.379 -0.3774 -2.5164 -1.8948
 7877SOL    HW235091   1.326   0.019   7.365 -1.1933  1.5591  1.9069
 7878SOL     OW35092   2.468   0.727  15.920 -0.3285 -0.2323 -0.4264
 7878SOL    HW135093   2.383   0.770  15.927 -1.0655 -1.9929  1.7014
 7878SOL    HW235094   2.521   0.805  15.906 -2.6188  1.5877  1.0463
 7879SOL     OW35095   0.445   1.344   9.242  0.0293 -0.7943  0.1007
 7879SOL    HW135096   0.384   1.325   9.313  0.1566  0.4467  0.5437
 7879SOL    HW235097   0.458   1.252   9.219 -1.1979  0.1830 -4.4573
 7880SOL     OW35098   2.110   2.027   8.573 -0.3606  0.0338 -0.0033
 7880SOL    HW135099   2.051   2.087   8.529 -1.4208  0.9031  2.6037
 7880SOL    HW235100   2.041   1.973   8.613 -0.5072  1.5700  1.8362
 7881SOL     OW35101   0.456   2.703  10.885  0.4673  0.5724 -0.7645
 7881SOL    HW135102   0.413   2.778  10.926 -2.4729 -0.6701 -1.5810
 7881SOL    HW235103   0.415   2.695  10.800 -0.8348  2.1850 -0.2746
 7882SOL     OW35104   0.288   3.829   3.618 -0.6668  0.6306 -0.3334
 7882SOL    HW135105   0.352   3.768   3.580 -1.3643  1.0695 -2.2010
 7882SOL    HW235106   0.334   3.862   3.695 -2.6521  2.7919 -0.0940
 7883SOL     OW35107   4.393   2.293   5.657  0.3427  0.0786  0.1429
 7883SOL    HW135108   4.372   2.283   5.750 -0.4983  0.9867  0.0455
 7883SOL    HW235109   4.477   2.250   5.642  0.8509  1.5734 -1.3130
 7884SOL     OW35110   1.665   1.956   4.276  0.1877 -0.3214  0.2847
 7884SOL    HW135111   1.682   2.045   4.305 -0.1599  0.3325 -1.5603
 7884SOL    HW235112   1.670   1.909   4.360 -3.2596 -1.1634 -0.0001
 7885SOL     OW35113   2.229   0.399  17.357  0.6243 -0.2767  0.5228
 7885SOL    HW135114   2.313   0.365  17.387 -0.0771 -1.3715  1.2533
 7885SOL    HW235115   2.243   0.494  17.364 -2.0717  0.2857 -1.6445
 7886SOL     OW35116   0.444   4.252  12.808 -0.5827  0.0806 -0.0322
 7886SOL    HW135117   0.505   4.182  12.784 -1.1923 -0.5471  0.2447
 7886SOL    HW235118   0.429   4.279  12.717  0.7652  1.7780  0.2322
 7887SOL     OW35119   3.502   1.543   2.808 -0.1670 -0.2855 -0.5923
 7887SOL    HW135120   3.483   1.467   2.863 -0.9806  2.5575  3.1197
 7887SOL    HW235121   3.422   1.552   2.756 -0.1125  0.9911 -0.4753
 7888SOL     OW35122   4.521   1.805   1.839 -0.6384 -0.3407 -0.4004
 7888SOL    HW135123   4.521   1.782   1.932  0.7513  1.4801  0.0597
 7888SOL    HW235124   4.502   1.724   1.791  0.2875 -1.5303  1.2168
 7889SOL     OW35125   4.322   0.265   5.045 -0.3791  0.4942 -0.2408
 7889SOL    HW135126   4.344   0.219   4.964 -1.1858  1.4088 -0.9771
 7889SOL    HW235127   4.244   0.225   5.083  0.2631 -0.2191  0.3279
 7890SOL     OW35128   2.312   3.792  17.630  0.6431  0.2681 -0.3955
 7890SOL    HW135129   2.305   3.886  17.643 -2.0196  0.2631 -1.8145
 7890SOL    HW235130   2.401   3.772  17.659  0.2557  1.4641  1.6364
 7891SOL     OW35131   1.849   1.436   6.306 -0.3916 -0.3913 -0.0115
 7891SOL    HW135132   1.819   1.527   6.313 -0.7726 -0.6573  1.9076
 7891SOL    HW235133   1.786   1.404   6.242  0.7923 -0.8017 -0.9654
 7892SOL     OW35134   3.489   3.144   8.943 -0.0740 -0.3885 -0.5412
 7892SOL    HW135135   3.402   3.168   8.911 -0.8464  0.1795  2.0249
 7892SOL    HW235136   3.483   3.149   9.038 -0.0905  1.0490 -0.6091
 7893SOL     OW35137   4.025   0.287   5.878 -0.0797  0.1461 -0.0717
 7893SOL    HW135138   4.098   0.342   5.905  0.2251  0.2111 -1.0275
 7893SOL    HW235139   3.953   0.340   5.912  0.3826 -0.8803  2.4381
 7894SOL     OW35140   2.611   3.939  12.121  0.3099 -0.1566  0.3636
 7894SOL    HW135141   2.583   3.851  12.094  1.2140 -0.7892  1.4798
 7894SOL    HW235142   2.526   3.982  12.127  0.2573  0.0035 -1.4433
 7895SOL     OW35143   0.059   3.492   1.414 -0.5864 -0.0126 -0.5429
 7895SOL    HW135144   4.701   3.457   1.374  0.0086 -2.4134  0.4070
 7895SOL    HW235145   0.070   3.445   1.496 -0.9050  1.5882  0.4050
 7896SOL     OW35146   3.245   2.291   0.929 -0.0857  0.4271  0.1452
 7896SOL    HW135147   3.265   2.381   0.901  1.3876 -0.2655 -0.9827
 7896SOL    HW235148   3.215   2.262   0.843 -1.1918 -1.6631  1.2288
 7897SOL     OW35149   4.314   3.865   4.452  0.1344 -0.1164  0.3043
 7897SOL    HW135150   4.312   3.835   4.543  2.8433  1.9613  1.0310
 7897SOL    HW235151   4.222   3.893   4.452  0.5568  1.1998 -1.6875
 7898SOL     OW35152   0.766   3.389   8.787 -0.0920  0.2297 -0.0489
 7898SOL    HW135153   0.747   3.307   8.831 -0.0352  1.0554  1.5116
 7898SOL    HW235154   0.833   3.362   8.724 -1.5814  0.7192 -1.8526
 7899SOL     OW35155   3.459   2.665  15.103 -0.1414 -0.0805 -0.4430
 7899SOL    HW135156   3.368   2.641  15.082  0.0733 -1.3473  0.0745
 7899SOL    HW235157   3.473   2.593  15.165  2.7593  0.6439 -0.2855
 7900SOL     OW35158   3.999   0.668   0.997  0.4766 -0.3680 -0.0526
 7900SOL    HW135159   4.039   0.754   0.985  3.2310 -1.7064 -0.5456
 7900SOL    HW235160   3.915   0.675   0.951 -0.5706 -0.6035  1.8016
 7901SOL     OW35161   2.527   1.229   5.015 -0.7077  0.3094  0.1736
 7901SOL    HW135162   2.567   1.202   4.933 -0.2324  1.4888  0.0169
 7901SOL    HW235163   2.602   1.237   5.074 -0.2917 -1.2647 -0.1325
 7902SOL     OW35164   3.031   1.390   7.420  0.0972  0.6582  0.5311
 7902SOL    HW135165   3.063   1.480   7.415  0.6478  0.4067 -0.4886
 7902SOL    HW235166   3.102   1.337   7.383 -1.3794  1.5858 -3.6147
 7903SOL     OW35167   2.297   4.280   3.211  0.1000  0.1189 -0.4316
 7903SOL    HW135168   2.234   4.289   3.140 -0.5734  2.9344  0.5302
 7903SOL    HW235169   2.329   4.195   3.182 -2.8679 -0.2110 -2.7554
 7904SOL     OW35170   3.002   3.665  11.812  0.1479  0.2762  0.7679
 7904SOL    HW135171   2.931   3.679  11.874  0.7311  1.5458  1.1502
 7904SOL    HW235172   3.070   3.727  11.837  1.6369 -1.5814  1.3836
 7905SOL     OW35173   4.368   3.785   1.862  0.1831 -0.1708  0.0812
 7905SOL    HW135174   4.361   3.833   1.779 -4.6422 -0.7163  0.1549
 7905SOL    HW235175   4.391   3.697   1.833  2.7835  0.0940  1.3341
 7906SOL     OW35176   2.825   2.999  14.248 -0.2676  0.1274  0.3481
 7906SOL    HW135177   2.779   3.061  14.191  1.3790 -0.0746 -1.1962
 7906SOL    HW235178   2.844   2.927  14.188  0.9286  1.1738 -0.5370
 7907SOL     OW35179   2.545   4.349  11.769 -0.9488 -0.0469  0.0892
 7907SOL    HW135180   2.624   4.296  11.774 -0.1678  1.1462  0.3528
 7907SOL    HW235181   2.480   4.284  11.743  0.4793 -0.4932 -2.3526
 7908SOL     OW35182   4.124   3.189  17.385  0.0192 -0.1308 -0.4740
 7908SOL    HW135183   4.093   3.224  17.469  0.3674 -0.3978 -0.2348
 7908SOL    HW235184   4.064   3.231  17.323 -0.6198 -0.1574  0.1224
 7909SOL     OW35185   3.335   1.605   7.732  0.0805  0.0337  0.3776
 7909SOL    HW135186   3.375   1.614   7.646 -1.4060 -0.1668 -0.3371
 7909SOL    HW235187   3.307   1.513   7.724  1.0840 -0.2061 -0.3598
 7910SOL     OW35188   2.168   3.728   2.660 -0.0445 -0.2437 -0.2109
 7910SOL    HW135189   2.102   3.674   2.616 -0.4242 -0.7199  0.9349
 7910SOL    HW235190   2.126   3.715   2.745 -1.0665 -3.3583 -1.1827
 7911SOL     OW35191   1.269   1.607   8.458 -0.2872  0.2442  0.7071
 7911SOL    HW135192   1.220   1.619   8.539  0.1329 -1.6715  1.2563
 7911SOL    HW235193   1.245   1.517   8.434  0.0562 -0.2782  2.3203
 7912SOL     OW35194   0.021   1.294   4.531  0.0311 -0.0911  0.0491
 7912SOL    HW135195   0.094   1.255   4.579  0.2433 -1.2167 -1.1838
 7912SOL    HW235196   0.058   1.375   4.495  2.4023 -1.8436 -1.4356
 7913SOL     OW35197   2.872   2.230   0.898  0.4472  0.2519 -0.6951
 7913SOL    HW135198   2.958   2.261   0.925  0.1721  1.1372 -0.8607
 7913SOL    HW235199   2.862   2.279   0.817 -0.2371  1.2962  0.0305
 7914SOL     OW35200   2.033   0.043   2.270 -0.1326  0.4555 -0.0206
 7914SOL    HW135201   2.013   4.674   2.288 -0.4396  0.4521 -0.3802
 7914SOL    HW235202   2.119   0.029   2.231  0.4090  0.5520  1.1349
 7915SOL     OW35203   2.098   3.143   2.857 -0.4759 -1.0483 -0.0186
 7915SOL    HW135204   2.003   3.135   2.864 -0.4474 -2.0180 -0.7339
 7915SOL    HW235205   2.114   3.169   2.767 -1.9614 -0.6262 -0.1542
 7916SOL     OW35206   0.839   0.308   8.833  0.1400 -0.1037  0.6390
 7916SOL    HW135207   0.789   0.388   8.816  2.9913  1.5523 -0.0036
 7916SOL    HW235208   0.779   0.253   8.883 -0.8058 -0.4658 -0.9013
 7917SOL     OW35209   0.991   4.683  15.017 -0.4485  0.0996 -0.9563
 7917SOL    HW135210   1.084   4.700  15.027 -0.8159  0.2654  1.9579
 7917SOL    HW235211   0.987   0.001  14.930  1.5192  0.4796 -0.8616
 7918SOL     OW35212   1.979   3.807  12.067 -0.1322 -0.0810 -0.1825
 7918SOL    HW135213   1.891   3.816  12.103 -0.7351 -2.5827 -1.0508
 7918SOL    HW235214   1.977   3.718  12.034 -0.6246  0.3839 -1.4006
 7919SOL     OW35215   3.258   2.475   7.687  0.1994  0.3762  0.1413
 7919SOL    HW135216   3.320   2.486   7.615  1.4830 -0.2699  1.1393
 7919SOL    HW235217   3.314   2.431   7.751 -0.8779  0.5146  1.1720
 7920SOL     OW35218   0.476   0.600   1.847 -0.4471  0.0555 -0.7760
 7920SOL    HW135219   0.420   0.535   1.890 -0.0843 -0.3708 -0.9465
 7920SOL    HW235220   0.423   0.680   1.846 -1.9158 -0.8561  1.5953
 7921SOL     OW35221   4.519   2.789   9.835 -0.5141  0.0143  0.0920
 7921SOL    HW135222   4.574   2.745   9.899 -0.4506 -0.1317 -0.0613
 7921SOL    HW235223   4.578   2.785   9.759 -0.4941 -0.8702  0.1543
 7922SOL     OW35224   2.862   3.175   6.762  0.0297  0.3732  0.0792
 7922SOL    HW135225   2.858   3.145   6.853  0.5187  0.8729  0.2657
 7922SOL    HW235226   2.956   3.190   6.750 -0.2069  0.1910 -1.9692
 7923SOL     OW35227   4.682   1.459   7.282 -0.1020 -0.8126 -0.0130
 7923SOL    HW135228   4.722   1.472   7.196  3.2981  2.6933  2.0543
 7923SOL    HW235229   4.639   1.375   7.268  0.8746 -1.2408 -0.4902
 7924SOL     OW35230   1.895   3.890  13.647  0.1061  0.1130 -0.3334
 7924SOL    HW135231   1.911   3.827  13.717  0.2265 -2.1134 -2.3881
 7924SOL    HW235232   1.819   3.856  13.601 -0.3716  0.8324 -0.0825
 7925SOL     OW35233   1.114   0.006  17.353  0.2043  0.0254 -0.0669
 7925SOL    HW135234   1.081   4.651  17.307  2.8641 -1.0406 -0.1833
 7925SOL    HW235235   1.124   0.070  17.282 -0.2724  1.9711  1.6413
 7926SOL     OW35236   0.460   0.062   6.552 -0.0740  0.2697  0.3438
 7926SOL    HW135237   0.428   0.118   6.482  1.0580 -1.3684 -1.5027
 7926SOL    HW235238   0.385   0.064   6.611 -1.0639  0.4024 -0.9221
 7927SOL     OW35239   3.527   0.207  14.198 -0.2400  0.0381  0.3152
 7927SOL    HW135240   3.604   0.183  14.147  0.1364 -1.0720  1.4231
 7927SOL    HW235241   3.457   0.187  14.135 -0.5404 -0.6285  0.8700
 7928SOL     OW35242   3.859   0.942   6.746  0.1932 -0.1511 -0.1866
 7928SOL    HW135243   3.764   0.934   6.735 -0.0164  0.3230  1.1963
 7928SOL    HW235244   3.868   1.025   6.793 -0.4134 -0.7575  1.0175
 7929SOL     OW35245   0.820   1.880   0.919 -0.3124 -0.0552  0.2993
 7929SOL    HW135246   0.774   1.851   0.999 -4.2146  0.0082 -1.9023
 7929SOL    HW235247   0.894   1.917   0.966  0.3716 -0.7278 -0.2637
 7930SOL     OW35248   1.361   2.517   6.778  0.6014  0.5115 -0.5545
 7930SOL    HW135249   1.365   2.573   6.855  1.2574 -2.5289  1.6505
 7930SOL    HW235250   1.399   2.583   6.720  0.6559  2.0332  1.2185
 7931SOL     OW35251   4.579   2.749   4.051 -0.4551  0.4231  0.3321
 7931SOL    HW135252   4.542   2.742   3.962 -1.7589 -2.0627  1.0848
 7931SOL    HW235253   4.517   2.696   4.101  1.1589  0.7851  2.6675
 7932SOL     OW35254   2.044   4.502   4.978  0.0375 -0.3886  0.4314
 7932SOL    HW135255   1.978   4.511   4.909 -0.4077  1.2835  1.0735
 7932SOL    HW235256   1.990   4.475   5.053  2.8815 -0.7436  2.3546
 7933SOL     OW35257   3.108   3.722   0.301 -0.6455 -0.1136 -0.4563
 7933SOL    HW135258   3.175   3.654   0.296 -0.2158  0.2651  0.1082
 7933SOL    HW235259   3.036   3.668   0.270 -2.0900  1.8718 -0.5943
 7934SOL     OW35260   0.478   2.231  16.042 -0.3786 -0.1666 -0.1024
 7934SOL    HW135261   0.487   2.305  15.983 -2.0045 -0.7565 -1.0960
 7934SOL    HW235262   0.384   2.243  16.059 -0.4508  0.9564 -1.3453
 7935SOL     OW35263   0.028   2.921   8.684  0.0014  0.1726  0.0364
 7935SOL    HW135264   0.122   2.916   8.702 -0.0026  0.9409  0.2661
 7935SOL    HW235265   0.000   2.833   8.708 -2.6115  1.2276  0.8282
 7936SOL     OW35266   1.263   3.474   1.273  0.2223  0.1292 -0.0831
 7936SOL    HW135267   1.233   3.495   1.362  1.6770 -1.2407  0.7346
 7936SOL    HW235268   1.353   3.507   1.278  0.2039 -0.0500  1.5966
 7937SOL     OW35269   0.077   1.135  11.796 -0.3293 -0.4063 -0.3443
 7937SOL    HW135270   0.114   1.148  11.884  1.1329  3.2648 -1.4889
 7937SOL    HW235271   0.113   1.215  11.757 -0.4299 -0.8901 -1.4199
 7938SOL     OW35272   0.085   1.026   5.173 -0.3467  0.4439 -0.3775
 7938SOL    HW135273   0.083   1.101   5.232  2.0111 -1.7051  2.4450
 7938SOL    HW235274   0.040   0.957   5.221  0.1926 -1.8285 -3.0599
 7939SOL     OW35275   4.638   2.598   2.838 -0.2577  0.1414  0.1893
 7939SOL    HW135276   4.682   2.620   2.920 -0.4648 -1.0524  0.6125
 7939SOL    HW235277   4.712   2.594   2.777  0.1942 -0.3276  0.7675
 7940SOL     OW35278   2.046   1.941   2.169 -0.1255 -0.1707 -0.0870
 7940SOL    HW135279   2.027   1.969   2.079 -0.3552  0.6961  0.2292
 7940SOL    HW235280   2.043   1.847   2.149  0.7666 -0.4157  0.9680
 7941SOL     OW35281   2.891   0.478   5.742 -0.4572  0.5168  0.2542
 7941SOL    HW135282   2.923   0.418   5.674  1.5018 -0.5107  2.0652
 7941SOL    HW235283   2.804   0.489   5.702 -0.6935 -2.0262  0.0667
 7942SOL     OW35284   3.347   4.148  16.673  0.1087  0.0169  0.0900
 7942SOL    HW135285   3.390   4.178  16.593 -0.5160 -0.1636 -0.3095
 7942SOL    HW235286   3.270   4.204  16.662  0.9531  1.0875 -0.3383
 7943SOL     OW35287   1.681   1.190   3.399  0.2028  0.1253 -0.0850
 7943SOL    HW135288   1.715   1.102   3.417 -1.0065 -0.5006 -0.8458
 7943SOL    HW235289   1.587   1.185   3.419  0.1415 -1.3785 -0.7625
 7944SOL     OW35290   4.114   0.512   2.284  0.2232 -1.1577  0.4614
 7944SOL    HW135291   4.183   0.560   2.331  1.0334 -2.2661  0.4109
 7944SOL    HW235292   4.039   0.569   2.300 -1.2995 -2.7374 -1.1707
 7945SOL     OW35293   2.022   1.989   7.163  0.7831 -0.0674 -0.0341
 7945SOL    HW135294   2.090   1.930   7.195  1.4765  1.5217  1.3939
 7945SOL    HW235295   1.942   1.938   7.150  1.0853 -0.5836  0.1488
 7946SOL     OW35296   1.960   1.289   5.679 -0.0898 -0.1846 -0.2350
 7946SOL    HW135297   1.910   1.216   5.642 -0.6580  0.9535 -1.7307
 7946SOL    HW235298   2.028   1.302   5.612  1.0849 -1.1851  0.7646
 7947SOL     OW35299   4.327   1.096   0.255  0.8132  0.0382 -0.1819
 7947SOL    HW135300   4.356   1.187   0.248  0.9815 -0.1363 -1.7753
 7947SOL    HW235301   4.283   1.081   0.171  0.4662 -1.7351  0.3360
 7948SOL     OW35302   3.772   2.139   2.267 -0.0971 -0.2446 -0.6170
 7948SOL    HW135303   3.758   2.225   2.308  0.3370 -0.2474 -0.4650
 7948SOL    HW235304   3.807   2.088   2.340 -1.7113 -2.4358 -1.3853
 7949SOL     OW35305   2.201   3.052  13.880 -0.7001  0.5477 -0.1447
 7949SOL    HW135306   2.191   3.052  13.976  1.1104 -1.5736  0.0521
 7949SOL    HW235307   2.143   2.980  13.854 -0.6947 -0.1768  1.7950
 7950SOL     OW35308   2.230   4.251   2.241 -0.4547  0.0759 -0.4828
 7950SOL    HW135309   2.228   4.279   2.150 -0.1945 -2.2063 -1.1769
 7950SOL    HW235310   2.325   4.245   2.257 -0.4908  2.5389  0.7422
 7951SOL     OW35311   0.321   2.377  13.128  0.0977  0.2872 -0.1679
 7951SOL    HW135312   0.258   2.397  13.059 -0.4814  0.8270  0.5242
 7951SOL    HW235313   0.255   2.353  13.192  0.6022  1.3494  0.7451
 7952SOL     OW35314   4.361   4.255   7.679 -0.0530 -0.4961 -0.2353
 7952SOL    HW135315   4.322   4.315   7.743  2.9685  0.4960  0.6845
 7952SOL    HW235316   4.325   4.172   7.710 -1.7215 -0.2107 -1.3942
 7953SOL     OW35317   2.134   1.180  13.079  0.1418  0.0591 -0.3787
 7953SOL    HW135318   2.087   1.168  13.162 -0.5081 -1.9202 -1.0428
 7953SOL    HW235319   2.145   1.275  13.079  0.1362  0.0642  0.6690
 7954SOL     OW35320   1.329   3.375   4.988 -0.8487  0.1132  0.2472
 7954SOL    HW135321   1.247   3.332   5.011 -0.1712 -2.1657 -1.5727
 7954SOL    HW235322   1.361   3.381   5.078 -1.5122  0.6209  0.4486
 7955SOL     OW35323   2.516   3.416   4.637 -0.0958  0.0716 -0.8261
 7955SOL    HW135324   2.507   3.492   4.580 -1.5574  1.5960  1.4547
 7955SOL    HW235325   2.611   3.406   4.641  0.2721  2.5551 -2.9554
 7956SOL     OW35326   3.227   3.350   7.693  0.2139  0.2021 -0.5459
 7956SOL    HW135327   3.225   3.403   7.773 -3.0590  0.5907 -0.8720
 7956SOL    HW235328   3.152   3.292   7.712  0.3284  0.7922  1.7799
 7957SOL     OW35329   1.679   4.282  10.363  0.2482  0.2729  0.0516
 7957SOL    HW135330   1.615   4.285  10.434 -0.1192 -1.5517 -0.2195
 7957SOL    HW235331   1.684   4.190  10.340  1.2654  0.1042  0.9700
 7958SOL     OW35332   0.496   0.796  15.899 -0.5040  0.1007 -0.2660
 7958SOL    HW135333   0.506   0.794  15.804  1.6731  2.5443 -0.0881
 7958SOL    HW235334   0.533   0.882  15.919  3.2466 -1.1519 -1.7264
 7959SOL     OW35335   3.820   3.561   7.524 -0.0511 -1.3330 -0.0857
 7959SOL    HW135336   3.893   3.512   7.487 -1.0250 -2.3213 -0.6888
 7959SOL    HW235337   3.787   3.493   7.583 -0.0138 -0.7582  0.6026
 7960SOL     OW35338   4.480   2.610   6.347 -0.0138  0.1707 -0.1406
 7960SOL    HW135339   4.543   2.606   6.419 -0.8764  2.3782  0.7376
 7960SOL    HW235340   4.413   2.644   6.407 -3.6276 -3.9511 -1.9117
 7961SOL     OW35341   4.031   3.064   1.674 -0.2431  0.3522 -0.5634
 7961SOL    HW135342   3.974   2.988   1.669 -0.3628  0.3938  0.1061
 7961SOL    HW235343   4.014   3.089   1.765  1.5749 -2.3345  0.4970
 7962SOL     OW35344   1.141   3.037   9.185  0.3926 -0.5641 -0.5961
 7962SOL    HW135345   1.211   3.098   9.163  1.1927 -1.4454 -0.4779
 7962SOL    HW235346   1.086   3.053   9.109 -1.2244  1.1230  0.9388
 7963SOL     OW35347   1.039   3.147   7.498 -0.2885 -0.4123  0.2583
 7963SOL    HW135348   0.967   3.202   7.467  1.5287  1.2597 -0.9759
 7963SOL    HW235349   1.064   3.094   7.422 -2.0869 -2.1467  0.8749
 7964SOL     OW35350   2.121   4.473   8.941  0.2785 -0.6509 -0.5575
 7964SOL    HW135351   2.160   4.514   8.863 -1.2403 -0.0175 -0.9762
 7964SOL    HW235352   2.198   4.450   8.993  0.5408 -1.6728 -1.3919
 7965SOL     OW35353   4.151   2.460   4.676 -0.5643  0.1270 -0.3816
 7965SOL    HW135354   4.095   2.410   4.616  1.8322 -3.4872  0.4551
 7965SOL    HW235355   4.089   2.509   4.731 -0.7497 -2.5627  1.7621
 7966SOL     OW35356   2.315   1.335   6.932  0.3378 -0.1960 -0.2265
 7966SOL    HW135357   2.357   1.339   7.018 -3.0753  0.6611  1.4081
 7966SOL    HW235358   2.388   1.333   6.870  0.0813 -1.3136 -0.4918
 7967SOL     OW35359   2.717   3.133   2.533  0.2972 -0.5526  0.1169
 7967SOL    HW135360   2.705   3.208   2.475  0.6167 -0.5074  0.1071
 7967SOL    HW235361   2.766   3.161   2.610 -3.2094 -1.7364  2.7938
 7968SOL     OW35362   3.307   0.064   6.161  0.1822  0.9512 -0.4715
 7968SOL    HW135363   3.269   0.117   6.230 -0.1359 -0.8875  0.7681
 7968SOL    HW235364   3.324   4.702   6.203 -1.3920  0.2786 -1.1869
 7969SOL     OW35365   4.110   0.543   1.960 -0.3622  0.1530 -0.1016
 7969SOL    HW135366   4.043   0.551   2.028 -0.4352  0.9323 -0.2623
 7969SOL    HW235367   4.181   0.580   2.013  0.8092  0.4664 -1.9101
 7970SOL     OW35368   0.891   4.405  13.679 -0.0218 -0.3804 -0.0712
 7970SOL    HW135369   0.963   4.386  13.739  0.5842  0.6582 -0.4780
 7970SOL    HW235370   0.939   4.463  13.621 -2.2028  0.4731 -1.0405
 7971SOL     OW35371   2.879   4.390  16.632 -0.1150  0.5566  0.5909
 7971SOL    HW135372   2.963   4.357  16.599 -0.5197  0.9389 -0.8097
 7971SOL    HW235373   2.903   4.477  16.665  0.6835  0.9279 -0.9801
 7972SOL     OW35374   3.061   1.366   1.427  0.0910 -0.4541  0.4917
 7972SOL    HW135375   3.128   1.423   1.390 -1.2418  0.3704 -0.6332
 7972SOL    HW235376   3.106   1.322   1.499 -1.6048  0.5875  2.1702
 7973SOL     OW35377   2.745   1.908   4.635  0.2969  0.0132 -0.1422
 7973SOL    HW135378   2.676   1.926   4.700  0.7074 -0.5409  0.4519
 7973SOL    HW235379   2.757   1.999   4.609  2.3310 -0.6035 -1.3220
 7974SOL     OW35380   0.676   4.451   7.094 -0.4872 -0.0278  0.2517
 7974SOL    HW135381   0.768   4.476   7.098 -0.1104 -1.9018  2.9331
 7974SOL    HW235382   0.688   4.386   7.024 -3.0074  0.6002 -0.7793
 7975SOL     OW35383   0.497   0.148   2.960 -0.2466  0.0871 -0.2145
 7975SOL    HW135384   0.582   0.153   3.004 -0.0438  0.8079 -0.6879
 7975SOL    HW235385   0.445   0.199   3.021 -0.8611 -0.7469 -0.0471
 7976SOL     OW35386   0.159   0.324   6.727  0.1612  0.1818  0.8157
 7976SOL    HW135387   0.194   0.280   6.804  0.6937 -0.1121  0.4037
 7976SOL    HW235388   0.139   0.245   6.677 -0.7185 -0.6655  2.5284
 7977SOL     OW35389   4.525   0.315   5.259 -0.1463  0.0018 -0.4755
 7977SOL    HW135390   4.461   0.269   5.205  0.1532  1.2892 -1.9072
 7977SOL    HW235391   4.506   0.273   5.344  0.1309 -4.3640 -2.5700
 7978SOL     OW35392   2.636   3.742  16.176 -0.3540  0.0248 -0.5305
 7978SOL    HW135393   2.588   3.762  16.096  0.0910  0.1763 -0.7526
 7978SOL    HW235394   2.576   3.683  16.223  1.1975 -0.9802  0.1639
 7979SOL     OW35395   2.157   3.972  13.610  0.2401 -0.2684  0.0187
 7979SOL    HW135396   2.090   3.912  13.579 -0.1403  0.6646 -0.9769
 7979SOL    HW235397   2.125   3.977  13.700  1.6069  2.0600  0.3919
 7980SOL     OW35398   3.209   1.108   7.080  0.5642 -0.2633 -0.1708
 7980SOL    HW135399   3.114   1.116   7.075  0.6419  1.7947  1.7318
 7980SOL    HW235400   3.205   1.115   7.175 -0.0670 -0.3919 -0.1901
 7981SOL     OW35401   1.803   1.616   6.805  0.2178  0.5952 -0.0117
 7981SOL    HW135402   1.859   1.539   6.803  0.2187  0.5942  0.0488
 7981SOL    HW235403   1.857   1.674   6.860  0.8209  0.6616 -0.6840
 7982SOL     OW35404   1.383   0.619  15.879 -0.0765  0.5627 -0.3490
 7982SOL    HW135405   1.432   0.598  15.959 -1.3212 -0.9895  0.0138
 7982SOL    HW235406   1.327   0.541  15.873 -2.0392  1.8555  1.4821
 7983SOL     OW35407   1.409   0.856   5.952 -0.4897  1.1075  0.6582
 7983SOL    HW135408   1.413   0.937   5.901 -2.3183  0.2839 -0.7620
 7983SOL    HW235409   1.456   0.790   5.901 -1.9016  1.8300 -1.5913
 7984SOL     OW35410   1.923   0.249   4.927  0.3269  0.2914 -0.4143
 7984SOL    HW135411   1.929   0.207   4.841 -1.7087  0.5358 -0.6916
 7984SOL    HW235412   2.006   0.295   4.936 -0.3298  1.2694  0.5928
 7985SOL     OW35413   1.909   0.932   8.265 -0.1909  0.2886 -0.1879
 7985SOL    HW135414   1.886   0.888   8.183 -1.2538 -0.0318  0.2860
 7985SOL    HW235415   2.004   0.944   8.254 -0.1902  0.9173  0.4927
 7986SOL     OW35416   1.859   2.211   0.944  0.4593 -0.3534  0.4524
 7986SOL    HW135417   1.899   2.128   0.970  1.5549 -0.6120 -2.0278
 7986SOL    HW235418   1.767   2.184   0.940  0.8060 -1.2856 -1.2432
 7987SOL     OW35419   2.033   2.738   0.930 -0.2960  0.4164 -0.1898
 7987SOL    HW135420   1.966   2.741   0.999  3.2903  1.7765  3.2441
 7987SOL    HW235421   2.054   2.831   0.923  2.2777 -0.1811 -0.2744
 7988SOL     OW35422   2.866   1.224   3.619  0.1009  0.8852 -0.0214
 7988SOL    HW135423   2.818   1.177   3.551 -0.7149 -0.2722  1.3690
 7988SOL    HW235424   2.846   1.317   3.604  1.9024  1.2778 -0.0734
 7989SOL     OW35425   3.922   0.533   8.964  0.2680 -0.5729  0.0074
 7989SOL    HW135426   4.016   0.522   8.955 -0.2096 -2.6128 -2.6570
 7989SOL    HW235427   3.921   0.580   9.048 -0.0570 -1.5951  0.5746
 7990SOL     OW35428   1.079   1.636  17.531 -0.1380  0.3347 -0.5026
 7990SOL    HW135429   1.009   1.700  17.522 -0.7152 -0.3199 -0.7100
 7990SOL    HW235430   1.136   1.679  17.595 -1.6568 -1.2229  1.8796
 7991SOL     OW35431   2.037   0.383   4.013  0.1291  0.0055  0.0924
 7991SOL    HW135432   1.968   0.436   3.972  1.7974  2.8503  0.9642
 7991SOL    HW235433   2.050   0.445   4.085 -1.7859  1.3461 -0.7022
 7992SOL     OW35434   4.563   0.595   5.305  0.2778 -0.0484  0.1503
 7992SOL    HW135435   4.545   0.501   5.310  0.3339 -0.0150  0.9091
 7992SOL    HW235436   4.631   0.601   5.238  0.2220 -0.0814  0.0900
 7993SOL     OW35437   1.418   4.719   5.395  0.3890  0.3030  0.0842
 7993SOL    HW135438   1.421   4.623   5.393 -3.3216  0.2354 -1.4969
 7993SOL    HW235439   1.403   0.004   5.490  2.0257  1.4963  0.2376
 7994SOL     OW35440   3.453   3.023   8.650 -0.1621  0.4313  0.1352
 7994SOL    HW135441   3.390   3.067   8.707 -0.4878  0.2169 -0.0635
 7994SOL    HW235442   3.455   2.942   8.701 -4.5406  0.6441  0.6329
 7995SOL     OW35443   1.652   1.189   4.475  0.1591  0.0154  0.1868
 7995SOL    HW135444   1.735   1.150   4.448 -0.2668 -2.3172  2.1394
 7995SOL    HW235445   1.597   1.209   4.399  1.3925 -2.6833 -1.4433
 7996SOL     OW35446   0.313   3.478   7.722  0.2885  0.0073 -0.1504
 7996SOL    HW135447   0.258   3.435   7.787  0.4868  0.5159  0.3540
 7996SOL    HW235448   0.296   3.569   7.747 -2.6466 -0.4816 -0.3857
 7997SOL     OW35449   2.727   4.180  12.632 -0.1192 -1.1901 -0.2405
 7997SOL    HW135450   2.806   4.196  12.580 -0.9927  0.2488 -1.1577
 7997SOL    HW235451   2.673   4.146  12.561  0.2139  1.5179 -1.8267
 7998SOL     OW35452   1.080   3.843   6.143 -0.0820  0.0152  0.4679
 7998SOL    HW135453   1.130   3.882   6.071  0.6669 -1.7125  0.0728
 7998SOL    HW235454   1.018   3.916   6.156 -1.5290 -1.1554  0.1649
 7999SOL     OW35455   2.001   0.667   3.050 -0.2927 -0.5073 -0.0341
 7999SOL    HW135456   1.971   0.653   3.140 -0.1016  1.4427  0.3504
 7999SOL    HW235457   1.928   0.623   3.006  0.8638 -1.3450 -1.0917
 8000SOL     OW35458   2.776   0.211  16.039 -0.2931  0.5033 -0.4815
 8000SOL    HW135459   2.730   0.267  15.977  1.0803  0.9184 -1.1208
 8000SOL    HW235460   2.777   0.129  15.991  0.5691 -1.1295  2.2887
 8001SOL     OW35461   3.381   4.107  11.463  0.0743  0.0423 -0.0676
 8001SOL    HW135462   3.310   4.102  11.528 -1.4126 -0.1784 -1.6993
 8001SOL    HW235463   3.335   4.109  11.379  0.7820  0.0458 -0.4482
 8002SOL     OW35464   2.044   3.593   3.184 -0.2309  0.1945  0.8495
 8002SOL    HW135465   1.966   3.602   3.239 -0.6146  0.5125  0.2499
 8002SOL    HW235466   2.011   3.532   3.118 -1.2253  1.1955  0.4186
 8003SOL     OW35467   1.744   3.141   3.427 -0.0777 -1.1918 -0.2115
 8003SOL    HW135468   1.803   3.071   3.399  1.3991  0.3797 -1.0432
 8003SOL    HW235469   1.721   3.177   3.341 -0.3140  0.8722  0.7211
 8004SOL     OW35470   1.977   2.983   3.246 -0.6273 -0.4202  0.5563
 8004SOL    HW135471   1.963   2.892   3.274  2.3888 -0.9426  0.4086
 8004SOL    HW235472   2.040   2.956   3.179 -1.1422 -2.4022  0.8865
 8005SOL     OW35473   2.266   1.814   7.555  0.0894  0.1838 -0.3702
 8005SOL    HW135474   2.234   1.903   7.541  0.8557  0.8030  1.7747
 8005SOL    HW235475   2.337   1.808   7.492  0.2140  1.3438 -0.3483
 8006SOL     OW35476   3.644   2.588  13.249 -0.5591 -0.2964 -0.3528
 8006SOL    HW135477   3.632   2.555  13.160 -1.2622 -0.0731 -0.3391
 8006SOL    HW235478   3.625   2.512  13.305  0.1489 -0.4653 -0.3429
 8007SOL     OW35479   3.273   3.422   8.691 -0.9329 -0.7351  0.1082
 8007SOL    HW135480   3.195   3.415   8.745  0.4243  2.0883  2.4634
 8007SOL    HW235481   3.248   3.386   8.606 -0.9926 -0.4071 -0.0163
 8008SOL     OW35482   4.407   3.669   9.801  0.0699  0.2034  0.3065
 8008SOL    HW135483   4.378   3.716   9.879 -0.9846 -0.1041  0.0952
 8008SOL    HW235484   4.381   3.728   9.730 -0.5250 -2.4428 -1.7037
 8009SOL     OW35485   0.961   4.579   3.161 -0.3148  0.3380 -0.2395
 8009SOL    HW135486   0.986   4.667   3.132  3.1778 -0.8622 -0.9380
 8009SOL    HW235487   0.999   4.581   3.249 -1.8068 -1.7963  0.4641
 8010SOL     OW35488   0.544   3.131   2.301  0.5574  0.5307  0.3990
 8010SOL    HW135489   0.547   3.152   2.394  1.1358  2.7602 -0.1140
 8010SOL    HW235490   0.514   3.218   2.273  0.7811  0.1480 -1.0670
 8011SOL     OW35491   2.115   4.124  13.942 -0.2471 -0.6136 -0.1497
 8011SOL    HW135492   2.091   4.154  13.854 -0.0792 -0.0868 -0.0200
 8011SOL    HW235493   2.038   4.165  13.981 -0.3559 -0.6205 -0.3560
 8012SOL     OW35494   1.450   3.562   2.868  0.5446  0.4879  0.6514
 8012SOL    HW135495   1.426   3.646   2.829 -1.0775 -0.2242  0.1278
 8012SOL    HW235496   1.366   3.516   2.874  0.5912  0.6678  2.6514
 8013SOL     OW35497   2.555   2.660   8.431  0.1678  0.0087 -0.4493
 8013SOL    HW135498   2.498   2.611   8.373 -2.0959 -1.7350  3.2688
 8013SOL    HW235499   2.583   2.727   8.369  0.4520  3.1301  3.0090
 8014SOL     OW35500   3.010   2.451   4.895  0.5825  0.0055  0.0628
 8014SOL    HW135501   3.037   2.501   4.972 -1.7852  0.2530  0.7142
 8014SOL    HW235502   3.059   2.515   4.841 -0.6630  0.6550 -0.2981
 8015SOL     OW35503   3.639   0.071   6.051 -0.2530 -0.5456  0.0208
 8015SOL    HW135504   3.659   0.130   6.124 -0.1560 -2.6636  1.6809
 8015SOL    HW235505   3.636   0.135   5.980 -0.3586  0.0308  0.5434
 8016SOL     OW35506   3.413   0.535  10.708 -0.0430  0.3099 -0.4102
 8016SOL    HW135507   3.470   0.534  10.631  1.3211 -0.4229  0.6224
 8016SOL    HW235508   3.475   0.581  10.765  0.2958 -0.5786 -0.0614
 8017SOL     OW35509   4.170   4.379   5.468 -0.5454  0.3715  0.1104
 8017SOL    HW135510   4.079   4.349   5.468 -0.4624  0.1277 -0.3321
 8017SOL    HW235511   4.223   4.321   5.523  1.7511  0.5037 -1.9700
 8018SOL     OW35512   0.314   3.190   6.025  0.1209 -0.2454  0.4237
 8018SOL    HW135513   0.287   3.282   6.021 -2.1854 -0.9948 -0.7744
 8018SOL    HW235514   0.235   3.137   6.027 -0.5544  0.6510 -3.7921
 8019SOL     OW35515   3.341   1.337   8.478 -0.2378  0.5276  0.3593
 8019SOL    HW135516   3.384   1.307   8.558 -0.2550 -1.4786 -0.4024
 8019SOL    HW235517   3.253   1.304   8.494  0.2011 -0.5908  0.4479
 8020SOL     OW35518   2.964   3.116  15.569  0.0940 -0.2548  0.1485
 8020SOL    HW135519   2.976   3.061  15.491 -0.9197  0.2756 -0.3693
 8020SOL    HW235520   2.973   3.198  15.521  0.2493 -2.0139 -2.8570
 8021SOL     OW35521   2.139   2.638   3.732 -0.1968  0.3256  0.1364
 8021SOL    HW135522   2.233   2.639   3.714 -0.0137 -0.0974  1.0952
 8021SOL    HW235523   2.100   2.640   3.644 -1.1401 -0.2881  0.5402
 8022SOL     OW35524   1.032   0.495   7.551  0.4267 -0.2466  0.6531
 8022SOL    HW135525   0.995   0.425   7.498 -0.9254 -0.7701  2.2866
 8022SOL    HW235526   1.094   0.531   7.487 -1.1910 -0.3998 -1.0025
 8023SOL     OW35527   0.270   4.163   1.754  0.4687 -0.5722  0.0930
 8023SOL    HW135528   0.311   4.120   1.829 -0.5803  0.6944  1.3703
 8023SOL    HW235529   0.340   4.159   1.689 -0.6853  0.4356 -1.2006
 8024SOL     OW35530   2.259   1.863  15.006 -0.7778 -0.0943  0.3484
 8024SOL    HW135531   2.323   1.912  15.057  1.6381 -0.5657 -2.3019
 8024SOL    HW235532   2.176   1.911  15.011 -0.3698  0.5326  1.0864
 8025SOL     OW35533   0.987   0.964   5.934 -0.9788  0.5797 -0.0643
 8025SOL    HW135534   0.907   0.983   5.984 -0.8023  0.0743  0.4096
 8025SOL    HW235535   0.952   0.886   5.890  0.2468 -0.1519  0.2864
 8026SOL     OW35536   2.883   3.598   4.007  1.1217  0.0997  0.2152
 8026SOL    HW135537   2.870   3.646   3.925 -2.1261  0.6106  1.0091
 8026SOL    HW235538   2.972   3.564   4.000  0.1480 -2.3829 -0.1471
 8027SOL     OW35539   1.437   2.119   4.920 -0.0087  0.2538  0.0720
 8027SOL    HW135540   1.462   2.182   4.852  3.9744 -1.9725 -0.5312
 8027SOL    HW235541   1.457   2.169   4.998 -1.1854 -1.1886  1.2900
 8028SOL     OW35542   2.333   0.834   6.096  0.3487 -0.5624 -0.8561
 8028SOL    HW135543   2.353   0.880   6.014 -1.3118  2.7941  0.6207
 8028SOL    HW235544   2.424   0.817   6.117  0.6329  0.1434 -1.4894
 8029SOL     OW35545   4.648   0.917  11.053  0.4525  0.3987 -0.9192
 8029SOL    HW135546   4.640   0.828  11.089  0.7205  0.7843  0.1108
 8029SOL    HW235547   4.667   0.970  11.131 -1.7055  1.7280 -1.2933
 8030SOL     OW35548   1.835   4.150   9.263 -0.4064 -0.7216  0.0498
 8030SOL    HW135549   1.796   4.074   9.220  0.1049 -0.4778 -0.8565
 8030SOL    HW235550   1.892   4.189   9.196 -0.4790  3.4630  2.3749
 8031SOL     OW35551   2.417   4.121  12.049  0.2713  0.6218 -0.5928
 8031SOL    HW135552   2.366   4.065  11.990 -0.8864  3.3167 -2.1341
 8031SOL    HW235553   2.369   4.203  12.037 -0.9980 -0.1474 -0.8406
 8032SOL     OW35554   1.213   3.722   6.642  0.3844  0.6078 -0.1461
 8032SOL    HW135555   1.191   3.716   6.734  0.9513 -1.5782 -0.1587
 8032SOL    HW235556   1.294   3.772   6.645 -0.4297  1.8870  0.5117
 8033SOL     OW35557   2.156   1.637   6.698 -0.3204 -0.2436  0.6337
 8033SOL    HW135558   2.197   1.719   6.725 -2.9757  1.2916 -0.0339
 8033SOL    HW235559   2.147   1.601   6.787  1.4638  0.7515  1.2248
 8034SOL     OW35560   1.254   2.532   1.187  0.2050 -0.3291  0.6229
 8034SOL    HW135561   1.337   2.544   1.234 -0.1574  1.5793  0.7505
 8034SOL    HW235562   1.203   2.505   1.264 -2.3264  1.4818 -0.4182
 8035SOL     OW35563   4.259   3.590  11.580 -0.3050 -0.3886  0.7966
 8035SOL    HW135564   4.316   3.515  11.599 -0.6702 -0.8169  0.1976
 8035SOL    HW235565   4.323   3.660  11.594  0.0524 -0.5902  0.1800
 8036SOL     OW35566   1.299   3.158   2.238  0.3712  0.3932 -0.5355
 8036SOL    HW135567   1.208   3.151   2.267  1.0600 -1.9725  1.0612
 8036SOL    HW235568   1.297   3.110   2.156  1.2715  1.3601 -1.1222
 8037SOL     OW35569   0.173   3.924   7.789  0.0672 -0.0143 -0.9869
 8037SOL    HW135570   0.240   3.932   7.721  1.8965 -3.0003  0.4708
 8037SOL    HW235571   0.172   4.010   7.830  0.2843  0.9177 -2.9311
 8038SOL     OW35572   4.626   0.322   1.237 -0.3238  0.0279 -0.1770
 8038SOL    HW135573   4.639   0.415   1.217  1.9488 -0.3404 -0.4704
 8038SOL    HW235574   4.531   0.318   1.231 -0.5105  1.1667  2.2477
 8039SOL     OW35575   0.496   0.659  17.604  0.2720 -0.2536 -0.2353
 8039SOL    HW135576   0.536   0.671  17.690 -1.3249  0.3248  0.4122
 8039SOL    HW235577   0.452   0.577  17.624 -0.1898 -0.0395 -0.3826
 8040SOL     OW35578   4.468   2.539   7.538  0.4085  0.5583  0.1119
 8040SOL    HW135579   4.491   2.594   7.613  0.5664 -0.6775  0.9782
 8040SOL    HW235580   4.541   2.478   7.539  0.0760  0.1846  1.7064
 8041SOL     OW35581   3.944   2.908   5.690 -0.1456  0.0740 -0.0833
 8041SOL    HW135582   4.008   2.925   5.760  0.5301 -0.6237 -0.5319
 8041SOL    HW235583   3.862   2.918   5.738  0.4858  1.2198  0.7690
 8042SOL     OW35584   2.673   1.503   2.427 -0.3387  0.1533  0.7047
 8042SOL    HW135585   2.684   1.497   2.522  0.8229  1.7291  0.6701
 8042SOL    HW235586   2.730   1.579   2.410 -0.9875  0.0866 -1.8448
 8043SOL     OW35587   2.749   2.494   7.767  0.1358  0.1435  0.4077
 8043SOL    HW135588   2.827   2.518   7.717  0.4831 -3.2780 -0.6623
 8043SOL    HW235589   2.778   2.405   7.787 -0.6877 -0.0660  0.6434
 8044SOL     OW35590   2.523   0.353   9.516 -0.5974  0.2108 -0.4078
 8044SOL    HW135591   2.470   0.308   9.450 -0.0454 -0.6368 -0.2802
 8044SOL    HW235592   2.541   0.426   9.458  0.4643  1.1329  1.1019
 8045SOL     OW35593   0.377   1.328   8.261  0.0621 -0.6527  0.1945
 8045SOL    HW135594   0.330   1.309   8.342 -0.3276 -0.2320  0.0654
 8045SOL    HW235595   0.405   1.415   8.287  0.4974 -0.6206 -0.3763
 8046SOL     OW35596   2.427   1.056   4.611  0.2628  0.2033 -0.0332
 8046SOL    HW135597   2.494   1.033   4.547  2.0440 -0.0845  1.9115
 8046SOL    HW235598   2.403   1.145   4.587 -0.9316 -0.1533 -0.1660
 8047SOL     OW35599   4.477   3.969   6.419  0.5810  0.1075  0.0622
 8047SOL    HW135600   4.480   3.920   6.337 -1.5115 -1.9384  1.2418
 8047SOL    HW235601   4.400   4.024   6.411  2.0742  2.5490  2.4391
 8048SOL     OW35602   2.231   3.001  12.239 -0.2062 -0.4501  0.3176
 8048SOL    HW135603   2.199   2.974  12.152  0.1182 -0.0706  0.0839
 8048SOL    HW235604   2.163   2.956  12.290 -1.2367  2.2394  1.3403
 8049SOL     OW35605   1.159   4.380   7.749 -0.2169 -0.1141 -0.4769
 8049SOL    HW135606   1.129   4.468   7.773  1.0184 -0.7779  3.5014
 8049SOL    HW235607   1.188   4.352   7.836 -0.3380  0.5078 -0.2320
 8050SOL     OW35608   1.042   1.164   3.264 -0.1197 -0.1192  0.0221
 8050SOL    HW135609   1.117   1.127   3.217 -1.8793 -0.6026 -2.3486
 8050SOL    HW235610   1.067   1.253   3.290 -3.5688  1.5022 -2.2377
 8051SOL     OW35611   4.198   3.823   5.002  0.2141  0.1625 -0.3712
 8051SOL    HW135612   4.118   3.851   5.047 -0.3401 -1.4437 -0.3400
 8051SOL    HW235613   4.183   3.862   4.916 -1.6871 -0.1951 -0.1993
 8052SOL     OW35614   2.395   4.363  10.592 -0.1033  0.8193  0.5780
 8052SOL    HW135615   2.463   4.298  10.574 -0.6375  0.3209  0.3118
 8052SOL    HW235616   2.386   4.351  10.686  0.4869 -1.4931  0.3461
 8053SOL     OW35617   0.957   3.711   7.856  0.0347  0.2731 -0.4224
 8053SOL    HW135618   0.964   3.623   7.818  1.5313 -0.6432  1.9866
 8053SOL    HW235619   0.914   3.685   7.937 -1.7391 -0.6824 -1.6442
 8054SOL     OW35620   2.695   1.699   5.709 -0.2659  0.0642 -0.0121
 8054SOL    HW135621   2.729   1.750   5.635  0.3726  1.0682  0.9748
 8054SOL    HW235622   2.665   1.772   5.763 -1.0582  0.3308 -0.8141
 8055SOL     OW35623   3.960   4.052   1.597  0.5522 -0.2510 -0.2136
 8055SOL    HW135624   4.023   4.121   1.619  1.7216 -1.1659 -0.6939
 8055SOL    HW235625   3.973   4.006   1.680  2.5073  0.2534 -0.2229
 8056SOL     OW35626   0.502   0.727   3.253  0.7175  0.5957 -0.1189
 8056SOL    HW135627   0.407   0.737   3.256  0.7762  1.6426 -1.5812
 8056SOL    HW235628   0.498   0.632   3.244 -0.2278  0.6510 -0.2943
 8057SOL     OW35629   0.799   2.671   6.747  0.0607  0.3373  0.3504
 8057SOL    HW135630   0.890   2.687   6.771 -0.1756  0.3697  1.2164
 8057SOL    HW235631   0.797   2.684   6.652  3.2891  0.9535  0.3499
 8058SOL     OW35632   2.787   3.754  17.132  0.0511  0.4542 -0.4326
 8058SOL    HW135633   2.810   3.847  17.139 -0.8993  0.6144  0.6371
 8058SOL    HW235634   2.716   3.751  17.067  0.4226 -0.7043 -0.7857
 8059SOL     OW35635   4.123   0.069   2.790 -0.5635 -0.1647  0.3179
 8059SOL    HW135636   4.117   0.117   2.707  1.5175  1.3951  1.0548
 8059SOL    HW235637   4.117   0.149   2.842 -0.3325  0.5408 -0.7256
 8060SOL     OW35638   3.859   1.651  14.253  0.2951 -0.0248 -0.5387
 8060SOL    HW135639   3.889   1.621  14.339  0.0926 -3.5173 -1.6641
 8060SOL    HW235640   3.937   1.640  14.199  1.2880  0.8322  0.7349
 8061SOL     OW35641   3.523   1.433  15.926 -0.1250 -0.1528  0.7547
 8061SOL    HW135642   3.546   1.515  15.971 -0.5983  1.0898 -1.2831
 8061SOL    HW235643   3.475   1.400  16.002 -0.9193  1.7565  1.0956
 8062SOL     OW35644   2.157   0.570   9.691 -0.0209 -0.5517 -0.6501
 8062SOL    HW135645   2.135   0.493   9.639  1.7068 -0.9588 -0.7810
 8062SOL    HW235646   2.234   0.533   9.735 -0.6846 -2.1125 -0.8103
 8063SOL     OW35647   1.346   2.823   5.351 -0.3642  0.5024 -0.3371
 8063SOL    HW135648   1.360   2.828   5.257 -2.3645  1.4508 -0.5798
 8063SOL    HW235649   1.398   2.746   5.374  0.2099  1.2108  0.7567
 8064SOL     OW35650   3.048   4.034   5.941  0.1850  0.1469 -0.6987
 8064SOL    HW135651   2.956   4.009   5.932  0.0064  0.0171  1.5003
 8064SOL    HW235652   3.058   4.025   6.036  0.3226  1.1250 -0.6155
 8065SOL     OW35653   0.762   4.048   2.294 -0.7350 -0.7075  0.4917
 8065SOL    HW135654   0.852   4.061   2.323 -0.3538 -1.4686 -0.3434
 8065SOL    HW235655   0.779   4.092   2.211  1.2237  0.1417  1.3637
 8066SOL     OW35656   1.464   2.785   9.801 -0.2894 -0.0001  0.3195
 8066SOL    HW135657   1.368   2.777   9.800 -0.1075 -2.1952  0.8064
 8066SOL    HW235658   1.477   2.866   9.850  2.0448  1.2452 -2.3647
 8067SOL     OW35659   3.082   1.884   6.399 -0.5547 -0.1975  0.4058
 8067SOL    HW135660   3.154   1.900   6.338 -1.5269  2.3491 -0.0765
 8067SOL    HW235661   3.050   1.797   6.373 -2.1610  0.1606  1.1895
 8068SOL     OW35662   2.389   0.391  16.422 -0.0206  0.2712  0.1447
 8068SOL    HW135663   2.324   0.324  16.439  0.5029 -0.2270  0.1755
 8068SOL    HW235664   2.342   0.440  16.354  0.9134  0.8595 -0.0809
 8069SOL     OW35665   2.599   4.581   3.981 -0.2419 -0.6437 -0.2127
 8069SOL    HW135666   2.537   4.510   3.967 -1.9450  0.4237  1.8978
 8069SOL    HW235667   2.553   4.620   4.056  0.9516  0.8587 -0.2487
 8070SOL     OW35668   1.463   1.809  10.154  0.4313  0.5350  0.6613
 8070SOL    HW135669   1.430   1.894  10.183 -0.5881  0.9605 -1.6909
 8070SOL    HW235670   1.440   1.761  10.233 -2.0565 -1.4140 -1.2576
 8071SOL     OW35671   1.848   4.387   5.134 -0.0900  0.4193 -1.0175
 8071SOL    HW135672   1.864   4.309   5.186 -0.9937  0.8477 -0.1070
 8071SOL    HW235673   1.771   4.428   5.171 -0.1650  1.7236 -2.5974
 8072SOL     OW35674   0.473   1.639   8.042  0.3581  0.1627  0.4339
 8072SOL    HW135675   0.476   1.730   8.013  0.8461  0.9457  2.9518
 8072SOL    HW235676   0.399   1.601   7.995  0.4358  0.2845  0.2104
 8073SOL     OW35677   2.026   0.570  15.396 -0.1799  0.2522 -0.1082
 8073SOL    HW135678   1.941   0.528  15.410  0.2449  0.2015  2.3820
 8073SOL    HW235679   2.046   0.577  15.490  1.7287 -0.3634 -0.4729
 8074SOL     OW35680   1.175   0.153  13.439 -0.0320 -0.4040 -0.5299
 8074SOL    HW135681   1.082   0.140  13.419 -0.2464 -1.4596  1.1439
 8074SOL    HW235682   1.206   0.063  13.445  0.6580 -0.0399  1.2790
 8075SOL     OW35683   2.607   1.287  13.580 -0.0575 -0.6167 -0.4765
 8075SOL    HW135684   2.626   1.209  13.529 -0.3239 -0.0135 -1.4847
 8075SOL    HW235685   2.696   1.324  13.582  0.3682 -1.6937  0.3489
 8076SOL     OW35686   2.295   0.973   5.872 -0.0109  0.0373  0.3943
 8076SOL    HW135687   2.365   1.024   5.830 -1.9101  1.3304 -1.1741
 8076SOL    HW235688   2.245   1.038   5.920  2.4916  2.8350 -0.7805
 8077SOL     OW35689   2.774   0.841   6.342  0.3729  0.3504 -0.4454
 8077SOL    HW135690   2.767   0.751   6.311  1.0096 -0.1979  1.0090
 8077SOL    HW235691   2.850   0.860   6.287 -1.7596  2.3832 -2.7241
 8078SOL     OW35692   4.700   0.315   3.034  0.3336 -0.4808 -0.2220
 8078SOL    HW135693   4.642   0.348   3.102 -0.9294 -1.7508 -0.6891
 8078SOL    HW235694   4.683   0.221   3.047  0.7871 -0.0498  3.5221
 8079SOL     OW35695   3.439   0.254   5.285  0.7372  0.8189 -0.3132
 8079SOL    HW135696   3.458   0.295   5.369  1.0078 -0.3107  0.1738
 8079SOL    HW235697   3.504   0.289   5.223  1.6593 -0.4622 -0.0639
 8080SOL     OW35698   1.269   2.780   4.692 -0.3160  0.1630 -0.0224
 8080SOL    HW135699   1.211   2.753   4.621  1.0525 -2.3568 -0.2222
 8080SOL    HW235700   1.305   2.857   4.648 -0.2950  0.1753  0.0163
 8081SOL     OW35701   0.215   3.753  11.824  0.0334  0.1276 -0.3641
 8081SOL    HW135702   0.185   3.670  11.860  1.5251  0.2176  1.1101
 8081SOL    HW235703   0.269   3.721  11.752 -1.1975 -0.5647 -0.9657
 8082SOL     OW35704   3.707   3.611   3.828 -0.1786 -0.5510  0.3599
 8082SOL    HW135705   3.632   3.670   3.817  0.1500  0.0063  1.1318
 8082SOL    HW235706   3.718   3.627   3.921  0.1265  1.6266 -0.0436
 8083SOL     OW35707   4.629   0.885   1.264  0.4927  0.5442 -0.5750
 8083SOL    HW135708   4.602   0.858   1.352  0.1421 -1.3849 -1.2855
 8083SOL    HW235709   4.555   0.855   1.212  1.2979  0.5191 -1.7102
 8084SOL     OW35710   2.181   0.666   9.199 -0.1071  0.1846  0.6969
 8084SOL    HW135711   2.235   0.701   9.128 -0.6109  0.6304  0.5384
 8084SOL    HW235712   2.106   0.645   9.144 -0.0483 -0.9081  1.0164
 8085SOL     OW35713   3.007   0.660   2.574 -0.2911 -0.0085 -0.4800
 8085SOL    HW135714   3.018   0.567   2.553  2.5262  0.2607 -0.1829
 8085SOL    HW235715   2.913   0.666   2.588 -0.3060  0.1333 -0.6374
 8086SOL     OW35716   0.002   3.575   7.266  0.6277 -0.0531  0.1629
 8086SOL    HW135717   4.643   3.622   7.245 -0.6634 -1.3004  2.3485
 8086SOL    HW235718   0.050   3.649   7.304  3.4359 -1.5487 -0.4810
 8087SOL     OW35719   2.531   4.189   2.799  0.8293 -0.1394 -0.3586
 8087SOL    HW135720   2.469   4.143   2.742 -1.9156  2.9288  0.1182
 8087SOL    HW235721   2.513   4.277   2.765  1.1874 -0.3969 -1.2213
 8088SOL     OW35722   2.691   2.548   5.116 -0.2963 -0.5553  0.0328
 8088SOL    HW135723   2.722   2.636   5.141 -0.6561 -0.3761 -0.1584
 8088SOL    HW235724   2.658   2.513   5.199 -0.3809  0.3521  0.3853
 8089SOL     OW35725   1.086   4.020   1.742  0.2450 -0.4123  0.1742
 8089SOL    HW135726   1.069   3.944   1.796 -1.9093  0.1882  0.3341
 8089SOL    HW235727   1.019   4.078   1.778  1.8972 -0.0294  2.6368
 8090SOL     OW35728   4.381   0.349   5.858  0.1293  0.2960 -0.3863
 8090SOL    HW135729   4.449   0.346   5.790  0.1000  2.3913 -0.5094
 8090SOL    HW235730   4.325   0.419   5.824 -0.5128 -1.1122 -2.2782
 8091SOL     OW35731   3.845   3.378   1.664 -0.1504 -0.3026 -0.3565
 8091SOL    HW135732   3.865   3.388   1.571  1.8463  1.7524  0.2870
 8091SOL    HW235733   3.762   3.330   1.660 -1.1584  1.4335 -0.1393
 8092SOL     OW35734   0.779   2.860   9.817 -0.5056 -0.2648 -0.3431
 8092SOL    HW135735   0.815   2.940   9.858  1.9242 -2.1505  1.2283
 8092SOL    HW235736   0.794   2.877   9.724  0.9377 -1.3498 -0.3133
 8093SOL     OW35737   4.089   0.744   7.343 -0.2732 -0.0439 -0.0656
 8093SOL    HW135738   4.180   0.717   7.340  0.1195  1.3759 -1.2343
 8093SOL    HW235739   4.032   0.669   7.359 -0.7276  0.5626  1.2119
 8094SOL     OW35740   2.202   2.649   4.238 -0.1240 -1.1960  1.1094
 8094SOL    HW135741   2.192   2.710   4.164 -3.0765 -0.9655  1.6769
 8094SOL    HW235742   2.295   2.630   4.239 -0.2028 -1.5587  1.4585
 8095SOL     OW35743   3.261   4.713   9.323 -0.4779 -0.1021 -0.0226
 8095SOL    HW135744   3.312   0.003   9.243  0.9583  0.2197  0.9379
 8095SOL    HW235745   3.334   4.690   9.381 -0.0942  0.7200 -0.1645
 8096SOL     OW35746   4.209   1.129   6.162 -0.3007  0.7773  0.5251
 8096SOL    HW135747   4.160   1.193   6.214  0.6255  1.0423  1.0763
 8096SOL    HW235748   4.293   1.138   6.208 -0.1700  1.4393  0.1456
 8097SOL     OW35749   1.276   3.527   4.283 -0.2044 -0.5248  0.5299
 8097SOL    HW135750   1.198   3.476   4.263 -0.4103 -0.5719  1.4220
 8097SOL    HW235751   1.331   3.452   4.304  0.9424 -0.5536 -2.6665
 8098SOL     OW35752   2.723   2.889  14.499 -0.2951 -0.8782 -0.2465
 8098SOL    HW135753   2.643   2.912  14.452  0.2375 -2.1729 -1.7992
 8098SOL    HW235754   2.792   2.903  14.433 -1.4521 -4.2197 -2.1599
 8099SOL     OW35755   2.113   4.099   5.979 -0.0758 -0.0890 -0.0208
 8099SOL    HW135756   2.040   4.105   5.917 -1.1025  0.7101  1.2699
 8099SOL    HW235757   2.074   4.135   6.059  1.2778 -1.4142  1.2335
 8100SOL     OW35758   1.960   3.523   0.486  0.2665 -0.4528  0.9228
 8100SOL    HW135759   1.961   3.496   0.394  0.2586  1.1842  0.4375
 8100SOL    HW235760   2.048   3.555   0.504 -0.0531 -0.0625  1.7897
 8101SOL     OW35761   1.559   3.657  10.335 -0.4871  0.3095  1.1550
 8101SOL    HW135762   1.544   3.591  10.402 -2.8834 -1.5607 -1.2347
 8101SOL    HW235763   1.486   3.637  10.276 -0.5627 -0.8584  1.6532
 8102SOL     OW35764   3.799   0.761   5.765 -0.0309 -0.1082 -0.4315
 8102SOL    HW135765   3.743   0.818   5.818  1.2487  1.7046 -1.0771
 8102SOL    HW235766   3.848   0.828   5.719  0.6661  1.8157  3.1664
 8103SOL     OW35767   0.350   2.925   2.448 -0.1153 -0.1683 -0.4010
 8103SOL    HW135768   0.386   3.006   2.483  0.8025 -0.8619  0.2598
 8103SOL    HW235769   0.417   2.906   2.383 -0.5049  2.2972 -1.5138
 8104SOL     OW35770   1.787   0.189  10.927  0.6653 -0.2558 -0.2362
 8104SOL    HW135771   1.707   0.231  10.958 -1.0963 -1.4397 -3.1250
 8104SOL    HW235772   1.808   0.128  10.998 -0.9335 -2.5112 -1.7188
 8105SOL     OW35773   0.770   4.661   9.450  0.2320 -0.0638 -0.3653
 8105SOL    HW135774   0.816   4.577   9.448  1.9353  0.8884 -1.8484
 8105SOL    HW235775   0.756   4.664   9.545 -1.3663 -1.7626 -0.5690
 8106SOL     OW35776   0.844   0.924   2.010  1.0147 -0.4079 -0.3180
 8106SOL    HW135777   0.901   0.847   2.002  1.2566 -0.3888  1.3189
 8106SOL    HW235778   0.798   0.907   1.927 -0.6398  0.5531  0.4125
 8107SOL     OW35779   4.376   4.152   8.012 -0.2485  0.6512  0.3079
 8107SOL    HW135780   4.306   4.095   8.045  0.9746 -1.1136 -0.1536
 8107SOL    HW235781   4.332   4.237   8.013 -1.6527 -0.0768  0.9486
 8108SOL     OW35782   1.475   4.525   1.802  0.1329 -0.1096 -0.0193
 8108SOL    HW135783   1.438   4.606   1.838 -0.4274 -0.1531 -0.4898
 8108SOL    HW235784   1.485   4.480   1.886 -0.4765 -1.5463 -0.7158
 8109SOL     OW35785   2.405   1.833   5.823 -0.3657  0.6517 -0.1717
 8109SOL    HW135786   2.354   1.892   5.768  0.6387  1.0352 -0.7046
 8109SOL    HW235787   2.493   1.871   5.823 -1.0725  2.2970 -0.5603
 8110SOL     OW35788   2.104   4.637  11.328  0.0636  0.4340 -0.0311
 8110SOL    HW135789   2.051   4.717  11.327  0.8556  0.8995 -4.1351
 8110SOL    HW235790   2.185   4.682  11.302  0.2364  0.1022 -0.0578
 8111SOL     OW35791   1.778   1.858  16.172  0.3682 -0.1183 -0.1204
 8111SOL    HW135792   1.806   1.766  16.177  1.3408  0.2753  1.5449
 8111SOL    HW235793   1.749   1.879  16.260 -0.7826  0.5727 -0.6710
 8112SOL     OW35794   1.317   0.787  15.651  0.7581 -0.0850  0.0059
 8112SOL    HW135795   1.327   0.759  15.742 -0.3179  1.1148  0.4901
 8112SOL    HW235796   1.262   0.865  15.663 -0.0228 -0.8276  1.2503
 8113SOL     OW35797   4.658   0.036   3.305 -0.0458 -0.6296  0.2527
 8113SOL    HW135798   4.600   0.036   3.229 -0.7669 -0.6738  0.8049
 8113SOL    HW235799   4.596   0.059   3.374 -2.5329 -1.9918 -1.5223
 8114SOL     OW35800   4.140   1.251  14.494  0.0620 -0.5118 -0.7464
 8114SOL    HW135801   4.211   1.291  14.443  0.1881 -2.0085 -1.7325
 8114SOL    HW235802   4.130   1.168  14.449  0.1858 -0.9088 -0.0376
 8115SOL     OW35803   1.871   2.791   1.149 -0.4152 -0.1381  0.0431
 8115SOL    HW135804   1.838   2.869   1.193 -2.6836 -2.2811  2.0626
 8115SOL    HW235805   1.790   2.741   1.151 -0.4811 -0.0172  0.2765
 8116SOL     OW35806   2.391   0.620   7.529 -0.5251 -0.4748  0.3490
 8116SOL    HW135807   2.456   0.587   7.592 -1.0532 -2.6216 -0.2258
 8116SOL    HW235808   2.443   0.669   7.466 -1.3931 -0.9731 -0.7466
 8117SOL     OW35809   3.871   4.703   2.015  0.3598  0.1330 -0.4516
 8117SOL    HW135810   3.883   0.067   2.055  0.2660  0.7951 -1.8191
 8117SOL    HW235811   3.909   4.645   2.081  1.7712  0.0916 -1.3020
 8118SOL     OW35812   4.178   2.041   2.063 -0.1446 -0.1253 -0.1341
 8118SOL    HW135813   4.268   2.074   2.058  0.5408 -1.8481  1.0159
 8118SOL    HW235814   4.133   2.098   2.001  1.2633  2.2673  1.0198
 8119SOL     OW35815   1.535   2.442  11.721  0.4953  0.0168  0.4474
 8119SOL    HW135816   1.573   2.402  11.799  1.4328  0.0733  0.0300
 8119SOL    HW235817   1.608   2.437  11.658 -0.7933  0.9550 -1.1098
 8120SOL     OW35818   0.192   0.058   6.670 -0.4875  0.3808 -0.3157
 8120SOL    HW135819   0.130   0.025   6.605  0.2614 -0.4071 -0.6518
 8120SOL    HW235820   0.215   4.706   6.726  1.8839  0.2352 -1.4444
 8121SOL     OW35821   0.754   0.328   5.775 -0.8097  0.2290 -0.4837
 8121SOL    HW135822   0.662   0.314   5.798 -0.3278  0.8416  1.7736
 8121SOL    HW235823   0.747   0.392   5.704 -0.1698 -0.6288 -1.3242
 8122SOL     OW35824   3.477   0.225   6.717  0.2810  0.5933 -0.6146
 8122SOL    HW135825   3.510   0.161   6.654  0.4259 -0.8096  0.8569
 8122SOL    HW235826   3.422   0.167   6.771  0.9675  0.3966 -0.1210
 8123SOL     OW35827   1.280   3.229   8.831  0.3252 -0.2202 -0.2161
 8123SOL    HW135828   1.337   3.297   8.794  1.2825 -1.6752 -1.4018
 8123SOL    HW235829   1.325   3.202   8.911 -1.0222 -0.2167  0.5435
 8124SOL     OW35830   1.044   2.182  13.259 -0.0415  0.6923  0.1664
 8124SOL    HW135831   1.114   2.135  13.213  0.1687  2.1170 -0.9763
 8124SOL    HW235832   1.081   2.265  13.288 -0.1084  0.4415  0.9843
 8125SOL     OW35833   2.788   3.185  15.243 -0.1187  0.0109 -0.2818
 8125SOL    HW135834   2.825   3.250  15.303  1.2880 -0.0281 -1.0942
 8125SOL    HW235835   2.829   3.210  15.160 -0.1239  1.2379  0.0825
 8126SOL     OW35836   0.022   0.886  11.717 -0.4074 -0.0826  0.4315
 8126SOL    HW135837   4.706   0.879  11.804  0.5941  1.2368  0.9999
 8126SOL    HW235838   0.043   0.980  11.713 -0.0446 -0.2368 -1.1729
 8127SOL     OW35839   4.164   3.834   2.297  0.3591  0.2501 -0.0682
 8127SOL    HW135840   4.242   3.817   2.244  1.1307  0.8573  0.8766
 8127SOL    HW235841   4.140   3.747   2.329  0.8981  0.8263  1.8771
 8128SOL     OW35842   0.171   0.101   6.139  0.0061  0.0187 -0.8281
 8128SOL    HW135843   0.078   0.090   6.160 -0.3263 -0.6037 -2.5505
 8128SOL    HW235844   0.166   0.195   6.119  1.4782  0.4429  0.8381
 8129SOL     OW35845   0.580   2.236   3.296  0.1265  0.4762  0.2007
 8129SOL    HW135846   0.519   2.171   3.261  0.3640  0.1494  0.3946
 8129SOL    HW235847   0.519   2.290   3.347 -0.3712 -0.7772  0.9366
 8130SOL     OW35848   3.624   1.904   7.420  0.0052 -0.1295 -0.1302
 8130SOL    HW135849   3.561   1.923   7.490 -1.4041  0.1663 -1.4851
 8130SOL    HW235850   3.695   1.860   7.467  1.6767  1.4115 -1.1981
 8131SOL     OW35851   0.846   3.944   1.562  0.1168  0.2255  0.1688
 8131SOL    HW135852   0.941   3.947   1.574 -0.0265  1.8711  0.9523
 8131SOL    HW235853   0.831   4.028   1.517  2.4273  0.9134  0.6914
 8132SOL     OW35854   0.108   3.743   8.374  0.1210 -0.0252 -0.0618
 8132SOL    HW135855   0.102   3.794   8.293  1.8684 -2.5059 -1.7616
 8132SOL    HW235856   0.191   3.772   8.412 -0.5667  1.4988  0.2787
 8133SOL     OW35857   3.667   0.222   3.332 -0.2212 -0.3746 -0.6754
 8133SOL    HW135858   3.625   0.241   3.248 -0.1714 -2.4833 -1.1844
 8133SOL    HW235859   3.725   0.153   3.300 -3.0351 -2.5484 -1.0842
 8134SOL     OW35860   1.075   2.912   2.249  0.1372 -0.3780  0.3545
 8134SOL    HW135861   1.028   2.948   2.323  0.1934 -1.0496  0.7151
 8134SOL    HW235862   1.035   2.826   2.235 -1.8421  0.6832 -0.4761
 8135SOL     OW35863   2.971   2.008   5.477  0.2383 -0.0996 -0.5050
 8135SOL    HW135864   2.989   1.969   5.391  0.3083 -0.2787 -0.4089
 8135SOL    HW235865   3.052   2.050   5.506 -1.5425  1.9048  1.5607
 8136SOL     OW35866   3.056   1.862   5.268  0.0977 -0.3421 -0.3846
 8136SOL    HW135867   3.118   1.838   5.199 -1.1671 -1.0203 -1.2748
 8136SOL    HW235868   2.974   1.859   5.220 -1.2351  1.4592  1.8024
 8137SOL     OW35869   0.133   0.447   8.831 -0.6412  0.0303 -0.7523
 8137SOL    HW135870   0.200   0.397   8.785 -1.5932  0.0586 -2.1340
 8137SOL    HW235871   0.176   0.473   8.913 -1.3832  0.0718 -0.3752
 8138SOL     OW35872   3.436   3.122   0.449  0.3923 -0.1413  0.4231
 8138SOL    HW135873   3.474   3.085   0.529  2.1895  1.4596  0.3051
 8138SOL    HW235874   3.352   3.077   0.451  0.8273 -0.8463  3.2310
 8139SOL     OW35875   2.603   1.252   4.743  0.5749 -0.7350 -0.0593
 8139SOL    HW135876   2.577   1.187   4.677  0.3246 -0.9040  0.2038
 8139SOL    HW235877   2.676   1.295   4.699  0.3570 -0.1122  0.1824
 8140SOL     OW35878   0.038   3.241   3.995  0.0092  0.0373 -0.0827
 8140SOL    HW135879   0.067   3.191   4.071  1.4478  1.3654  0.2363
 8140SOL    HW235880   0.032   3.172   3.930 -1.3772  0.0852 -0.0126
 8141SOL     OW35881   4.439   0.880   8.318 -0.3191 -0.2363  0.0569
 8141SOL    HW135882   4.514   0.847   8.368 -0.3942 -0.7177 -0.1491
 8141SOL    HW235883   4.428   0.953   8.379 -0.0022 -0.7061  0.6848
 8142SOL     OW35884   0.819   3.933   7.613 -0.2645  0.1767  0.8616
 8142SOL    HW135885   0.726   3.952   7.603 -0.1755  0.6808  1.0254
 8142SOL    HW235886   0.830   3.962   7.703  1.1281 -0.7180  0.9780
 8143SOL     OW35887   1.327   3.092  12.796 -0.6077 -0.5718 -0.3832
 8143SOL    HW135888   1.381   3.164  12.828 -1.5702 -0.7599  1.6865
 8143SOL    HW235889   1.365   3.079  12.709  2.4394 -1.4338  1.0839
 8144SOL     OW35890   2.588   1.019   1.570 -0.2038 -0.2749 -0.3602
 8144SOL    HW135891   2.505   1.025   1.618 -0.3338  2.7205 -0.9232
 8144SOL    HW235892   2.559   1.049   1.484  0.3064  0.8288 -0.1493
 8145SOL     OW35893   1.014   2.270  10.367  0.8014 -0.4086 -0.0617
 8145SOL    HW135894   1.048   2.303  10.450 -0.7917  2.4126 -0.5230
 8145SOL    HW235895   0.920   2.282  10.379  1.3670  2.2120  1.5157
 8146SOL     OW35896   4.230   1.816   6.207 -0.4634  0.9040 -0.0389
 8146SOL    HW135897   4.138   1.804   6.187 -0.0978 -0.3461 -0.9247
 8146SOL    HW235898   4.251   1.751   6.274 -0.4293 -0.1815 -1.1150
 8147SOL     OW35899   2.266   2.284   2.411 -0.4065  0.4612 -0.3781
 8147SOL    HW135900   2.183   2.238   2.398 -0.8963  1.0910  0.4989
 8147SOL    HW235901   2.311   2.266   2.328  1.0343 -1.1394  0.7602
 8148SOL     OW35902   1.924   0.596   1.160  0.2445  0.1351  0.3631
 8148SOL    HW135903   1.962   0.530   1.218 -1.1847 -1.0433 -0.0518
 8148SOL    HW235904   1.969   0.676   1.189  0.3239  0.6247 -1.1243
 8149SOL     OW35905   3.712   0.340  12.039 -0.2992  0.5508  0.1829
 8149SOL    HW135906   3.782   0.368  12.099  1.7657 -3.2839 -0.4215
 8149SOL    HW235907   3.767   0.332  11.961 -1.5372  0.0144 -0.6201
 8150SOL     OW35908   1.519   1.482   3.124 -0.2596 -0.5111 -0.0882
 8150SOL    HW135909   1.605   1.518   3.102 -1.4160  2.3896  0.1326
 8150SOL    HW235910   1.515   1.408   3.064  0.4506 -0.8979  0.3300
 8151SOL     OW35911   1.741   3.016   1.255 -0.4292 -0.5282  0.0403
 8151SOL    HW135912   1.729   3.065   1.174  0.8073 -0.2276  0.0352
 8151SOL    HW235913   1.662   2.962   1.251 -1.7070  1.3372  0.1484
 8152SOL     OW35914   3.745   0.926   2.167  0.0096  0.0420  0.3038
 8152SOL    HW135915   3.679   0.959   2.107 -0.4372 -0.7741  0.3522
 8152SOL    HW235916   3.762   1.000   2.225 -1.6840 -0.0942  0.9793
 8153SOL     OW35917   2.415   0.432   2.416 -0.1968  0.0957 -0.4265
 8153SOL    HW135918   2.342   0.374   2.394 -2.0492  2.5750 -0.7275
 8153SOL    HW235919   2.383   0.509   2.461 -0.8993 -0.3852 -0.1013
 8154SOL     OW35920   3.255   2.978   3.262  0.6547 -0.2310  0.0314
 8154SOL    HW135921   3.207   3.045   3.310 -1.6666  0.1187 -2.7561
 8154SOL    HW235922   3.305   2.954   3.340  0.6886 -0.1011  0.0481
 8155SOL     OW35923   1.124   2.828   3.154  0.3859 -0.7441  0.2547
 8155SOL    HW135924   1.069   2.789   3.222 -0.8362  4.7922  2.4302
 8155SOL    HW235925   1.130   2.754   3.093  2.6929  0.4148 -0.9402
 8156SOL     OW35926   3.642   4.148   7.734 -0.7305 -0.1291 -0.7203
 8156SOL    HW135927   3.635   4.126   7.827  0.7564  1.7617 -0.1811
 8156SOL    HW235928   3.585   4.224   7.730 -0.5285 -0.0262 -1.5993
 8157SOL     OW35929   2.845   4.656   8.853  0.5617 -0.0411  0.0603
 8157SOL    HW135930   2.772   4.716   8.870 -1.0218 -2.5131  1.8410
 8157SOL    HW235931   2.878   4.696   8.772 -1.2301  0.3387 -0.4912
 8158SOL     OW35932   1.094   0.368   2.176 -0.1526  0.1722 -0.3390
 8158SOL    HW135933   1.156   0.437   2.201  1.8030 -1.9790  0.8252
 8158SOL    HW235934   1.152   0.325   2.112 -0.6090 -1.8627  0.6373
 8159SOL     OW35935   2.163   1.115   8.659  0.3725 -0.1404 -0.6563
 8159SOL    HW135936   2.192   1.024   8.660 -1.3026 -0.6386  1.1953
 8159SOL    HW235937   2.109   1.104   8.737 -1.3455  0.1918 -1.8018
 8160SOL     OW35938   2.799   0.710  11.779  0.6418 -1.1328 -0.3024
 8160SOL    HW135939   2.739   0.636  11.768  0.0916 -1.0396  2.0571
 8160SOL    HW235940   2.872   0.689  11.721  1.0118  1.4468 -0.7247
 8161SOL     OW35941   3.456   1.430   5.806  0.3086 -0.0364  0.1551
 8161SOL    HW135942   3.373   1.477   5.800  0.3605  0.4851  3.6866
 8161SOL    HW235943   3.440   1.358   5.745  0.3417  1.2528 -1.3754
 8162SOL     OW35944   0.060   2.366   3.197  0.4685  0.5654  0.7442
 8162SOL    HW135945   0.026   2.306   3.263 -1.1092  0.6313  0.0002
 8162SOL    HW235946   0.024   2.317   3.123  0.7788 -1.8404  2.1860
 8163SOL     OW35947   3.464   4.030   9.310  0.5344  0.4060  0.0974
 8163SOL    HW135948   3.470   3.937   9.288  1.2149  0.6369 -0.6979
 8163SOL    HW235949   3.502   4.030   9.398 -0.0740 -0.6470  0.3673
 8164SOL     OW35950   4.345   3.071  11.162  0.2079  0.2137 -0.0417
 8164SOL    HW135951   4.394   3.116  11.231 -0.7768 -1.8178  2.0057
 8164SOL    HW235952   4.381   3.117  11.086 -1.0418  0.7332 -0.3286
 8165SOL     OW35953   1.006   2.083   9.021  0.5165 -0.1088  0.2967
 8165SOL    HW135954   0.979   2.169   9.054 -0.3619 -0.2362 -0.0853
 8165SOL    HW235955   0.924   2.034   9.017  0.5129 -0.0898  0.0949
 8166SOL     OW35956   2.715   0.287   7.363  0.1885  0.7466 -0.3113
 8166SOL    HW135957   2.688   0.253   7.448  2.4264 -0.4775 -0.0804
 8166SOL    HW235958   2.786   0.351   7.373  0.7555  0.2214 -0.9141
 8167SOL     OW35959   2.240   4.416   9.399  0.4227 -0.0375 -0.1374
 8167SOL    HW135960   2.163   4.371   9.365  0.7576 -0.9545  0.3217
 8167SOL    HW235961   2.219   4.409   9.492  1.7591 -0.1473  0.1694
 8168SOL     OW35962   0.366   2.817   4.271 -0.1558  1.2040 -0.5703
 8168SOL    HW135963   0.405   2.810   4.184 -1.1980 -0.7150 -0.8772
 8168SOL    HW235964   0.278   2.786   4.252 -0.7418  0.8910  2.6449
 8169SOL     OW35965   0.186   1.861   6.321  0.1899  0.0586  0.4324
 8169SOL    HW135966   0.240   1.850   6.242 -0.1671 -0.2377  0.2274
 8169SOL    HW235967   0.105   1.821   6.288 -1.0031  0.1176  3.2974
 8170SOL     OW35968   3.636   0.203   2.365 -0.1982 -0.4878  0.0765
 8170SOL    HW135969   3.573   0.163   2.305  2.9704 -2.9414 -1.6077
 8170SOL    HW235970   3.607   0.293   2.377 -0.9064 -0.9785  2.0198
 8171SOL     OW35971   2.284   3.925   3.696 -0.4445 -0.3344  0.2641
 8171SOL    HW135972   2.262   3.908   3.605 -0.9456  1.1763  0.0919
 8171SOL    HW235973   2.373   3.958   3.702 -0.9743  0.7968  1.9286
 8172SOL     OW35974   2.740   1.926   8.558 -0.3756 -0.0379 -0.0226
 8172SOL    HW135975   2.660   1.962   8.519 -0.6425 -1.3032 -0.6524
 8172SOL    HW235976   2.730   1.964   8.646  0.2454 -1.5642  0.7055
 8173SOL     OW35977   0.941   3.623  13.869 -0.5341 -0.5218  0.1216
 8173SOL    HW135978   0.885   3.574  13.809  0.1881 -0.0957 -0.8977
 8173SOL    HW235979   1.010   3.632  13.804 -1.3366 -0.7511 -0.7575
 8174SOL     OW35980   0.142   0.111   2.411  0.2330  0.3878 -0.9129
 8174SOL    HW135981   0.164   0.048   2.342  0.2054 -3.9576  3.0203
 8174SOL    HW235982   0.222   0.164   2.413 -2.0053  3.6519  1.5421
 8175SOL     OW35983   0.832   1.758   9.507 -0.6702  0.2492 -0.2592
 8175SOL    HW135984   0.868   1.670   9.494 -0.4915  0.3234 -0.2735
 8175SOL    HW235985   0.896   1.815   9.464 -2.5683  1.2597 -1.7542
 8176SOL     OW35986   3.359   1.470  15.714  1.1064  0.3820 -0.5895
 8176SOL    HW135987   3.398   1.520  15.642  0.3376 -0.5075 -1.6193
 8176SOL    HW235988   3.436   1.466  15.771  0.2416  0.4874  0.5765
 8177SOL     OW35989   0.362   2.358   4.554  0.5777 -0.3964 -0.0645
 8177SOL    HW135990   0.359   2.333   4.462 -0.6235 -2.9168  0.6404
 8177SOL    HW235991   0.296   2.302   4.596 -0.3446  1.3382  0.7886
 8178SOL     OW35992   4.504   2.260   3.524 -0.3117 -0.1429 -0.0977
 8178SOL    HW135993   4.562   2.335   3.511 -0.0054 -0.3566  0.0453
 8178SOL    HW235994   4.526   2.231   3.612  0.8154 -0.2790 -0.4201
 8179SOL     OW35995   2.571   0.576   9.280  0.1072 -0.0272  0.5744
 8179SOL    HW135996   2.551   0.554   9.189 -1.3353 -0.8359  1.0953
 8179SOL    HW235997   2.487   0.584   9.325 -0.1521  0.2847  0.0321
 8180SOL     OW35998   4.384   1.086   8.537 -0.2025 -0.4327 -1.0040
 8180SOL    HW135999   4.461   1.039   8.569 -0.0228  0.7511  0.3057
 8180SOL    HW236000   4.307   1.035   8.561 -0.1439 -0.9424 -1.8727
 8181SOL     OW36001   4.357   2.188  14.392 -0.3484 -0.3395 -0.0838
 8181SOL    HW136002   4.362   2.141  14.309 -0.1859  0.9657 -0.8180
 8181SOL    HW236003   4.438   2.236  14.409  0.1195 -1.4206  0.7390
 8182SOL     OW36004   2.088   4.179   1.753  0.5078  0.4343 -0.4296
 8182SOL    HW136005   2.010   4.205   1.704  0.4091 -1.2746 -1.1610
 8182SOL    HW236006   2.125   4.116   1.691 -0.0468  1.3828 -1.7256
 8183SOL     OW36007   2.847   1.692   4.308  0.2125 -0.0688  0.1012
 8183SOL    HW136008   2.872   1.719   4.219  2.3880  2.2276  1.4079
 8183SOL    HW236009   2.937   1.690   4.341 -0.1289 -2.5466  0.8950
 8184SOL     OW36010   4.413   2.942  12.479 -0.3075  0.8907  0.0024
 8184SOL    HW136011   4.501   2.974  12.500  0.5271 -0.5475 -1.2437
 8184SOL    HW236012   4.375   3.023  12.446 -0.1920  0.3664 -1.4109
 8185SOL     OW36013   4.038   2.381   2.160 -0.1352  0.0234 -0.8357
 8185SOL    HW136014   4.091   2.318   2.208 -1.1486 -0.1610  0.0455
 8185SOL    HW236015   3.980   2.309   2.137 -2.3971  1.4283  0.4529
 8186SOL     OW36016   4.682   2.642  10.001 -0.3720 -0.7724 -0.2355
 8186SOL    HW136017   4.700   2.624   9.909  0.0796 -0.3008 -0.2373
 8186SOL    HW236018   4.650   2.554  10.018 -1.2665  0.1798  2.9448
 8187SOL     OW36019   0.109   0.987   1.465 -0.3115  0.0275  0.9918
 8187SOL    HW136020   0.167   0.914   1.487  0.8127  1.1375  1.6972
 8187SOL    HW236021   0.023   0.946   1.472  0.2571 -1.2198  0.7462
 8188SOL     OW36022   3.814   1.267   5.503 -0.6024 -0.0384 -0.0203
 8188SOL    HW136023   3.881   1.283   5.437 -0.0337  0.4939  0.6974
 8188SOL    HW236024   3.826   1.346   5.556  0.0283 -0.2290  0.1211
 8189SOL     OW36025   4.450   2.218   4.948 -0.1841 -0.5108 -0.2674
 8189SOL    HW136026   4.360   2.249   4.961 -0.6336 -2.4148  1.1894
 8189SOL    HW236027   4.445   2.208   4.853  1.0455  0.7062 -0.4500
 8190SOL     OW36028   0.171   2.117  17.219  0.5889  0.4118 -0.0438
 8190SOL    HW136029   0.150   2.211  17.216 -1.7629 -0.0965  0.2301
 8190SOL    HW236030   0.085   2.089  17.187  0.3365 -0.8777  1.8085
 8191SOL     OW36031   3.214   1.244   1.589 -0.1076 -0.1476 -0.5737
 8191SOL    HW136032   3.269   1.281   1.658 -0.8263  1.0694 -0.6634
 8191SOL    HW236033   3.237   1.151   1.579  0.0081 -0.1069 -0.6819
 8192SOL     OW36034   2.034   0.784  10.072  0.3259  0.4136 -0.7831
 8192SOL    HW136035   1.984   0.731  10.011 -0.1883  2.1856 -1.9161
 8192SOL    HW236036   2.069   0.845  10.007 -0.4010  2.6013  0.8726
 8193SOL     OW36037   2.055   2.691   3.483  0.3391 -0.2278  0.4422
 8193SOL    HW136038   2.051   2.616   3.424 -0.1865 -1.2243  1.7287
 8193SOL    HW236039   2.115   2.747   3.434 -1.0649  1.1222  0.2561
 8194SOL     OW36040   3.376   2.347   8.362 -0.2574  0.2152 -0.0240
 8194SOL    HW136041   3.461   2.377   8.392 -0.0679  0.1410 -0.4911
 8194SOL    HW236042   3.387   2.254   8.383  1.9785  0.9110  1.8751
 8195SOL     OW36043   4.494   3.533   7.900 -0.1705  0.0024  0.2699
 8195SOL    HW136044   4.546   3.527   7.820 -1.7683 -3.3715 -0.5066
 8195SOL    HW236045   4.561   3.565   7.960  1.8362  0.3896 -2.1827
 8196SOL     OW36046   4.431   0.167   8.881 -0.0925  0.1715  0.0480
 8196SOL    HW136047   4.521   0.196   8.865 -1.1432  2.2733 -1.9795
 8196SOL    HW236048   4.387   0.218   8.813 -1.2344 -0.1657  0.5322
 8197SOL     OW36049   2.845   2.982   2.007  0.8454 -0.2293  0.6027
 8197SOL    HW136050   2.825   2.997   1.915 -2.7774 -2.5509  0.9947
 8197SOL    HW236051   2.760   2.977   2.051  0.9187 -3.1378  0.4218
 8198SOL     OW36052   3.772   0.390  17.244 -0.3417 -0.3788  0.8607
 8198SOL    HW136053   3.850   0.445  17.234 -0.9485  0.7631  2.4035
 8198SOL    HW236054   3.761   0.363  17.153  0.4774  1.6761  0.1602
 8199SOL     OW36055   1.701   1.565   4.291 -0.2153  0.1962  0.1575
 8199SOL    HW136056   1.624   1.523   4.253 -1.3338  0.6341  1.9442
 8199SOL    HW236057   1.663   1.644   4.329 -0.5170  0.8588 -1.5585
 8200SOL     OW36058   3.083   3.629   8.498  0.3211  0.8078 -0.3492
 8200SOL    HW136059   3.160   3.596   8.451 -0.7268 -2.1569  0.0323
 8200SOL    HW236060   3.111   3.605   8.587  0.5712 -0.9118 -0.9023
 8201SOL     OW36061   4.343   0.555   3.932 -0.3642  0.0536 -0.3538
 8201SOL    HW136062   4.254   0.527   3.956 -1.0884  1.2913 -1.5707
 8201SOL    HW236063   4.376   0.479   3.884  2.8327  0.6432  0.9511
 8202SOL     OW36064   0.906   2.043   1.486  0.4354  0.1429 -0.3700
 8202SOL    HW136065   0.987   1.995   1.473  0.8585  0.3308  1.5475
 8202SOL    HW236066   0.905   2.068   1.579  2.1920  0.5195 -0.4609
 8203SOL     OW36067   1.242   3.948   4.903 -0.5430  0.1794  0.7442
 8203SOL    HW136068   1.331   3.951   4.937  0.2984  1.2074 -1.5587
 8203SOL    HW236069   1.261   3.998   4.823 -1.2803  0.5229  0.7746
 8204SOL     OW36070   4.293   0.417   8.977 -0.1474 -0.0533  0.0907
 8204SOL    HW136071   4.231   0.390   9.045  1.3191 -1.4931  0.8325
 8204SOL    HW236072   4.367   0.425   9.037  1.3344  2.0229 -2.0082
 8205SOL     OW36073   2.756   4.402   1.433  0.1251  0.1893  0.3043
 8205SOL    HW136074   2.662   4.412   1.422  0.1058  0.3066  0.5812
 8205SOL    HW236075   2.772   4.331   1.370  2.1587 -0.6691  1.7706
 8206SOL     OW36076   1.908   4.541   7.471  0.0205 -0.1286 -0.4720
 8206SOL    HW136077   1.831   4.485   7.483  0.2475 -0.2389  0.5075
 8206SOL    HW236078   1.963   4.491   7.532  0.3183 -0.5567 -1.0888
 8207SOL     OW36079   1.417   3.871   0.214 -0.0885  0.7074 -0.3270
 8207SOL    HW136080   1.349   3.803   0.217 -1.5251  2.2523  1.6578
 8207SOL    HW236081   1.495   3.819   0.196 -1.6814 -1.9594  0.3423
 8208SOL     OW36082   1.548   4.100   3.899 -0.3838  0.3966 -0.1894
 8208SOL    HW136083   1.464   4.053   3.896 -0.4458  0.5333 -0.6356
 8208SOL    HW236084   1.538   4.159   3.824 -2.1693  0.4462  0.0775
 8209SOL     OW36085   2.743   3.152   3.728 -0.0906 -0.1612 -0.4875
 8209SOL    HW136086   2.663   3.111   3.695 -1.0256  1.4745 -0.3053
 8209SOL    HW236087   2.808   3.098   3.683  0.0949 -1.0799  0.9107
 8210SOL     OW36088   1.694   2.764   4.218  0.0648  0.1071 -0.2959
 8210SOL    HW136089   1.784   2.764   4.186  0.0046 -0.9486 -0.4404
 8210SOL    HW236090   1.643   2.780   4.138 -1.4823  0.5498  0.7901
 8211SOL     OW36091   3.764   0.261   7.284 -0.3288 -0.0255 -0.3159
 8211SOL    HW136092   3.686   0.205   7.287  1.5271 -2.7225 -2.4147
 8211SOL    HW236093   3.765   0.295   7.374 -0.6522  0.3977 -0.4710
 8212SOL     OW36094   3.292   0.453   6.779 -0.0161 -0.1639  0.2941
 8212SOL    HW136095   3.354   0.512   6.821  0.1733  0.0626 -0.3008
 8212SOL    HW236096   3.345   0.374   6.765 -0.6933 -0.6257  0.3005
 8213SOL     OW36097   3.901   1.396   2.952  0.1121 -0.1253  0.2271
 8213SOL    HW136098   3.846   1.329   2.911  1.0316 -1.4274  1.1012
 8213SOL    HW236099   3.833   1.444   2.999 -0.6524 -1.5224  0.5589
 8214SOL     OW36100   0.768   0.586   3.012  0.2683  0.4061  0.3148
 8214SOL    HW136101   0.691   0.563   2.960  1.4567  0.1518 -1.3205
 8214SOL    HW236102   0.850   0.560   2.970  1.4227  1.3642  1.9386
 8215SOL     OW36103   0.279   3.472   6.035  0.3621 -0.7138 -0.4963
 8215SOL    HW136104   0.198   3.512   6.066  1.3855  0.2919  0.8996
 8215SOL    HW236105   0.302   3.531   5.963  0.9472 -1.1385 -0.6603
 8216SOL     OW36106   2.773   2.736  17.521 -0.5080  0.1588  0.0769
 8216SOL    HW136107   2.685   2.714  17.488 -0.1978 -0.4151 -0.3694
 8216SOL    HW236108   2.815   2.783  17.449 -1.2077  1.8742  0.7833
 8217SOL     OW36109   3.246   2.933  16.645 -0.3353 -0.0546  0.2363
 8217SOL    HW136110   3.321   2.886  16.609 -0.4287 -0.3290  0.3995
 8217SOL    HW236111   3.180   2.916  16.577  1.1392 -1.1659 -0.9241
 8218SOL     OW36112   4.129   3.276   3.706  0.0403 -0.1595 -0.4365
 8218SOL    HW136113   4.212   3.237   3.730  0.1914 -0.4492 -1.4370
 8218SOL    HW236114   4.095   3.224   3.633 -0.5507  0.0091 -0.2881
 8219SOL     OW36115   0.766   2.798  13.165  0.3849 -0.2002  0.1802
 8219SOL    HW136116   0.827   2.850  13.112 -1.3342  1.2529 -0.3586
 8219SOL    HW236117   0.831   2.754  13.220 -0.2662  1.3152  2.1515
 8220SOL     OW36118   4.159   1.931   3.658  0.9902  0.2733 -0.0821
 8220SOL    HW136119   4.186   2.017   3.625  0.5071  0.3097 -0.3765
 8220SOL    HW236120   4.074   1.919   3.617  0.8268 -0.5347  0.4905
 8221SOL     OW36121   2.144   3.448   3.827  0.4294  0.3740 -0.3636
 8221SOL    HW136122   2.215   3.394   3.862 -0.2859 -0.2598  0.1291
 8221SOL    HW236123   2.174   3.534   3.856 -1.7278  0.9457  0.2151
 8222SOL     OW36124   3.912   2.922   5.426 -0.6813 -0.1137  1.0073
 8222SOL    HW136125   3.946   2.907   5.515 -0.4346 -1.6372  0.6487
 8222SOL    HW236126   3.832   2.969   5.449  0.2094  1.5816  0.6261
 8223SOL     OW36127   1.622   0.258   7.557 -0.4775 -0.3807 -0.0989
 8223SOL    HW136128   1.622   0.341   7.508  2.5379  0.3271  1.0892
 8223SOL    HW236129   1.544   0.263   7.611 -0.2783 -1.3891  0.2720
 8224SOL     OW36130   1.778   3.069   9.574  0.1060 -0.2075  0.0694
 8224SOL    HW136131   1.780   3.140   9.638  0.7849  0.1918 -0.3986
 8224SOL    HW236132   1.801   2.995   9.631  1.0375 -0.8029 -1.0921
 8225SOL     OW36133   1.799   0.366   7.773 -0.0450  0.3422  0.1729
 8225SOL    HW136134   1.724   0.315   7.742 -0.7498  1.1439  0.5839
 8225SOL    HW236135   1.754   0.429   7.829 -1.4891 -0.6983  0.1703
 8226SOL     OW36136   2.104   3.522   0.097  0.0835  0.3543  0.2395
 8226SOL    HW136137   2.075   3.545   0.009 -1.6072  0.9898  0.9654
 8226SOL    HW236138   2.027   3.478   0.133 -0.1972 -0.0265 -0.8548
 8227SOL     OW36139   3.846   1.502   5.624 -0.5716 -0.5615 -0.8704
 8227SOL    HW136140   3.924   1.530   5.673 -0.6150 -1.6978 -0.1669
 8227SOL    HW236141   3.834   1.567   5.554 -2.2895  0.1845  0.1165
 8228SOL     OW36142   2.573   0.985  12.238  0.4376  0.0669  0.3131
 8228SOL    HW136143   2.625   0.906  12.247  1.2159  0.4869 -0.4403
 8228SOL    HW236144   2.530   0.970  12.154  0.6852 -1.1023  0.4065
 8229SOL     OW36145   0.219   3.289   4.403 -0.2758 -0.1562 -0.5454
 8229SOL    HW136146   0.162   3.261   4.475  0.6907 -2.3320 -0.6088
 8229SOL    HW236147   0.299   3.311   4.450  0.2218  0.0694 -1.4920
 8230SOL     OW36148   3.930   2.367   0.759 -0.4316  0.1598  0.0727
 8230SOL    HW136149   3.841   2.331   0.769 -0.5813  0.6828  0.6493
 8230SOL    HW236150   3.969   2.354   0.845 -0.2256 -0.5100 -0.1281
 8231SOL     OW36151   2.321   0.217   7.259 -0.2636  0.2299 -0.4738
 8231SOL    HW136152   2.266   0.240   7.184 -1.7354 -1.1920  0.1520
 8231SOL    HW236153   2.254   0.243   7.322  0.0554 -1.8105  0.7170
 8232SOL     OW36154   3.309   4.108   9.595  0.3267 -0.0098 -0.0742
 8232SOL    HW136155   3.356   4.163   9.657 -1.5822 -0.8478  2.1225
 8232SOL    HW236156   3.367   4.032   9.587 -0.6226 -0.8947  1.6640
 8233SOL     OW36157   1.350   2.707   0.316  0.0329 -0.3945  0.2847
 8233SOL    HW136158   1.359   2.743   0.228  1.3455 -2.8642 -0.5915
 8233SOL    HW236159   1.271   2.757   0.335  0.5976  0.2754  0.8848
 8234SOL     OW36160   4.608   3.184   6.086  0.2406  0.2524 -0.0195
 8234SOL    HW136161   4.666   3.196   6.010  1.0275  1.2212  0.7302
 8234SOL    HW236162   4.616   3.089   6.097 -1.8261  0.0337 -0.4059
 8235SOL     OW36163   4.100   2.723   0.756 -0.2114 -0.0044  0.1966
 8235SOL    HW136164   4.035   2.689   0.695  0.8132  1.8388 -1.9267
 8235SOL    HW236165   4.046   2.714   0.835 -1.2894  3.0488 -0.1950
 8236SOL     OW36166   0.253   0.629   4.882  0.3383 -0.5484 -0.4780
 8236SOL    HW136167   0.349   0.630   4.875  0.5760 -1.1059  2.8730
 8236SOL    HW236168   0.237   0.705   4.938 -1.3601 -0.8315 -0.5892
 8237SOL     OW36169   3.921   0.649   9.208 -0.3236  0.4284  0.0832
 8237SOL    HW136170   3.994   0.711   9.208 -0.3813  0.4963  0.9075
 8237SOL    HW236171   3.854   0.716   9.219 -1.8566 -1.1883  0.6352
 8238SOL     OW36172   1.248   3.024  11.158 -0.1140 -0.8296  0.4200
 8238SOL    HW136173   1.222   2.990  11.073 -0.7204 -0.5083  0.4737
 8238SOL    HW236174   1.256   2.942  11.207  0.0971 -1.1601 -0.1740
 8239SOL     OW36175   3.355   1.361   3.702 -0.3132 -0.0885  0.7443
 8239SOL    HW136176   3.315   1.301   3.765 -0.6089 -0.2664  0.3819
 8239SOL    HW236177   3.337   1.322   3.617 -0.8170 -0.2964  0.9478
 8240SOL     OW36178   4.160   3.609   9.340  0.0675 -0.2305  0.2326
 8240SOL    HW136179   4.114   3.677   9.291 -0.3642 -1.7091 -1.4079
 8240SOL    HW236180   4.098   3.536   9.327 -0.5306  0.6805 -2.0544
 8241SOL     OW36181   3.850   3.835  12.730  0.3609  0.2250 -0.9493
 8241SOL    HW136182   3.797   3.765  12.691  2.5350 -2.9429  1.7357
 8241SOL    HW236183   3.802   3.854  12.810  0.1903 -0.9467 -0.7681
 8242SOL     OW36184   1.479   3.328   0.507  0.2159  0.1840 -0.3768
 8242SOL    HW136185   1.427   3.248   0.504 -1.1696  1.0758  0.1859
 8242SOL    HW236186   1.572   3.303   0.507 -0.0871 -0.9394 -0.8190
 8243SOL     OW36187   1.037   0.193   7.646 -0.1136 -0.1171  0.0502
 8243SOL    HW136188   1.126   0.209   7.614  0.6371  0.3191  2.3811
 8243SOL    HW236189   1.055   0.208   7.738 -1.9246  1.6772  0.1278
 8244SOL     OW36190   2.118   3.095   1.591 -0.5342  0.0415 -0.7302
 8244SOL    HW136191   2.147   3.077   1.680  1.0315  1.9508 -0.8520
 8244SOL    HW236192   2.024   3.105   1.609 -0.7919 -0.0621 -2.0143
 8245SOL     OW36193   4.260   3.328  11.757 -0.4625 -0.5495 -0.0719
 8245SOL    HW136194   4.189   3.352  11.817  1.0811  1.7298  0.8182
 8245SOL    HW236195   4.218   3.286  11.682 -0.7476  1.0529 -0.8326
 8246SOL     OW36196   3.709   4.028   3.650  0.7931 -0.1373 -0.5418
 8246SOL    HW136197   3.724   3.996   3.561 -1.4952 -2.4582 -0.0982
 8246SOL    HW236198   3.783   3.982   3.690  1.1066  2.1451  1.4537
 8247SOL     OW36199   2.771   4.145   3.727 -0.0608  0.1121  0.1571
 8247SOL    HW136200   2.840   4.150   3.661  1.2800 -0.7694  1.4756
 8247SOL    HW236201   2.798   4.093   3.803 -0.7488 -1.5954 -0.7433
 8248SOL     OW36202   0.230   1.462   1.537 -0.7311 -0.2725  0.0233
 8248SOL    HW136203   0.243   1.368   1.553  0.0322  0.0603  1.3378
 8248SOL    HW236204   0.178   1.483   1.614  1.3316 -0.3117  1.4145
 8249SOL     OW36205   0.220   1.816  12.732  0.0545  0.3167 -0.2940
 8249SOL    HW136206   0.188   1.734  12.771  0.8188 -0.2441 -0.8504
 8249SOL    HW236207   0.167   1.883  12.776 -1.2998 -0.9214 -0.0144
 8250SOL     OW36208   1.680   1.985  15.952 -0.3448  0.0971  0.2180
 8250SOL    HW136209   1.750   1.972  15.887  2.5815  0.1768  3.3331
 8250SOL    HW236210   1.726   1.948  16.027 -0.0161 -0.0366 -0.0437
 8251SOL     OW36211   3.073   4.650  11.052  0.1950 -0.2641 -0.3590
 8251SOL    HW136212   3.168   4.638  11.057  0.0677 -1.0001  0.2325
 8251SOL    HW236213   3.036   4.565  11.078  1.3653  0.1962  2.7696
 8252SOL     OW36214   2.393   1.127   2.923  0.2020 -0.2298 -0.4397
 8252SOL    HW136215   2.488   1.128   2.909  0.3124 -0.1250  0.3307
 8252SOL    HW236216   2.379   1.041   2.962 -0.8096 -0.3729 -1.1157
 8253SOL     OW36217   3.248   3.342  11.305  0.5183  0.0879 -0.0291
 8253SOL    HW136218   3.161   3.301  11.309  0.7313 -0.3276  0.2892
 8253SOL    HW236219   3.241   3.385  11.220  0.1384  2.5379  1.2451
 8254SOL     OW36220   1.033   4.186   5.156 -0.1381 -0.0420 -0.5254
 8254SOL    HW136221   0.990   4.270   5.139 -1.0032 -0.3372  0.2175
 8254SOL    HW236222   1.004   4.166   5.245  1.9434 -1.2892 -0.1208
 8255SOL     OW36223   4.422   3.872   7.551  0.2020 -0.7135 -0.3729
 8255SOL    HW136224   4.474   3.898   7.627 -0.2670  0.7328 -0.5439
 8255SOL    HW236225   4.470   3.903   7.474  1.5049 -0.2124  0.6462
 8256SOL     OW36226   3.004   1.433  11.956  0.1818 -0.0743  0.7020
 8256SOL    HW136227   3.085   1.406  11.911 -1.5314 -0.5340 -2.0867
 8256SOL    HW236228   2.963   1.483  11.886  0.6193 -1.2977 -0.4287
 8257SOL     OW36229   4.067   3.840   8.315 -0.1295  0.4986 -0.3180
 8257SOL    HW136230   3.987   3.881   8.280  0.9951  1.7189 -1.4919
 8257SOL    HW236231   4.096   3.899   8.384 -0.1240 -1.8045  1.6400
 8258SOL     OW36232   3.957   3.166   8.438  0.1676 -0.7274  0.0280
 8258SOL    HW136233   3.866   3.166   8.466 -0.2887 -1.3804 -1.4638
 8258SOL    HW236234   3.961   3.084   8.389  0.9235 -0.6593 -0.0256
 8259SOL     OW36235   0.161   3.099   2.274 -0.3549  0.6251 -0.0023
 8259SOL    HW136236   0.182   3.108   2.182  0.8259 -0.1716  0.1911
 8259SOL    HW236237   0.246   3.114   2.315 -0.8865  0.8420  1.0491
 8260SOL     OW36238   2.995   0.602  17.690 -0.0832 -0.0372 -0.0756
 8260SOL    HW136239   2.924   0.629  17.632  1.1427 -1.0217 -2.0457
 8260SOL    HW236240   3.071   0.639  17.644  0.7125  0.3377  1.5468
 8261SOL     OW36241   0.124   3.041  15.664  0.2927 -0.4110  0.6365
 8261SOL    HW136242   0.099   3.106  15.730 -2.1414  0.6943 -1.3873
 8261SOL    HW236243   0.172   2.986  15.726 -0.2353  1.9468  3.1261
 8262SOL     OW36244   1.756   3.644   3.704 -0.6745  0.3666  0.1794
 8262SOL    HW136245   1.824   3.601   3.651  0.7790  1.7930  0.8904
 8262SOL    HW236246   1.813   3.710   3.742 -0.8126 -0.4872  1.8631
 8263SOL     OW36247   1.078   3.653  17.559 -0.1930  0.1211  0.1993
 8263SOL    HW136248   1.119   3.739  17.555 -1.1673  0.4655 -2.6351
 8263SOL    HW236249   1.151   3.591  17.568  1.8136  2.3170 -0.9342
 8264SOL     OW36250   0.250   1.410  15.789 -0.1970 -0.5778  0.4733
 8264SOL    HW136251   0.237   1.328  15.837  1.3039 -1.1861 -0.1754
 8264SOL    HW236252   0.278   1.468  15.860  0.0011  0.7358 -0.6815
 8265SOL     OW36253   3.124   0.270   3.655 -0.2029 -0.1251 -0.0966
 8265SOL    HW136254   3.129   0.272   3.560  0.7650  2.6139  0.0178
 8265SOL    HW236255   3.213   0.256   3.686 -0.0138  1.4145  0.0717
 8266SOL     OW36256   0.174   2.471   6.629  0.0292  0.0472 -0.3305
 8266SOL    HW136257   0.207   2.421   6.703  4.4156  2.4238 -0.6524
 8266SOL    HW236258   0.257   2.512   6.605  0.5680 -1.6514 -1.2950
 8267SOL     OW36259   4.439   0.430   9.245 -0.2543 -0.2610  0.1941
 8267SOL    HW136260   4.509   0.375   9.210 -0.2388 -1.2441  1.7869
 8267SOL    HW236261   4.450   0.402   9.336  2.9922 -0.2096 -0.1801
 8268SOL     OW36262   2.882   3.737   3.757  0.0027  0.1948  0.5558
 8268SOL    HW136263   2.964   3.785   3.746 -0.0104  0.3706  1.2705
 8268SOL    HW236264   2.827   3.815   3.763 -1.7810 -0.7229 -3.3461
 8269SOL     OW36265   2.377   3.093  11.899  0.1353  0.2451 -0.2780
 8269SOL    HW136266   2.291   3.074  11.936 -0.5834  0.4388 -1.8289
 8269SOL    HW236267   2.361   3.132  11.813  2.7813  1.9061 -0.0251
 8270SOL     OW36268   2.775   0.192   7.091  0.2208 -0.4253  0.6653
 8270SOL    HW136269   2.787   0.281   7.058 -2.2259 -1.0908 -2.1046
 8270SOL    HW236270   2.724   0.206   7.171  1.1776 -0.3820  1.2638
 8271SOL     OW36271   4.526   4.564   9.637  0.2419 -0.0942 -0.3956
 8271SOL    HW136272   4.618   4.563   9.663  0.2350 -0.8268 -0.3884
 8271SOL    HW236273   4.513   4.469   9.644  2.9623 -0.3949  0.4751
 8272SOL     OW36274   3.583   1.527  14.433  0.3064 -0.4002 -0.3901
 8272SOL    HW136275   3.499   1.517  14.478 -0.9774  0.3865 -2.6225
 8272SOL    HW236276   3.638   1.546  14.509 -2.6409  0.8720  1.4291
 8273SOL     OW36277   1.460   0.384   0.661 -0.3198 -0.0466  0.2738
 8273SOL    HW136278   1.498   0.462   0.700  1.1181 -0.6188  0.0382
 8273SOL    HW236279   1.490   0.389   0.570 -0.5032  0.3843  0.2357
 8274SOL     OW36280   3.865   0.277   1.144 -0.0967 -0.9093  0.2042
 8274SOL    HW136281   3.901   0.218   1.077 -1.1433 -2.5951  1.1323
 8274SOL    HW236282   3.794   0.228   1.187  0.3252 -1.0241  0.7737
 8275SOL     OW36283   2.073   3.829   0.597 -0.1144  0.4470 -0.3461
 8275SOL    HW136284   2.085   3.750   0.546  1.8293  0.0137  0.7849
 8275SOL    HW236285   2.158   3.846   0.638 -0.7527 -1.3699  1.7577
 8276SOL     OW36286   2.788   3.576  16.675 -0.1578  0.0149 -0.2626
 8276SOL    HW136287   2.835   3.631  16.738 -0.0649 -0.5157  0.1326
 8276SOL    HW236288   2.835   3.593  16.593 -0.4569 -0.9723 -0.6393
 8277SOL     OW36289   2.807   4.569  13.788  0.0099 -0.1174  0.4179
 8277SOL    HW136290   2.836   4.479  13.806  1.8256  0.5580  0.8661
 8277SOL    HW236291   2.879   4.607  13.738 -0.0471 -2.0963 -1.2155
 8278SOL     OW36292   0.426   1.217   5.223  0.6348  0.0427 -0.9797
 8278SOL    HW136293   0.472   1.288   5.267  0.0127 -0.3052  0.2132
 8278SOL    HW236294   0.382   1.264   5.152  1.5434  2.2076 -0.0963
 8279SOL     OW36295   3.648   2.898   3.553 -0.0511 -0.0617  0.0056
 8279SOL    HW136296   3.726   2.887   3.608 -0.8061  0.0828  1.1144
 8279SOL    HW236297   3.676   2.841   3.482 -2.0583 -2.5499  1.2418
 8280SOL     OW36298   4.599   1.600  14.339 -0.0026  0.0429  0.2886
 8280SOL    HW136299   4.605   1.695  14.337 -0.1619  0.0784  1.4919
 8280SOL    HW236300   4.676   1.578  14.392  0.3993  1.1016  0.1365
 8281SOL     OW36301   1.409   0.317   3.057 -0.2299 -0.5731 -0.3573
 8281SOL    HW136302   1.441   0.389   3.001 -0.9089  0.3102  0.3908
 8281SOL    HW236303   1.485   0.260   3.061 -0.4399 -0.7135  1.3554
 8282SOL     OW36304   3.282   0.440   7.144 -0.3613 -0.1903  0.0923
 8282SOL    HW136305   3.278   0.348   7.169 -2.4023  0.8069  3.3861
 8282SOL    HW236306   3.376   0.444   7.127 -0.3496 -1.5146 -0.1733
 8283SOL     OW36307   2.848   1.425   9.673  0.3451  0.5933  0.7664
 8283SOL    HW136308   2.854   1.493   9.606  0.4333  2.3513  2.5469
 8283SOL    HW236309   2.761   1.391   9.654  0.3473  1.3637 -0.6334
 8284SOL     OW36310   3.793   3.602   2.867  0.1636 -0.1341 -0.1677
 8284SOL    HW136311   3.869   3.660   2.866  0.1971 -0.1622  1.0912
 8284SOL    HW236312   3.791   3.574   2.775 -2.9998 -2.8265  0.7463
 8285SOL     OW36313   2.203   1.783   7.245  0.0221 -0.3496  0.1814
 8285SOL    HW136314   2.286   1.791   7.292  0.3838  2.1811 -0.8858
 8285SOL    HW236315   2.226   1.786   7.153  1.5438  1.7368  0.6180
 8286SOL     OW36316   3.524   3.774   6.349 -0.2113 -0.0538  0.5322
 8286SOL    HW136317   3.432   3.759   6.329  0.0566  0.3150 -0.9980
 8286SOL    HW236318   3.522   3.821   6.432 -0.1427  1.4041 -0.2803
 8287SOL     OW36319   3.961   1.794   2.275 -0.5692  0.1567 -0.3105
 8287SOL    HW136320   3.879   1.801   2.324 -1.6867  0.8716 -2.2965
 8287SOL    HW236321   4.013   1.870   2.303  0.7542 -0.8049 -0.1743
 8288SOL     OW36322   1.420   1.512  14.164 -0.5477  0.7465  0.2486
 8288SOL    HW136323   1.399   1.472  14.248  1.3185 -1.5752 -0.3920
 8288SOL    HW236324   1.431   1.438  14.104 -1.5105  0.4024  0.4938
 8289SOL     OW36325   2.119   2.097   1.715  0.0767  0.9811 -0.1345
 8289SOL    HW136326   2.092   2.128   1.801 -0.2375  2.6553 -0.8360
 8289SOL    HW236327   2.187   2.039   1.751  0.9694  2.0648 -0.0873
 8290SOL     OW36328   0.362   2.375   0.625  0.0826 -0.2381 -0.1413
 8290SOL    HW136329   0.306   2.417   0.690  0.9195 -0.4967  0.7410
 8290SOL    HW236330   0.442   2.426   0.632 -0.8808  0.8807  2.4431
 8291SOL     OW36331   0.426   0.640   4.541  0.3186 -0.4707 -0.7790
 8291SOL    HW136332   0.414   0.611   4.450  2.2881  0.2482 -1.2640
 8291SOL    HW236333   0.397   0.730   4.529 -0.4401 -0.4690  1.1440
 8292SOL     OW36334   4.475   2.753   5.436 -0.0050 -0.0229 -0.1437
 8292SOL    HW136335   4.560   2.772   5.474 -0.2094 -0.2759  0.4447
 8292SOL    HW236336   4.437   2.682   5.488 -0.2237  1.4661  1.7166
 8293SOL     OW36337   0.459   1.510   6.371 -0.3091  0.4681  0.4529
 8293SOL    HW136338   0.513   1.433   6.351  0.0984  0.9235 -0.2346
 8293SOL    HW236339   0.506   1.571   6.427  0.2591  0.8483 -0.4257
 8294SOL     OW36340   3.017   1.335   2.288 -0.1368  0.0068  0.1111
 8294SOL    HW136341   2.966   1.256   2.269 -0.4285  0.5815 -1.5001
 8294SOL    HW236342   3.015   1.321   2.383  1.8188 -0.1958  0.1264
 8295SOL     OW36343   2.000   0.415  16.549  0.0215 -0.4302  0.2044
 8295SOL    HW136344   2.052   0.342  16.517 -0.8665 -0.5419 -0.9861
 8295SOL    HW236345   1.925   0.371  16.589  0.0879  1.5965  2.5975
 8296SOL     OW36346   2.070   4.636   7.759  0.1944  0.4073  0.1884
 8296SOL    HW136347   2.119   4.596   7.831  2.2860 -0.9814 -2.0188
 8296SOL    HW236348   1.988   4.666   7.798 -0.6056  0.6111 -1.6449
 8297SOL     OW36349   3.357   3.550  12.672 -0.6984  0.3477 -0.2798
 8297SOL    HW136350   3.312   3.467  12.684  2.6854 -1.1884  1.9302
 8297SOL    HW236351   3.449   3.522  12.670 -0.9661 -0.6430  1.2833
 8298SOL     OW36352   4.224   3.799   7.396 -0.1746  0.0803  0.3155
 8298SOL    HW136353   4.158   3.862   7.425 -0.8870 -0.1209 -0.8856
 8298SOL    HW236354   4.303   3.823   7.444 -0.3041 -1.5627  1.3703
 8299SOL     OW36355   2.546   3.234   5.528  0.2943 -0.1066 -0.2148
 8299SOL    HW136356   2.628   3.274   5.499  0.2134  0.7957  0.7750
 8299SOL    HW236357   2.547   3.264   5.619 -2.4608 -3.2621  0.8499
 8300SOL     OW36358   0.787   3.136   8.967  0.2367  0.4177  0.1676
 8300SOL    HW136359   0.880   3.152   8.982  0.3443  0.4167 -0.5079
 8300SOL    HW236360   0.786   3.045   8.939 -2.2221  0.7540 -0.8610
 8301SOL     OW36361   4.538   2.468   7.908 -0.2583 -0.2405  0.1944
 8301SOL    HW136362   4.620   2.442   7.866 -0.1363  0.6411 -0.1215
 8301SOL    HW236363   4.517   2.392   7.963  0.5307 -1.0531 -0.6317
 8302SOL     OW36364   3.977   3.138   3.492 -0.0235  0.4385  0.4181
 8302SOL    HW136365   3.906   3.201   3.485 -0.2187  0.2389  0.6286
 8302SOL    HW236366   3.929   3.057   3.507 -0.6661  0.8505  0.6022
 8303SOL     OW36367   0.203   0.097   2.689  0.8913 -0.7318 -0.1656
 8303SOL    HW136368   0.149   0.173   2.712  1.0913 -1.0484  1.3497
 8303SOL    HW236369   0.176   0.089   2.597 -0.3302  0.1739  0.1180
 8304SOL     OW36370   4.645   0.149   0.240  0.0029 -0.0238 -0.1272
 8304SOL    HW136371   4.681   0.086   0.303 -0.1701  0.6407  0.6389
 8304SOL    HW236372   4.579   0.187   0.298 -1.3492 -1.4111 -0.7618
 8305SOL     OW36373   3.077   1.717   9.059 -0.2103  0.2475  0.0675
 8305SOL    HW136374   3.009   1.649   9.065  0.9640 -0.7796  1.8387
 8305SOL    HW236375   3.031   1.794   9.092 -0.7817 -0.0398 -0.0597
 8306SOL     OW36376   0.833   0.092   4.762 -0.2245 -0.6351  0.2911
 8306SOL    HW136377   0.909   0.134   4.803  1.0743 -0.0997 -2.7222
 8306SOL    HW236378   0.854   0.087   4.669 -0.1819  0.2357  0.2484
 8307SOL     OW36379   4.453   3.113  17.209  0.0116 -0.2159  0.0836
 8307SOL    HW136380   4.528   3.141  17.157 -0.5479  2.2712  0.6429
 8307SOL    HW236381   4.456   3.021  17.183 -0.2449  0.0269 -0.7837
 8308SOL     OW36382   3.470   1.022   9.128 -0.3549 -0.5049  0.4195
 8308SOL    HW136383   3.512   1.108   9.127  0.4938 -0.8664  4.5188
 8308SOL    HW236384   3.519   0.969   9.191 -0.9863 -0.3116  1.0704
 8309SOL     OW36385   1.549   3.027   0.278 -0.1836 -0.4671 -0.4463
 8309SOL    HW136386   1.569   3.115   0.248  1.4395 -0.5966  0.2712
 8309SOL    HW236387   1.475   3.047   0.336 -0.0105  0.3335 -0.5027
 8310SOL     OW36388   4.425   0.333   7.740 -0.0997 -0.2693 -0.1837
 8310SOL    HW136389   4.470   0.321   7.824  0.8722 -1.7513 -0.9129
 8310SOL    HW236390   4.367   0.257   7.743  1.1233 -1.1749  0.9875
 8311SOL     OW36391   1.284   3.387   0.287 -0.5381  0.2729  0.4219
 8311SOL    HW136392   1.350   3.364   0.221 -0.1750 -0.0500  0.8960
 8311SOL    HW236393   1.333   3.386   0.369  0.8096 -0.0072 -0.3783
 8312SOL     OW36394   0.461   0.853   5.763 -0.0441 -0.5964 -0.3505
 8312SOL    HW136395   0.511   0.840   5.682 -1.8294 -0.5892 -1.4437
 8312SOL    HW236396   0.398   0.781   5.759 -0.9734  0.2621 -1.0692
 8313SOL     OW36397   3.237   2.933   0.441  0.6209  0.3044 -0.2964
 8313SOL    HW136398   3.243   2.841   0.467 -0.1031 -0.1431 -1.7076
 8313SOL    HW236399   3.172   2.927   0.372  0.9978  0.5944 -0.6785
 8314SOL     OW36400   3.730   3.868   6.144  0.8512  0.0217 -0.2757
 8314SOL    HW136401   3.811   3.896   6.187  0.3413  1.4400 -0.2544
 8314SOL    HW236402   3.676   3.815   6.203  1.8671  1.1024  1.6128
 8315SOL     OW36403   2.148   0.986   8.052 -0.0075 -0.1329 -0.5560
 8315SOL    HW136404   2.171   1.075   8.079 -1.0678  0.2793 -0.9815
 8315SOL    HW236405   2.229   0.949   8.016 -0.2564  0.6979 -1.9605
 8316SOL     OW36406   3.181   2.086   2.279  0.2686  0.6956  0.2124
 8316SOL    HW136407   3.269   2.093   2.316  0.4394  3.3507 -0.6414
 8316SOL    HW236408   3.136   2.114   2.359 -0.0371 -2.9821  1.2974
 8317SOL     OW36409   3.190   2.051  16.713 -0.5487  0.1264 -0.3084
 8317SOL    HW136410   3.256   2.093  16.657 -0.7341  0.6219 -0.1624
 8317SOL    HW236411   3.230   2.085  16.793 -1.0427 -0.5180  0.2089
 8318SOL     OW36412   0.428   3.492   5.156  0.4797  0.2760 -0.2154
 8318SOL    HW136413   0.441   3.407   5.115  0.5816 -0.2607  0.9433
 8318SOL    HW236414   0.518   3.524   5.165  0.8613 -0.2330 -2.2078
 8319SOL     OW36415   1.500   1.510   5.146  0.3690 -0.5021  0.3392
 8319SOL    HW136416   1.513   1.451   5.072  1.8710 -0.7110  0.7671
 8319SOL    HW236417   1.567   1.492   5.212  0.8492 -1.6995 -0.4924
 8320SOL     OW36418   1.530   0.901   7.151  0.5885  0.1362 -0.2032
 8320SOL    HW136419   1.570   0.951   7.080  2.3024 -1.6164 -0.4654
 8320SOL    HW236420   1.607   0.860   7.189 -0.3616 -1.5177 -0.0688
 8321SOL     OW36421   3.833   2.992   6.905  0.0884 -0.3546  0.2384
 8321SOL    HW136422   3.807   3.082   6.920  0.5092 -0.2451  0.3081
 8321SOL    HW236423   3.847   2.960   6.994  2.8570  1.7241  0.5683
 8322SOL     OW36424   4.102   2.876   2.434 -0.4752  0.2471 -0.4746
 8322SOL    HW136425   4.023   2.930   2.438 -0.2276  0.5524  0.2229
 8322SOL    HW236426   4.156   2.927   2.373  0.1781 -0.3763 -0.4164
 8323SOL     OW36427   2.517   2.601   6.713 -0.2371 -0.2598 -0.4592
 8323SOL    HW136428   2.510   2.694   6.690 -0.8516  0.0979  1.1777
 8323SOL    HW236429   2.612   2.595   6.729 -0.5270  0.3654  1.5553
 8324SOL     OW36430   0.729   1.482   8.439  0.3312 -0.1212 -0.0167
 8324SOL    HW136431   0.674   1.455   8.512  1.7452  1.0459  1.4915
 8324SOL    HW236432   0.660   1.508   8.378 -0.8317 -2.2233  0.4120
 8325SOL     OW36433   0.906   3.481   5.672 -0.8109 -0.5007  0.0461
 8325SOL    HW136434   0.894   3.443   5.585 -2.6210  0.7931 -0.2651
 8325SOL    HW236435   0.873   3.410   5.727  0.6270 -1.2470 -0.0483
 8326SOL     OW36436   3.827   4.559   5.091 -0.1007 -0.3693 -0.2069
 8326SOL    HW136437   3.835   4.650   5.059 -0.1643  0.5776  2.5056
 8326SOL    HW236438   3.763   4.515   5.035  0.9994 -0.4984 -1.3826
 8327SOL     OW36439   3.364   0.437   2.300  0.4708 -0.2802  0.8026
 8327SOL    HW136440   3.403   0.516   2.338  4.4552 -1.4599 -0.7475
 8327SOL    HW236441   3.444   0.413   2.253  0.6711  0.3751  0.8059
 8328SOL     OW36442   2.326   2.445  11.668  0.3615 -0.3500  0.5398
 8328SOL    HW136443   2.398   2.486  11.717  0.6320  0.8607 -0.8627
 8328SOL    HW236444   2.370   2.411  11.590 -1.9511 -3.3186  0.5615
 8329SOL     OW36445   1.490   3.340   3.343 -0.0512  0.2556  0.3572
 8329SOL    HW136446   1.457   3.370   3.428 -0.9997  0.5741 -0.1229
 8329SOL    HW236447   1.414   3.344   3.285  1.0275  0.2744 -1.0552
 8330SOL     OW36448   3.402   1.983  16.041 -0.0698  0.0234  0.5175
 8330SOL    HW136449   3.332   1.957  16.101  1.4646 -0.8720  1.9052
 8330SOL    HW236450   3.354   2.002  15.959  1.2939  3.6511  0.5281
 8331SOL     OW36451   2.801   1.965  16.807  0.2441  0.2259 -0.3252
 8331SOL    HW136452   2.713   1.948  16.841  0.4949 -0.7913 -0.1891
 8331SOL    HW236453   2.849   1.950  16.888 -0.2034  3.3982  0.5449
 8332SOL     OW36454   3.601   1.229   6.721  0.3380 -0.4615 -0.8063
 8332SOL    HW136455   3.548   1.201   6.796 -0.9410  0.5898 -1.3237
 8332SOL    HW236456   3.686   1.221   6.764 -0.5077 -1.4071  0.7031
 8333SOL     OW36457   2.217   0.447  12.913  0.4072 -0.1514 -0.6395
 8333SOL    HW136458   2.215   0.538  12.885 -1.2062  0.0512  0.1936
 8333SOL    HW236459   2.161   0.455  12.990 -0.3862  0.7026 -1.3100
 8334SOL     OW36460   3.524   1.922   6.635 -0.0653 -0.3049  0.4989
 8334SOL    HW136461   3.462   1.882   6.695 -0.9930  0.7432  0.2468
 8334SOL    HW236462   3.567   1.844   6.602 -1.6130 -1.6555  1.6812
 8335SOL     OW36463   0.622   1.118   4.785  0.6145 -0.8413  0.0149
 8335SOL    HW136464   0.641   1.200   4.831 -1.3298 -0.1408 -0.4431
 8335SOL    HW236465   0.661   1.055   4.846 -1.7049 -0.4396  1.9376
 8336SOL     OW36466   1.823   3.105   2.802 -0.4115  0.2078  0.0621
 8336SOL    HW136467   1.808   3.189   2.759 -0.3019 -0.7813 -1.9379
 8336SOL    HW236468   1.741   3.058   2.790  0.7657 -1.8650  0.1540
 8337SOL     OW36469   3.409   3.288  14.665 -0.1603  0.4139 -0.3663
 8337SOL    HW136470   3.420   3.195  14.645 -1.9326  0.3665 -1.1038
 8337SOL    HW236471   3.482   3.334  14.623 -0.4141  1.2832  0.1557
 8338SOL     OW36472   0.836   2.479   8.112 -0.3224 -0.5157  0.1926
 8338SOL    HW136473   0.883   2.553   8.073 -0.3113  1.0595  3.1670
 8338SOL    HW236474   0.898   2.458   8.181 -1.8611 -1.5403  1.2641
 8339SOL     OW36475   3.896   0.950   1.406 -0.6727  0.2493 -0.1694
 8339SOL    HW136476   3.863   1.040   1.410 -3.2994 -0.7031 -0.8279
 8339SOL    HW236477   3.957   0.955   1.332  0.3777  1.5033  0.7824
 8340SOL     OW36478   2.795   3.319   4.679 -0.0035 -0.4311 -0.1042
 8340SOL    HW136479   2.782   3.299   4.586  0.5378 -1.5413  0.0643
 8340SOL    HW236480   2.886   3.293   4.670  1.0617  3.1557  0.3714
 8341SOL     OW36481   3.110   4.452   7.719 -0.6279 -0.3205 -0.1932
 8341SOL    HW136482   3.060   4.421   7.795 -0.2094 -0.3721  0.0635
 8341SOL    HW236483   3.059   4.529   7.693 -0.6424 -0.2175  0.1379
 8342SOL     OW36484   3.876   3.058   2.424  0.3850 -0.1165 -0.0541
 8342SOL    HW136485   3.875   3.141   2.472  0.8197 -0.3133  0.2965
 8342SOL    HW236486   3.833   3.077   2.341 -1.3743 -0.4822  0.7638
 8343SOL     OW36487   3.241   1.088   5.389  0.4508 -0.7279  0.6411
 8343SOL    HW136488   3.296   1.061   5.463  3.2626  4.0140  0.2824
 8343SOL    HW236489   3.183   1.014   5.375  0.2904 -0.7523  1.4114
 8344SOL     OW36490   2.374   2.298  15.338  0.6450  1.0043  0.0432
 8344SOL    HW136491   2.463   2.281  15.369  0.1184 -0.0738  0.9667
 8344SOL    HW236492   2.338   2.213  15.313  0.3815  1.3034 -0.5971
 8345SOL     OW36493   3.479   1.141   8.034 -0.5023  0.0405  0.7293
 8345SOL    HW136494   3.516   1.180   7.955  2.5224  2.2574  3.2513
 8345SOL    HW236495   3.548   1.087   8.073  0.4883  2.4486  2.3127
 8346SOL     OW36496   1.274   2.654  10.151 -0.0002  0.0011 -0.4295
 8346SOL    HW136497   1.224   2.576  10.175  1.3700 -1.1647 -1.3913
 8346SOL    HW236498   1.245   2.716  10.219  1.8350  0.5740 -0.1588
 8347SOL     OW36499   2.067   3.391  11.469 -0.1424 -0.1449 -0.4525
 8347SOL    HW136500   2.020   3.362  11.547 -0.6946 -0.8133 -1.0370
 8347SOL    HW236501   2.078   3.486  11.478  0.0260 -0.2969  1.0481
 8348SOL     OW36502   1.265   1.054   2.458  0.7443 -0.4472  0.2289
 8348SOL    HW136503   1.301   1.125   2.404  3.5034 -1.8071  0.2656
 8348SOL    HW236504   1.172   1.058   2.439  0.4032 -1.2127  1.8069
 8349SOL     OW36505   1.292   1.455   5.327 -0.0661  0.0121  0.1689
 8349SOL    HW136506   1.226   1.397   5.289 -1.3895  1.6652 -0.0034
 8349SOL    HW236507   1.356   1.472   5.258  2.0979 -2.5020  1.5166
 8350SOL     OW36508   2.095   2.928   4.963  0.1047 -0.4896 -0.2269
 8350SOL    HW136509   2.010   2.912   4.921  0.0863  0.9564 -0.7376
 8350SOL    HW236510   2.057   2.961   5.045  1.9361 -1.1519  0.8908
 8351SOL     OW36511   0.349   1.097   6.427  0.0604  0.7408 -0.3538
 8351SOL    HW136512   0.268   1.068   6.470  0.2019  0.4500 -0.2851
 8351SOL    HW236513   0.372   1.006   6.407  1.3519  0.9252  0.3298
 8352SOL     OW36514   0.878   4.161   5.395  0.0608 -0.5429 -0.1526
 8352SOL    HW136515   0.808   4.137   5.334  0.5138  0.4753 -1.0753
 8352SOL    HW236516   0.851   4.104   5.466 -1.0870  0.3656  0.1441
 8353SOL     OW36517   0.665   2.097   9.821 -0.2296  0.1917  0.3770
 8353SOL    HW136518   0.627   2.162   9.762  1.5001  1.4868  0.6885
 8353SOL    HW236519   0.605   2.115   9.894  1.8860  1.4358  1.8244
 8354SOL     OW36520   1.398   4.542  10.995  0.2272  0.1513  0.3948
 8354SOL    HW136521   1.360   4.498  11.071 -1.5917 -1.0211 -1.2009
 8354SOL    HW236522   1.326   4.537  10.933 -0.3720 -1.6198  1.2341
 8355SOL     OW36523   2.357   2.047  15.585 -0.3173  0.2861 -0.0154
 8355SOL    HW136524   2.328   2.007  15.667  0.6395  4.2274  2.2616
 8355SOL    HW236525   2.272   2.087  15.569  0.7265  1.8797 -1.5025
 8356SOL     OW36526   3.335   2.789  16.423  0.5397  0.5753  0.3232
 8356SOL    HW136527   3.420   2.819  16.393  0.5010 -0.3903 -0.7409
 8356SOL    HW236528   3.286   2.795  16.341  0.2304 -0.8940  0.3923
 8357SOL     OW36529   4.668   2.885   9.623 -0.4507  0.1876 -0.0826
 8357SOL    HW136530   4.615   2.956   9.587  0.6462  0.5989 -0.8976
 8357SOL    HW236531   0.033   2.923   9.615 -1.8732  3.2880 -0.7233
 8358SOL     OW36532   4.367   4.348  13.158  0.5927  0.1954 -0.7988
 8358SOL    HW136533   4.420   4.283  13.113  1.6156 -0.1476  0.8809
 8358SOL    HW236534   4.420   4.387  13.228 -1.8849 -2.6476  2.6820
 8359SOL     OW36535   4.057   0.528   7.685 -0.0413  0.3877  0.5031
 8359SOL    HW136536   4.126   0.463   7.693 -1.5679 -1.2703  0.1190
 8359SOL    HW236537   4.103   0.610   7.704  1.4976 -0.2943 -0.3091
 8360SOL     OW36538   4.532   3.988   4.354  0.6294 -0.6387 -0.2972
 8360SOL    HW136539   4.473   3.921   4.390 -0.2396  0.4438  0.2912
 8360SOL    HW236540   4.494   4.063   4.399  2.5340  0.1117  0.0192
 8361SOL     OW36541   2.744   3.786  12.339  0.0762 -0.4805 -0.4601
 8361SOL    HW136542   2.681   3.724  12.377 -1.1045  2.8011  2.9281
 8361SOL    HW236543   2.690   3.835  12.277 -1.7070  0.2981  1.7081
 8362SOL     OW36544   3.287   1.177   1.917 -0.7737 -0.4153 -0.1538
 8362SOL    HW136545   3.225   1.192   1.988 -0.5751  1.1386 -0.3035
 8362SOL    HW236546   3.252   1.095   1.883  0.3659 -0.7574 -0.5021
 8363SOL     OW36547   3.399   0.001   9.885  0.0659  0.2912 -0.0020
 8363SOL    HW136548   3.440   0.081   9.852  0.5362 -0.3261 -0.8872
 8363SOL    HW236549   3.443   4.659   9.830  1.7484 -0.4137  2.2125
 8364SOL     OW36550   3.867   2.462   4.684  0.6385  0.0881 -0.1347
 8364SOL    HW136551   3.784   2.494   4.651  0.7960  0.5128 -0.1102
 8364SOL    HW236552   3.857   2.368   4.664 -1.7066  0.5890 -1.3325
 8365SOL     OW36553   2.259   2.564   6.881  0.4220 -0.5628  0.9510
 8365SOL    HW136554   2.316   2.606   6.946 -1.0572  1.3717  1.0038
 8365SOL    HW236555   2.321   2.543   6.811 -0.2340 -0.8154  0.4450
 8366SOL     OW36556   0.558   3.211   5.251 -0.3157  0.5428 -0.0288
 8366SOL    HW136557   0.637   3.211   5.197  1.3453  0.9525  2.4040
 8366SOL    HW236558   0.551   3.119   5.274  2.7039  0.3968  0.3863
 8367SOL     OW36559   4.702   4.441   3.542  0.3854 -0.7873  0.6339
 8367SOL    HW136560   0.037   4.509   3.576 -0.9266  1.0926 -0.9501
 8367SOL    HW236561   0.025   4.425   3.460 -1.0233 -1.5359 -0.0083
 8368SOL     OW36562   1.061   2.674   7.827  0.6947  0.4037  0.0689
 8368SOL    HW136563   1.085   2.748   7.771 -1.7012 -0.3462 -1.9538
 8368SOL    HW236564   0.980   2.654   7.780 -0.3441  1.9599  1.1729
 8369SOL     OW36565   2.844   2.894   1.722  0.3666 -0.0880  0.2477
 8369SOL    HW136566   2.936   2.879   1.745 -0.2478 -1.3521  1.8070
 8369SOL    HW236567   2.845   2.883   1.627 -1.4385 -0.2626  0.2591
 8370SOL     OW36568   3.100   3.954  14.889 -0.6678  0.4964  0.2432
 8370SOL    HW136569   3.188   3.917  14.895 -0.4860  1.1801  1.8756
 8370SOL    HW236570   3.119   4.038  14.932  2.9107 -1.3310  2.1655
 8371SOL     OW36571   1.261   3.310   2.540  0.0166 -0.4034 -0.2609
 8371SOL    HW136572   1.284   3.231   2.490  0.3750 -0.0333 -0.6898
 8371SOL    HW236573   1.194   3.346   2.481  0.6444  1.2454  0.0225
 8372SOL     OW36574   1.441   4.318   4.154 -0.0968  0.2292  0.2536
 8372SOL    HW136575   1.483   4.344   4.072 -0.2533  0.4504  0.2451
 8372SOL    HW236576   1.368   4.380   4.149  0.8173  1.3346  0.5478
 8373SOL     OW36577   2.280   1.902   6.720  0.1512  0.0126  0.1978
 8373SOL    HW136578   2.351   1.965   6.708 -1.1531  1.1600 -1.6118
 8373SOL    HW236579   2.244   1.904   6.631  0.3769 -0.8294  0.0859
 8374SOL     OW36580   1.084   1.789   8.081  0.1223  0.1930 -0.3918
 8374SOL    HW136581   1.073   1.696   8.103  2.2778 -0.2360 -1.1169
 8374SOL    HW236582   1.061   1.793   7.988  0.5140  1.4138 -0.4369
 8375SOL     OW36583   2.224   0.573   6.082 -0.0177  0.5707 -0.3721
 8375SOL    HW136584   2.308   0.584   6.036  0.4815  1.2425  0.6833
 8375SOL    HW236585   2.216   0.662   6.116 -1.0939  0.8912 -1.4576
 8376SOL     OW36586   4.196   3.457   3.905  0.8136 -0.2634 -0.3165
 8376SOL    HW136587   4.177   3.543   3.868  0.2972  0.1202  0.8267
 8376SOL    HW236588   4.201   3.393   3.834 -2.0104 -0.3976 -0.3944
 8377SOL     OW36589   1.037   1.000   7.669 -0.4120 -0.7731 -0.3151
 8377SOL    HW136590   1.061   1.089   7.641  0.6863 -0.7386  0.7692
 8377SOL    HW236591   0.972   0.975   7.603  0.9360  0.7971 -2.2551
 8378SOL     OW36592   2.905   0.011   3.575  0.4184  0.0482 -0.3858
 8378SOL    HW136593   2.852   0.017   3.655  1.2123  0.0076  0.1416
 8378SOL    HW236594   2.833   0.025   3.513  0.1484 -1.8884 -0.5124
 8379SOL     OW36595   1.081   1.470   9.350 -0.5124 -0.4740  0.1666
 8379SOL    HW136596   1.053   1.554   9.313  1.7253  0.0327 -0.3649
 8379SOL    HW236597   1.081   1.489   9.444  1.2504 -1.1733  0.3090
 8380SOL     OW36598   0.468   1.925   8.409  0.3511  0.3107 -0.3103
 8380SOL    HW136599   0.398   1.975   8.450  1.6499  1.4443  0.5139
 8380SOL    HW236600   0.461   1.840   8.453  1.7794  1.4507  2.0801
 8381SOL     OW36601   1.412   3.636  10.747  0.0952 -0.1370  0.1431
 8381SOL    HW136602   1.383   3.698  10.680  0.1825 -1.4367 -1.0964
 8381SOL    HW236603   1.333   3.634  10.801  0.0869 -1.0095  0.1016
 8382SOL     OW36604   1.457   3.238   7.696  0.1535  0.0370 -0.2873
 8382SOL    HW136605   1.373   3.253   7.652  1.6919  0.7916 -3.0086
 8382SOL    HW236606   1.445   3.152   7.735 -0.7022  0.4336  0.3258
 8383SOL     OW36607   1.885   0.748   5.441 -0.2190 -0.4341  0.1028
 8383SOL    HW136608   1.957   0.709   5.490 -0.5154 -1.9500 -0.6483
 8383SOL    HW236609   1.933   0.779   5.364 -3.6500 -0.6876 -2.1666
 8384SOL     OW36610   4.112   3.202   8.037  0.4911 -0.6513 -0.2198
 8384SOL    HW136611   4.119   3.178   7.945 -4.2544 -2.4756 -0.1372
 8384SOL    HW236612   4.139   3.294   8.028 -0.1376 -0.6026 -1.6229
 8385SOL     OW36613   1.070   3.067   2.943  0.0107  0.3153 -0.8234
 8385SOL    HW136614   1.061   2.992   2.885 -0.5110  0.0342 -0.3765
 8385SOL    HW236615   1.066   3.020   3.027  1.7178 -0.2236 -1.0359
 8386SOL     OW36616   3.531   1.824   7.157 -0.1618 -0.0200  0.2765
 8386SOL    HW136617   3.583   1.827   7.237  0.4506  0.6746 -0.1460
 8386SOL    HW236618   3.506   1.914   7.134  0.7198  0.6228  1.8949
 8387SOL     OW36619   0.691   1.742  13.300  0.0311 -0.5406 -0.0219
 8387SOL    HW136620   0.785   1.756  13.288 -0.1798  0.7604 -0.1455
 8387SOL    HW236621   0.668   1.759  13.209  2.0415 -0.9477 -0.5945
 8388SOL     OW36622   2.358   4.524   1.870  0.2983 -0.2407  0.2334
 8388SOL    HW136623   2.293   4.535   1.801  2.8229  2.4826 -1.7459
 8388SOL    HW236624   2.371   4.614   1.902 -2.6038  0.5486 -0.7806
 8389SOL     OW36625   2.354   3.072   3.211 -0.0911 -0.0238  0.4139
 8389SOL    HW136626   2.276   3.128   3.211 -0.1142 -0.0621  1.2316
 8389SOL    HW236627   2.356   3.064   3.115  4.4777 -1.7604  0.6615
 8390SOL     OW36628   0.091   3.005   3.509 -0.1938 -0.0500 -0.3305
 8390SOL    HW136629   0.163   3.067   3.496 -1.6272  1.7537  0.3155
 8390SOL    HW236630   0.020   3.043   3.457  1.4245  1.5075 -1.4092
 8391SOL     OW36631   4.248   2.313   7.807 -0.2570  0.1669  0.0545
 8391SOL    HW136632   4.267   2.395   7.761  1.4340 -1.3059 -1.8772
 8391SOL    HW236633   4.210   2.344   7.889  0.2925  0.3399  0.2417
 8392SOL     OW36634   3.220   3.551   9.041 -0.1044 -0.4403 -0.0271
 8392SOL    HW136635   3.145   3.594   9.083 -0.9603 -1.4185 -0.5657
 8392SOL    HW236636   3.166   3.494   8.986 -1.7762  1.3250 -0.1961
 8393SOL     OW36637   3.218   1.903   9.512 -0.6101  0.5393 -0.2714
 8393SOL    HW136638   3.158   1.977   9.521 -2.8970 -1.3743  0.4092
 8393SOL    HW236639   3.295   1.934   9.559 -1.8148  1.9548  0.7583
 8394SOL     OW36640   0.915   1.075  12.994  0.3748 -0.0595 -0.1543
 8394SOL    HW136641   0.966   1.157  12.994  1.7858 -0.9241 -0.9279
 8394SOL    HW236642   0.825   1.099  12.973  0.2463  0.1894  0.6939
 8395SOL     OW36643   2.871   4.287  11.500 -0.2653 -0.6038 -0.1911
 8395SOL    HW136644   2.926   4.325  11.568 -1.8361 -1.5979  1.6018
 8395SOL    HW236645   2.898   4.196  11.487  1.0569  0.0488 -2.0351
 8396SOL     OW36646   3.892   0.378  13.392  0.1258 -0.5629 -0.5695
 8396SOL    HW136647   3.810   0.424  13.374  0.5654 -0.3087 -1.9636
 8396SOL    HW236648   3.935   0.384  13.306  1.3795  0.8441  0.1541
 8397SOL     OW36649   3.024   1.202  12.750 -0.0509 -0.4485  0.5687
 8397SOL    HW136650   2.997   1.237  12.666 -2.1449 -0.2871  1.3108
 8397SOL    HW236651   2.943   1.198  12.800 -0.4273  1.0371  0.0589
 8398SOL     OW36652   4.447   3.631  13.849 -0.6912  0.2925 -0.4525
 8398SOL    HW136653   4.455   3.722  13.820 -3.4050  0.8677  0.5919
 8398SOL    HW236654   4.540   3.617  13.865 -0.4215  1.6699 -0.7911
 8399SOL     OW36655   3.312   4.071  11.204 -0.4947 -0.3305  0.3191
 8399SOL    HW136656   3.296   3.985  11.163  2.8390 -0.6437 -0.3103
 8399SOL    HW236657   3.390   4.103  11.160 -0.1901 -2.2879 -0.5927
 8400SOL     OW36658   4.584   1.128   4.706  0.1073  0.5925 -0.2304
 8400SOL    HW136659   4.635   1.186   4.649 -1.0583 -0.0423 -1.8946
 8400SOL    HW236660   4.648   1.058   4.723  0.3631  1.1121  0.9617
 8401SOL     OW36661   2.776   2.005   0.999  0.1332 -0.4746 -0.1421
 8401SOL    HW136662   2.781   1.957   0.917  1.2718  0.3183 -0.5311
 8401SOL    HW236663   2.834   2.080   0.986  0.5332 -0.8848 -0.6913
 8402SOL     OW36664   3.714   2.685   7.978 -0.3782 -0.1963  0.2282
 8402SOL    HW136665   3.691   2.680   8.071  0.5489 -1.1739  0.4033
 8402SOL    HW236666   3.740   2.596   7.954 -0.0340  0.2302 -0.9466
 8403SOL     OW36667   2.574   1.091   6.798 -0.1413 -0.4039 -0.6959
 8403SOL    HW136668   2.487   1.089   6.758 -0.6873  1.2788  0.4127
 8403SOL    HW236669   2.563   1.023   6.865 -1.1559  0.6934  0.2482
 8404SOL     OW36670   3.027   3.096   5.358 -0.0295  0.1660 -0.8376
 8404SOL    HW136671   3.032   3.002   5.377  0.4989  0.2106 -0.7513
 8404SOL    HW236672   3.043   3.086   5.264  0.8865  0.5984 -0.7238
 8405SOL     OW36673   3.624   0.431  16.837  0.1090  0.7652  0.1733
 8405SOL    HW136674   3.653   0.355  16.887 -0.2846  0.3534 -0.2222
 8405SOL    HW236675   3.708   0.458  16.799  0.0881 -0.9570 -1.1160
 8406SOL     OW36676   1.021   0.818  14.299  0.1821 -0.5424 -0.7267
 8406SOL    HW136677   0.965   0.866  14.360  1.5667 -1.7530  1.5144
 8406SOL    HW236678   1.097   0.836  14.356 -0.0077  1.4592 -1.0938
 8407SOL     OW36679   4.206   2.684  11.192  0.2693 -0.0807 -0.1718
 8407SOL    HW136680   4.237   2.598  11.220 -2.2635 -0.9335  0.0239
 8407SOL    HW236681   4.268   2.695  11.120  0.8513  2.3247  0.6927
 8408SOL     OW36682   4.632   0.888   0.070  0.5278  0.0859 -0.8690
 8408SOL    HW136683   4.654   0.930  17.679 -0.4332  1.3894 -0.4646
 8408SOL    HW236684   4.547   0.847   0.059  0.4911 -0.9671  3.0398
 8409SOL     OW36685   3.983   0.943   5.637  0.0656 -0.1573  0.1866
 8409SOL    HW136686   4.015   0.981   5.555  1.1152 -1.4199 -0.0008
 8409SOL    HW236687   4.053   0.879   5.653  2.9575  2.6603 -1.2987
 8410SOL     OW36688   2.190   1.069  10.449  0.4916 -0.6732 -0.4278
 8410SOL    HW136689   2.143   0.986  10.459  0.3860 -0.7014 -1.1360
 8410SOL    HW236690   2.250   1.046  10.379  2.2339  4.1930 -0.5320
 8411SOL     OW36691   1.263   1.712   7.480  0.1848  0.1818  0.5450
 8411SOL    HW136692   1.274   1.654   7.405  1.4729  2.3782 -0.9519
 8411SOL    HW236693   1.308   1.661   7.547  0.5701  1.9194  1.6209
 8412SOL     OW36694   1.098   3.935   5.730 -0.6816  0.2245 -0.6569
 8412SOL    HW136695   1.157   3.884   5.785 -0.8429 -1.6921 -2.2728
 8412SOL    HW236696   1.098   4.020   5.774 -0.7740  0.9534 -2.0552
 8413SOL     OW36697   2.423   4.404   9.674  0.2688 -0.4968 -0.0220
 8413SOL    HW136698   2.327   4.399   9.676  0.2968 -0.5578  1.2479
 8413SOL    HW236699   2.443   4.311   9.669 -2.5405 -1.1601  1.2368
 8414SOL     OW36700   2.796   0.359   9.317 -0.3836  0.5564  0.0499
 8414SOL    HW136701   2.715   0.354   9.266 -0.2168  0.4978 -0.2129
 8414SOL    HW236702   2.770   0.311   9.395 -1.0120  0.8836  0.0357
 8415SOL     OW36703   1.263   2.992  10.256 -0.4150  0.1784 -0.1106
 8415SOL    HW136704   1.237   2.908  10.291  4.1644 -1.8081 -1.4080
 8415SOL    HW236705   1.225   2.992  10.168  2.8787 -2.3622 -1.5356
 8416SOL     OW36706   2.192   0.682   8.221 -0.4783 -0.1950 -0.2865
 8416SOL    HW136707   2.158   0.623   8.155  0.5031  1.3232 -2.1635
 8416SOL    HW236708   2.117   0.682   8.280 -0.7170 -2.6063 -0.5877
 8417SOL     OW36709   4.285   2.533   9.899  0.0734  0.2353  0.3425
 8417SOL    HW136710   4.357   2.475   9.872  1.4583  0.2069  4.0769
 8417SOL    HW236711   4.329   2.582   9.969  1.0273 -1.9497  1.2733
 8418SOL     OW36712   0.713   2.150   4.439  0.0644  0.2221 -1.0814
 8418SOL    HW136713   0.682   2.074   4.488 -0.6970  1.1134 -0.1946
 8418SOL    HW236714   0.792   2.117   4.396  0.9951 -1.9619  2.2333
 8419SOL     OW36715   1.961   1.538   1.299  0.7184  0.5006  0.3149
 8419SOL    HW136716   1.995   1.464   1.249  1.4504 -0.0317  1.6160
 8419SOL    HW236717   2.006   1.613   1.259 -0.5870  0.6869 -0.8327
 8420SOL     OW36718   3.214   3.240  16.569  0.0408  0.2890  0.7525
 8420SOL    HW136719   3.122   3.251  16.543  0.1560 -1.3499 -0.3810
 8420SOL    HW236720   3.243   3.177  16.503 -1.1531 -0.4493  0.9330
 8421SOL     OW36721   1.883   4.123   6.128 -0.0534 -0.4978 -0.1808
 8421SOL    HW136722   1.862   4.050   6.069  3.0928 -1.0479 -0.6715
 8421SOL    HW236723   1.816   4.108   6.194 -0.2079 -0.6536 -0.3738
 8422SOL     OW36724   1.424   3.609   0.877 -0.4478  0.2899 -0.1245
 8422SOL    HW136725   1.397   3.602   0.786  1.3110 -2.3239 -0.4287
 8422SOL    HW236726   1.490   3.678   0.868 -1.0506  0.7194 -1.2596
 8423SOL     OW36727   2.460   4.419   5.770  0.0191 -0.2701  0.0394
 8423SOL    HW136728   2.498   4.486   5.713 -0.0603  0.8429  1.2859
 8423SOL    HW236729   2.475   4.340   5.718 -0.9516  0.9619 -2.1363
 8424SOL     OW36730   4.460   1.873   3.323 -0.1657 -0.4614 -0.3455
 8424SOL    HW136731   4.504   1.891   3.240  3.3740  1.4025  1.9102
 8424SOL    HW236732   4.512   1.920   3.389 -0.3850  1.0117 -1.2164
 8425SOL     OW36733   0.241   3.475   5.503 -0.4780  0.2063 -0.6473
 8425SOL    HW136734   0.229   3.541   5.435 -2.3815  0.4047 -0.1240
 8425SOL    HW236735   0.261   3.404   5.442  1.0688 -0.2459  0.4009
 8426SOL     OW36736   1.129   4.632   7.782  0.0672 -0.0571  0.2103
 8426SOL    HW136737   1.093   4.644   7.870 -1.5271  0.0139 -0.4447
 8426SOL    HW236738   1.148   0.003   7.768  2.7882 -0.6688 -0.0562
 8427SOL     OW36739   3.029   1.743  11.575 -0.0289  0.1096  0.2781
 8427SOL    HW136740   3.050   1.652  11.593 -0.5859 -0.2171 -0.6968
 8427SOL    HW236741   3.067   1.773  11.658  2.1189 -0.5044 -0.4931
 8428SOL     OW36742   1.232   3.167   6.966 -0.1271  0.0233 -0.3095
 8428SOL    HW136743   1.277   3.251   6.959 -1.0078  0.6191  1.1550
 8428SOL    HW236744   1.148   3.184   6.922  0.0426 -2.3055 -1.5622
 8429SOL     OW36745   4.229   0.752  10.967 -0.4269 -0.1084  0.5243
 8429SOL    HW136746   4.264   0.840  10.960 -0.0256 -0.3694 -0.7154
 8429SOL    HW236747   4.147   0.763  10.919  0.2821 -0.4222 -0.7614
 8430SOL     OW36748   4.061   4.448   9.228 -0.1491  0.0391  0.1862
 8430SOL    HW136749   3.968   4.451   9.250 -0.0024 -2.1163  1.1396
 8430SOL    HW236750   4.088   4.385   9.295  0.7380  1.4188  1.1103
 8431SOL     OW36751   0.178   3.768  14.075 -0.2722 -0.2406 -0.1100
 8431SOL    HW136752   0.243   3.815  14.022  0.0575  0.4263  0.8777
 8431SOL    HW236753   0.119   3.843  14.075  1.5150  1.1796  1.1858
 8432SOL     OW36754   0.758   4.405   3.883 -0.3675  0.3006 -0.6215
 8432SOL    HW136755   0.813   4.468   3.930 -1.6992  1.2138 -0.2925
 8432SOL    HW236756   0.719   4.358   3.957  0.2502 -0.2811 -0.6610
 8433SOL     OW36757   4.201   3.624   2.595 -0.7846  0.0443  0.6311
 8433SOL    HW136758   4.239   3.540   2.621 -1.8470  0.0330  2.1226
 8433SOL    HW236759   4.280   3.673   2.572  0.2962 -1.3902  1.3467
 8434SOL     OW36760   0.042   3.710  16.525 -0.1933  0.3155 -0.2963
 8434SOL    HW136761   4.679   3.668  16.520 -0.6274  1.2329 -0.5413
 8434SOL    HW236762   0.101   3.634  16.522 -1.2002 -0.4284 -1.5320
 8435SOL     OW36763   3.770   1.621   5.365  0.1860  0.3753 -0.1199
 8435SOL    HW136764   3.824   1.685   5.320 -0.7653  1.0772 -0.2660
 8435SOL    HW236765   3.697   1.676   5.394  0.4391  0.3384  0.5803
 8436SOL     OW36766   1.654   4.493   4.904  0.0580 -0.0324 -0.0823
 8436SOL    HW136767   1.739   4.488   4.860  0.3043  1.7345  0.1897
 8436SOL    HW236768   1.614   4.419   4.859  0.6739  0.7736 -1.9593
 8437SOL     OW36769   3.304   3.035   5.929  0.0770  0.6071  0.0109
 8437SOL    HW136770   3.381   3.089   5.945  0.0518  0.8135 -0.5701
 8437SOL    HW236771   3.340   2.947   5.932  1.2811  1.0897 -0.4394
 8438SOL     OW36772   3.652   0.830  10.238 -0.2910 -0.3395  0.3423
 8438SOL    HW136773   3.627   0.910  10.284  2.0838  0.6058 -0.0154
 8438SOL    HW236774   3.573   0.820  10.187 -0.8279  0.6116  0.9779
 8439SOL     OW36775   4.501   2.286  10.908  0.7076 -0.5579 -0.4330
 8439SOL    HW136776   4.489   2.375  10.874  0.2739  0.2428  1.8367
 8439SOL    HW236777   4.538   2.304  10.994  0.3919 -2.7809  0.1564
 8440SOL     OW36778   4.280   0.255   0.473 -0.0998  0.2215 -0.3043
 8440SOL    HW136779   4.223   0.242   0.397 -0.3871  2.1017 -0.4157
 8440SOL    HW236780   4.361   0.284   0.431  1.3397 -1.8918  1.0832
 8441SOL     OW36781   4.122   1.789   8.395  0.3837 -0.3908  0.4923
 8441SOL    HW136782   4.109   1.806   8.302 -3.1845  2.7839  1.5598
 8441SOL    HW236783   4.171   1.707   8.395  1.6650  0.3731 -2.3694
 8442SOL     OW36784   1.355   4.506   6.504 -0.2758 -0.3854  0.1537
 8442SOL    HW136785   1.389   4.594   6.519 -0.1768 -0.7085  1.8817
 8442SOL    HW236786   1.396   4.459   6.577  0.6016  0.6052  0.2976
 8443SOL     OW36787   2.747   1.496   5.151 -0.0760 -0.6757  0.1343
 8443SOL    HW136788   2.662   1.530   5.179 -0.3058 -0.2106 -1.1253
 8443SOL    HW236789   2.739   1.499   5.056 -0.6511  0.3281  0.2109
 8444SOL     OW36790   0.800   3.581   4.461 -0.0405  0.8935  0.2292
 8444SOL    HW136791   0.895   3.566   4.456  0.0294  1.8079 -1.2562
 8444SOL    HW236792   0.794   3.651   4.527  1.9758  0.6552  0.6780
 8445SOL     OW36793   2.441   1.743   2.678 -0.0240 -0.2379 -0.0462
 8445SOL    HW136794   2.438   1.797   2.757  0.7364 -0.6738  0.2832
 8445SOL    HW236795   2.438   1.657   2.720  1.0298 -0.5798 -0.6338
 8446SOL     OW36796   2.774   1.823   8.295 -0.2568 -0.0398 -0.1805
 8446SOL    HW136797   2.781   1.855   8.385 -1.7410  0.9471 -0.4191
 8446SOL    HW236798   2.864   1.798   8.272 -0.9924  0.2963 -3.4345
 8447SOL     OW36799   2.203   2.601   8.254 -0.2961  0.3352  0.3785
 8447SOL    HW136800   2.215   2.650   8.173 -1.6690  0.8336  0.4874
 8447SOL    HW236801   2.284   2.550   8.261 -0.1306  1.0142  3.4595
 8448SOL     OW36802   3.849   1.894  10.993 -0.2789 -0.0522  0.3628
 8448SOL    HW136803   3.901   1.950  10.935  2.3374 -0.8265  1.9282
 8448SOL    HW236804   3.898   1.909  11.074 -3.6508 -1.9618  2.7821
 8449SOL     OW36805   1.047   4.192   6.585  0.0956 -0.7650  0.0027
 8449SOL    HW136806   1.027   4.283   6.561  0.0677 -1.1197 -1.3264
 8449SOL    HW236807   1.141   4.181   6.569  0.1211  1.3165 -1.2789
 8450SOL     OW36808   1.785   2.918   7.843  0.3235 -1.0001 -0.1228
 8450SOL    HW136809   1.854   2.866   7.886  0.3458 -2.0280 -1.3786
 8450SOL    HW236810   1.803   3.003   7.882 -3.0994 -0.7324  0.8835
 8451SOL     OW36811   3.765   3.787   9.024  0.1705  0.4833 -0.2496
 8451SOL    HW136812   3.731   3.714   8.972  2.1785  0.0858 -1.0105
 8451SOL    HW236813   3.751   3.857   8.960  0.7093  3.1537  2.5590
 8452SOL     OW36814   2.003   4.329   4.344  0.4376  0.2309  0.5605
 8452SOL    HW136815   1.998   4.264   4.415 -0.9864  0.1971  0.4313
 8452SOL    HW236816   2.054   4.393   4.393  1.1513  1.9492 -2.4433
 8453SOL     OW36817   1.202   1.617   4.622  0.1349 -0.2650  0.4026
 8453SOL    HW136818   1.113   1.582   4.628 -0.8257  1.9293 -1.0787
 8453SOL    HW236819   1.219   1.628   4.529 -1.7422 -1.1544 -0.0507
 8454SOL     OW36820   4.294   0.862   2.092 -0.4459 -0.0004  0.6773
 8454SOL    HW136821   4.359   0.932   2.098 -1.2941  0.9333 -1.1556
 8454SOL    HW236822   4.211   0.909   2.093 -1.4978 -1.8165 -1.6219
 8455SOL     OW36823   4.683   0.561   7.522 -0.0298 -0.2035  0.6940
 8455SOL    HW136824   4.702   0.654   7.506 -1.9124 -0.3563 -2.4720
 8455SOL    HW236825   4.693   0.578   7.615  0.2543  0.6759  0.5087
 8456SOL     OW36826   4.635   3.143  16.438  0.3194  0.1676  0.2515
 8456SOL    HW136827   4.686   3.192  16.502 -0.0262 -2.1011  2.2405
 8456SOL    HW236828   4.574   3.209  16.406 -0.1848  0.2482  1.4138
 8457SOL     OW36829   4.041   4.303   1.713  0.1159 -0.0798  0.7030
 8457SOL    HW136830   4.081   4.326   1.797  0.8502 -1.3180  0.7017
 8457SOL    HW236831   4.110   4.330   1.652 -1.5014 -0.2244 -1.1696
 8458SOL     OW36832   3.996   0.418   6.388  0.0426  0.9022  0.0636
 8458SOL    HW136833   3.977   0.340   6.441  0.8684  1.3872  1.0782
 8458SOL    HW236834   4.045   0.468   6.453  0.3933 -0.4623  0.8641
 8459SOL     OW36835   4.388   3.062  11.803  0.3225  0.0049  0.3617
 8459SOL    HW136836   4.365   3.152  11.781  1.8570 -0.0693 -1.4527
 8459SOL    HW236837   4.436   3.035  11.726  0.0199  0.7699 -0.0965
 8460SOL     OW36838   0.649   2.401   1.585 -0.5444  0.0592  0.2855
 8460SOL    HW136839   0.664   2.333   1.519 -0.5533 -1.0198  1.3910
 8460SOL    HW236840   0.578   2.357   1.633 -0.5361 -0.1321  0.1241
 8461SOL     OW36841   1.664   2.603   1.032  0.5715  0.0233  0.2627
 8461SOL    HW136842   1.585   2.550   1.022  2.1909 -2.2769 -0.5675
 8461SOL    HW236843   1.690   2.605   0.940  1.2946 -2.0606  0.4180
 8462SOL     OW36844   2.567   3.320   2.376  0.0146 -0.0272 -0.5677
 8462SOL    HW136845   2.498   3.291   2.436  0.6725 -0.4598 -0.0173
 8462SOL    HW236846   2.517   3.374   2.315  0.4048 -1.1160 -1.8468
 8463SOL     OW36847   3.810   0.018   6.275 -0.2593  0.0746 -0.3482
 8463SOL    HW136848   3.816   0.113   6.288  0.7129  0.2583 -2.1720
 8463SOL    HW236849   3.884   4.721   6.218 -0.2922 -3.1831  0.7548
 8464SOL     OW36850   3.918   2.870   8.005  0.6659 -0.1071  0.0108
 8464SOL    HW136851   3.988   2.805   7.999  1.1449  0.6098 -2.0080
 8464SOL    HW236852   3.866   2.824   8.071  1.2699  1.1844  1.3755
 8465SOL     OW36853   4.601   2.492   8.630 -0.3353 -0.4876  0.3195
 8465SOL    HW136854   4.660   2.417   8.627 -0.3605 -0.4482 -0.9690
 8465SOL    HW236855   4.519   2.459   8.665  0.9689 -0.2933  3.6900
 8466SOL     OW36856   0.775   4.661   8.408  0.0791 -0.1631 -0.3765
 8466SOL    HW136857   0.859   4.632   8.442  0.2768  0.2115 -0.5541
 8466SOL    HW236858   0.728   4.693   8.485  0.0897  0.9774 -0.8534
 8467SOL     OW36859   0.483   1.562   8.304  0.2184  0.1087 -0.0696
 8467SOL    HW136860   0.506   1.584   8.214  3.0464 -1.0351  0.3879
 8467SOL    HW236861   0.399   1.608   8.310  1.5239  2.5272  0.0473
 8468SOL     OW36862   2.902   0.969  10.807 -0.0680  0.0616 -0.3320
 8468SOL    HW136863   2.960   0.911  10.856  1.0138  1.7224  0.3378
 8468SOL    HW236864   2.865   0.905  10.746 -0.9323  1.2329 -1.0414
 8469SOL     OW36865   0.273   3.817   6.924  0.2209  0.1552 -0.6404
 8469SOL    HW136866   0.270   3.752   6.853  1.4332  2.0940 -2.4927
 8469SOL    HW236867   0.183   3.849   6.918  0.4402  0.7329 -0.8280
 8470SOL     OW36868   2.847   2.810   5.982 -0.3657  0.2613 -0.4997
 8470SOL    HW136869   2.812   2.893   6.015 -0.4881  0.4924 -1.1963
 8470SOL    HW236870   2.767   2.760   5.965 -0.2383 -0.7725  1.9246
 8471SOL     OW36871   4.213   0.661   8.405 -0.3122 -0.9012 -0.0926
 8471SOL    HW136872   4.217   0.694   8.494 -1.0919  0.7461 -0.6661
 8471SOL    HW236873   4.121   0.634   8.406 -0.4566 -0.4855 -2.2752
 8472SOL     OW36874   0.569   4.453   8.899  0.0843  0.1849  0.0805
 8472SOL    HW136875   0.604   4.428   8.813 -0.3102 -1.9969  0.5470
 8472SOL    HW236876   0.476   4.471   8.888 -0.0873  0.5169  2.0954
 8473SOL     OW36877   4.285   2.332  16.503  0.9634 -0.0921 -0.3568
 8473SOL    HW136878   4.362   2.303  16.552  0.0572 -2.1162 -0.1040
 8473SOL    HW236879   4.227   2.258  16.525  0.1370  0.8414  0.5829
 8474SOL     OW36880   1.324   0.140   4.782 -0.5146  0.2628 -0.1226
 8474SOL    HW136881   1.381   0.178   4.715  1.4653 -1.9521  0.2984
 8474SOL    HW236882   1.312   0.052   4.745 -2.3878  1.0442 -1.3481
 8475SOL     OW36883   0.114   3.089   4.218 -0.4999  0.2758 -0.0163
 8475SOL    HW136884   0.112   3.147   4.294 -0.7958 -0.5933  0.6419
 8475SOL    HW236885   0.150   3.011   4.260 -1.8873  0.4457  1.5107
 8476SOL     OW36886   0.092   0.901  13.614  0.2324 -0.0750  0.0656
 8476SOL    HW136887   0.070   0.813  13.585  1.4759 -0.3330 -0.0909
 8476SOL    HW236888   0.159   0.889  13.681 -0.8768 -1.0417  1.0047
 8477SOL     OW36889   1.807   4.490   6.768 -0.2851 -0.0935 -0.0275
 8477SOL    HW136890   1.880   4.550   6.774 -0.6532  0.4042 -0.5258
 8477SOL    HW236891   1.762   4.512   6.850 -1.0982 -0.9647 -0.2390
 8478SOL     OW36892   2.807   4.530   9.616 -0.1856 -0.1933 -0.0828
 8478SOL    HW136893   2.772   4.526   9.527 -0.3689  2.5566 -0.1264
 8478SOL    HW236894   2.893   4.560   9.586 -0.3522  1.1286  0.7310
 8479SOL     OW36895   2.876   3.466   4.272 -0.3102  0.4203 -0.2641
 8479SOL    HW136896   2.839   3.504   4.352 -1.7503 -2.2829  0.3474
 8479SOL    HW236897   2.815   3.504   4.209  0.1869  1.8255  0.0922
 8480SOL     OW36898   2.300   0.263   4.673 -0.3325  0.9208 -0.1205
 8480SOL    HW136899   2.369   0.218   4.720 -0.9469  0.5870  0.4486
 8480SOL    HW236900   2.228   0.201   4.668 -0.4365  0.9148  1.7787
 8481SOL     OW36901   1.866   0.358   2.630 -0.0116  0.2884 -0.0616
 8481SOL    HW136902   1.790   0.319   2.587  0.1963  0.6707 -0.7845
 8481SOL    HW236903   1.928   0.286   2.634  1.9545  2.0077  0.5277
 8482SOL     OW36904   0.373   1.441  12.425  0.4082 -0.2579  0.4932
 8482SOL    HW136905   0.442   1.470  12.365 -0.9973  1.0655 -0.4924
 8482SOL    HW236906   0.342   1.527  12.454  1.2983  0.5392 -0.9333
 8483SOL     OW36907   4.673   0.148   8.089  0.0926 -0.6548  0.5161
 8483SOL    HW136908   0.045   0.134   8.081  0.2519  0.5224  0.4172
 8483SOL    HW236909   4.660   0.152   8.184 -0.2046 -1.8293  0.5320
 8484SOL     OW36910   0.406   4.488   7.519  0.8485 -0.0407  0.3627
 8484SOL    HW136911   0.344   4.531   7.578  0.3438  1.2581 -1.1196
 8484SOL    HW236912   0.470   4.558   7.527  1.9234 -1.0019  0.1404
 8485SOL     OW36913   2.194   2.743   3.979  0.0797  0.5786 -0.4776
 8485SOL    HW136914   2.182   2.695   3.898 -0.3519 -1.0505  0.5460
 8485SOL    HW236915   2.119   2.801   3.993 -0.8013 -0.3881 -1.1429
 8486SOL     OW36916   1.807   4.050   4.315  0.5164 -0.1224 -0.2099
 8486SOL    HW136917   1.770   4.020   4.232  1.1140 -1.3030 -0.0600
 8486SOL    HW236918   1.768   4.136   4.326  0.4536 -0.1157 -0.4861
 8487SOL     OW36919   0.913   0.981  10.973 -0.2102 -0.8928 -0.1682
 8487SOL    HW136920   1.000   0.957  10.941 -0.5237  1.4164 -2.7857
 8487SOL    HW236921   0.913   0.933  11.055 -1.9013  0.4786  0.6283
 8488SOL     OW36922   3.326   0.842   8.913  0.3208  0.5199 -0.3507
 8488SOL    HW136923   3.357   0.900   8.983 -1.2069 -0.6247  1.2667
 8488SOL    HW236924   3.378   0.878   8.840  1.9073 -0.3051  0.3766
 8489SOL     OW36925   3.765   3.343  13.710 -0.0598 -0.4499 -0.0422
 8489SOL    HW136926   3.767   3.339  13.805  0.8261 -1.5393 -0.1066
 8489SOL    HW236927   3.855   3.369  13.689  1.2447 -3.2446  2.1276
 8490SOL     OW36928   0.710   0.917   2.235 -0.1707 -0.3758 -0.7113
 8490SOL    HW136929   0.682   1.001   2.272 -1.0824 -1.0807  0.2209
 8490SOL    HW236930   0.750   0.927   2.149 -0.3024  0.0255 -0.7278
 8491SOL     OW36931   2.444   4.401   7.221 -0.1333  0.2629 -0.4424
 8491SOL    HW136932   2.432   4.495   7.233 -0.1292  0.2294 -0.1882
 8491SOL    HW236933   2.363   4.386   7.173 -1.6171  1.5560  1.6707
 8492SOL     OW36934   3.895   2.389  10.851  0.2812 -0.4384  0.2822
 8492SOL    HW136935   3.860   2.411  10.765  2.6601  0.2923 -0.5046
 8492SOL    HW236936   3.988   2.408  10.838  0.3438 -0.8029  0.1961
 8493SOL     OW36937   3.259   3.288  12.668 -0.1644  0.3852  0.8213
 8493SOL    HW136938   3.323   3.243  12.613 -0.9116 -0.3492  0.5607
 8493SOL    HW236939   3.271   3.234  12.746 -0.2907  0.6172  1.0019
 8494SOL     OW36940   4.590   2.238   3.968  0.3990 -0.1351 -0.1488
 8494SOL    HW136941   4.646   2.163   3.948 -0.8954 -1.0914 -0.1758
 8494SOL    HW236942   4.507   2.209   3.930  0.2144  1.6212 -1.0688
 8495SOL     OW36943   1.924   0.908   8.800 -0.4494 -0.0034  0.9986
 8495SOL    HW136944   1.970   0.825   8.792  1.3156  1.4541 -4.3792
 8495SOL    HW236945   1.865   0.905   8.725 -1.5428  1.6007  1.7993
 8496SOL     OW36946   2.711   1.705   6.065 -0.4804 -0.1362  0.4347
 8496SOL    HW136947   2.734   1.660   5.983 -3.1683 -0.3337 -0.2194
 8496SOL    HW236948   2.765   1.784   6.058  1.8471 -1.7923 -0.1916
 8497SOL     OW36949   1.018   2.409  11.814 -0.0635 -0.2380 -0.0599
 8497SOL    HW136950   1.063   2.432  11.896  0.2822 -0.7679 -0.1031
 8497SOL    HW236951   0.938   2.372  11.851  0.8307  0.5758  2.7254
 8498SOL     OW36952   3.693   1.746  15.783 -0.0872  0.4729  0.1265
 8498SOL    HW136953   3.786   1.733  15.801 -0.3735  0.3014  1.5327
 8498SOL    HW236954   3.683   1.682  15.713 -1.6679  2.0327 -1.0841
 8499SOL     OW36955   0.437   2.774  12.999  0.6989 -0.0396  0.1544
 8499SOL    HW136956   0.470   2.710  13.062  1.4829  0.2152  0.0060
 8499SOL    HW236957   0.350   2.740  12.980  0.7466 -1.3057  2.2461
 8500SOL     OW36958   0.992   3.965   5.018 -0.5388 -0.8036 -1.1087
 8500SOL    HW136959   0.998   4.040   5.078  0.0176 -0.0571 -2.0878
 8500SOL    HW236960   1.070   3.984   4.966  0.3194 -2.6199 -0.4659
 8501SOL     OW36961   0.057   4.706   1.672 -1.3481  0.1884  0.3612
 8501SOL    HW136962   4.707   4.683   1.730  0.5927 -1.1289  2.2570
 8501SOL    HW236963   0.005   0.020   1.601 -0.3822  3.2646  1.2479
 8502SOL     OW36964   3.989   4.624  15.303 -0.3332  0.1610 -0.1975
 8502SOL    HW136965   3.915   4.667  15.346 -0.0486  1.6179 -1.1788
 8502SOL    HW236966   3.940   4.609  15.222 -0.9930  0.9768  0.0510
 8503SOL     OW36967   1.328   1.199   4.790 -0.1243  0.1588  0.0912
 8503SOL    HW136968   1.365   1.141   4.724 -0.8426 -0.0075 -0.1657
 8503SOL    HW236969   1.400   1.252   4.825 -1.6304  1.8080  0.7113
 8504SOL     OW36970   0.580   4.087   3.833  0.5534 -0.2563  0.4735
 8504SOL    HW136971   0.557   4.120   3.746 -1.4880 -0.1682  1.0531
 8504SOL    HW236972   0.657   4.032   3.822  0.9141 -0.1570  2.5063
 8505SOL     OW36973   1.285   1.143   7.134 -0.5775  0.1366 -0.1723
 8505SOL    HW136974   1.287   1.075   7.067  1.6401  0.9721 -0.9715
 8505SOL    HW236975   1.298   1.092   7.213  0.8399  0.2513 -0.3251
 8506SOL     OW36976   3.872   4.152   9.178  0.1852 -0.4066 -0.3657
 8506SOL    HW136977   3.862   4.193   9.092 -1.3129  1.7781  0.8517
 8506SOL    HW236978   3.942   4.088   9.165  2.2982  1.5210  1.5344
 8507SOL     OW36979   2.187   3.514   2.457  0.2879 -0.6213 -0.1567
 8507SOL    HW136980   2.236   3.468   2.388 -1.7711 -1.9273 -0.7510
 8507SOL    HW236981   2.251   3.576   2.491  0.3406 -0.3364 -0.7786
 8508SOL     OW36982   4.645   0.049   6.267  0.4272  0.0694  0.1139
 8508SOL    HW136983   4.558   0.009   6.272  0.7020 -0.5200  0.2801
 8508SOL    HW236984   4.685   0.008   6.344  0.4969 -0.5737 -0.2613
 8509SOL     OW36985   1.718   1.400  12.533 -0.3125 -0.4803  0.3556
 8509SOL    HW136986   1.654   1.337  12.565 -0.6227  1.2878  3.2376
 8509SOL    HW236987   1.757   1.425  12.617 -0.9116 -1.2301  0.8560
 8510SOL     OW36988   0.107   2.806   1.181  0.1369 -0.0282  0.1839
 8510SOL    HW136989   0.037   2.833   1.120 -1.2959 -1.4506  1.2144
 8510SOL    HW236990   0.187   2.804   1.129 -0.2960 -0.6089 -0.4576
 8511SOL     OW36991   2.056   3.655   5.581 -0.5419  0.8017  0.2951
 8511SOL    HW136992   2.088   3.715   5.513  0.3364  1.7832  1.5723
 8511SOL    HW236993   2.008   3.594   5.526 -0.0920  1.5711 -0.9495
 8512SOL     OW36994   1.778   3.725   5.467  0.1087 -0.4619  0.1453
 8512SOL    HW136995   1.710   3.686   5.412 -0.1204 -1.0527  0.8611
 8512SOL    HW236996   1.767   3.681   5.551  0.3269  0.8119  0.8438
 8513SOL     OW36997   4.109   0.101   8.744 -0.2873  0.2573  0.9066
 8513SOL    HW136998   4.107   0.196   8.754  0.7633  0.6305 -2.5614
 8513SOL    HW236999   4.090   0.073   8.834 -0.5989 -2.3724  0.0228
 8514SOL     OW37000   0.052   1.418   7.572  0.2808 -0.2183  0.5422
 8514SOL    HW137001   0.055   1.475   7.496 -1.9653  0.5307  1.0097
 8514SOL    HW237002   0.055   1.339   7.517 -0.1036  1.0741 -1.3227
 8515SOL     OW37003   1.070   1.842   4.946  0.6471  0.4103  0.8240
 8515SOL    HW137004   1.108   1.776   5.004  0.5743 -0.1900  0.1942
 8515SOL    HW237005   1.147   1.861   4.892  0.1974  0.0730  0.0594
 8516SOL     OW37006   2.123   3.212   3.251  0.0431  0.8448  0.1759
 8516SOL    HW137007   2.080   3.271   3.313 -0.6521 -1.4091  1.8718
 8516SOL    HW237008   2.053   3.146   3.250  0.4752  0.3921 -0.5090
 8517SOL     OW37009   0.905   4.488   4.174 -0.1626  0.5584 -0.2336
 8517SOL    HW137010   0.865   4.506   4.259  1.2803  0.6461  0.4361
 8517SOL    HW237011   0.916   4.395   4.192  1.6298  0.7670 -0.1835
 8518SOL     OW37012   4.050   3.760   7.707  0.6678 -0.0258 -0.1354
 8518SOL    HW137013   4.140   3.735   7.730  0.9256 -0.7269 -1.8901
 8518SOL    HW237014   4.015   3.671   7.711 -1.2947  0.7148 -1.1831
 8519SOL     OW37015   3.146   3.187   9.413 -0.5787  0.1274 -0.2444
 8519SOL    HW137016   3.098   3.270   9.407 -1.9973 -0.8416 -2.1464
 8519SOL    HW237017   3.226   3.240   9.419 -0.4655  0.2287 -2.6238
 8520SOL     OW37018   1.395   0.645  17.264  0.5054  0.4412  0.0382
 8520SOL    HW137019   1.395   0.707  17.191  2.4331  0.2120 -0.1545
 8520SOL    HW237020   1.345   0.697  17.327 -2.5277 -1.1150 -1.0783
 8521SOL     OW37021   3.964   3.181   7.199 -0.7609  0.0319  0.2334
 8521SOL    HW137022   3.933   3.113   7.260  1.5227 -0.9662  0.2964
 8521SOL    HW237023   3.882   3.203   7.155 -0.4066 -0.8908 -0.8961
 8522SOL     OW37024   2.590   3.660   6.730 -0.2435 -0.3660  0.2421
 8522SOL    HW137025   2.664   3.603   6.712 -0.2498  0.0943 -1.2048
 8522SOL    HW237026   2.626   3.732   6.783 -2.0106  0.5255  0.2396
 8523SOL     OW37027   4.391   4.331   3.952 -0.0170 -0.6647  0.0131
 8523SOL    HW137028   4.358   4.269   4.018 -0.8562 -0.3932 -0.1545
 8523SOL    HW237029   4.301   4.354   3.929  0.6779  3.4169  1.4630
 8524SOL     OW37030   1.944   1.506   1.578  0.2433 -0.5287  0.2044
 8524SOL    HW137031   1.872   1.555   1.618  0.5410  1.9986 -2.3321
 8524SOL    HW237032   1.946   1.525   1.484  0.7727 -1.1386  0.0977
 8525SOL     OW37033   3.244   2.733   5.358  0.3757 -0.2555  0.2900
 8525SOL    HW137034   3.235   2.788   5.280 -0.1381 -0.3862  0.2544
 8525SOL    HW237035   3.259   2.645   5.322 -1.2081 -0.6482  0.5619
 8526SOL     OW37036   1.646   3.231   2.543  0.0592 -0.3960 -0.3303
 8526SOL    HW137037   1.579   3.283   2.498 -1.7274 -1.9064  0.6116
 8526SOL    HW237038   1.635   3.160   2.480  1.4683 -0.5678 -0.3918
 8527SOL     OW37039   0.680   2.536  10.186  0.3383  0.0976  0.5634
 8527SOL    HW137040   0.716   2.621  10.161  2.1655 -1.1207 -0.9373
 8527SOL    HW237041   0.740   2.481  10.135 -0.4835 -0.7469  0.5196
 8528SOL     OW37042   4.051   3.656  14.552 -0.0432  0.5587  0.1939
 8528SOL    HW137043   4.136   3.628  14.518 -0.4225 -2.1073  1.4239
 8528SOL    HW237044   4.077   3.733  14.602 -1.8244  1.5667 -0.4179
 8529SOL     OW37045   0.032   4.411   6.743  0.3271  0.3143 -0.8054
 8529SOL    HW137046   0.029   4.429   6.649  0.4871  0.0824 -0.8536
 8529SOL    HW237047   4.664   4.428   6.771  0.6223  1.5714 -0.6069
 8530SOL     OW37048   0.443   1.772   1.981 -0.0085 -0.9564  0.1582
 8530SOL    HW137049   0.523   1.825   1.981 -1.2981  1.0009 -0.3205
 8530SOL    HW237050   0.406   1.791   1.895 -0.8576 -3.2563  0.0021
 8531SOL     OW37051   1.594   2.305   5.828 -0.0594 -0.5118  0.6617
 8531SOL    HW137052   1.651   2.366   5.782 -0.5399 -1.0338 -0.6292
 8531SOL    HW237053   1.615   2.224   5.782  1.5572  0.6290 -0.5760
 8532SOL     OW37054   0.216   4.598  17.135 -0.4339 -0.1660  0.0646
 8532SOL    HW137055   0.131   4.563  17.162 -1.1714 -0.6263 -2.8505
 8532SOL    HW237056   0.288   4.545  17.169  0.5033  0.0758 -1.5436
 8533SOL     OW37057   1.138   1.525   7.820 -0.5632  0.2085  0.6485
 8533SOL    HW137058   1.185   1.444   7.843  1.2393  1.7240  2.3626
 8533SOL    HW237059   1.214   1.574   7.788 -0.5738 -0.0548  0.2235
 8534SOL     OW37060   0.351   1.535   6.796  0.0706  0.2574 -0.1665
 8534SOL    HW137061   0.326   1.576   6.713  0.3659 -0.3845 -0.5696
 8534SOL    HW237062   0.322   1.447   6.775 -1.2475  1.1977 -2.3232
 8535SOL     OW37063   2.238   0.540   8.743  0.5650 -0.0034 -0.2873
 8535SOL    HW137064   2.296   0.600   8.790  0.1120  0.1361  0.0945
 8535SOL    HW237065   2.267   0.461   8.790  1.9138  0.3129 -0.5819
 8536SOL     OW37066   2.634   3.488   0.143 -0.0914 -0.3028  0.4404
 8536SOL    HW137067   2.589   3.525   0.068 -1.2242 -0.8243  0.8681
 8536SOL    HW237068   2.595   3.401   0.143  0.7450 -0.6825  0.2769
 8537SOL     OW37069   2.687   1.588  12.679  0.0475 -0.0383 -0.1443
 8537SOL    HW137070   2.676   1.548  12.766  0.3641  1.0694  0.4119
 8537SOL    HW237071   2.765   1.637  12.703  0.2642 -1.1937  1.5862
 8538SOL     OW37072   3.869   4.304   5.757  0.0610 -0.0105 -0.5089
 8538SOL    HW137073   3.851   4.399   5.757 -1.8783 -0.3791  0.7484
 8538SOL    HW237074   3.784   4.278   5.791  0.5423 -1.3210 -0.3208
 8539SOL     OW37075   4.064   3.153  16.577  0.3597 -0.1446 -0.4919
 8539SOL    HW137076   4.017   3.228  16.613 -1.4682 -1.5706  0.0856
 8539SOL    HW237077   4.149   3.172  16.616 -0.3850  1.6343  0.2774
 8540SOL     OW37078   1.661   0.631  14.229  0.1734  0.0869 -0.0350
 8540SOL    HW137079   1.713   0.554  14.208 -2.3352 -1.5588 -0.2596
 8540SOL    HW237080   1.632   0.661  14.143  1.2407 -0.6707 -0.6528
 8541SOL     OW37081   1.340   4.135  12.897 -0.3899  0.1476 -0.2349
 8541SOL    HW137082   1.407   4.092  12.845 -0.0584 -0.6718  0.8629
 8541SOL    HW237083   1.293   4.062  12.938  0.9170 -2.7559 -3.9377
 8542SOL     OW37084   1.200   2.546   0.022  0.4846  0.1129  0.1986
 8542SOL    HW137085   1.208   2.603  17.637  1.6722  0.7716  0.8047
 8542SOL    HW237086   1.132   2.591   0.073  0.3097  0.2926 -0.1927
 8543SOL     OW37087   3.615   1.901  14.123  0.4620  0.2914  0.1380
 8543SOL    HW137088   3.650   1.981  14.084 -1.0287 -0.3280 -2.4378
 8543SOL    HW237089   3.541   1.881  14.066  0.6164  2.7103 -0.9210
 8544SOL     OW37090   2.060   1.659   7.653 -0.2953 -0.0566  0.2853
 8544SOL    HW137091   2.112   1.712   7.593 -1.0616  0.9919  0.5425
 8544SOL    HW237092   1.978   1.704   7.631 -0.3905 -1.4628 -2.1945
 8545SOL     OW37093   0.204   3.273   2.034  0.5820  0.3749  0.2698
 8545SOL    HW137094   0.229   3.248   1.945  0.2853  0.7332  0.0871
 8545SOL    HW237095   0.186   3.366   2.024  1.7160  0.4984 -0.7379
 8546SOL     OW37096   3.418   1.173   5.196  0.0104 -0.6231  0.4526
 8546SOL    HW137097   3.502   1.166   5.243  0.5199  1.1660 -0.1775
 8546SOL    HW237098   3.357   1.162   5.269 -1.0568 -1.2206 -0.5271
 8547SOL     OW37099   1.619   2.766  11.670 -0.1669 -0.6874 -0.2054
 8547SOL    HW137100   1.599   2.786  11.761 -2.6800 -1.4438 -0.5854
 8547SOL    HW237101   1.709   2.733  11.670  0.1942  0.3005  0.2246
 8548SOL     OW37102   0.392   4.695  15.125 -0.1189  0.0773  0.2686
 8548SOL    HW137103   0.390   0.043  15.189  0.6660  0.4612 -0.1330
 8548SOL    HW237104   0.486   4.693  15.107  0.2877  1.4636  2.3193
 8549SOL     OW37105   2.539   4.107  12.914 -0.5382  0.3593  0.3121
 8549SOL    HW137106   2.504   4.018  12.918  1.6177 -0.5795 -1.3589
 8549SOL    HW237107   2.494   4.142  12.991  1.1090  2.1937  0.4339
 8550SOL     OW37108   1.768   4.228   0.515 -0.4646  0.0181  0.0635
 8550SOL    HW137109   1.792   4.295   0.451 -1.1214 -0.2892 -0.4926
 8550SOL    HW237110   1.853   4.196   0.546 -1.3093 -1.4701  0.8326
 8551SOL     OW37111   1.862   3.652   6.352 -0.0882  0.1504 -0.5745
 8551SOL    HW137112   1.906   3.736   6.366  0.8393 -0.4198 -0.1002
 8551SOL    HW237113   1.922   3.597   6.402 -0.5533  1.0278  0.9300
 8552SOL     OW37114   0.331   2.546   2.103 -0.1832 -0.0496 -0.2233
 8552SOL    HW137115   0.317   2.518   2.012  1.2549 -0.9471 -0.1525
 8552SOL    HW237116   0.311   2.640   2.109  2.4714  0.3720  1.7358
 8553SOL     OW37117   1.273   2.054  16.628  0.1709 -0.4122  0.1641
 8553SOL    HW137118   1.296   2.037  16.537 -2.6599  0.1203 -0.6490
 8553SOL    HW237119   1.195   2.103  16.604  0.1315 -1.0187 -0.9229
 8554SOL     OW37120   1.859   0.809  10.536  0.3781 -0.4945  0.0395
 8554SOL    HW137121   1.889   0.732  10.489 -0.4210 -1.4431  1.0796
 8554SOL    HW237122   1.944   0.850  10.553 -0.2989  2.0388 -2.8845
 8555SOL     OW37123   3.683   2.669  11.683 -0.0030  0.1132  0.0264
 8555SOL    HW137124   3.600   2.626  11.701  0.9329 -1.4609  0.6596
 8555SOL    HW237125   3.685   2.662  11.588 -2.3476 -0.7098  0.0328
 8556SOL     OW37126   0.813   3.776   5.888 -0.2300  0.5553 -0.7377
 8556SOL    HW137127   0.758   3.774   5.810 -0.8431  2.0414 -0.3371
 8556SOL    HW237128   0.821   3.871   5.883 -0.9018  0.6244 -0.4550
 8557SOL     OW37129   3.024   3.389   7.420  0.6247  0.5392 -0.2162
 8557SOL    HW137130   3.055   3.479   7.412 -1.5066  1.2895 -0.1524
 8557SOL    HW237131   2.951   3.390   7.359 -1.9163  0.2200  2.7978
 8558SOL     OW37132   2.935   4.094   1.394  0.5804 -0.3587  0.3753
 8558SOL    HW137133   3.015   4.121   1.438  0.0176  0.0213  1.1685
 8558SOL    HW237134   2.924   4.153   1.320 -0.0111  0.1716  0.8887
 8559SOL     OW37135   1.831   4.527  11.364  0.4334  0.0463  0.1187
 8559SOL    HW137136   1.818   4.438  11.333 -1.1798 -0.2689  1.6966
 8559SOL    HW237137   1.926   4.525  11.366  0.4195 -1.7059 -1.7174
 8560SOL     OW37138   4.715   4.560   4.371  0.2168 -0.0493  0.3600
 8560SOL    HW137139   4.670   4.512   4.441  1.3297 -0.0582  1.0691
 8560SOL    HW237140   0.035   4.493   4.317 -0.9231 -1.2771  0.9579
 8561SOL     OW37141   1.169   1.053   6.121  0.0221 -0.1682 -0.2156
 8561SOL    HW137142   1.130   1.052   6.034 -0.6549 -1.0124  0.1069
 8561SOL    HW237143   1.096   1.083   6.176  0.1783 -1.4433  0.6730
 8562SOL     OW37144   1.093   0.504   8.752  0.2264 -0.1387  0.3089
 8562SOL    HW137145   1.144   0.453   8.815  0.4468  0.6135  0.7455
 8562SOL    HW237146   1.020   0.444   8.737  0.4038 -0.4260  0.5894
 8563SOL     OW37147   3.265   3.333   7.328 -0.3293  0.2835  0.1527
 8563SOL    HW137148   3.193   3.365   7.382 -2.7171  1.7395 -3.8890
 8563SOL    HW237149   3.222   3.276   7.264  0.4690  2.2649 -2.1305
 8564SOL     OW37150   1.632   4.033   2.083  0.0068  0.2494  0.1500
 8564SOL    HW137151   1.624   4.066   1.993 -0.3194  1.6862  0.7056
 8564SOL    HW237152   1.724   4.008   2.093 -0.6553 -1.9078  0.9026
 8565SOL     OW37153   2.889   4.524   7.313  0.1969  0.4151 -0.2601
 8565SOL    HW137154   2.851   4.466   7.246  1.3040 -0.8289  0.2089
 8565SOL    HW237155   2.810   4.539   7.365  0.6235 -0.2263  0.5754
 8566SOL     OW37156   1.211   2.675   2.415  0.5273 -0.6674 -0.1385
 8566SOL    HW137157   1.116   2.681   2.426  0.7510 -0.3482  1.6429
 8566SOL    HW237158   1.231   2.759   2.374 -2.3329  0.2875  0.4101
 8567SOL     OW37159   0.529   2.735   2.570 -0.2094 -0.6223 -0.6468
 8567SOL    HW137160   0.435   2.749   2.582  0.0328 -0.5434  1.1478
 8567SOL    HW237161   0.554   2.742   2.662  1.2771  0.7961 -1.1589
 8568SOL     OW37162   4.670   4.629   6.511 -0.6547  0.2065 -0.3742
 8568SOL    HW137163   4.687   4.538   6.487  0.9693  1.0505 -2.3641
 8568SOL    HW237164   4.579   4.633   6.540 -0.6765 -1.8566 -0.1693
 8569SOL     OW37165   1.273   0.649   8.583 -0.0040 -0.4973 -0.8866
 8569SOL    HW137166   1.199   0.617   8.635  1.2692 -1.2186  0.5161
 8569SOL    HW237167   1.343   0.628   8.645 -0.5149  0.6128  0.0724
 8570SOL     OW37168   0.126   2.161   8.949  0.2300  0.2072  0.4031
 8570SOL    HW137169   0.120   2.252   8.980  2.3057 -0.1048  1.7498
 8570SOL    HW237170   0.218   2.142   8.968  0.2169  0.7300  0.9942
 8571SOL     OW37171   2.180   3.056   1.851  0.3643 -0.0315  0.0658
 8571SOL    HW137172   2.213   3.142   1.876 -0.8885  0.4356  0.1120
 8571SOL    HW237173   2.235   2.998   1.903  1.0999  0.3372 -0.3025
 8572SOL     OW37174   1.355   3.979   2.855 -0.3995 -0.2330  0.5622
 8572SOL    HW137175   1.442   3.982   2.895 -0.1487  2.2711 -0.1500
 8572SOL    HW237176   1.346   4.073   2.841 -3.0304 -0.6844 -0.7889
 8573SOL     OW37177   1.934   4.028  14.192 -0.3600  0.0552  0.0258
 8573SOL    HW137178   1.914   4.043  14.284 -1.5850 -1.7734  0.0537
 8573SOL    HW237179   1.925   4.115  14.153 -0.7498  0.0751  0.1617
 8574SOL     OW37180   1.467   3.211  13.288 -0.4610 -0.1715 -0.8748
 8574SOL    HW137181   1.521   3.182  13.362 -0.0519  3.8628  0.3815
 8574SOL    HW237182   1.397   3.146  13.296 -0.6459  0.1356 -0.0273
 8575SOL     OW37183   0.829   4.051   6.697  0.4085 -0.0483 -0.0541
 8575SOL    HW137184   0.887   4.126   6.678  1.4954 -0.3211  2.1839
 8575SOL    HW237185   0.868   4.003   6.770  0.6853  0.9348  0.4520
 8576SOL     OW37186   4.653   2.163   5.648  0.5922  0.0778  0.3023
 8576SOL    HW137187   4.655   2.073   5.614  0.5192  0.4623 -0.7413
 8576SOL    HW237188   0.025   2.170   5.662  0.3231 -0.7291  2.4632
 8577SOL     OW37189   0.134   0.012   0.937  0.5746 -0.1965 -0.0563
 8577SOL    HW137190   0.066   0.079   0.926  0.6300 -0.2365 -0.6161
 8577SOL    HW237191   0.156   4.717   0.846  0.1488  0.9284 -0.3815
 8578SOL     OW37192   2.755   0.510   5.005  0.2612  0.1303 -0.3054
 8578SOL    HW137193   2.831   0.462   5.039  0.8901  1.1291 -0.3041
 8578SOL    HW237194   2.742   0.469   4.920  1.2802 -0.0986 -0.3574
 8579SOL     OW37195   0.736   2.057  12.999 -0.2596 -0.4704  0.2009
 8579SOL    HW137196   0.668   2.124  13.001  0.7555  0.5241  1.4833
 8579SOL    HW237197   0.779   2.082  12.917  0.7215  2.1309  1.5012
 8580SOL     OW37198   4.298   2.373   4.320 -0.0766 -0.3591 -0.3131
 8580SOL    HW137199   4.281   2.461   4.355 -1.8332 -1.1273  0.8165
 8580SOL    HW237200   4.232   2.370   4.251  1.0037 -1.7292 -1.2831
 8581SOL     OW37201   2.808   1.632  11.844 -0.0208  0.3777  1.0550
 8581SOL    HW137202   2.832   1.724  11.837 -2.3641  0.7385 -1.9201
 8581SOL    HW237203   2.762   1.636  11.927 -0.8677 -1.4394  0.6861
 8582SOL     OW37204   0.859   3.677   7.540  0.3138  0.0009  0.0880
 8582SOL    HW137205   0.845   3.761   7.583  0.0625 -0.9350  1.8074
 8582SOL    HW237206   0.809   3.620   7.597  1.9133 -1.1903  0.3077
 8583SOL     OW37207   3.706   3.825   9.351 -0.0602 -0.1990  0.2533
 8583SOL    HW137208   3.719   3.762   9.422  1.8339 -0.2777 -0.1726
 8583SOL    HW237209   3.617   3.801   9.325 -0.0993 -2.4772  2.4805
 8584SOL     OW37210   0.460   1.657   1.092 -0.1201  0.8938  0.0236
 8584SOL    HW137211   0.392   1.603   1.052  1.9177  0.9492 -3.4266
 8584SOL    HW237212   0.394   1.711   1.136 -0.8248 -0.0086  0.0940
 8585SOL     OW37213   2.353   3.607  11.888  0.4606 -0.4570 -0.4556
 8585SOL    HW137214   2.318   3.518  11.883  0.0580 -0.3057 -0.3501
 8585SOL    HW237215   2.287   3.652  11.835 -1.3501 -2.8190 -0.2253
 8586SOL     OW37216   1.337   1.688  10.368 -0.0398 -0.5788 -0.5370
 8586SOL    HW137217   1.281   1.610  10.361 -0.5014 -0.1902 -1.0967
 8586SOL    HW237218   1.305   1.725  10.450  1.2419 -0.0211 -0.2858
 8587SOL     OW37219   0.221   2.621  16.486 -0.1287  0.0233  0.1520
 8587SOL    HW137220   0.190   2.628  16.577 -2.4905  0.4717 -0.6732
 8587SOL    HW237221   0.307   2.663  16.495  0.8750 -1.8943 -0.6582
 8588SOL     OW37222   0.711   3.001   6.695  0.1200  0.1879 -0.0775
 8588SOL    HW137223   0.806   2.989   6.698  0.0744  0.0648  0.8248
 8588SOL    HW237224   0.691   2.988   6.788 -1.5185 -3.3712 -0.9274
 8589SOL     OW37225   1.352   1.341   3.279  0.3608  0.0925  0.1309
 8589SOL    HW137226   1.411   1.408   3.245  0.4611 -0.4242 -0.7092
 8589SOL    HW237227   1.331   1.305   3.193  0.2884 -1.4174  0.7780
 8590SOL     OW37228   1.285   0.088   5.948 -0.1438 -0.3863 -0.2023
 8590SOL    HW137229   1.336   0.167   5.966 -1.4759  0.6170 -0.8411
 8590SOL    HW237230   1.196   0.120   5.965  0.1770  0.0459  0.6319
 8591SOL     OW37231   1.362   0.498   4.022 -0.5078 -0.0930 -0.1923
 8591SOL    HW137232   1.390   0.468   4.109 -1.1104 -1.0318 -0.3195
 8591SOL    HW237233   1.399   0.586   4.029 -2.6571  1.0554 -3.2886
 8592SOL     OW37234   2.597   1.854  14.612 -0.1969 -0.0770 -0.0291
 8592SOL    HW137235   2.553   1.871  14.529  1.9179  0.5966 -1.0251
 8592SOL    HW237236   2.687   1.844  14.580 -0.0370 -1.6062  0.8787
 8593SOL     OW37237   1.984   1.585   2.325  0.0653 -0.3599 -0.2727
 8593SOL    HW137238   2.054   1.556   2.384  0.0443 -2.8944 -1.5016
 8593SOL    HW237239   2.042   1.608   2.252 -1.4042  2.4560 -0.5605
 8594SOL     OW37240   1.097   4.536   6.786 -0.3091 -0.6092  0.0687
 8594SOL    HW137241   1.059   4.470   6.843 -1.7695 -0.6078 -0.8846
 8594SOL    HW237242   1.104   4.494   6.700  1.2242  0.1362 -0.1643
 8595SOL     OW37243   4.652   0.170   0.912 -0.3846  0.1095 -0.0798
 8595SOL    HW137244   4.585   0.237   0.922  1.6178  2.1147 -0.1871
 8595SOL    HW237245   4.599   0.091   0.902 -2.9151  1.8549 -0.0992
 8596SOL     OW37246   3.820   1.401   4.204  0.1900  0.1566  0.2933
 8596SOL    HW137247   3.816   1.316   4.247  0.2264  0.6480  1.2693
 8596SOL    HW237248   3.903   1.398   4.156 -0.3385 -2.0777 -0.4744
 8597SOL     OW37249   0.419   1.649   5.475 -0.2602 -0.4289  0.4006
 8597SOL    HW137250   0.461   1.608   5.399  1.6810  2.0753  0.1254
 8597SOL    HW237251   0.485   1.650   5.544 -0.1468 -1.8830  0.3157
 8598SOL     OW37252   3.964   2.190   7.771  0.2585  0.5026  0.0499
 8598SOL    HW137253   4.055   2.220   7.765  0.4768  0.1061  1.2937
 8598SOL    HW237254   3.954   2.170   7.864 -1.2391 -1.1590 -0.4816
 8599SOL     OW37255   0.589   4.363   1.357  0.4589  0.5567 -0.5029
 8599SOL    HW137256   0.525   4.292   1.353 -0.1963  1.1376 -0.2602
 8599SOL    HW237257   0.575   4.409   1.274  1.1694 -2.9928 -2.5901
 8600SOL     OW37258   0.439   3.371   6.237  0.1264  0.5565  0.1686
 8600SOL    HW137259   0.394   3.403   6.159 -1.3245 -1.1179  0.3086
 8600SOL    HW237260   0.367   3.327   6.282  0.4924 -0.1065  0.1001
 8601SOL     OW37261   4.128   4.295   9.906  0.4885 -0.0280  0.4004
 8601SOL    HW137262   4.198   4.327   9.849 -0.9431  2.4890  0.0308
 8601SOL    HW237263   4.056   4.356   9.889  2.1283  1.8185  0.0060
 8602SOL     OW37264   2.190   3.377   7.729 -0.1199 -0.1571 -0.0274
 8602SOL    HW137265   2.271   3.344   7.689  1.8654  2.2593  2.0002
 8602SOL    HW237266   2.176   3.424   7.646 -1.2102 -1.2700 -0.4755
 8603SOL     OW37267   1.044   2.190   0.818 -0.0348  0.4949 -0.1539
 8603SOL    HW137268   0.982   2.257   0.845  0.6611  0.7700  0.7476
 8603SOL    HW237269   1.047   2.139   0.899 -0.3366  0.8784  0.0963
 8604SOL     OW37270   0.435   2.332  14.051  0.1284 -0.3342 -0.0234
 8604SOL    HW137271   0.343   2.339  14.078  0.5025  0.0479  1.1433
 8604SOL    HW237272   0.422   2.313  13.958 -0.6936  0.7970 -0.1341
 8605SOL     OW37273   1.690   1.804   2.752 -0.0170  0.0917 -0.0091
 8605SOL    HW137274   1.767   1.747   2.754  3.0002  4.1850 -0.4161
 8605SOL    HW237275   1.696   1.841   2.665  0.3471 -2.3295 -1.0075
 8606SOL     OW37276   0.288   2.769  15.984  0.0473 -0.0727 -0.0956
 8606SOL    HW137277   0.294   2.696  16.046  0.0460 -0.5355 -0.6472
 8606SOL    HW237278   0.264   2.737  15.897  2.8068 -0.1209 -0.8544
 8607SOL     OW37279   3.807   1.292   1.974  0.1406 -0.0027 -0.1504
 8607SOL    HW137280   3.738   1.230   1.955 -0.7963  0.9333  0.2193
 8607SOL    HW237281   3.753   1.371   1.968 -1.6926 -1.2402  0.2580
 8608SOL     OW37282   1.024   0.841   8.741 -0.4209  0.2176 -0.5293
 8608SOL    HW137283   1.001   0.754   8.773  0.2012  0.1324 -0.3174
 8608SOL    HW237284   1.103   0.881   8.778 -0.4384 -1.8826  1.7892
 8609SOL     OW37285   0.780   1.034   9.118 -0.2374  0.0922 -0.0690
 8609SOL    HW137286   0.802   1.062   9.207 -2.1678  0.4343  0.2955
 8609SOL    HW237287   0.872   1.030   9.089 -0.2660 -0.1448 -0.1304
 8610SOL     OW37288   3.255   3.819  11.816 -0.3164  0.2643 -0.3336
 8610SOL    HW137289   3.338   3.864  11.828  0.5392 -1.6436  0.8497
 8610SOL    HW237290   3.227   3.870  11.740 -1.6476 -0.4504 -0.3281
 8611SOL     OW37291   0.753   2.241   8.013  1.0361 -0.0043  0.6926
 8611SOL    HW137292   0.692   2.194   8.071  0.1265  0.4720  0.1130
 8611SOL    HW237293   0.799   2.297   8.075 -0.1950  1.0462  0.6445
 8612SOL     OW37294   1.896   2.856   4.011 -0.1969 -0.0356  0.0270
 8612SOL    HW137295   1.922   2.925   3.950 -1.7642 -1.1252 -1.8890
 8612SOL    HW237296   1.831   2.817   3.952  0.2071 -1.2265  0.3633
 8613SOL     OW37297   3.386   2.298   5.457  0.2707 -0.0267  0.0179
 8613SOL    HW137298   3.396   2.383   5.500  0.8439 -0.3819  0.5822
 8613SOL    HW237299   3.470   2.300   5.409  0.3928  0.9713  0.2696
 8614SOL     OW37300   3.290   2.394   7.013  0.1951  0.3135 -0.4135
 8614SOL    HW137301   3.363   2.333   6.999  0.4310  0.1089  1.6730
 8614SOL    HW237302   3.325   2.453   6.946  0.0066 -0.1809 -0.9435
 8615SOL     OW37303   2.673   2.080  15.523  0.3346 -0.0231  0.1865
 8615SOL    HW137304   2.712   2.116  15.443 -1.8211  2.4318  0.2445
 8615SOL    HW237305   2.644   1.991  15.505  0.7273 -0.3419  1.0818
 8616SOL     OW37306   2.485   2.517   8.948 -0.7267 -0.0589 -0.2479
 8616SOL    HW137307   2.505   2.552   8.862 -2.4827 -3.2660 -1.9578
 8616SOL    HW237308   2.411   2.458   8.934 -1.7078  0.9850  0.5164
 8617SOL     OW37309   3.231   0.653  12.835 -0.0834 -0.7455  0.4131
 8617SOL    HW137310   3.279   0.583  12.878 -1.7101 -2.1234 -0.0031
 8617SOL    HW237311   3.193   0.622  12.753 -0.8503 -0.2660  0.5794
 8618SOL     OW37312   0.305   2.107   8.567  0.3720 -0.0096  0.4838
 8618SOL    HW137313   0.219   2.143   8.587  0.2975 -0.8132  1.6277
 8618SOL    HW237314   0.284   2.025   8.612 -1.0119  0.2690  0.3365
 8619SOL     OW37315   0.803   2.773  10.119 -0.1012 -0.0003 -0.6490
 8619SOL    HW137316   0.773   2.860  10.143 -0.3260 -0.6603  1.4307
 8619SOL    HW237317   0.850   2.779  10.036 -0.4456 -1.4315 -0.9606
 8620SOL     OW37318   0.035   1.160  13.529  0.1809  0.6921  0.3026
 8620SOL    HW137319   0.055   1.183  13.620  2.8817 -0.9224  0.1236
 8620SOL    HW237320   0.021   1.066  13.540 -1.9981  1.1012  1.1544
 8621SOL     OW37321   2.326   2.417  16.970  0.2859 -0.4446  0.0512
 8621SOL    HW137322   2.232   2.406  16.961  0.6765 -1.9822 -1.9668
 8621SOL    HW237323   2.366   2.339  16.931 -1.0285 -0.2579 -1.6966
 8622SOL     OW37324   2.465   0.264   8.282 -0.6051 -0.4252  0.4181
 8622SOL    HW137325   2.421   0.348   8.294  0.1463 -0.0372  0.4223
 8622SOL    HW237326   2.386   0.211   8.281 -0.8164 -0.1245  0.8651
 8623SOL     OW37327   1.286   1.716   2.131 -0.6254  0.7651  0.1366
 8623SOL    HW137328   1.230   1.735   2.056 -1.6001  2.6902  1.3370
 8623SOL    HW237329   1.365   1.689   2.085 -0.5483 -2.0026  1.9020
 8624SOL     OW37330   3.621   2.574   0.794 -0.1769 -0.4796  0.1230
 8624SOL    HW137331   3.676   2.511   0.843 -0.2069 -1.4784 -1.1249
 8624SOL    HW237332   3.534   2.560   0.830  0.5609 -0.2764  1.9854
 8625SOL     OW37333   2.929   0.236   6.632  0.4152 -0.2084 -0.2388
 8625SOL    HW137334   2.844   0.267   6.665  0.5178  0.9273 -1.0600
 8625SOL    HW237335   2.973   0.320   6.616  0.9175  0.2197  3.3889
 8626SOL     OW37336   4.506   3.592   7.027 -0.6107  0.3130  0.1783
 8626SOL    HW137337   4.441   3.649   6.986 -0.5465  1.4065  1.6114
 8626SOL    HW237338   4.468   3.505   7.019 -1.0990  0.6470 -1.2256
 8627SOL     OW37339   1.885   1.049  10.044 -0.4041 -0.0316 -0.4491
 8627SOL    HW137340   1.830   1.108  10.096  0.3444 -0.2870  0.6258
 8627SOL    HW237341   1.873   0.965  10.088  1.6152 -0.3915 -0.5865
 8628SOL     OW37342   1.492   2.989   3.901  0.1697 -0.1959  0.3927
 8628SOL    HW137343   1.541   3.044   3.963  0.7621 -2.5225  1.9687
 8628SOL    HW237344   1.519   3.023   3.816  0.4238  1.6139  1.1952
 8629SOL     OW37345   1.738   3.160  10.601  0.1117 -0.0424  0.3514
 8629SOL    HW137346   1.732   3.064  10.600  3.4282 -0.3039  4.0005
 8629SOL    HW237347   1.778   3.182  10.685 -1.0393 -0.2957  0.9542
 8630SOL     OW37348   2.587   0.917   6.074 -0.6580  1.1618 -0.1309
 8630SOL    HW137349   2.614   1.009   6.085  0.5445  1.0048 -1.7722
 8630SOL    HW237350   2.652   0.880   6.133  0.4087 -0.7220 -2.4986
 8631SOL     OW37351   1.260   3.053   9.432 -0.3825 -0.3402 -0.1789
 8631SOL    HW137352   1.224   3.023   9.349 -1.6854 -2.0523  0.9877
 8631SOL    HW237353   1.216   2.990   9.489 -0.8863  1.1899  1.1089
 8632SOL     OW37354   4.335   4.613   2.825 -0.0315  0.3745 -0.5438
 8632SOL    HW137355   4.242   4.633   2.811 -0.1804 -0.4383 -0.6743
 8632SOL    HW237356   4.339   4.518   2.827 -0.5715  0.4242  1.9782
 8633SOL     OW37357   3.997   1.466   8.345 -0.0982  0.6848 -0.0173
 8633SOL    HW137358   3.990   1.462   8.250  0.9215 -1.8710  0.0027
 8633SOL    HW237359   4.065   1.400   8.359 -0.9056 -0.4500 -1.4133
 8634SOL     OW37360   2.611   1.203   7.753 -0.0722  0.5249  0.0265
 8634SOL    HW137361   2.704   1.183   7.768  0.1390  1.9553  0.5554
 8634SOL    HW237362   2.619   1.297   7.743 -1.4779  0.6763  0.3636
 8635SOL     OW37363   4.619   0.058   5.900 -0.4777  0.2404  0.0656
 8635SOL    HW137364   4.553   4.717   5.928  0.5388 -0.7385  0.2217
 8635SOL    HW237365   4.650   0.099   5.981  1.8168  0.3604 -0.8696
 8636SOL     OW37366   2.431   3.141   8.628 -0.2081  0.2160  0.3578
 8636SOL    HW137367   2.353   3.095   8.658  0.4269 -0.5444  0.8640
 8636SOL    HW237368   2.394   3.225   8.604 -1.9806 -0.7361 -0.2117
 8637SOL     OW37369   2.774   1.710   5.425 -0.3055  0.2667  0.3827
 8637SOL    HW137370   2.709   1.647   5.394 -1.3410  0.3000  2.4706
 8637SOL    HW237371   2.779   1.775   5.355 -0.8913 -0.6069 -0.4589
 8638SOL     OW37372   0.817   3.031  12.214  0.2934 -0.2140  0.2619
 8638SOL    HW137373   0.797   2.964  12.280  0.0832  1.3128  1.7646
 8638SOL    HW237374   0.786   3.109  12.260  1.4374  0.7790 -0.6585
 8639SOL     OW37375   1.317   4.236   7.969 -0.2728  0.1925 -0.1268
 8639SOL    HW137376   1.365   4.186   7.903  0.6240 -1.8545  2.0638
 8639SOL    HW237377   1.388   4.254   8.030 -1.2037 -0.1263  1.0459
 8640SOL     OW37378   1.388   2.580  12.160 -0.4658 -0.6091 -0.1885
 8640SOL    HW137379   1.432   2.495  12.160  1.5246  0.4295  2.4187
 8640SOL    HW237380   1.376   2.612  12.249 -0.1260 -1.6828  0.2458
 8641SOL     OW37381   3.960   2.036   7.247  0.4356 -0.7638 -0.1261
 8641SOL    HW137382   3.995   1.966   7.192 -0.3771 -3.2086  2.4328
 8641SOL    HW237383   4.022   2.033   7.320 -1.5523  0.1025  1.6140
 8642SOL     OW37384   0.521   3.044   5.918  0.7594  0.0845 -0.3940
 8642SOL    HW137385   0.457   3.109   5.948 -0.6275 -1.4567 -0.0097
 8642SOL    HW237386   0.570   3.030   5.999 -0.2365 -1.7972 -0.1342
 8643SOL     OW37387   1.027   3.628   2.742 -0.1185  0.1209 -0.5180
 8643SOL    HW137388   0.981   3.664   2.667 -1.1687 -1.0503 -0.4256
 8643SOL    HW237389   1.116   3.662   2.728  0.4942 -1.0938  0.4212
 8644SOL     OW37390   2.999   4.627   4.940  0.0014  0.1816  0.0595
 8644SOL    HW137391   3.033   4.644   5.028  0.9654 -0.6426 -0.1545
 8644SOL    HW237392   3.072   4.587   4.893 -0.2006 -0.1635  0.0397
 8645SOL     OW37393   2.256   3.079   9.336  0.0640 -0.3671 -0.1676
 8645SOL    HW137394   2.330   3.037   9.380 -0.8118 -0.6914  0.9948
 8645SOL    HW237395   2.286   3.056   9.248 -0.2962  0.4807 -0.5126
 8646SOL     OW37396   0.252   2.496   6.913  0.5016 -0.2034  0.9579
 8646SOL    HW137397   0.174   2.552   6.913  1.0526  0.5699  0.9857
 8646SOL    HW237398   0.316   2.565   6.930 -0.3999  1.2140 -1.3964
 8647SOL     OW37399   3.336   2.926   7.397 -0.4188 -0.2130  0.0948
 8647SOL    HW137400   3.390   2.892   7.468 -0.5833  0.7459  0.6779
 8647SOL    HW237401   3.393   2.996   7.364  0.4215 -1.3062 -0.7714
 8648SOL     OW37402   2.315   3.704   8.842 -0.4132 -0.5522 -0.1025
 8648SOL    HW137403   2.243   3.678   8.785 -0.1342 -1.4192 -0.0563
 8648SOL    HW237404   2.332   3.621   8.886 -0.9123 -0.2437  0.6706
 8649SOL     OW37405   0.209   0.724   5.414 -0.3261 -0.7709 -0.0848
 8649SOL    HW137406   0.121   0.762   5.404  1.1979  1.6975 -3.9272
 8649SOL    HW237407   0.231   0.726   5.507 -0.8459 -0.9483  0.0457
 8650SOL     OW37408   2.396   3.718  14.503 -0.2813 -0.7727  0.3704
 8650SOL    HW137409   2.466   3.783  14.495 -0.0024 -1.2076 -0.7039
 8650SOL    HW237410   2.444   3.638  14.486 -2.1373 -1.4351 -1.7252
 8651SOL     OW37411   0.318   4.535  10.442  0.1606  0.3460  0.0986
 8651SOL    HW137412   0.403   4.535  10.485  0.7015 -1.6896 -0.9424
 8651SOL    HW237413   0.344   4.597  10.374 -1.1471 -0.9434 -1.5633
 8652SOL     OW37414   4.630   0.583   1.166 -0.5440  0.0591  0.5947
 8652SOL    HW137415   4.550   0.634   1.174 -0.1572  0.6773  0.5058
 8652SOL    HW237416   4.661   0.588   1.076  1.1010  0.4662  1.1818
 8653SOL     OW37417   0.218   1.800   5.415 -0.6846  0.3245 -0.1309
 8653SOL    HW137418   0.274   1.875   5.400 -0.1120  0.1176  0.9689
 8653SOL    HW237419   0.287   1.736   5.430  1.3264  2.5509 -0.0166
 8654SOL     OW37420   0.443   2.271   9.258 -0.3091 -0.0433  0.0387
 8654SOL    HW137421   0.469   2.353   9.215  2.4125 -1.3956 -0.9296
 8654SOL    HW237422   0.365   2.292   9.308  0.6566  2.0275  0.6747
 8655SOL     OW37423   1.310   1.417   2.425  0.3401 -0.0776 -0.6410
 8655SOL    HW137424   1.323   1.491   2.366 -0.9864  0.3259 -0.4137
 8655SOL    HW237425   1.402   1.388   2.430  0.1909 -0.4367  0.0435
 8656SOL     OW37426   4.221   1.723   7.252  0.4910  0.3772  0.5740
 8656SOL    HW137427   4.269   1.640   7.253  1.6848  1.0730 -0.1929
 8656SOL    HW237428   4.266   1.784   7.310  0.1956 -0.2091  1.4135
 8657SOL     OW37429   1.156   3.477   7.213 -0.4591 -0.3136  0.0077
 8657SOL    HW137430   1.139   3.494   7.305  1.0252 -1.7526  0.5309
 8657SOL    HW237431   1.251   3.491   7.205 -0.5418  1.7568  2.7204
 8658SOL     OW37432   1.036   2.704   0.164 -0.7421 -0.2351 -0.3777
 8658SOL    HW137433   0.969   2.753   0.211  0.0013 -0.0851  0.5412
 8658SOL    HW237434   1.052   2.772   0.099  2.6891 -1.6732 -1.0352
 8659SOL     OW37435   0.177   0.335  11.494  0.2196 -0.0921 -0.8611
 8659SOL    HW137436   0.247   0.285  11.454 -0.6105  0.0999 -2.5421
 8659SOL    HW237437   0.124   0.256  11.497  0.8237 -0.4078  1.5904
 8660SOL     OW37438   3.460   2.470   7.479  0.7801  0.4884  0.0324
 8660SOL    HW137439   3.410   2.414   7.421  0.4894  0.8241 -0.0437
 8660SOL    HW237440   3.546   2.482   7.438 -0.6043  0.9789 -2.7542
 8661SOL     OW37441   3.120   3.472   6.815  0.3718  0.5539 -0.6107
 8661SOL    HW137442   3.102   3.419   6.893  2.5425 -0.5253 -0.8375
 8661SOL    HW237443   3.138   3.393   6.763 -1.2130  0.6409 -1.2827
 8662SOL     OW37444   3.154   2.617  10.216  0.2781  0.2400 -0.1105
 8662SOL    HW137445   3.164   2.621  10.311 -1.4582  0.4255  0.0745
 8662SOL    HW237446   3.087   2.549  10.216 -0.5085  1.0460  2.8389
 8663SOL     OW37447   4.364   4.684   5.119 -0.6917  0.3549  0.1209
 8663SOL    HW137448   4.351   4.681   5.024 -1.7470 -1.4305  0.3087
 8663SOL    HW237449   4.453   4.718   5.122  0.1364 -1.5013 -2.8292
 8664SOL     OW37450   2.836   3.238   4.159  0.1687  0.3385  0.5070
 8664SOL    HW137451   2.870   3.172   4.219  0.9121 -1.2339 -1.6427
 8664SOL    HW237452   2.828   3.317   4.212 -1.5155  0.3187  0.2991
 8665SOL     OW37453   4.287   1.613   6.381  0.2321 -0.2174 -0.2097
 8665SOL    HW137454   4.255   1.565   6.305 -0.2104 -2.1161  1.1926
 8665SOL    HW237455   4.342   1.548   6.425 -0.0912  0.3073  0.9910
 8666SOL     OW37456   3.243   2.058   7.430  0.2651  0.0609 -0.1554
 8666SOL    HW137457   3.188   2.079   7.354  2.5788  2.0081 -1.3020
 8666SOL    HW237458   3.312   2.122   7.411 -0.0236  0.0477 -1.2285
 8667SOL     OW37459   1.288   3.256  10.180 -0.0356  0.5930 -0.6772
 8667SOL    HW137460   1.265   3.214  10.097  0.4822 -0.4401 -0.3060
 8667SOL    HW237461   1.278   3.177  10.233 -0.6713 -0.4946 -2.4067
 8668SOL     OW37462   2.181   0.232   2.411 -0.0623 -0.0621  0.3140
 8668SOL    HW137463   2.129   0.152   2.400  1.3571 -0.7483 -1.4404
 8668SOL    HW237464   2.128   0.292   2.359 -0.7607  0.2705  1.4095
 8669SOL     OW37465   1.835   3.175   5.949 -0.4212  0.3221  0.0485
 8669SOL    HW137466   1.909   3.118   5.929 -0.7219  0.1325 -0.5350
 8669SOL    HW237467   1.760   3.130   5.910  0.2206  0.8798 -1.8058
 8670SOL     OW37468   2.877   2.061  13.265 -0.3749  0.3375  0.5780
 8670SOL    HW137469   2.960   2.093  13.300  0.9635 -1.6223 -0.8338
 8670SOL    HW237470   2.846   2.006  13.338 -4.6073  3.4064  1.1019
 8671SOL     OW37471   0.529   0.331   4.179 -0.5043  0.6711 -0.2329
 8671SOL    HW137472   0.484   0.313   4.262 -1.0853  0.2297 -0.6419
 8671SOL    HW237473   0.603   0.274   4.197  0.5193  2.1709  0.3289
 8672SOL     OW37474   2.187   0.220   6.654 -0.2483 -0.1275  0.3326
 8672SOL    HW137475   2.233   0.192   6.575 -2.4040  1.9083 -1.6300
 8672SOL    HW237476   2.217   0.309   6.667  1.3588 -0.4139 -1.4493
 8673SOL     OW37477   2.888   2.295  11.009  0.8934  0.3934 -0.1708
 8673SOL    HW137478   2.934   2.216  10.979 -0.7784 -0.5282 -0.3363
 8673SOL    HW237479   2.838   2.272  11.087  0.2647 -1.3964 -1.0990
 8674SOL     OW37480   1.318   2.367  11.373  1.0695 -0.1788 -0.0634
 8674SOL    HW137481   1.296   2.452  11.413  0.7204  0.1436 -0.9424
 8674SOL    HW237482   1.411   2.383  11.363  0.5224  1.8373 -1.9882
 8675SOL     OW37483   1.646   0.794   1.857  0.1423 -0.4755  0.4113
 8675SOL    HW137484   1.739   0.797   1.834  0.5442  0.2614  2.1230
 8675SOL    HW237485   1.624   0.708   1.893 -1.0113  0.1723  1.2251
 8676SOL     OW37486   3.157   4.441  16.341  0.5086 -0.7191  0.3560
 8676SOL    HW137487   3.186   4.404  16.257 -0.0584  0.6947 -0.4849
 8676SOL    HW237488   3.063   4.423  16.341  0.3638  0.0214  1.2579
 8677SOL     OW37489   1.669   1.056   6.975  0.1562 -0.0021 -0.1417
 8677SOL    HW137490   1.624   1.113   6.912 -2.2302 -0.2335  1.3502
 8677SOL    HW237491   1.706   1.115   7.041  3.3786 -0.8089 -1.2022
 8678SOL     OW37492   3.007   4.024   6.232 -0.0772 -0.4263  0.0517
 8678SOL    HW137493   3.001   4.117   6.208  0.3488 -0.9495 -2.1331
 8678SOL    HW237494   2.935   4.016   6.294 -0.1661  0.0363  0.0056
 8679SOL     OW37495   1.029   1.808   7.782  0.6268 -0.4547  0.3984
 8679SOL    HW137496   0.952   1.864   7.789  0.5558 -0.6397  1.1548
 8679SOL    HW237497   1.078   1.858   7.717  0.6419  0.1887  0.8980
 8680SOL     OW37498   3.888   0.641   6.612 -0.0302 -0.3446 -0.6890
 8680SOL    HW137499   3.807   0.689   6.598 -0.7153 -0.9214  1.2622
 8680SOL    HW237500   3.947   0.705   6.574 -0.1351 -1.4830 -2.7733
 8681SOL     OW37501   3.655   1.391  15.286  0.6088  0.1996 -0.2789
 8681SOL    HW137502   3.698   1.313  15.322 -0.7242 -1.4528 -2.2927
 8681SOL    HW237503   3.630   1.365  15.197  0.7221  3.2612 -1.2007
 8682SOL     OW37504   4.142   3.437   7.678 -0.4519 -0.8514  0.3796
 8682SOL    HW137505   4.194   3.363   7.706  1.0205 -0.8758 -2.4833
 8682SOL    HW237506   4.179   3.464   7.594  0.6670 -1.5817  0.6540
 8683SOL     OW37507   4.243   1.870   5.689  0.2599  0.5138  0.9068
 8683SOL    HW137508   4.279   1.858   5.601 -0.6717  1.1995  0.4328
 8683SOL    HW237509   4.192   1.949   5.673 -1.3927 -0.7005  0.1447
 8684SOL     OW37510   3.973   3.869   7.181  0.7458  0.8980  0.0320
 8684SOL    HW137511   3.989   3.776   7.167 -1.5140  0.1254  2.7146
 8684SOL    HW237512   3.974   3.882   7.276  1.4881 -0.4022  0.1986
 8685SOL     OW37513   1.364   2.042  11.886  0.0258  0.0387 -0.4643
 8685SOL    HW137514   1.271   2.022  11.882  0.0892 -0.9085  2.7343
 8685SOL    HW237515   1.354   2.137  11.880 -1.0075 -0.1603 -1.8731
 8686SOL     OW37516   1.152   2.858   0.395 -0.0007  0.0036 -0.0165
 8686SOL    HW137517   1.111   2.928   0.344  0.7213 -1.1170 -2.1476
 8686SOL    HW237518   1.088   2.833   0.461 -0.2475  1.4156  0.2862
 8687SOL     OW37519   3.853   3.248  12.418 -0.3608 -0.1214  0.2380
 8687SOL    HW137520   3.832   3.156  12.431 -0.7363  0.1156  1.3275
 8687SOL    HW237521   3.775   3.280  12.465 -1.3466 -1.0140 -0.7996
 8688SOL     OW37522   0.806   1.949   9.221  0.5429  0.2175  0.1724
 8688SOL    HW137523   0.875   1.951   9.287  1.5110 -0.4935 -0.8070
 8688SOL    HW237524   0.780   2.041   9.215 -0.0977  0.0313  0.0271
 8689SOL     OW37525   4.147   1.316  17.325 -0.1261  0.4046  0.4714
 8689SOL    HW137526   4.134   1.387  17.261 -1.3420 -0.3966 -0.1682
 8689SOL    HW237527   4.075   1.342  17.383 -0.3754 -3.3653  1.7897
 8690SOL     OW37528   4.215   3.545  16.462 -0.4117  0.4409  0.3074
 8690SOL    HW137529   4.140   3.573  16.515 -1.4589 -0.5478 -0.6434
 8690SOL    HW237530   4.170   3.481  16.406  1.1774  1.2788 -1.9196
 8691SOL     OW37531   3.460   0.368   7.724  0.4458  0.4289 -0.1175
 8691SOL    HW137532   3.521   0.438   7.702  1.0947 -0.3489 -0.7915
 8691SOL    HW237533   3.416   0.404   7.801 -0.3385 -0.3830 -0.1826
 8692SOL     OW37534   3.639   2.027  10.851  0.2899  0.0284  0.0271
 8692SOL    HW137535   3.684   1.984  10.779  2.5487  0.5550  1.1335
 8692SOL    HW237536   3.705   2.019  10.919  1.3070  2.8123 -0.6315
 8693SOL     OW37537   3.331   3.826   0.430 -0.2474 -0.4168  0.1754
 8693SOL    HW137538   3.242   3.818   0.396 -0.7657 -0.3993  1.5198
 8693SOL    HW237539   3.309   3.839   0.523  1.1398  0.2068  0.4159
 8694SOL     OW37540   4.254   4.442  15.363 -0.5307  0.4477 -0.3209
 8694SOL    HW137541   4.302   4.363  15.338 -1.2217 -0.0703 -0.0052
 8694SOL    HW237542   4.214   4.402  15.440 -0.0034 -0.4981 -0.5425
 8695SOL     OW37543   3.337   1.328   8.150  0.5487 -0.5936 -0.1333
 8695SOL    HW137544   3.404   1.273   8.109  1.0077 -1.0422  1.2279
 8695SOL    HW237545   3.318   1.270   8.224  1.0600 -1.5483 -0.7482
 8696SOL     OW37546   1.617   1.784   8.186 -0.1812 -0.3362 -0.5927
 8696SOL    HW137547   1.583   1.872   8.202 -1.7603 -0.4723 -3.3741
 8696SOL    HW237548   1.712   1.796   8.188  0.0823 -2.4281 -0.2236
 8697SOL     OW37549   0.289   2.510   1.800 -0.1294  0.4909  0.7617
 8697SOL    HW137550   0.262   2.602   1.806 -0.0237  0.5888 -0.3454
 8697SOL    HW237551   0.292   2.496   1.706  0.9140  0.6358  0.7715
 8698SOL     OW37552   3.312   0.653   5.409  0.9828  0.4535  0.7582
 8698SOL    HW137553   3.286   0.745   5.406  0.4888  0.2036 -2.1060
 8698SOL    HW237554   3.407   0.662   5.399  1.1502 -4.2347 -1.6456
 8699SOL     OW37555   4.512   1.592   6.658  0.0479  0.4535  0.1358
 8699SOL    HW137556   4.594   1.642   6.661 -1.3049  2.6626  0.1146
 8699SOL    HW237557   4.479   1.629   6.740 -0.3963 -2.3219  1.1961
 8700SOL     OW37558   3.748   4.107   5.030 -0.2556  0.1942 -0.4359
 8700SOL    HW137559   3.749   4.185   4.975  1.1547  0.4860  0.0103
 8700SOL    HW237560   3.841   4.103   5.054 -0.5969  2.1119  1.2089
 8701SOL     OW37561   4.008   1.050   8.835  0.3296 -0.0653 -0.0930
 8701SOL    HW137562   4.015   1.061   8.930  0.9654 -0.2696 -0.1156
 8701SOL    HW237563   4.018   1.142   8.811  2.9028 -0.0468  1.0472
 8702SOL     OW37564   3.955   2.192   1.657  0.4585 -0.0571  0.2038
 8702SOL    HW137565   3.942   2.098   1.669 -2.5552  0.1621 -1.2840
 8702SOL    HW237566   4.025   2.192   1.722 -0.0209 -0.5475  0.7277
 8703SOL     OW37567   0.344   2.088   4.743  0.3572 -0.8108  0.4405
 8703SOL    HW137568   0.302   2.017   4.694 -0.1485 -1.0117  1.1601
 8703SOL    HW237569   0.276   2.113   4.805  0.5775 -1.4846  0.9614
 8704SOL     OW37570   0.677   0.077   8.954  0.1065 -0.3366  0.5776
 8704SOL    HW137571   0.677   0.078   9.050 -2.8547 -1.7774  0.5730
 8704SOL    HW237572   0.683   4.707   8.930 -3.4411 -0.0952 -1.2191
 8705SOL     OW37573   1.802   3.223   3.100  0.2235 -0.5498 -0.0460
 8705SOL    HW137574   1.740   3.190   3.035 -0.4021  0.3396  0.0964
 8705SOL    HW237575   1.827   3.138   3.137 -0.1599 -0.7191 -0.1696
 8706SOL     OW37576   3.181   0.319   7.465  0.0502 -0.5295  0.1808
 8706SOL    HW137577   3.120   0.246   7.461  1.2540 -1.4729 -1.0776
 8706SOL    HW237578   3.165   0.370   7.545  2.5504  0.2152  0.2179
 8707SOL     OW37579   1.423   4.569   2.084 -0.5079  0.5924 -0.0428
 8707SOL    HW137580   1.341   4.616   2.100  0.8013  2.0795  2.2382
 8707SOL    HW237581   1.392   4.480   2.101 -1.3683  0.7525 -0.7593
 8708SOL     OW37582   3.024   2.544  11.122  0.3303 -0.2920 -0.0764
 8708SOL    HW137583   2.954   2.500  11.073  0.7748  0.4625 -1.3726
 8708SOL    HW237584   3.081   2.469  11.140 -0.9989 -1.1829  0.4149
 8709SOL     OW37585   4.627   2.019  10.808 -0.4022  0.5225 -0.4020
 8709SOL    HW137586   4.550   2.068  10.836 -0.0294 -1.0210  3.2738
 8709SOL    HW237587   4.697   2.039  10.871 -3.6530 -0.4148  3.4621
 8710SOL     OW37588   2.759   1.219   2.533 -0.6857 -0.4123  0.0788
 8710SOL    HW137589   2.853   1.231   2.544 -0.5015 -2.5911  0.8792
 8710SOL    HW237590   2.722   1.305   2.512 -2.4993 -1.9906 -3.1178
 8711SOL     OW37591   3.671   0.469   6.529  0.8797  0.0428  0.3889
 8711SOL    HW137592   3.654   0.397   6.590  2.5404 -2.0533 -1.5855
 8711SOL    HW237593   3.708   0.529   6.593  0.7077 -0.3554  0.8599
 8712SOL     OW37594   2.806   2.071   2.966 -0.4529  0.3503  0.0195
 8712SOL    HW137595   2.727   2.121   2.949  0.7176  1.8808 -0.8862
 8712SOL    HW237596   2.873   2.136   2.945 -0.9061  0.9855  0.5595
 8713SOL     OW37597   2.303   1.617   3.316 -0.3532  0.0402 -0.4299
 8713SOL    HW137598   2.268   1.559   3.384 -1.9444 -0.5532 -1.7785
 8713SOL    HW237599   2.280   1.705   3.347 -1.3132  0.5040 -2.4655
 8714SOL     OW37600   1.208   2.295   0.336  0.0646  0.0172 -0.2015
 8714SOL    HW137601   1.146   2.368   0.338  1.8758  1.4379  4.7633
 8714SOL    HW237602   1.253   2.313   0.254  1.8564 -0.0880  0.7640
 8715SOL     OW37603   1.185   0.553  15.459 -0.2572 -0.1511  0.3799
 8715SOL    HW137604   1.235   0.538  15.540  1.3396  0.3625 -0.5112
 8715SOL    HW237605   1.164   0.642  15.486 -1.4061 -1.3557  3.4876
 8716SOL     OW37606   2.185   3.595  16.804 -0.1013  0.5327 -0.0413
 8716SOL    HW137607   2.243   3.669  16.784  0.0131  0.1157 -1.2699
 8716SOL    HW237608   2.229   3.513  16.780 -1.4577 -0.5080  1.0690
 8717SOL     OW37609   1.152   2.864  10.043 -0.0965 -0.3940  0.1591
 8717SOL    HW137610   1.065   2.824  10.039 -1.2585  1.8880  2.7572
 8717SOL    HW237611   1.208   2.786  10.042  1.2006  0.5386  0.3732
 8718SOL     OW37612   0.341   2.748   1.042 -0.6481 -0.4721  0.0032
 8718SOL    HW137613   0.355   2.798   0.961  0.1057 -0.6059  0.0454
 8718SOL    HW237614   0.388   2.668   1.017 -2.7816 -1.7547  0.1216
 8719SOL     OW37615   0.350   4.046   4.948 -0.2886  0.7765 -0.3277
 8719SOL    HW137616   0.362   4.125   4.895  1.8363  0.0315 -0.9659
 8719SOL    HW237617   0.266   4.058   4.992  0.5006  1.0802  1.1026
 8720SOL     OW37618   2.325   1.812   4.202 -0.1933  0.3752  0.2569
 8720SOL    HW137619   2.387   1.834   4.271  0.7092 -0.2436 -0.3522
 8720SOL    HW237620   2.310   1.898   4.164  0.0938  0.9587  1.4881
 8721SOL     OW37621   3.976   0.063   0.207 -0.4549  0.0505 -0.1768
 8721SOL    HW137622   3.900   0.102   0.250  0.7365  0.7344  1.3073
 8721SOL    HW237623   3.980   4.698   0.246 -0.6727  0.0730 -0.1056
 8722SOL     OW37624   4.031   3.521  16.210  0.1356 -0.1872  0.0683
 8722SOL    HW137625   3.936   3.516  16.226  0.1434  2.6441  1.0995
 8722SOL    HW237626   4.051   3.429  16.196  0.3554 -0.3269  1.2784
 8723SOL     OW37627   1.826   2.727   8.268 -0.5036 -0.5076  0.4944
 8723SOL    HW137628   1.747   2.672   8.263 -2.8927  2.9964  0.1055
 8723SOL    HW237629   1.891   2.670   8.228 -0.2869 -0.0764  0.2355
 8724SOL     OW37630   4.557   2.145   8.517  0.0059  0.4377 -0.3865
 8724SOL    HW137631   4.534   2.070   8.463  0.4628  0.0293 -0.0072
 8724SOL    HW237632   4.553   2.106   8.604  0.5084 -0.7054 -0.8780
 8725SOL     OW37633   2.727   4.098  14.606 -0.0077  0.4369  0.1318
 8725SOL    HW137634   2.775   4.156  14.546 -0.4424  0.1594 -0.4796
 8725SOL    HW237635   2.803   4.045  14.631 -1.4933 -2.0663 -0.6551
 8726SOL     OW37636   2.000   2.891   2.513 -0.1555  0.3512 -0.1155
 8726SOL    HW137637   1.957   2.943   2.581  0.6637  0.5709  0.2345
 8726SOL    HW237638   1.924   2.884   2.454 -0.8599  2.4072  0.5461
 8727SOL     OW37639   1.144   3.115   5.032 -0.4584  0.1785  0.1672
 8727SOL    HW137640   1.150   3.020   5.017  0.6750  0.0179  1.6965
 8727SOL    HW237641   1.084   3.137   4.961  1.0936  3.4591 -0.1423
 8728SOL     OW37642   2.606   2.726  14.699 -0.3797  0.3436 -0.8534
 8728SOL    HW137643   2.673   2.666  14.666  0.9481  1.7252 -0.6737
 8728SOL    HW237644   2.626   2.805  14.650  1.5255  1.0456  1.0403
 8729SOL     OW37645   1.116   1.342   6.695 -0.1985  0.0664  0.2267
 8729SOL    HW137646   1.202   1.312   6.664 -0.6114 -1.7214  0.8145
 8729SOL    HW237647   1.132   1.349   6.789  1.7786  0.1070 -0.1122
 8730SOL     OW37648   1.725   3.034   7.253 -0.4114 -0.3733  0.1437
 8730SOL    HW137649   1.743   3.043   7.346  0.5930 -0.8286 -0.0066
 8730SOL    HW237650   1.653   3.095   7.238 -1.1809 -1.2620  0.1985
 8731SOL     OW37651   3.938   0.523   7.342 -0.0892  0.4599  0.0168
 8731SOL    HW137652   3.953   0.471   7.263 -3.8198 -0.1272 -0.2672
 8731SOL    HW237653   3.872   0.466   7.379 -0.9529  0.4144 -1.6025
 8732SOL     OW37654   3.326   1.565   5.457  0.4507  0.0379 -0.2266
 8732SOL    HW137655   3.309   1.540   5.366 -0.9432 -0.1032  0.0797
 8732SOL    HW237656   3.414   1.530   5.469 -0.1179 -1.4400 -0.4422
 8733SOL     OW37657   0.910   2.241   9.787 -0.2167  0.1959 -0.7364
 8733SOL    HW137658   0.966   2.183   9.839  1.7441  2.7595  0.0053
 8733SOL    HW237659   0.829   2.191   9.787 -0.8798  1.2843 -1.2582
 8734SOL     OW37660   0.094   1.504   3.508 -0.1705 -0.0305 -0.9125
 8734SOL    HW137661   0.039   1.542   3.576  0.3804 -0.1569 -0.3986
 8734SOL    HW237662   0.154   1.573   3.479 -0.0461  0.1054 -0.3281
 8735SOL     OW37663   0.746   0.079   7.717 -0.5435 -0.6215 -0.0149
 8735SOL    HW137664   0.822   0.129   7.686 -1.4128  0.5720 -0.2167
 8735SOL    HW237665   0.708   0.135   7.784 -2.0309  0.2242 -1.5475
 8736SOL     OW37666   0.359   3.186  16.052  0.1342 -0.4845  0.1990
 8736SOL    HW137667   0.450   3.208  16.075  0.3036 -0.4981 -0.4547
 8736SOL    HW237668   0.372   3.123  15.981 -0.1480  1.1739 -1.3414
 8737SOL     OW37669   3.927   3.831   1.831 -0.0873 -0.4129 -0.1696
 8737SOL    HW137670   3.955   3.743   1.859  0.8958  0.3469  1.2804
 8737SOL    HW237671   4.011   3.876   1.845 -0.8862  0.7226  0.9237
 8738SOL     OW37672   1.655   2.641   4.455 -0.0002  0.1551  0.6949
 8738SOL    HW137673   1.619   2.559   4.420  0.8187 -0.2471  0.7851
 8738SOL    HW237674   1.674   2.688   4.374 -2.7019  1.7640  1.0116
 8739SOL     OW37675   3.510   1.612  16.649 -0.7766 -0.2443  0.2483
 8739SOL    HW137676   3.572   1.555  16.604  1.1159  0.1523  2.3010
 8739SOL    HW237677   3.453   1.641  16.578  0.3233 -2.0243 -1.3641
 8740SOL     OW37678   3.249   0.818   8.564  0.3545  0.9365  0.4114
 8740SOL    HW137679   3.294   0.886   8.614 -0.1553  1.5391  0.0556
 8740SOL    HW237680   3.303   0.744   8.592 -0.0811  0.5836  0.3242
 8741SOL     OW37681   4.310   3.418   6.021  0.1726  0.0030  0.3189
 8741SOL    HW137682   4.376   3.488   6.019  0.5167 -0.2635  2.9403
 8741SOL    HW237683   4.248   3.452   5.957  0.4119 -2.0870 -1.0178
 8742SOL     OW37684   4.530   3.965   3.553 -0.6102 -0.4469  0.1175
 8742SOL    HW137685   4.591   4.033   3.582 -2.5193  1.3022  0.0030
 8742SOL    HW237686   4.510   3.909   3.629  0.1502  2.2360  2.2713
 8743SOL     OW37687   0.637   1.171   2.183 -0.3790 -0.0283  0.0102
 8743SOL    HW137688   0.586   1.244   2.218 -0.9025 -0.2852 -0.2256
 8743SOL    HW237689   0.724   1.210   2.195  0.4347 -1.6454 -0.6027
 8744SOL     OW37690   3.998   2.025   5.333 -0.1223 -0.1320 -0.1421
 8744SOL    HW137691   3.912   2.027   5.293  0.5505 -2.1216 -1.7426
 8744SOL    HW237692   4.002   2.102   5.390 -0.0323 -1.1941  1.3111
 8745SOL     OW37693   4.676   3.927   9.084  0.4588 -0.0092  0.2491
 8745SOL    HW137694   4.648   3.991   9.150 -1.4762 -1.2868  0.6552
 8745SOL    HW237695   4.718   3.980   9.017  0.0980 -0.3172 -0.2149
 8746SOL     OW37696   3.825   2.192  13.656 -0.1122 -0.0120 -0.4157
 8746SOL    HW137697   3.846   2.279  13.692 -2.0866 -0.0758  0.9327
 8746SOL    HW237698   3.730   2.184  13.664  0.0652 -0.5874  1.1713
 8747SOL     OW37699   1.040   4.509   1.991 -0.0327 -0.3812  0.1351
 8747SOL    HW137700   1.105   4.462   2.044  1.1068  1.4447  0.3826
 8747SOL    HW237701   0.983   4.538   2.062  0.8519 -2.1522  1.5650
 8748SOL     OW37702   0.530   1.955   9.581 -0.0674 -0.1985  0.1497
 8748SOL    HW137703   0.594   2.025   9.566  0.6544 -0.8972 -0.0627
 8748SOL    HW237704   0.472   1.999   9.643 -1.0432 -0.3164 -0.6806
 8749SOL     OW37705   4.679   0.196  14.535  0.0046 -0.0318 -0.2074
 8749SOL    HW137706   4.683   0.181  14.629 -0.1447  1.3045  0.0109
 8749SOL    HW237707   0.044   0.228  14.515 -0.1649 -0.9875 -2.5433
 8750SOL     OW37708   0.128   3.823   7.176  0.1528  0.5174 -0.5722
 8750SOL    HW137709   0.183   3.854   7.248  1.1527  0.5215 -1.3504
 8750SOL    HW237710   0.185   3.802   7.103 -0.6353  1.3220 -1.4287
 8751SOL     OW37711   0.046   3.591   6.091 -0.3840  0.2244 -0.5201
 8751SOL    HW137712   4.686   3.567   6.050 -0.4690 -1.1417  0.4669
 8751SOL    HW237713   0.042   3.518   6.153 -0.2043 -0.7651 -1.6635
 8752SOL     OW37714   4.657   1.924   3.596  0.1330  0.2887  0.5621
 8752SOL    HW137715   4.689   1.837   3.617  1.3398 -0.0688 -2.9079
 8752SOL    HW237716   4.616   1.954   3.678  1.6551  0.9894  1.0624
 8753SOL     OW37717   0.035   1.201   2.542  0.6494 -0.0946  0.3701
 8753SOL    HW137718   0.015   1.251   2.463 -0.5146 -0.3031  0.5360
 8753SOL    HW237719   4.712   1.120   2.517 -2.5835  1.7041  0.5593
 8754SOL     OW37720   4.442   1.944   6.287 -0.0279  0.0595  0.2856
 8754SOL    HW137721   4.435   2.033   6.254  1.2036 -0.8252 -2.3461
 8754SOL    HW237722   4.366   1.903   6.246 -0.6346  1.8444 -0.3458
 8755SOL     OW37723   2.770   2.516   3.047  0.6432  0.1471 -0.1472
 8755SOL    HW137724   2.853   2.559   3.067  1.6147 -2.3652  1.2966
 8755SOL    HW237725   2.755   2.566   2.967  2.6308  0.8855 -0.0571
 8756SOL     OW37726   2.640   3.631   2.211 -0.1392  0.2600 -0.2922
 8756SOL    HW137727   2.689   3.711   2.229  0.7358 -0.3314 -0.0569
 8756SOL    HW237728   2.716   3.575   2.227 -2.0072 -2.3587 -0.5507
 8757SOL     OW37729   1.431   0.176   2.192  0.1822 -0.4430  0.0404
 8757SOL    HW137730   1.347   0.161   2.149  0.9406 -1.4552 -1.0615
 8757SOL    HW237731   1.438   0.114   2.264  0.0199  0.7447  1.0783
 8758SOL     OW37732   4.032   0.553  16.045 -0.6637  0.0218  0.4954
 8758SOL    HW137733   4.112   0.578  16.091  0.0886 -0.2727 -0.6608
 8758SOL    HW237734   4.052   0.563  15.952  0.3118  2.9479  1.0275
 8759SOL     OW37735   2.015   2.769   2.774  0.4240  0.4526 -0.1908
 8759SOL    HW137736   2.064   2.691   2.802 -1.4003 -0.8317 -0.5457
 8759SOL    HW237737   1.939   2.729   2.732  0.4391 -2.0126  2.1266
 8760SOL     OW37738   4.235   4.638   5.543 -0.6411  0.5948  0.0712
 8760SOL    HW137739   4.233   4.547   5.513 -1.3312 -0.2014  2.5241
 8760SOL    HW237740   4.209   4.620   5.633  0.0405  0.3526  0.2213
 8761SOL     OW37741   4.057   2.023   4.010  0.4247  0.2989 -0.3933
 8761SOL    HW137742   3.998   2.093   3.984  0.2394 -0.2549 -1.4415
 8761SOL    HW237743   4.063   1.975   3.928  0.6342  0.1483 -0.2922
 8762SOL     OW37744   1.058   0.759   0.330 -0.1082 -0.2407  0.4038
 8762SOL    HW137745   1.140   0.714   0.313  0.5972  1.3097 -0.2769
 8762SOL    HW237746   1.068   0.782   0.422 -1.0692 -0.8347  0.6636
 8763SOL     OW37747   2.805   2.079   2.628 -0.3409 -0.8766  0.7704
 8763SOL    HW137748   2.715   2.089   2.660 -1.4203 -0.8649 -2.3085
 8763SOL    HW237749   2.836   2.009   2.686 -0.0725 -1.1769  0.2628
 8764SOL     OW37750   2.469   3.570   3.931  0.2524  0.2746 -0.1827
 8764SOL    HW137751   2.465   3.495   3.872  2.6874 -0.3699  0.4959
 8764SOL    HW237752   2.399   3.623   3.894  1.4670  2.2427  0.3642
 8765SOL     OW37753   1.498   3.449   8.730 -0.3758 -0.0501 -0.1780
 8765SOL    HW137754   1.592   3.443   8.746 -0.4228  0.0552  0.1534
 8765SOL    HW237755   1.472   3.528   8.779 -2.2207 -1.4871  1.1719
 8766SOL     OW37756   0.669   2.853   0.812  0.0189  0.7181 -0.1150
 8766SOL    HW137757   0.763   2.840   0.796 -0.4866 -1.6825 -1.2310
 8766SOL    HW237758   0.678   2.867   0.906 -0.9679 -2.5912  0.4918
 8767SOL     OW37759   1.684   3.865  11.167  0.4247 -0.5509 -0.1176
 8767SOL    HW137760   1.616   3.850  11.233 -1.4579  0.2648 -1.8638
 8767SOL    HW237761   1.739   3.926  11.217 -1.8050  1.7494 -0.4856
 8768SOL     OW37762   0.865   3.944   8.637  0.3382  0.2318 -0.1332
 8768SOL    HW137763   0.945   3.916   8.683  1.2919  0.7168 -1.5112
 8768SOL    HW237764   0.823   4.005   8.698 -0.5968  0.0889 -0.6489
 8769SOL     OW37765   3.217   0.430   4.393 -0.8286 -0.0661 -0.2650
 8769SOL    HW137766   3.237   0.521   4.373  0.2703  0.0745  1.4887
 8769SOL    HW237767   3.191   0.441   4.484  3.0788 -0.9435  0.9734
 8770SOL     OW37768   3.133   0.071  15.173  0.1865  0.5200 -0.1212
 8770SOL    HW137769   3.147   0.089  15.267 -2.0452 -0.5620  0.3944
 8770SOL    HW237770   3.224   0.077  15.142 -0.9235  1.8194 -3.0645
 8771SOL     OW37771   4.454   2.473   4.773  0.0883  0.5867  0.0878
 8771SOL    HW137772   4.379   2.426   4.736  1.9226 -1.8390 -0.5284
 8771SOL    HW237773   4.432   2.478   4.866  3.3858 -0.5130  0.9266
 8772SOL     OW37774   2.853   3.169  17.375  0.2610 -0.1553  0.1878
 8772SOL    HW137775   2.794   3.184  17.450  0.6327  2.1427 -0.0122
 8772SOL    HW237776   2.921   3.233  17.394  2.4508 -1.9469 -1.6354
 8773SOL     OW37777   3.226   2.861  14.971 -0.0480  0.2810 -0.6171
 8773SOL    HW137778   3.277   2.925  14.922  0.6113  0.1351 -0.1263
 8773SOL    HW237779   3.257   2.893  15.056  0.4797 -0.7639 -0.4099
 8774SOL     OW37780   2.263   1.906   2.332 -0.1507 -0.4455  0.1428
 8774SOL    HW137781   2.185   1.917   2.279  0.4820  0.6307 -0.5674
 8774SOL    HW237782   2.289   1.815   2.317  2.8630  0.1401  1.8280
 8775SOL     OW37783   1.365   2.117   7.114 -0.4367 -0.2240  0.6086
 8775SOL    HW137784   1.332   2.205   7.095 -0.1422 -0.1146  0.5998
 8775SOL    HW237785   1.405   2.107   7.027 -1.4339 -0.5318  0.1922
 8776SOL     OW37786   3.069   1.317   7.784  0.0901  0.2150 -0.1454
 8776SOL    HW137787   3.003   1.354   7.724 -0.4188 -0.4534  0.0031
 8776SOL    HW237788   3.017   1.247   7.823 -1.7006  1.7662  0.2570
 8777SOL     OW37789   2.187   2.097   3.003  0.5825 -1.0889 -0.6009
 8777SOL    HW137790   2.104   2.078   3.047  0.8085 -2.3779 -0.7434
 8777SOL    HW237791   2.156   2.128   2.918  0.9213 -1.8525 -1.0013
 8778SOL     OW37792   0.565   4.537   3.781 -0.1431  0.5201 -0.2097
 8778SOL    HW137793   0.632   4.491   3.832  0.2578  0.1396 -1.0922
 8778SOL    HW237794   0.598   4.625   3.795  0.8286  0.1184  0.0644
 8779SOL     OW37795   3.784   3.997  12.462  0.4466  0.0235 -0.5590
 8779SOL    HW137796   3.866   4.039  12.490  0.7104  0.0652 -1.4152
 8779SOL    HW237797   3.733   4.002  12.543  1.3188 -2.0436  0.1153
 8780SOL     OW37798   2.104   1.680   4.347 -0.1033 -0.7814  0.1133
 8780SOL    HW137799   2.145   1.731   4.277  0.1300 -1.0093  0.0868
 8780SOL    HW237800   2.179   1.625   4.369 -0.9330 -2.5051 -1.3577
 8781SOL     OW37801   3.980   1.405   5.342 -0.4317 -0.9693  0.0659
 8781SOL    HW137802   4.067   1.436   5.314 -1.1248  2.2417  1.6012
 8781SOL    HW237803   3.930   1.486   5.336 -0.8243 -1.2228 -0.0618
 8782SOL     OW37804   0.731   1.439   6.598  0.0967 -0.0521 -0.7830
 8782SOL    HW137805   0.674   1.479   6.664 -1.0395  1.0020 -2.4126
 8782SOL    HW237806   0.763   1.362   6.645 -1.2052  2.0920  3.6531
 8783SOL     OW37807   0.756   0.862  17.326 -0.0099 -0.1096  0.5837
 8783SOL    HW137808   0.693   0.792  17.309 -1.7646  1.6073 -0.0427
 8783SOL    HW237809   0.801   0.836  17.406  2.4887  0.8467 -0.4794
 8784SOL     OW37810   4.554   3.079   3.376 -0.3191 -0.7082 -0.2500
 8784SOL    HW137811   4.490   3.142   3.409 -0.8774 -1.0238 -0.7257
 8784SOL    HW237812   4.563   3.113   3.287 -1.1630 -0.7482 -0.3494
 8785SOL     OW37813   4.176   2.196  15.214 -0.6828  0.7651 -0.1280
 8785SOL    HW137814   4.238   2.260  15.249 -1.4079  0.2337  2.1237
 8785SOL    HW237815   4.235   2.153  15.152 -1.1425  0.3434 -0.2754
 8786SOL     OW37816   0.543   2.011  17.617 -0.0553 -0.0206  0.1069
 8786SOL    HW137817   0.456   1.985  17.586  1.1225 -0.2018 -3.0646
 8786SOL    HW237818   0.565   1.932  17.666 -0.0117  0.4482  0.8319
 8787SOL     OW37819   2.565   1.415   9.580  0.3021 -0.5355  0.2843
 8787SOL    HW137820   2.553   1.493   9.635  0.8434 -1.0263  1.0966
 8787SOL    HW237821   2.493   1.362   9.616  1.6543 -2.7367 -0.2678
 8788SOL     OW37822   3.396   4.665   2.443  0.4039  0.7685 -0.6208
 8788SOL    HW137823   3.393   4.611   2.521  4.2412  0.6991 -0.5291
 8788SOL    HW237824   3.345   4.616   2.379  0.3720 -2.3235  1.8075
 8789SOL     OW37825   0.451   2.282   1.708 -0.6512  0.0063  0.0806
 8789SOL    HW137826   0.397   2.355   1.678 -0.8355  0.5345  1.6911
 8789SOL    HW237827   0.398   2.257   1.783 -0.2062 -1.4355 -0.0910
 8790SOL     OW37828   2.286   3.771   1.378  0.3537  0.1914 -0.2840
 8790SOL    HW137829   2.222   3.781   1.308 -0.0994 -1.4038 -0.1022
 8790SOL    HW237830   2.332   3.853   1.362 -0.8679  0.8269 -0.5767
 8791SOL     OW37831   3.633   2.613   8.253 -0.3744  0.4925  0.3543
 8791SOL    HW137832   3.589   2.676   8.311 -1.2992 -1.6925  2.0166
 8791SOL    HW237833   3.608   2.528   8.290 -0.6651 -0.0954 -1.2006
 8792SOL     OW37834   0.639   4.571  12.525  0.1683  0.1904  0.5419
 8792SOL    HW137835   0.603   4.602  12.608 -2.2776  1.0003 -0.8159
 8792SOL    HW237836   0.657   4.480  12.549  0.4875 -0.1148 -0.8266
 8793SOL     OW37837   2.653   0.747  13.516  0.2363 -0.2723 -0.3228
 8793SOL    HW137838   2.570   0.792  13.532  1.8311  2.6177 -0.1436
 8793SOL    HW237839   2.707   0.807  13.566  0.8368 -0.7506 -0.3946
 8794SOL     OW37840   2.527   2.840   3.291 -0.4507  0.1014  0.3570
 8794SOL    HW137841   2.505   2.751   3.263  1.7486 -0.1872 -0.4660
 8794SOL    HW237842   2.519   2.886   3.208 -0.2617  0.4546  0.5328
 8795SOL     OW37843   0.909   3.702  17.346 -0.0310  0.4334 -0.7617
 8795SOL    HW137844   0.955   3.687  17.429 -2.0970  1.4844  0.5724
 8795SOL    HW237845   0.914   3.614  17.309  1.4620 -0.0691  0.5990
 8796SOL     OW37846   3.712   4.713   5.612 -0.2493  0.0749  0.1725
 8796SOL    HW137847   3.630   0.016   5.569 -1.0326  1.1860  2.3273
 8796SOL    HW237848   3.700   4.620   5.630 -0.5849 -0.1866 -1.3566
 8797SOL     OW37849   2.308   4.143   9.599  0.2124  0.0024 -0.5856
 8797SOL    HW137850   2.232   4.106   9.555 -1.2685  0.0599  1.9135
 8797SOL    HW237851   2.357   4.177   9.525  2.1049 -0.1419  0.5884
 8798SOL     OW37852   3.486   3.758   8.941 -0.6111  0.1432  0.1677
 8798SOL    HW137853   3.430   3.751   8.863 -0.5975  2.4631 -0.0382
 8798SOL    HW237854   3.534   3.835   8.911 -0.7762  0.1096 -0.1862
 8799SOL     OW37855   3.285   3.131   4.139  0.6003 -0.2987  0.1291
 8799SOL    HW137856   3.263   3.206   4.194 -0.5016 -1.9832  1.9789
 8799SOL    HW237857   3.332   3.074   4.199 -0.4304  0.0509  1.2674
 8800SOL     OW37858   3.091   2.597   2.649 -0.1614  0.2613  0.4041
 8800SOL    HW137859   3.011   2.640   2.619 -0.2266 -0.5444 -0.5699
 8800SOL    HW237860   3.090   2.515   2.599 -2.1666  0.1861  0.5714
 8801SOL     OW37861   0.584   4.568  10.544  0.2722 -0.1426  0.4277
 8801SOL    HW137862   0.634   4.528  10.473 -1.3122  1.2728 -1.4938
 8801SOL    HW237863   0.644   4.581  10.617 -0.5898  0.4041  1.0364
 8802SOL     OW37864   2.436   4.429   0.788  0.1423  0.3120 -0.3499
 8802SOL    HW137865   2.450   4.503   0.847  2.4050 -0.1387 -0.3224
 8802SOL    HW237866   2.506   4.434   0.723  1.1838 -0.8616  0.6946
 8803SOL     OW37867   4.593   1.651   5.098  0.0009  0.3929  0.2162
 8803SOL    HW137868   4.669   1.655   5.155 -0.0201 -0.8048  0.3277
 8803SOL    HW237869   4.620   1.667   5.007  3.4984  0.7476  1.3317
 8804SOL     OW37870   2.335   1.991   1.908  1.0467 -0.9186 -0.0444
 8804SOL    HW137871   2.339   2.071   1.960  2.1618 -1.5008  0.7852
 8804SOL    HW237872   2.413   1.994   1.853  1.3870 -0.7478  0.4441
 8805SOL     OW37873   0.746   2.147  15.722 -0.0768 -0.5786  0.1391
 8805SOL    HW137874   0.705   2.230  15.696  2.7028  0.9531  0.7432
 8805SOL    HW237875   0.809   2.134  15.651  0.3016  0.6170  0.2571
 8806SOL     OW37876   0.423   4.555   9.875  0.2906 -0.0961 -0.1355
 8806SOL    HW137877   0.412   4.641   9.915  1.0513 -0.4644  0.8690
 8806SOL    HW237878   0.350   4.512   9.920  0.7056 -1.0713 -0.3902
 8807SOL     OW37879   3.957   0.550   8.470 -0.3119 -0.1271  0.7147
 8807SOL    HW137880   3.904   0.538   8.549 -1.2696  1.2068  0.2787
 8807SOL    HW237881   3.943   0.474   8.413  2.9056 -0.3565  0.2536
 8808SOL     OW37882   0.477   4.351   8.635 -0.2439 -0.1717 -0.6474
 8808SOL    HW137883   0.447   4.278   8.581  2.3837 -1.3092 -0.5744
 8808SOL    HW237884   0.571   4.334   8.639 -0.6622 -2.4928 -0.3799
 8809SOL     OW37885   0.395   3.538   0.323 -0.8179 -0.2476 -0.1014
 8809SOL    HW137886   0.412   3.632   0.321  0.0849 -0.4200 -0.3746
 8809SOL    HW237887   0.372   3.529   0.415  1.8512  0.2253  0.5834
 8810SOL     OW37888   4.251   2.627  12.170 -0.1434 -0.2734  0.6697
 8810SOL    HW137889   4.197   2.703  12.191 -0.4005 -0.7933  1.9340
 8810SOL    HW237890   4.240   2.627  12.075 -1.3201 -2.0308  0.8090
 8811SOL     OW37891   3.449   2.781  13.273  0.7027  0.0302  0.4638
 8811SOL    HW137892   3.505   2.707  13.295  0.6846 -0.1209 -0.0052
 8811SOL    HW237893   3.472   2.799  13.182  0.9876  0.2438  0.5775
 8812SOL     OW37894   3.046   2.457   5.498 -0.6834 -0.3707 -0.2988
 8812SOL    HW137895   2.992   2.397   5.447  2.6739 -1.8610 -2.1363
 8812SOL    HW237896   3.006   2.540   5.473 -0.4797  0.7715  3.2084
 8813SOL     OW37897   3.360   2.480   2.438 -0.4671  0.5796 -0.1641
 8813SOL    HW137898   3.358   2.385   2.431  0.5522  0.4893  0.7521
 8813SOL    HW237899   3.296   2.507   2.372 -1.5799 -2.2441 -0.2330
 8814SOL     OW37900   0.840   2.721   5.821  0.6736  0.7223  0.0813
 8814SOL    HW137901   0.913   2.695   5.878  2.0043  1.0659 -1.4603
 8814SOL    HW237902   0.884   2.784   5.763  1.3954 -0.3154 -0.4961
 8815SOL     OW37903   4.108   1.358   0.023 -0.0081 -0.1664  0.3328
 8815SOL    HW137904   4.065   1.386   0.104 -0.1813 -0.3204  0.2915
 8815SOL    HW237905   4.082   1.425  17.652  1.5411  1.4513  1.3913
 8816SOL     OW37906   1.649   0.353   4.989  0.2179 -0.4268  0.3902
 8816SOL    HW137907   1.608   0.266   4.987 -1.3665  0.3566 -1.0943
 8816SOL    HW237908   1.742   0.334   4.995  0.3059 -0.5099 -1.2765
 8817SOL     OW37909   3.601   1.555  16.904  0.2140 -0.5223  0.0671
 8817SOL    HW137910   3.576   1.585  16.816 -0.0025 -0.7228  0.0587
 8817SOL    HW237911   3.543   1.479  16.915 -1.5384  1.1790  2.5091
 8818SOL     OW37912   3.804   1.560  13.227  0.4095 -0.3030 -0.2188
 8818SOL    HW137913   3.883   1.613  13.241  0.4251 -0.5991  0.8052
 8818SOL    HW237914   3.816   1.491  13.292 -0.3750 -0.5494 -0.3425
 8819SOL     OW37915   2.010   2.483   3.330  0.7812 -0.1401 -0.2488
 8819SOL    HW137916   1.952   2.408   3.319 -1.8877  1.4323  3.0072
 8819SOL    HW237917   1.959   2.545   3.277  0.9241 -0.8511 -1.2165
 8820SOL     OW37918   4.464   1.797  10.776 -0.4992 -0.1736  0.9663
 8820SOL    HW137919   4.496   1.864  10.715 -0.0491  1.0415  2.5355
 8820SOL    HW237920   4.459   1.719  10.721 -0.5186  1.2600 -1.0471
 8821SOL     OW37921   0.213   1.272   3.623  0.9374 -0.0587  0.2546
 8821SOL    HW137922   0.285   1.272   3.560  1.7933  2.3334  1.2125
 8821SOL    HW237923   0.157   1.336   3.579  0.8344 -0.4815 -0.2270
 8822SOL     OW37924   3.961   1.516  13.683 -0.4113 -0.4177  0.1940
 8822SOL    HW137925   4.000   1.601  13.703 -0.1517 -0.9583  1.9749
 8822SOL    HW237926   4.031   1.459  13.714  0.7146  1.6608  1.4277
 8823SOL     OW37927   1.057   1.044   2.174  0.3244  0.1030  0.1954
 8823SOL    HW137928   1.032   1.062   2.265  0.3281  0.5921  0.0979
 8823SOL    HW237929   0.972   1.026   2.136  0.7288 -0.6466 -0.3512
 8824SOL     OW37930   3.289   4.553   6.700  0.0650  0.2519  0.1165
 8824SOL    HW137931   3.383   4.545   6.684  0.5107  0.0307  2.8588
 8824SOL    HW237932   3.273   4.646   6.714 -2.6451  0.0163 -1.3070
 8825SOL     OW37933   0.469   3.096   7.988  0.9247 -0.4938 -0.1658
 8825SOL    HW137934   0.484   3.125   7.898  0.7573 -0.3452 -0.1445
 8825SOL    HW237935   0.450   3.177   8.035 -0.9386  0.1619 -2.0772
 8826SOL     OW37936   0.367   4.140   4.461  0.0355  0.0762 -0.2431
 8826SOL    HW137937   0.414   4.060   4.439  0.7568  0.7552 -1.1764
 8826SOL    HW237938   0.399   4.158   4.549  0.0403 -0.3257 -0.1625
 8827SOL     OW37939   0.118   3.756   7.535  0.0648 -0.2814 -0.4469
 8827SOL    HW137940   0.194   3.710   7.499  0.4751  1.6621 -2.1233
 8827SOL    HW237941   0.151   3.846   7.530  0.4513 -0.4586 -1.0899
 8828SOL     OW37942   0.001   2.364   4.660 -0.3051 -0.3812  0.0874
 8828SOL    HW137943   4.638   2.379   4.701  0.6704  0.9255  1.6954
 8828SOL    HW237944   0.043   2.448   4.680  1.8155 -1.3182 -0.3911
 8829SOL     OW37945   0.561   2.256   2.073 -0.3991  0.1006  0.2506
 8829SOL    HW137946   0.555   2.174   2.122 -0.8470 -0.4375 -0.6987
 8829SOL    HW237947   0.495   2.238   2.005  0.7856  1.3837 -1.2488
 8830SOL     OW37948   0.338   2.867   8.056 -0.2094 -0.0502 -0.1518
 8830SOL    HW137949   0.370   2.878   8.145 -0.6758  1.4460 -0.1584
 8830SOL    HW237950   0.388   2.938   8.015 -1.5548  0.9741 -0.0160
 8831SOL     OW37951   0.390   1.522  10.951  0.8319 -0.2555  0.0284
 8831SOL    HW137952   0.309   1.567  10.925  0.5143 -0.9488 -0.1628
 8831SOL    HW237953   0.343   1.443  10.977 -0.6141  0.5434 -0.1403
 8832SOL     OW37954   4.005   0.158   9.442  0.6040  0.6186 -0.1467
 8832SOL    HW137955   4.031   0.238   9.488  0.7631 -0.2105  1.1977
 8832SOL    HW237956   4.085   0.120   9.404  0.8256  2.1604 -1.2755
 8833SOL     OW37957   0.287   2.960  13.345  0.1103  0.6482  0.1865
 8833SOL    HW137958   0.258   2.915  13.424  2.3616 -0.8996  0.1660
 8833SOL    HW237959   0.363   2.904  13.326  0.1383  1.3366 -1.6517
 8834SOL     OW37960   2.459   4.440  14.887  0.3466 -0.4968 -0.0908
 8834SOL    HW137961   2.464   4.519  14.833  0.8267  0.4267  1.3146
 8834SOL    HW237962   2.524   4.460  14.954 -0.9478  3.0657  0.0649
 8835SOL     OW37963   4.628   2.282  14.455 -0.2389 -0.0624  0.4152
 8835SOL    HW137964   4.626   2.378  14.455 -0.9814 -0.0885 -2.8082
 8835SOL    HW237965   4.605   2.269  14.547  0.3946 -0.0767  0.5672
 8836SOL     OW37966   2.776   3.139  14.620  0.0501  0.3248  0.1635
 8836SOL    HW137967   2.777   3.049  14.587  0.3383  0.9113 -1.4581
 8836SOL    HW237968   2.842   3.136  14.689 -1.2460 -1.2332  1.3207
 8837SOL     OW37969   3.825   1.029   4.138  0.2523 -0.5158  0.2398
 8837SOL    HW137970   3.760   1.014   4.208 -0.9428  1.2210 -0.5056
 8837SOL    HW237971   3.902   1.009   4.191  0.2738  1.3908  0.9222
 8838SOL     OW37972   1.088   0.947   2.907  0.4340  0.1021 -0.7010
 8838SOL    HW137973   1.146   0.914   2.839 -0.1305 -0.5460 -0.8684
 8838SOL    HW237974   1.017   0.974   2.848 -1.0508  0.8511  1.4146
 8839SOL     OW37975   4.496   3.499   3.873 -0.5434  0.1407  0.1058
 8839SOL    HW137976   4.401   3.506   3.883 -0.2700  2.2163  1.2722
 8839SOL    HW237977   4.526   3.578   3.918 -1.2117  0.6977 -0.4389
 8840SOL     OW37978   1.503   3.628  14.158  0.4145 -0.1606 -0.4956
 8840SOL    HW137979   1.593   3.628  14.126  0.4881 -2.3002 -0.2464
 8840SOL    HW237980   1.455   3.620  14.075  1.2501  0.3865 -1.0388
 8841SOL     OW37981   3.886   2.053   8.827  0.2245  0.1701 -0.1599
 8841SOL    HW137982   3.843   1.968   8.827 -0.7120  0.6447 -0.6133
 8841SOL    HW237983   3.837   2.087   8.902 -0.5811  0.7412 -0.9419
 8842SOL     OW37984   3.278   1.025   0.795  0.3046 -0.5144  0.2143
 8842SOL    HW137985   3.274   1.119   0.810 -1.8734 -0.3733 -1.3424
 8842SOL    HW237986   3.350   1.002   0.854  0.6439 -0.5567 -0.2116
 8843SOL     OW37987   3.472   1.407  14.813 -0.3406 -0.0427 -0.6776
 8843SOL    HW137988   3.405   1.457  14.859 -1.3444 -1.8606 -0.1959
 8843SOL    HW237989   3.416   1.372  14.743 -1.2128 -0.0750  0.0429
 8844SOL     OW37990   1.121   3.721  16.012  0.0512 -0.4270 -0.3264
 8844SOL    HW137991   1.215   3.710  15.997 -0.0936 -0.3380 -1.2633
 8844SOL    HW237992   1.078   3.719  15.927  0.9814 -0.5310 -0.7876
 8845SOL     OW37993   3.072   1.579   6.763  0.3759  0.1188 -0.0121
 8845SOL    HW137994   3.018   1.593   6.841  0.0452  1.6097 -0.4976
 8845SOL    HW237995   3.066   1.669   6.730  2.2612 -0.0613 -0.8520
 8846SOL     OW37996   1.874   0.197   7.258  0.2368  0.5714  0.3698
 8846SOL    HW137997   1.902   0.236   7.341  2.2634 -0.6500  0.2529
 8846SOL    HW237998   1.805   0.141   7.293  1.7843 -1.0398  0.8520
 8847SOL     OW37999   2.927   1.848   2.737  0.8888 -0.1886  0.1086
 8847SOL    HW138000   2.911   1.833   2.830 -0.5309 -0.2972 -0.1573
 8847SOL    HW238001   2.978   1.770   2.716  1.4489  0.3947 -0.7480
 8848SOL     OW38002   0.979   2.398  13.527 -0.2935  0.3065 -0.2238
 8848SOL    HW138003   1.042   2.378  13.458 -0.9124 -0.1060 -0.6673
 8848SOL    HW238004   0.987   2.322  13.586  0.4806  0.7506  0.2449
 8849SOL     OW38005   4.715   1.811   1.429  0.5078  0.0031 -0.1920
 8849SOL    HW138006   4.637   1.759   1.414  0.8452 -0.3039 -0.8666
 8849SOL    HW238007   4.691   1.892   1.383 -2.0841 -1.0635 -0.7015
 8850SOL     OW38008   1.671   1.737   6.574  0.2902 -0.1982 -0.1004
 8850SOL    HW138009   1.633   1.808   6.521  2.6584 -0.0673 -1.6037
 8850SOL    HW238010   1.738   1.780   6.627 -0.0607  1.8691 -1.2952
 8851SOL     OW38011   2.361   1.439   3.090 -0.2328  0.1871 -0.0258
 8851SOL    HW138012   2.416   1.414   3.164  0.5077  0.6328 -0.4272
 8851SOL    HW238013   2.282   1.466   3.136 -1.2835 -2.4989 -0.2218
 8852SOL     OW38014   4.245   0.933   6.810  0.3825 -0.6665 -0.7137
 8852SOL    HW138015   4.188   0.897   6.742 -0.0627 -1.2186 -0.0653
 8852SOL    HW238016   4.298   0.982   6.748 -0.8239  0.2230 -1.0337
 8853SOL     OW38017   2.359   1.429   1.615 -0.6396  0.6397 -0.5159
 8853SOL    HW138018   2.348   1.334   1.615  0.6801  0.5077  1.5799
 8853SOL    HW238019   2.284   1.444   1.673 -0.8566 -1.7298 -0.1917
 8854SOL     OW38020   0.467   0.714   7.314  0.7992 -0.1474  0.0233
 8854SOL    HW138021   0.397   0.649   7.306  2.5504 -2.3361  2.3594
 8854SOL    HW238022   0.472   0.726   7.408  0.5913 -1.2167  0.1760
 8855SOL     OW38023   1.888   3.587   6.874 -0.1008  0.1425 -0.1514
 8855SOL    HW138024   1.848   3.500   6.862  1.9052 -0.4869 -2.3068
 8855SOL    HW238025   1.964   3.561   6.822  0.8990  0.7543  1.0035
 8856SOL     OW38026   0.700   1.130  17.312 -0.9727  0.7149 -0.2110
 8856SOL    HW138027   0.728   1.038  17.306  1.0755  1.4850 -2.3697
 8856SOL    HW238028   0.635   1.118  17.381  1.1125 -0.9804  1.4543
 8857SOL     OW38029   2.812   4.010  16.841  0.0192 -0.3690  0.1017
 8857SOL    HW138030   2.874   3.937  16.849  0.6962 -0.2771 -4.3144
 8857SOL    HW238031   2.835   4.068  16.913 -1.0208 -1.6792  1.4879
 8858SOL     OW38032   3.369   4.482  13.394 -0.3159  0.0351  0.3883
 8858SOL    HW138033   3.278   4.507  13.381  0.2386  1.6423 -0.3638
 8858SOL    HW238034   3.365   4.399  13.348 -1.8066  0.4933 -0.3269
 8859SOL     OW38035   0.314   2.174   1.918  0.6839  0.0663  0.2768
 8859SOL    HW138036   0.220   2.164   1.909  1.0711 -0.9275 -2.7545
 8859SOL    HW238037   0.318   2.118   1.995  0.6603 -0.8711 -0.3945
 8860SOL     OW38038   2.451   1.656  11.151  0.5003 -0.3606  0.2128
 8860SOL    HW138039   2.501   1.662  11.232 -1.2231  0.7649  1.1909
 8860SOL    HW238040   2.492   1.576  11.118 -1.3067 -0.8699 -0.8329
 8861SOL     OW38041   1.869   4.616   2.533  0.3229 -0.3276  0.6924
 8861SOL    HW138042   1.894   4.524   2.529  0.7760 -0.1752  0.0072
 8861SOL    HW238043   1.780   4.603   2.502  1.4176 -1.4164 -1.9790
 8862SOL     OW38044   1.980   0.815   6.413  0.1111 -0.6533  0.6264
 8862SOL    HW138045   1.967   0.778   6.325  1.3825 -2.3090  1.1262
 8862SOL    HW238046   2.075   0.807   6.424  0.3505 -1.0564 -1.5466
 8863SOL     OW38047   1.178   3.651   8.322  0.0117  0.1674 -0.0493
 8863SOL    HW138048   1.234   3.660   8.245 -0.4520 -1.8034 -0.5988
 8863SOL    HW238049   1.131   3.569   8.314 -0.0200  0.0891  1.0408
 8864SOL     OW38050   3.741   0.749   4.696  0.1023 -0.0216  0.7710
 8864SOL    HW138051   3.788   0.817   4.743  1.7434 -0.9677  0.4898
 8864SOL    HW238052   3.752   0.670   4.749 -2.6970  0.1305  1.5943
 8865SOL     OW38053   3.881   1.088  12.264 -0.3869  0.6049  0.5141
 8865SOL    HW138054   3.974   1.098  12.286  0.1046 -0.6902 -0.9205
 8865SOL    HW238055   3.874   1.164  12.207 -2.1817  0.9609  1.2178
 8866SOL     OW38056   2.869   3.720  15.855 -0.3109  0.3090 -0.0384
 8866SOL    HW138057   2.815   3.653  15.813 -0.5926 -0.0159  0.8455
 8866SOL    HW238058   2.889   3.762  15.772  0.6152 -0.4714 -0.2173
 8867SOL     OW38059   0.156   1.249   9.213  0.1872 -0.3723 -0.0450
 8867SOL    HW138060   0.151   1.156   9.191 -1.2849 -0.1496 -0.6388
 8867SOL    HW238061   0.211   1.253   9.291 -1.2432  1.3232  0.8621
 8868SOL     OW38062   1.938   3.063   5.140  0.0627 -0.2192 -0.7350
 8868SOL    HW138063   1.912   3.128   5.076  0.9080  1.3297  0.4884
 8868SOL    HW238064   1.857   3.035   5.182  0.5736  1.1851  1.2075
 8869SOL     OW38065   0.743   1.193  14.294 -0.2267  0.2974  0.1993
 8869SOL    HW138066   0.702   1.129  14.236 -0.0908 -2.2562  2.9272
 8869SOL    HW238067   0.731   1.274  14.245  1.1576  0.2449 -0.2409
 8870SOL     OW38068   2.206   3.432   7.078 -0.3339  0.6425  0.2402
 8870SOL    HW138069   2.174   3.504   7.133  1.5697  2.9939 -1.7096
 8870SOL    HW238070   2.296   3.463   7.067 -0.6162  0.9660 -1.1841
 8871SOL     OW38071   4.157   2.973   3.029 -0.3030  0.0957 -0.5313
 8871SOL    HW138072   4.202   2.889   3.034 -1.0420 -0.2343  0.3732
 8871SOL    HW238073   4.191   3.022   3.104 -2.5236  0.8203 -0.0065
 8872SOL     OW38074   2.389   3.105   2.232 -0.2739  0.1917  0.1811
 8872SOL    HW138075   2.446   3.051   2.285  0.2172  2.5226  2.0299
 8872SOL    HW238076   2.403   3.196   2.260  0.0662 -0.0113  0.6523
 8873SOL     OW38077   1.589   2.210   7.623 -0.5710  1.1517  0.2603
 8873SOL    HW138078   1.532   2.286   7.637 -1.9711 -0.1629  1.6832
 8873SOL    HW238079   1.558   2.180   7.538  1.2018  0.5584 -0.1700
 8874SOL     OW38080   3.508   4.495   4.697 -0.6477 -0.0032 -0.2175
 8874SOL    HW138081   3.470   4.526   4.615 -0.9162 -3.1177 -1.2541
 8874SOL    HW238082   3.425   4.460   4.728 -1.2130  2.2883  0.9140
 8875SOL     OW38083   3.687   2.609   8.598  0.5370  0.2500  0.1412
 8875SOL    HW138084   3.650   2.685   8.551 -0.8074 -1.2193 -1.1678
 8875SOL    HW238085   3.650   2.612   8.686 -2.2888 -0.2509 -1.0261
 8876SOL     OW38086   0.899   4.198   2.696  0.5824  0.3112  0.2814
 8876SOL    HW138087   0.921   4.288   2.670 -0.8676  0.7260  0.4706
 8876SOL    HW238088   0.816   4.186   2.650  0.8119  3.3581 -0.9368
 8877SOL     OW38089   3.630   2.465   4.525  0.3048  0.4346  0.7506
 8877SOL    HW138090   3.574   2.452   4.601 -0.4096 -0.8181  0.0177
 8877SOL    HW238091   3.593   2.400   4.465  0.4254  0.4225  0.6882
 8878SOL     OW38092   0.503   3.464   7.550  0.7291  0.3276  0.5146
 8878SOL    HW138093   0.563   3.402   7.592 -0.2619 -0.2372  1.0818
 8878SOL    HW238094   0.442   3.496   7.616  1.9810  4.0812 -0.1200
 8879SOL     OW38095   4.238   4.168  10.407 -0.2498 -0.2334 -0.0035
 8879SOL    HW138096   4.217   4.086  10.451  0.7496 -0.8226 -0.6350
 8879SOL    HW238097   4.232   4.145  10.314  0.2846 -0.9212  0.1328
 8880SOL     OW38098   1.844   1.860   4.503  0.0656 -0.2173 -0.6253
 8880SOL    HW138099   1.918   1.815   4.543 -0.2498  0.9911  1.3158
 8880SOL    HW238100   1.890   1.943   4.492 -0.0831  0.1932  1.9294
 8881SOL     OW38101   1.825   4.157   7.226  0.2802 -0.7446  0.2350
 8881SOL    HW138102   1.816   4.236   7.172 -1.7725 -0.9137  0.3464
 8881SOL    HW238103   1.890   4.184   7.291  1.2987  0.6662 -1.3707
 8882SOL     OW38104   3.503   1.084  15.528  0.3908  0.3487 -0.1699
 8882SOL    HW138105   3.575   1.066  15.468 -0.3397  3.8550 -2.1027
 8882SOL    HW238106   3.539   1.034  15.601 -1.0691  0.1079  0.3806
 8883SOL     OW38107   4.542   3.545  17.388 -0.0993 -0.2960 -0.7030
 8883SOL    HW138108   4.537   3.452  17.413 -0.1475 -0.3526 -0.9192
 8883SOL    HW238109   4.565   3.586  17.471 -0.7357 -0.2169 -0.5610
 8884SOL     OW38110   2.659   4.468   3.590 -0.1150  0.1081  0.0573
 8884SOL    HW138111   2.633   4.466   3.498  0.0024 -0.0496  0.0274
 8884SOL    HW238112   2.720   4.394   3.590 -0.0777  0.1439 -0.6352
 8885SOL     OW38113   0.306   1.528   0.421  0.3915  0.0877 -0.2284
 8885SOL    HW138114   0.349   1.600   0.374  0.2334 -0.7829 -1.7127
 8885SOL    HW238115   0.321   1.452   0.366  2.9077  0.8304 -0.5790
 8886SOL     OW38116   4.586   3.475   9.533 -0.5944  0.0637 -0.4523
 8886SOL    HW138117   4.500   3.470   9.491  0.3051 -0.7792 -2.1521
 8886SOL    HW238118   4.579   3.399   9.590  0.3013  0.6286  0.4011
 8887SOL     OW38119   1.467   4.581   2.639 -0.0161  0.4845  0.0390
 8887SOL    HW138120   1.375   4.563   2.655 -0.0512  1.4412  0.9624
 8887SOL    HW238121   1.512   4.501   2.613 -1.8481 -1.2726  2.2802
 8888SOL     OW38122   2.526   4.689  14.777 -0.0137 -0.0961  0.1791
 8888SOL    HW138123   2.459   0.029  14.806 -0.5676 -1.1391  1.1248
 8888SOL    HW238124   2.591   0.018  14.729 -2.2560  0.7752 -1.9195
 8889SOL     OW38125   4.235   3.702  16.207 -0.0211 -0.9133 -0.4996
 8889SOL    HW138126   4.259   3.685  16.298  0.2595  1.0068 -0.2219
 8889SOL    HW238127   4.168   3.634  16.201 -1.7437  0.8177 -1.0367
 8890SOL     OW38128   4.613   0.916  12.751  0.5846 -0.1640  0.0525
 8890SOL    HW138129   4.630   0.924  12.845 -0.6934 -0.8146  0.3440
 8890SOL    HW238130   4.696   0.878  12.721 -0.1293 -0.5151 -1.4640
 8891SOL     OW38131   1.436   3.935   4.510 -0.2789 -0.2617  0.8227
 8891SOL    HW138132   1.409   3.963   4.422 -2.3852 -0.1405  1.5121
 8891SOL    HW238133   1.415   3.843   4.494 -0.5983 -0.2529  1.2239
 8892SOL     OW38134   1.688   3.317   8.385  0.3147  0.1770  0.0570
 8892SOL    HW138135   1.729   3.240   8.347  1.8668  1.3158 -0.5565
 8892SOL    HW238136   1.678   3.383   8.317  0.2387  0.6509  0.5223
 8893SOL     OW38137   1.681   1.802   2.059 -0.0249  0.3146  0.1870
 8893SOL    HW138138   1.627   1.731   2.024 -0.5817  0.1251  1.4462
 8893SOL    HW238139   1.708   1.766   2.143  1.6058 -1.6692 -1.1749
 8894SOL     OW38140   3.740   1.801   2.432  0.4576  0.1715 -0.3030
 8894SOL    HW138141   3.667   1.857   2.405  0.8696 -0.9070 -3.5482
 8894SOL    HW238142   3.695   1.717   2.435 -3.1686  2.0294 -3.0191
 8895SOL     OW38143   1.291   3.765   9.768 -0.7851 -0.2381  0.0892
 8895SOL    HW138144   1.346   3.843   9.770 -0.2486 -0.5889 -1.1661
 8895SOL    HW238145   1.335   3.713   9.836 -1.1197 -0.7075 -0.0499
 8896SOL     OW38146   4.689   1.469   9.153 -0.5496 -0.4116 -0.1867
 8896SOL    HW138147   4.699   1.374   9.166 -0.2245 -0.0511  2.3245
 8896SOL    HW238148   0.007   1.502   9.233  0.9302 -1.0143 -0.6913
 8897SOL     OW38149   0.582   4.273  12.551 -0.4104 -0.0197  0.1749
 8897SOL    HW138150   0.634   4.198  12.580 -1.4113 -1.1455 -0.9353
 8897SOL    HW238151   0.574   4.253  12.458 -0.3851  3.4515 -0.5922
 8898SOL     OW38152   1.011   3.086   2.038 -0.4507  0.1146  0.5351
 8898SOL    HW138153   1.092   3.132   2.059 -1.0031  1.3663 -0.0239
 8898SOL    HW238154   1.013   3.016   2.102  0.4220 -0.2402  0.1125
 8899SOL     OW38155   2.657   3.041   2.973  0.2288  0.0728  0.0119
 8899SOL    HW138156   2.742   3.011   3.006 -0.4640 -2.1254 -0.1972
 8899SOL    HW238157   2.651   3.131   3.004  1.1136 -0.2055  0.9713
 8900SOL     OW38158   1.758   0.644   7.831 -0.3224 -0.3751  0.3283
 8900SOL    HW138159   1.664   0.651   7.815 -0.0796  0.8904 -0.5011
 8900SOL    HW238160   1.774   0.712   7.896  0.3691 -0.2299  0.0066
 8901SOL     OW38161   4.415   0.441   4.483 -0.1271 -0.4946  0.7094
 8901SOL    HW138162   4.321   0.453   4.492 -0.0650  0.4970  0.0583
 8901SOL    HW238163   4.453   0.528   4.476 -2.1534  0.3699  0.4835
 8902SOL     OW38164   4.428   3.058   9.829  0.4097 -0.0649 -0.1061
 8902SOL    HW138165   4.457   2.968   9.845  1.8311 -0.2597 -3.8537
 8902SOL    HW238166   4.398   3.073   9.919 -0.1847 -2.6072  0.1339
 8903SOL     OW38167   4.555   4.223   5.081  0.8011  0.0469  0.2939
 8903SOL    HW138168   4.563   4.318   5.086  0.8820 -0.0650  2.5148
 8903SOL    HW238169   4.467   4.210   5.047 -0.0336  1.7955  1.7745
 8904SOL     OW38170   4.019   0.047   2.401  0.2701  0.0230  0.3184
 8904SOL    HW138171   4.076   0.107   2.448 -0.5551 -0.5432  2.0377
 8904SOL    HW238172   4.063   0.052   2.316 -0.3512  2.0558  0.1272
 8905SOL     OW38173   1.069   2.790  17.189 -0.4200  0.6666  0.3715
 8905SOL    HW138174   1.032   2.875  17.165 -0.5554 -0.0934 -2.1747
 8905SOL    HW238175   1.066   2.743  17.105  1.1679  0.4439  0.4488
 8906SOL     OW38176   3.522   2.211   8.766 -0.3753 -0.0051  0.4791
 8906SOL    HW138177   3.517   2.157   8.686  0.5817 -1.0783  1.1604
 8906SOL    HW238178   3.612   2.197   8.793 -0.5414 -1.0211  0.4924
 8907SOL     OW38179   2.692   3.312   3.025  0.7343  0.0122 -0.3577
 8907SOL    HW138180   2.646   3.335   3.106  0.5348 -0.6444 -0.2857
 8907SOL    HW238181   2.754   3.384   3.018 -1.1685  1.6522 -0.4864
 8908SOL     OW38182   4.201   4.442  10.411 -0.5315  0.1945  0.3288
 8908SOL    HW138183   4.193   4.451  10.316  0.1697 -1.3834  0.1187
 8908SOL    HW238184   4.211   4.347  10.416  1.3405  0.4932  2.1699
 8909SOL     OW38185   2.953   2.259  16.822  0.3437 -0.0350  0.3843
 8909SOL    HW138186   2.949   2.178  16.771 -2.7531  0.4448 -0.0898
 8909SOL    HW238187   3.015   2.314  16.774  1.1516  0.0536  1.5129
 8910SOL     OW38188   2.584   1.963   5.365  0.1831  0.1901 -0.5103
 8910SOL    HW138189   2.602   1.985   5.456  2.1242 -0.5535 -0.7014
 8910SOL    HW238190   2.651   2.003   5.309  2.2970 -1.2819  0.9441
 8911SOL     OW38191   3.501   2.265   5.159 -0.3898  0.5830 -0.5314
 8911SOL    HW138192   3.500   2.235   5.068  1.4080  3.1861 -1.3974
 8911SOL    HW238193   3.541   2.351   5.148  0.5674  0.2611  0.5156
 8912SOL     OW38194   0.753   1.648   8.061  0.1024 -0.2970 -0.2617
 8912SOL    HW138195   0.659   1.632   8.069  0.6059 -1.9554  2.3459
 8912SOL    HW238196   0.780   1.616   7.975 -0.6865 -0.5211 -0.4233
 8913SOL     OW38197   0.345   3.908   3.881 -0.2466 -0.1827 -0.3493
 8913SOL    HW138198   0.326   3.997   3.909  0.2442 -0.1410 -0.1516
 8913SOL    HW238199   0.438   3.898   3.903 -0.8011 -1.6565  1.3304
 8914SOL     OW38200   1.784   3.514   3.289  0.4014 -0.0009  0.4017
 8914SOL    HW138201   1.736   3.559   3.358 -1.2226 -2.0773  0.6283
 8914SOL    HW238202   1.715   3.502   3.224  1.1530 -3.0874  0.1394
 8915SOL     OW38203   2.525   0.291  13.472  0.8060 -0.1699  0.2826
 8915SOL    HW138204   2.576   0.372  13.466 -0.1788  0.4479  0.2617
 8915SOL    HW238205   2.599   0.232  13.488 -1.2665 -3.2968 -1.8150
 8916SOL     OW38206   2.840   2.560   4.236  0.2369  0.4629  0.1808
 8916SOL    HW138207   2.855   2.535   4.144  0.4191 -0.4520  0.4552
 8916SOL    HW238208   2.865   2.651   4.224  2.8086 -0.6010 -2.7293
 8917SOL     OW38209   1.724   0.677  11.569  0.1091 -0.3741  0.5250
 8917SOL    HW138210   1.687   0.697  11.483 -0.9415 -1.9187  0.6198
 8917SOL    HW238211   1.650   0.640  11.617  0.4228 -0.8118  0.6682
 8918SOL     OW38212   0.337   0.326   5.567 -0.1934  0.8700  0.0891
 8918SOL    HW138213   0.393   0.266   5.616  1.3955  1.6254 -0.8105
 8918SOL    HW238214   0.400   0.335   5.495  0.0424 -0.3950  0.1258
 8919SOL     OW38215   1.021   0.828   0.593  0.8819  0.2321 -0.7319
 8919SOL    HW138216   0.937   0.864   0.622 -0.5629 -2.4990 -1.5564
 8919SOL    HW238217   1.025   0.755   0.655 -1.1299  0.8213  0.1083
 8920SOL     OW38218   2.187   4.032   6.647  0.8486  0.2983  0.2529
 8920SOL    HW138219   2.268   4.005   6.603  1.0191 -2.1247  2.0568
 8920SOL    HW238220   2.210   4.115   6.687  0.4468 -0.6925  2.5445
 8921SOL     OW38221   4.339   3.112   1.461  0.1763 -0.1673 -0.4894
 8921SOL    HW138222   4.293   3.034   1.494  1.5587 -0.7784 -0.0249
 8921SOL    HW238223   4.390   3.082   1.386  1.3233 -0.3988  0.3951
 8922SOL     OW38224   1.935   0.721  11.327 -0.0067 -0.7882 -0.0610
 8922SOL    HW138225   1.918   0.640  11.376 -0.2605 -1.5484 -1.3936
 8922SOL    HW238226   1.996   0.760  11.390 -1.3731  2.7198 -0.9056
 8923SOL     OW38227   4.469   3.733   2.494 -0.3917  0.0025  0.0484
 8923SOL    HW138228   4.552   3.728   2.541  0.6005  1.7835 -1.4968
 8923SOL    HW238229   4.494   3.688   2.413 -2.0105  0.5249 -0.7477
 8924SOL     OW38230   0.192   1.195   6.017 -0.0973  0.2676 -0.0089
 8924SOL    HW138231   0.139   1.245   6.079 -0.4357  0.5984 -0.5576
 8924SOL    HW238232   0.284   1.211   6.037  0.2460 -0.5758 -0.9126
 8925SOL     OW38233   1.052   2.002  16.787 -0.0831  0.3179 -0.2883
 8925SOL    HW138234   1.001   2.069  16.742  2.0261  0.7180 -2.0956
 8925SOL    HW238235   1.138   2.018  16.748  1.3482  0.7152  3.0366
 8926SOL     OW38236   1.754   1.735   1.265  0.1273 -0.1174  0.8804
 8926SOL    HW138237   1.776   1.646   1.290  1.0863  0.1901  1.1421
 8926SOL    HW238238   1.768   1.782   1.347 -0.5998  0.1717  0.8430
 8927SOL     OW38239   1.321   1.442   8.212  0.4713 -0.1078 -0.0859
 8927SOL    HW138240   1.277   1.527   8.219  0.4200 -0.0754 -0.8129
 8927SOL    HW238241   1.276   1.399   8.285  0.0960  1.2560  0.4882
 8928SOL     OW38242   1.670   1.649   7.864  0.4580  0.0416 -0.1590
 8928SOL    HW138243   1.619   1.607   7.934  1.1768 -0.2381  0.1881
 8928SOL    HW238244   1.730   1.576   7.852 -0.3014 -0.5814 -0.1757
 8929SOL     OW38245   4.052   3.345  15.069 -0.0857  0.0714  0.5118
 8929SOL    HW138246   4.096   3.374  15.149  1.0237 -0.4223  0.0807
 8929SOL    HW238247   4.086   3.406  15.003  2.4269 -0.6300  1.1856
 8930SOL     OW38248   2.536   2.855   5.904  0.1193  0.1961  0.1276
 8930SOL    HW138249   2.465   2.904   5.862  0.7909  2.2507  1.3727
 8930SOL    HW238250   2.515   2.873   5.995  0.1266  2.1818 -0.2561
 8931SOL     OW38251   0.282   2.971   6.231 -0.3554  0.0534 -0.3016
 8931SOL    HW138252   0.212   2.923   6.276 -1.3493  0.3739 -1.4693
 8931SOL    HW238253   0.276   3.063   6.255 -1.8588  0.1454 -0.9873
 8932SOL     OW38254   0.477   0.402  12.923  0.6885  0.7162  0.2227
 8932SOL    HW138255   0.464   0.446  12.839  1.8454 -1.0903 -0.8962
 8932SOL    HW238256   0.453   0.480  12.973 -0.4335 -0.0090  0.8203
 8933SOL     OW38257   4.047   0.188   6.519  0.1375 -0.1748  0.4556
 8933SOL    HW138258   4.113   0.180   6.451 -0.3476  0.2622 -0.0603
 8933SOL    HW238259   4.098   0.165   6.598  2.0409  1.6945 -0.2138
 8934SOL     OW38260   3.401   1.187   6.906  0.3965  0.7789  0.1639
 8934SOL    HW138261   3.354   1.123   6.851  0.3019  1.3077 -0.3691
 8934SOL    HW238262   3.337   1.187   6.977  0.6569  0.9358  0.3988
 8935SOL     OW38263   1.468   2.589   7.051 -0.0505  0.2935 -0.2077
 8935SOL    HW138264   1.486   2.681   7.071 -2.2284  1.0359 -1.6402
 8935SOL    HW238265   1.553   2.546   7.051 -0.0596  0.2640 -2.2693
 8936SOL     OW38266   1.494   0.881   7.586 -0.0095  0.0003  0.0383
 8936SOL    HW138267   1.496   0.788   7.606 -0.2196 -0.1035 -0.4344
 8936SOL    HW238268   1.468   0.912   7.673  0.5022  1.2392 -0.2368
 8937SOL     OW38269   3.911   2.093  14.338 -0.6559 -0.3865 -0.2783
 8937SOL    HW138270   3.827   2.129  14.367 -0.6153 -1.0327  0.6236
 8937SOL    HW238271   3.967   2.166  14.360  0.1655 -0.9052 -0.6350
 8938SOL     OW38272   3.788   1.193   0.686 -0.5189 -0.5213 -0.7040
 8938SOL    HW138273   3.832   1.186   0.771  0.8725 -0.8922 -1.4522
 8938SOL    HW238274   3.696   1.195   0.711  0.2196 -1.0482  1.9863
 8939SOL     OW38275   3.866   3.244   7.847  0.3732 -0.2139  0.1133
 8939SOL    HW138276   3.838   3.210   7.762  1.8151 -1.7060  0.2330
 8939SOL    HW238277   3.960   3.229   7.854  0.3245 -0.3390  0.5201
 8940SOL     OW38278   2.301   3.339  17.681 -0.2753 -0.2053  0.2985
 8940SOL    HW138279   2.358   3.410  17.648  0.0230 -0.4225  0.3477
 8940SOL    HW238280   2.243   3.384   0.050  2.1963  1.8998  1.0822
 8941SOL     OW38281   1.567   1.555   7.287  0.1736 -0.4526  0.1808
 8941SOL    HW138282   1.492   1.523   7.238 -0.6876  4.0603 -1.4552
 8941SOL    HW238283   1.602   1.479   7.334  1.2501  0.2610  0.5486
 8942SOL     OW38284   4.055   1.733   8.094 -0.8906  0.2021  0.4420
 8942SOL    HW138285   4.071   1.668   8.163  3.9190  0.9022 -0.0835
 8942SOL    HW238286   4.044   1.672   8.020 -0.4315  1.7550 -0.8922
 8943SOL     OW38287   2.371   1.639   9.050  0.0796 -0.6930  0.3102
 8943SOL    HW138288   2.294   1.628   8.994 -0.4212 -0.6723  0.9939
 8943SOL    HW238289   2.433   1.570   9.024  0.9366 -0.2881  1.2941
 8944SOL     OW38290   0.026   4.355   9.263  0.5367 -0.1538  0.0110
 8944SOL    HW138291   0.072   4.302   9.198  1.2614 -0.3798  0.7025
 8944SOL    HW238292   0.093   4.387   9.324 -1.1810 -0.6470  2.1494
 8945SOL     OW38293   1.513   4.335   2.927 -0.1065  0.1758 -0.3400
 8945SOL    HW138294   1.519   4.382   3.010 -0.3228  1.1943 -0.9012
 8945SOL    HW238295   1.594   4.359   2.882 -1.1765  1.3725 -1.6219
 8946SOL     OW38296   3.214   4.001  10.542 -0.2911  0.7201  0.1712
 8946SOL    HW138297   3.227   4.064  10.471 -1.7408  1.9445  0.9918
 8946SOL    HW238298   3.119   3.999  10.540 -0.2779 -0.6160  0.6778
 8947SOL     OW38299   0.352   2.777   3.633  0.5502  0.4156 -0.2588
 8947SOL    HW138300   0.269   2.768   3.586 -1.0003  0.5369  2.4512
 8947SOL    HW238301   0.408   2.721   3.578 -0.2859 -1.9237  1.2900
 8948SOL     OW38302   3.346   2.509   4.017 -0.2440 -0.0427  0.7299
 8948SOL    HW138303   3.256   2.482   4.001  0.0393 -0.0409 -0.8945
 8948SOL    HW238304   3.353   2.576   3.948  1.2072 -0.0479  0.8764
 8949SOL     OW38305   2.213   1.501   2.428 -0.0321  0.3319 -0.4310
 8949SOL    HW138306   2.280   1.553   2.472  1.2300  0.2328 -2.2495
 8949SOL    HW238307   2.271   1.439   2.385 -1.3820 -0.9414 -0.4065
 8950SOL     OW38308   4.251   2.535  13.575 -0.2782  0.2120  0.1147
 8950SOL    HW138309   4.338   2.543  13.615 -0.1869  1.4096 -0.3073
 8950SOL    HW238310   4.271   2.498  13.490 -0.4219 -1.7334  0.9244
 8951SOL     OW38311   3.707   2.386   0.978  0.1338 -0.0269  0.2019
 8951SOL    HW138312   3.632   2.330   1.001  2.0491 -1.7368  2.2648
 8951SOL    HW238313   3.692   2.452   1.045 -0.7908  1.4394 -1.4537
 8952SOL     OW38314   3.513   4.347   6.623 -0.5175 -0.2206  0.6464
 8952SOL    HW138315   3.564   4.414   6.668 -0.2090 -0.1723  0.2242
 8952SOL    HW238316   3.543   4.267   6.664 -1.1011 -1.2798 -0.9889
 8953SOL     OW38317   4.128   1.019  14.306  0.4328  0.0957  0.2109
 8953SOL    HW138318   4.062   0.964  14.264  0.0319  1.4046 -0.8615
 8953SOL    HW238319   4.183   0.951  14.344  1.1324 -0.2083 -1.3840
 8954SOL     OW38320   4.105   0.272   0.753  0.3557 -0.2972 -0.1590
 8954SOL    HW138321   4.128   0.329   0.826 -1.7105  1.2437 -0.7063
 8954SOL    HW238322   4.172   0.208   0.777  1.9265  1.3354 -0.2116
 8955SOL     OW38323   0.092   1.522   4.771 -0.0582  0.2351  0.5612
 8955SOL    HW138324   0.001   1.497   4.756 -0.4627  1.4136  1.0326
 8955SOL    HW238325   0.133   1.440   4.798 -0.2128  0.8336  2.6212
 8956SOL     OW38326   2.331   4.087   5.376  0.4228  0.3836  0.2500
 8956SOL    HW138327   2.387   4.150   5.421  0.8202 -2.9128  4.3523
 8956SOL    HW238328   2.257   4.137   5.341  0.0277 -0.3118  0.0852
 8957SOL     OW38329   1.475   1.902  10.769  0.5615  0.3159  0.1898
 8957SOL    HW138330   1.548   1.920  10.829 -0.1241  0.9556  0.8328
 8957SOL    HW238331   1.459   1.991  10.738 -0.7296 -0.1102 -0.3727
 8958SOL     OW38332   1.904   0.157  10.532  0.8272  0.0995 -0.3110
 8958SOL    HW138333   1.884   0.070  10.497  0.4465  0.3091 -0.6008
 8958SOL    HW238334   1.936   0.133  10.620 -0.9912 -0.3187  0.2444
 8959SOL     OW38335   4.147   3.374   6.448  0.2652  0.0764 -0.0967
 8959SOL    HW138336   4.136   3.372   6.543 -0.4291  0.2710 -0.1696
 8959SOL    HW238337   4.102   3.449   6.409 -0.4269  1.0484  2.5701
 8960SOL     OW38338   2.821   0.108   0.308 -0.2359  0.4093 -0.3807
 8960SOL    HW138339   2.725   0.105   0.308 -0.2309  0.0860  0.7793
 8960SOL    HW238340   2.833   0.039   0.242  0.4031 -1.4263  1.6372
 8961SOL     OW38341   3.341   0.210   4.110 -0.0403 -0.2536  0.4965
 8961SOL    HW138342   3.278   0.262   4.059  0.4252 -1.9327 -1.8091
 8961SOL    HW238343   3.303   0.125   4.085 -1.4507  0.0996  1.4467
 8962SOL     OW38344   4.663   3.964   7.433  0.3708 -0.6895  0.2733
 8962SOL    HW138345   0.035   3.970   7.446 -0.0013  3.2831  1.1387
 8962SOL    HW238346   4.654   3.880   7.388  2.9523 -0.7177 -0.1759
 8963SOL     OW38347   2.618   0.414   2.818  0.3448  0.0958 -0.4611
 8963SOL    HW138348   2.536   0.438   2.861  0.1578 -0.0388 -0.7382
 8963SOL    HW238349   2.650   0.341   2.870 -1.2143  0.2308  0.6939
 8964SOL     OW38350   1.984   0.062   5.126  0.3808  0.1746  0.0523
 8964SOL    HW138351   1.982   0.110   5.043  0.1561  0.2449  0.1013
 8964SOL    HW238352   1.893   0.033   5.124  0.6725 -0.7811  0.6211
 8965SOL     OW38353   4.051   0.967   8.573 -0.1303  0.1824  0.5161
 8965SOL    HW138354   3.975   0.910   8.560 -0.3205  0.5524  0.0316
 8965SOL    HW238355   4.053   0.989   8.666  1.0438  1.4454  0.1904
 8966SOL     OW38356   4.236   2.596   3.330  0.0617 -0.2612 -0.6815
 8966SOL    HW138357   4.222   2.690   3.339  0.3507 -0.1954 -0.9101
 8966SOL    HW238358   4.206   2.589   3.240 -1.4941  0.5183 -0.2149
 8967SOL     OW38359   0.595   1.788   1.615  0.0011  0.1549 -0.1609
 8967SOL    HW138360   0.558   1.707   1.578  0.7897 -0.0991 -0.3888
 8967SOL    HW238361   0.536   1.855   1.580  0.0848  0.5599  0.4771
 8968SOL     OW38362   4.573   4.682   4.036  0.6753  0.5615  0.0402
 8968SOL    HW138363   4.605   0.041   4.076  2.3135 -1.1645  2.2434
 8968SOL    HW238364   4.552   4.709   3.946 -0.4775 -0.4131  0.0147
 8969SOL     OW38365   0.504   1.897   5.751  0.4862 -0.2357  0.1294
 8969SOL    HW138366   0.425   1.930   5.708  1.1920  3.1350  1.3635
 8969SOL    HW238367   0.478   1.871   5.840  0.3289 -2.5398 -0.6084
 8970SOL     OW38368   2.125   2.137  15.014 -0.7760  0.2257 -0.2573
 8970SOL    HW138369   2.034   2.165  15.003 -0.0851  2.3921 -0.3174
 8970SOL    HW238370   2.131   2.132  15.109 -0.1566 -0.1269 -0.3112
 8971SOL     OW38371   0.217   1.283   4.775 -0.0182  0.2885 -0.1274
 8971SOL    HW138372   0.281   1.216   4.748  0.5419 -0.2624  2.5760
 8971SOL    HW238373   0.157   1.228   4.824  1.2380 -0.6153  0.4011
 8972SOL     OW38374   3.124   3.743  12.479 -0.1442 -0.4350  0.0785
 8972SOL    HW138375   3.218   3.726  12.473 -0.3266 -1.0046 -1.1544
 8972SOL    HW238376   3.082   3.658  12.461 -3.7496  1.6955 -1.6093
 8973SOL     OW38377   3.171   3.483   5.326  0.1157  0.8326 -0.1300
 8973SOL    HW138378   3.081   3.513   5.312 -0.0887  0.3218  0.0688
 8973SOL    HW238379   3.220   3.555   5.286  0.6987  0.0493 -0.8356
 8974SOL     OW38380   0.567   2.497  12.159 -0.1771  0.7228  0.3851
 8974SOL    HW138381   0.637   2.503  12.225 -1.5932  2.4427  1.7304
 8974SOL    HW238382   0.549   2.403  12.153  0.1287  0.6698  0.3056
 8975SOL     OW38383   3.380   1.387   1.750  0.2562 -0.2330  0.1016
 8975SOL    HW138384   3.321   1.453   1.713  0.2794  1.0983  2.3953
 8975SOL    HW238385   3.319   1.356   1.817 -0.5437 -1.4081 -1.1691
 8976SOL     OW38386   0.204   0.584   6.642 -0.2108  0.4011  0.5065
 8976SOL    HW138387   0.221   0.545   6.556  0.6152 -2.3280  1.8901
 8976SOL    HW238388   0.177   0.503   6.687  0.5483 -0.5886 -0.8113
 8977SOL     OW38389   0.216   3.279   7.892 -0.0015 -0.3133 -0.4262
 8977SOL    HW138390   0.249   3.291   7.981  0.2615 -2.0159 -0.2997
 8977SOL    HW238391   0.295   3.248   7.847  1.0776 -1.4362  2.2050
 8978SOL     OW38392   3.453   3.756   7.741  0.1621  0.5493 -0.0769
 8978SOL    HW138393   3.547   3.736   7.746 -0.3326 -1.9085 -0.4266
 8978SOL    HW238394   3.417   3.716   7.820  1.4698  1.5395  1.0037
 8979SOL     OW38395   1.437   3.654   8.868 -0.6317  0.0713  0.4417
 8979SOL    HW138396   1.478   3.723   8.817  0.1818 -0.7558 -0.0196
 8979SOL    HW238397   1.357   3.703   8.886 -0.1446  1.3779 -1.0049
 8980SOL     OW38398   1.786   2.159   9.704 -0.0095  0.3249 -0.0272
 8980SOL    HW138399   1.755   2.217   9.634 -0.4261 -1.6344 -1.4608
 8980SOL    HW238400   1.712   2.100   9.717 -3.0682  3.8084 -1.5556
 8981SOL     OW38401   3.537   2.270  17.029 -0.0221  0.2972 -0.4659
 8981SOL    HW138402   3.526   2.343  17.089 -0.7613 -0.6678  0.5773
 8981SOL    HW238403   3.583   2.213  17.091 -0.0017  0.6586 -0.1495
 8982SOL     OW38404   0.369   0.388   1.963 -0.3347  0.7607 -0.1049
 8982SOL    HW138405   0.430   0.393   2.036  0.7928 -2.8390 -0.8335
 8982SOL    HW238406   0.294   0.416   2.016 -1.4867 -1.5911 -0.4833
 8983SOL     OW38407   4.371   2.357   2.224  0.0397 -0.2525  0.1123
 8983SOL    HW138408   4.375   2.309   2.306  1.2793  0.8309  0.6805
 8983SOL    HW238409   4.404   2.294   2.160  2.3094 -0.3549  1.3658
 8984SOL     OW38410   1.044   2.148   7.489 -0.0541  0.4824 -0.2271
 8984SOL    HW138411   1.096   2.081   7.534 -0.3799 -0.0319 -0.6221
 8984SOL    HW238412   1.015   2.093   7.416  0.9485 -1.2486  0.6765
 8985SOL     OW38413   2.488   1.229   3.906  0.1036  0.2681  0.3572
 8985SOL    HW138414   2.396   1.242   3.930  0.2071  1.2395  0.2378
 8985SOL    HW238415   2.489   1.241   3.811 -2.5094  0.2148  0.3414
 8986SOL     OW38416   3.354   1.175   3.502 -0.0065 -0.2500  0.1935
 8986SOL    HW138417   3.448   1.166   3.516  0.0834  0.0159 -0.2169
 8986SOL    HW238418   3.311   1.133   3.576 -1.1399  4.2823  2.0947
 8987SOL     OW38419   4.632   3.508   5.512 -0.1298  0.6878  0.3458
 8987SOL    HW138420   4.585   3.498   5.595 -0.6321 -0.8812 -0.1260
 8987SOL    HW238421   4.690   3.432   5.508 -0.4296  0.5345 -1.1121
 8988SOL     OW38422   1.690   3.648  14.389  0.0051  0.8027 -0.3923
 8988SOL    HW138423   1.774   3.671  14.429  0.3784 -3.3469  1.2412
 8988SOL    HW238424   1.738   3.614  14.315 -1.8423  1.5913 -1.9641
 8989SOL     OW38425   0.589   2.982  11.456  0.2519 -0.1129  0.0375
 8989SOL    HW138426   0.590   2.935  11.540 -3.5754 -0.4618 -0.1390
 8989SOL    HW238427   0.661   2.937  11.412  0.9806  0.5246  0.5779
 8990SOL     OW38428   1.142   2.662   1.627  0.3049 -0.5335 -0.0797
 8990SOL    HW138429   1.123   2.622   1.542 -1.9103  1.2267 -0.4120
 8990SOL    HW238430   1.062   2.709   1.652 -0.2634 -1.9096  0.6715
 8991SOL     OW38431   2.187   4.698  10.286 -0.4094  0.0823 -0.1518
 8991SOL    HW138432   2.231   0.054  10.321  2.1675 -1.5598  0.3347
 8991SOL    HW238433   2.241   4.683  10.209 -2.5564 -0.9390 -1.4193
 8992SOL     OW38434   4.546   1.095  17.547  0.1502  0.2742  0.5769
 8992SOL    HW138435   4.476   1.158  17.526 -0.2869 -0.7361 -1.0386
 8992SOL    HW238436   4.507   1.014  17.512 -1.9827  0.6686  2.0959
 8993SOL     OW38437   3.610   4.532   2.237 -0.5107  0.6454 -0.2916
 8993SOL    HW138438   3.562   4.614   2.230 -1.9992  0.0499  2.7575
 8993SOL    HW238439   3.583   4.494   2.321 -1.0304 -0.9817 -1.1824
 8994SOL     OW38440   1.884   1.262   3.095 -0.5067  0.6227 -0.0873
 8994SOL    HW138441   1.880   1.281   3.002 -0.6845 -1.9603 -0.5949
 8994SOL    HW238442   1.975   1.270   3.123 -0.3491  0.1087 -0.4536
 8995SOL     OW38443   3.461   0.913  12.751 -0.1194 -0.2536 -0.0686
 8995SOL    HW138444   3.489   1.004  12.763 -0.2607 -0.0378 -1.3783
 8995SOL    HW238445   3.445   0.924  12.657 -0.7880  2.9964  0.4187
 8996SOL     OW38446   2.999   2.164   4.304  0.4364  1.0952 -0.9808
 8996SOL    HW138447   3.013   2.210   4.221 -0.8945  2.0520 -0.6712
 8996SOL    HW238448   2.914   2.121   4.291  0.1917  1.5664 -0.9302
 8997SOL     OW38449   1.143   2.347   6.848  0.0673 -0.4683  0.1111
 8997SOL    HW138450   1.183   2.434   6.844 -0.7387 -0.1619 -1.2792
 8997SOL    HW238451   1.127   2.335   6.942 -0.9611 -1.3831 -0.1780
 8998SOL     OW38452   1.062   2.773   2.840 -0.1522 -0.1821  0.4791
 8998SOL    HW138453   1.147   2.728   2.845 -0.6564 -0.9566  2.1806
 8998SOL    HW238454   1.038   2.746   2.751  2.6956  1.5164 -0.8283
 8999SOL     OW38455   2.489   2.018   7.497  0.2352  0.0737 -0.0189
 8999SOL    HW138456   2.515   1.993   7.586  0.3081  1.3206  0.3067
 8999SOL    HW238457   2.570   2.060   7.468  1.2325 -1.9931 -0.2476
 9000SOL     OW38458   0.629   3.518  12.289  0.7427  0.5456  0.0254
 9000SOL    HW138459   0.717   3.498  12.321  0.7977 -0.0101 -0.4798
 9000SOL    HW238460   0.647   3.579  12.218  0.5378  0.2552 -0.2741
 9001SOL     OW38461   1.647   0.303   2.050  0.0811  0.1860 -0.8371
 9001SOL    HW138462   1.572   0.263   2.094  0.7379  1.7048  1.6445
 9001SOL    HW238463   1.709   0.279   2.119 -1.8161 -0.5001  0.6423
 9002SOL     OW38464   0.459   1.913   7.954 -0.4858  0.2318 -0.2308
 9002SOL    HW138465   0.454   1.990   7.898 -1.4369  1.6665  1.8247
 9002SOL    HW238466   0.493   1.962   8.029  2.5975 -1.9010 -0.2019
 9003SOL     OW38467   3.253   0.948   4.696  0.1556 -0.4646 -0.8904
 9003SOL    HW138468   3.176   0.910   4.739 -0.8152  1.6951 -0.7155
 9003SOL    HW238469   3.313   0.875   4.712  1.0183  0.5344  0.3249
 9004SOL     OW38470   3.038   2.658   6.869  0.4829 -0.3474 -0.1477
 9004SOL    HW138471   3.106   2.606   6.913 -0.2064 -1.9444 -0.9507
 9004SOL    HW238472   3.095   2.725   6.833  0.8497 -0.5811 -0.0057
 9005SOL     OW38473   0.381   0.209   7.448  0.1194 -0.1038  0.4821
 9005SOL    HW138474   0.429   0.133   7.481 -1.0066 -1.2402 -0.4933
 9005SOL    HW238475   0.343   0.185   7.363  1.6413 -0.4907 -0.0985
 9006SOL     OW38476   2.410   1.224   5.353 -0.2638  0.2441 -0.1792
 9006SOL    HW138477   2.446   1.300   5.307  1.2988  0.6257  1.6504
 9006SOL    HW238478   2.344   1.263   5.410  0.7245 -0.2929  1.3184
 9007SOL     OW38479   0.347   0.467   0.027 -0.8683  0.3971 -0.6738
 9007SOL    HW138480   0.399   0.389   0.009 -0.8815  1.0885 -3.8086
 9007SOL    HW238481   0.260   0.432   0.043 -0.3681 -0.7518 -0.4758
 9008SOL     OW38482   2.111   4.585  15.424 -0.8909  0.5601  0.3345
 9008SOL    HW138483   2.104   4.600  15.518  1.5090  0.2930  0.5715
 9008SOL    HW238484   2.033   4.625  15.386 -0.4600  0.5953 -0.5148
 9009SOL     OW38485   1.068   0.192   3.497 -0.0311  0.2438 -0.0832
 9009SOL    HW138486   1.103   0.235   3.419  0.2532 -0.3472 -0.2838
 9009SOL    HW238487   1.133   0.213   3.564 -0.2459  2.0058 -0.4287
 9010SOL     OW38488   0.253   1.354   5.474  0.3922  0.0890 -0.5077
 9010SOL    HW138489   0.303   1.436   5.473 -0.5562  0.6938  1.9092
 9010SOL    HW238490   0.194   1.366   5.399  0.4781 -0.6744 -0.6947
 9011SOL     OW38491   3.243   2.990   6.522  0.1453 -0.5687 -0.0633
 9011SOL    HW138492   3.319   2.935   6.503 -0.2651 -0.9265 -0.6943
 9011SOL    HW238493   3.179   2.922   6.543  1.8454 -2.6467 -1.6457
 9012SOL     OW38494   0.780   2.987  13.919 -0.0935 -0.8536  0.7410
 9012SOL    HW138495   0.869   2.983  13.884 -0.7903  1.2898 -1.2137
 9012SOL    HW238496   0.772   2.894  13.937  2.0708 -0.8806  1.6735
 9013SOL     OW38497   2.778   1.133   5.902  0.3920 -0.9217  0.1405
 9013SOL    HW138498   2.829   1.135   5.983 -0.0512 -2.2124  0.4387
 9013SOL    HW238499   2.738   1.220   5.901  0.9469 -0.6739 -0.2041
 9014SOL     OW38500   1.052   2.633   3.490 -0.1234  0.6658 -0.6125
 9014SOL    HW138501   1.139   2.648   3.452 -0.2574  1.6629 -0.5194
 9014SOL    HW238502   1.082   2.618   3.580 -0.7820  0.4576 -0.4297
 9015SOL     OW38503   3.098   3.151   0.698 -0.3316 -0.3231 -0.2939
 9015SOL    HW138504   3.075   3.107   0.616 -0.7446 -2.3984  0.9502
 9015SOL    HW238505   3.154   3.086   0.741  0.1127  0.8506  0.8948
 9016SOL     OW38506   0.803   4.200   3.673  0.4120  0.6670  0.1321
 9016SOL    HW138507   0.800   4.294   3.690 -2.4980  0.4588  0.7911
 9016SOL    HW238508   0.734   4.202   3.607  1.1268  0.4941 -0.6227
 9017SOL     OW38509   0.410   2.898   7.078 -0.4875  0.2496  0.2718
 9017SOL    HW138510   0.316   2.905   7.098 -0.4222 -0.2329  0.7240
 9017SOL    HW238511   0.406   2.882   6.983 -0.9096 -0.7469  0.4621
 9018SOL     OW38512   2.223   2.086   7.548 -0.7485 -0.5631  0.4275
 9018SOL    HW138513   2.230   2.090   7.644 -0.1106  1.8565  0.2798
 9018SOL    HW238514   2.316   2.075   7.526 -0.6724  2.4161 -0.6257
 9019SOL     OW38515   2.417   2.638   1.729  0.3367  0.0682  0.4927
 9019SOL    HW138516   2.327   2.622   1.701  1.7146 -1.2166 -3.1740
 9019SOL    HW238517   2.418   2.729   1.759 -1.6219  0.1790  0.2062
 9020SOL     OW38518   1.573   1.220   8.269  0.4097  0.0429  0.1662
 9020SOL    HW138519   1.628   1.195   8.344  1.0817 -0.2269 -0.4173
 9020SOL    HW238520   1.640   1.283   8.239 -0.2276  1.1175  0.9791
 9021SOL     OW38521   1.180   0.704  11.761  0.1714  0.0718  0.2676
 9021SOL    HW138522   1.086   0.710  11.777 -0.3898 -0.8116 -2.6400
 9021SOL    HW238523   1.176   0.639  11.691 -1.8784  2.5532 -1.9168
 9022SOL     OW38524   0.334   2.126   3.105  0.7012  0.2541  0.0216
 9022SOL    HW138525   0.336   2.217   3.077 -2.9039  0.3559  0.0811
 9022SOL    HW238526   0.290   2.087   3.030  0.3552  0.7915 -0.0559
 9023SOL     OW38527   0.677   4.621   3.548 -0.6023  0.6883 -0.7665
 9023SOL    HW138528   0.614   4.600   3.617 -0.3614 -2.3090 -1.4657
 9023SOL    HW238529   0.700   4.538   3.506  1.8648  1.4012 -0.7835
 9024SOL     OW38530   1.419   2.538   2.131 -0.6379  0.1479  0.5597
 9024SOL    HW138531   1.376   2.562   2.049  0.9765  0.2279 -0.2511
 9024SOL    HW238532   1.340   2.508   2.176 -0.6020  1.4685  1.5154
 9025SOL     OW38533   2.441   1.477   2.839  0.2401 -0.1590  0.3747
 9025SOL    HW138534   2.515   1.532   2.865  0.7996 -0.3704 -0.7779
 9025SOL    HW238535   2.401   1.447   2.920 -0.5512  0.9035  0.3872
 9026SOL     OW38536   1.750   2.156   1.810 -0.2953  0.0208  0.0760
 9026SOL    HW138537   1.656   2.164   1.827  0.0569  0.7044  1.7869
 9026SOL    HW238538   1.768   2.249   1.793 -3.5412  0.5074 -0.7593
 9027SOL     OW38539   0.259   1.751   1.525  0.4820  0.4775  0.0606
 9027SOL    HW138540   0.272   1.661   1.495 -0.0483  0.8418 -1.2705
 9027SOL    HW238541   0.194   1.780   1.461 -0.8306 -0.2406  1.0698
 9028SOL     OW38542   0.936   4.096   6.209  0.7601  0.4571  0.5040
 9028SOL    HW138543   0.861   4.110   6.151 -0.2465 -0.3848  1.6046
 9028SOL    HW238544   0.892   4.069   6.290  0.2360  0.5723  0.2611
 9029SOL     OW38545   1.236   3.753   8.568  0.3958 -0.0127 -0.0646
 9029SOL    HW138546   1.228   3.713   8.481  0.2254  0.0186 -0.0636
 9029SOL    HW238547   1.241   3.673   8.620  0.2033 -0.0848 -0.1535
 9030SOL     OW38548   4.463   2.785  15.852 -0.6394  0.3326 -0.2574
 9030SOL    HW138549   4.479   2.873  15.818  3.7193 -0.8622 -1.2586
 9030SOL    HW238550   4.389   2.806  15.908 -2.4746 -1.1702 -2.1174
 9031SOL     OW38551   2.138   2.345   1.529  0.0612 -1.0619 -0.4912
 9031SOL    HW138552   2.061   2.290   1.513  0.1036 -0.0685 -3.9977
 9031SOL    HW238553   2.189   2.284   1.582  0.8170  1.5188  1.7142
 9032SOL     OW38554   1.326   0.671   3.405  0.4670 -1.0840  0.3163
 9032SOL    HW138555   1.394   0.610   3.377  0.1408 -0.2390 -2.3221
 9032SOL    HW238556   1.307   0.654   3.498  0.5619  0.2566  0.5749
 9033SOL     OW38557   3.056   0.847   6.277 -0.2298 -0.2417 -0.1881
 9033SOL    HW138558   3.106   0.798   6.212 -0.4026  0.5573 -0.9290
 9033SOL    HW238559   3.085   0.937   6.260 -0.9242 -0.1618 -0.9447
 9034SOL     OW38560   3.271   3.273   8.372  0.0708  0.4459  0.3170
 9034SOL    HW138561   3.220   3.287   8.293 -1.6449 -0.6074  1.2441
 9034SOL    HW238562   3.239   3.188   8.400  0.7189  0.7850  2.1008
 9035SOL     OW38563   4.050   1.143  11.703 -0.0710 -0.1939 -0.2941
 9035SOL    HW138564   3.978   1.081  11.698  0.3497 -0.6171 -1.0941
 9035SOL    HW238565   4.042   1.189  11.787  0.0749  0.6563 -0.7480
 9036SOL     OW38566   3.807   4.575   5.882 -0.5316 -0.6024  0.0964
 9036SOL    HW138567   3.752   4.652   5.893 -0.8443 -0.9184  0.7460
 9036SOL    HW238568   3.890   4.615   5.854 -0.7243 -0.4037 -0.1881
 9037SOL     OW38569   3.284   1.812   3.027  0.5361  0.0724  0.1805
 9037SOL    HW138570   3.357   1.850   3.078 -1.2918  2.5193  0.9776
 9037SOL    HW238571   3.319   1.819   2.939 -0.0993 -1.3631 -0.1839
 9038SOL     OW38572   4.344   1.543   4.197 -0.6398 -0.2319 -0.5919
 9038SOL    HW138573   4.382   1.455   4.188  0.6916  0.2779  0.0475
 9038SOL    HW238574   4.388   1.597   4.131  0.6579  1.0510  1.3272
 9039SOL     OW38575   1.031   3.244   6.362 -0.4948  0.1985 -0.3545
 9039SOL    HW138576   1.066   3.329   6.389 -0.1875  0.2144 -0.8013
 9039SOL    HW238577   0.939   3.243   6.388 -0.8926  2.0287 -1.6600
 9040SOL     OW38578   2.441   0.747   9.907 -0.0972 -0.1558 -0.2518
 9040SOL    HW138579   2.427   0.700   9.989  0.8783  1.1874  0.7035
 9040SOL    HW238580   2.429   0.683   9.837  3.0253  0.4208 -1.3033
 9041SOL     OW38581   3.913   4.407   9.544  0.6418  0.5658 -0.3752
 9041SOL    HW138582   3.975   4.341   9.515  1.6731  2.3089 -2.0722
 9041SOL    HW238583   3.948   4.429   9.630 -0.3585 -0.1747  0.2260
 9042SOL     OW38584   3.250   3.445   4.622 -0.1308  0.0085  0.1734
 9042SOL    HW138585   3.331   3.402   4.594 -0.1640  0.3918 -0.5011
 9042SOL    HW238586   3.268   3.458   4.715 -0.3479 -0.3388  0.2660
 9043SOL     OW38587   4.286   2.171   5.877 -0.1664 -0.8016  0.4128
 9043SOL    HW138588   4.298   2.076   5.871 -1.1705 -0.7737 -2.0394
 9043SOL    HW238589   4.216   2.179   5.941 -1.2254  0.9511 -0.9623
 9044SOL     OW38590   2.459   2.905   7.935  0.5850 -0.0707  0.4930
 9044SOL    HW138591   2.528   2.956   7.893 -0.8116  2.1882  0.9312
 9044SOL    HW238592   2.456   2.840   7.865 -0.8044 -0.3679  0.8346
 9045SOL     OW38593   3.509   3.021   0.678 -0.3299  0.8016  0.5493
 9045SOL    HW138594   3.492   2.929   0.658  1.7280  0.7982 -1.1513
 9045SOL    HW238595   3.585   3.017   0.736  0.6893 -0.1894 -0.8535
 9046SOL     OW38596   4.183   4.034  16.344  0.3771  0.2226  0.6400
 9046SOL    HW138597   4.211   4.001  16.429  1.5791 -0.0715  0.1263
 9046SOL    HW238598   4.164   3.950  16.303  0.6180  1.5980 -2.3265
 9047SOL     OW38599   3.094   2.217   9.748  0.1092  0.3523  0.5197
 9047SOL    HW138600   3.104   2.158   9.822 -6.2331 -2.2675 -0.7087
 9047SOL    HW238601   3.100   2.301   9.793  0.0424 -1.3457  3.7105
 9048SOL     OW38602   3.238   3.470   6.062 -0.1055  0.3994  0.2254
 9048SOL    HW138603   3.226   3.485   6.156 -1.4355 -1.3096  0.3161
 9048SOL    HW238604   3.151   3.445   6.031  0.1142 -1.5790  1.2118
 9049SOL     OW38605   3.956   1.276   1.169  0.4412 -0.1100 -0.2389
 9049SOL    HW138606   4.003   1.346   1.214 -0.0744 -0.4114  0.7716
 9049SOL    HW238607   4.009   1.201   1.197  0.6229 -0.0323 -0.3711
 9050SOL     OW38608   3.852   3.710   2.546  0.4991  0.5373 -0.5687
 9050SOL    HW138609   3.919   3.737   2.609  0.0778  1.8311 -0.6765
 9050SOL    HW238610   3.796   3.788   2.552  0.8717  0.6360  1.3927
 9051SOL     OW38611   4.613   2.563  16.626  0.8594  0.2886 -0.0412
 9051SOL    HW138612   4.560   2.642  16.635  0.8963  0.1121  1.6447
 9051SOL    HW238613   4.694   2.590  16.670  2.4181 -0.3892 -2.4900
 9052SOL     OW38614   3.548   4.122  14.745 -0.3849  0.0134  0.2640
 9052SOL    HW138615   3.602   4.079  14.811  2.2284  0.5131 -1.5066
 9052SOL    HW238616   3.552   4.052  14.679  1.0613 -0.2422  0.6264
 9053SOL     OW38617   3.314   2.476   3.100  0.3334 -0.3978  0.3709
 9053SOL    HW138618   3.349   2.408   3.042 -2.4249 -1.0330 -0.5342
 9053SOL    HW238619   3.300   2.547   3.037  1.0644 -0.7129 -0.1480
 9054SOL     OW38620   4.178   0.482   0.932 -0.8832 -0.7220  0.8341
 9054SOL    HW138621   4.125   0.544   0.981  0.4173 -1.0760  2.6950
 9054SOL    HW238622   4.263   0.524   0.948 -1.4645  0.9231 -0.3577
 9055SOL     OW38623   0.399   2.972   1.831  0.0855 -0.6064  0.4748
 9055SOL    HW138624   0.357   3.054   1.806  0.7515 -0.5425 -0.4486
 9055SOL    HW238625   0.464   2.948   1.764  1.8316  1.0757  1.5333
 9056SOL     OW38626   1.304   4.328   3.331  0.1926  0.4796  0.2297
 9056SOL    HW138627   1.222   4.283   3.313 -0.0169  0.1187  2.0969
 9056SOL    HW238628   1.361   4.255   3.355  0.7040  1.6125  2.4525
 9057SOL     OW38629   2.217   3.324   1.908  0.0589 -0.1272  0.1337
 9057SOL    HW138630   2.172   3.349   1.828 -0.4910 -1.4003  0.0422
 9057SOL    HW238631   2.239   3.410   1.944  0.2470  0.1349 -0.6165
 9058SOL     OW38632   1.341   3.900  12.607  0.0035  0.2721  0.6389
 9058SOL    HW138633   1.327   3.994  12.611 -1.3053  0.0178  1.8177
 9058SOL    HW238634   1.259   3.859  12.633 -1.0262  0.4174 -2.3952
 9059SOL     OW38635   1.065   0.417  16.687  0.5326  0.2786 -0.2113
 9059SOL    HW138636   1.052   0.349  16.621 -2.3135  2.2161 -1.6282
 9059SOL    HW238637   0.985   0.468  16.676 -0.4132 -1.4690 -1.4509
 9060SOL     OW38638   3.505   1.353   3.937 -0.1697 -0.2714 -0.5318
 9060SOL    HW138639   3.485   1.367   3.845 -1.3103  3.6865  0.3307
 9060SOL    HW238640   3.472   1.428   3.987 -1.8696 -0.8431 -0.8019
 9061SOL     OW38641   3.802   1.546  11.490 -0.1625  0.0671  0.1784
 9061SOL    HW138642   3.743   1.585  11.555  1.2613  0.5661  1.1652
 9061SOL    HW238643   3.865   1.618  11.489 -1.3677  1.0708 -2.4840
 9062SOL     OW38644   1.469   2.113   1.835  0.0004 -0.0649  0.5605
 9062SOL    HW138645   1.447   2.064   1.913  0.1593 -1.3962 -0.2344
 9062SOL    HW238646   1.420   2.061   1.772 -0.7888 -0.1823  1.2814
 9063SOL     OW38647   0.911   2.029   4.288 -0.5160  0.1868 -0.0468
 9063SOL    HW138648   0.903   1.941   4.324  0.4506  0.3254  0.4763
 9063SOL    HW238649   0.990   2.018   4.236 -1.2842  1.5067 -1.5137
 9064SOL     OW38650   2.569   1.272  16.838  0.0314  0.0431 -0.1817
 9064SOL    HW138651   2.612   1.238  16.759 -1.5519 -1.0175 -0.5998
 9064SOL    HW238652   2.484   1.291  16.798 -0.4402 -2.8074 -0.5301
 9065SOL     OW38653   2.394   3.004   4.224  0.0217 -0.2415 -0.4555
 9065SOL    HW138654   2.444   3.063   4.168 -1.8236 -0.2502 -2.1387
 9065SOL    HW238655   2.309   2.996   4.180 -0.3464 -1.5180  0.5021
 9066SOL     OW38656   4.646   4.529   5.207  0.0707  0.0374  0.3071
 9066SOL    HW138657   4.630   4.619   5.180 -0.1030  0.1188  0.6919
 9066SOL    HW238658   4.569   4.512   5.261  1.0314 -0.0165  1.6702
 9067SOL     OW38659   3.583   1.987  15.678 -0.5940  0.2110  0.2883
 9067SOL    HW138660   3.633   1.909  15.704  1.3061  1.3250 -0.0811
 9067SOL    HW238661   3.639   2.027  15.612  0.8774  0.7791  1.8725
 9068SOL     OW38662   3.605   3.034   5.488  0.0447 -0.1613  0.1164
 9068SOL    HW138663   3.582   3.051   5.397  0.5213  0.1284  0.0517
 9068SOL    HW238664   3.607   3.119   5.532  0.1885  0.0255 -0.2492
 9069SOL     OW38665   2.195   0.824   8.640  0.6916  0.1812  0.7840
 9069SOL    HW138666   2.257   0.770   8.591 -2.2934  0.3515 -3.1385
 9069SOL    HW238667   2.115   0.772   8.624  0.2137 -0.1001  3.9937
 9070SOL     OW38668   1.235   0.240   8.570  0.3265  0.7716  0.3128
 9070SOL    HW138669   1.253   0.168   8.509 -1.1420  1.5844 -1.0677
 9070SOL    HW238670   1.140   0.233   8.578  0.1807 -0.4392 -2.2699
 9071SOL     OW38671   1.728   1.831   0.724  0.3426  0.6214  0.1022
 9071SOL    HW138672   1.763   1.765   0.784  2.1134  0.9812 -0.5118
 9071SOL    HW238673   1.722   1.908   0.780 -1.8886 -0.8941  1.9442
 9072SOL     OW38674   4.325   2.573  16.383  0.3760  0.2069  0.5370
 9072SOL    HW138675   4.403   2.578  16.328  0.3581  0.4727  0.5371
 9072SOL    HW238676   4.338   2.491  16.431 -1.0701 -0.1500  0.3025
 9073SOL     OW38677   0.098   1.989   2.644  0.1275 -0.1561  0.3989
 9073SOL    HW138678   0.028   1.926   2.628  0.3904 -0.5201  0.6565
 9073SOL    HW238679   0.061   2.066   2.602  2.7734  0.2519 -1.1670
 9074SOL     OW38680   4.480   2.899   9.047  0.1238 -0.2723  0.4078
 9074SOL    HW138681   4.454   2.843   8.973 -1.3426 -0.7551  1.2931
 9074SOL    HW238682   4.557   2.854   9.082 -0.9309 -1.8991  0.6475
 9075SOL     OW38683   2.750   2.629  15.382  1.0343  0.5306  0.5779
 9075SOL    HW138684   2.804   2.566  15.429 -1.0760  0.3959  2.7878
 9075SOL    HW238685   2.787   2.616  15.295 -1.3430 -0.2618 -0.3377
 9076SOL     OW38686   1.917   2.130   6.502  0.1515 -0.4120 -0.5762
 9076SOL    HW138687   1.824   2.134   6.477 -0.3689  1.2361  1.6380
 9076SOL    HW238688   1.924   2.037   6.478 -1.6280 -1.1499  1.7513
 9077SOL     OW38689   1.069   2.766   6.829  0.1100  0.5399  0.5214
 9077SOL    HW138690   1.141   2.774   6.767 -2.1966 -1.7327 -2.3848
 9077SOL    HW238691   1.029   2.849   6.803 -0.3574  0.8337  2.1550
 9078SOL     OW38692   3.095   0.866   5.332 -0.2989  0.0077  0.0295
 9078SOL    HW138693   3.025   0.805   5.356  0.4127  0.0286  2.1699
 9078SOL    HW238694   3.088   0.853   5.237 -0.8602 -1.1660  0.2350
 9079SOL     OW38695   2.687   4.123   7.381 -0.1611 -0.2670 -0.1045
 9079SOL    HW138696   2.603   4.089   7.351  0.4016 -1.1695 -0.6501
 9079SOL    HW238697   2.693   4.199   7.322 -0.7035 -0.5036 -0.4638
 9080SOL     OW38698   1.013   1.916   2.539 -0.5016  0.2039  0.2421
 9080SOL    HW138699   1.009   1.820   2.540  0.9744  0.1539  1.3138
 9080SOL    HW238700   1.103   1.922   2.506 -0.7084  1.2921 -0.1101
 9081SOL     OW38701   1.501   3.455  10.510 -0.5729  0.2310 -0.1766
 9081SOL    HW138702   1.444   3.389  10.549  0.8186 -0.2416  1.0559
 9081SOL    HW238703   1.534   3.497  10.590  2.2328 -0.9193 -0.7289
 9082SOL     OW38704   2.738   2.008   5.604  0.0324  0.2520  0.1254
 9082SOL    HW138705   2.718   2.102   5.599  3.0918  0.7396 -2.3517
 9082SOL    HW238706   2.812   2.004   5.544 -0.1810  0.7613 -0.1740
 9083SOL     OW38707   1.280   1.681   5.823 -0.3778  0.0821 -0.3212
 9083SOL    HW138708   1.323   1.616   5.878 -2.3278 -0.7041  0.2864
 9083SOL    HW238709   1.267   1.619   5.751 -1.1539  0.9827 -0.9516
 9084SOL     OW38710   4.652   4.110   3.926  0.1735 -0.0508 -0.1498
 9084SOL    HW138711   4.676   4.068   3.844 -1.2842 -0.2136 -0.4975
 9084SOL    HW238712   4.687   4.197   3.906 -1.2341  1.2242  2.9448
 9085SOL     OW38713   1.084   2.318  17.594 -0.1570 -0.2381  0.3266
 9085SOL    HW138714   1.114   2.400  17.634  0.6136  0.1007 -0.9709
 9085SOL    HW238715   1.066   2.338  17.503 -2.2184  0.9810  1.0104
 9086SOL     OW38716   2.094   1.109   5.361 -0.2160  0.2535  0.2577
 9086SOL    HW138717   2.049   1.125   5.444 -0.4144  2.4607 -0.2716
 9086SOL    HW238718   2.127   1.021   5.380  3.7090  1.4774 -0.9664
 9087SOL     OW38719   4.646   1.566   4.151  0.4506 -0.1763  0.2793
 9087SOL    HW138720   4.601   1.532   4.229 -0.9853  2.9780  0.8233
 9087SOL    HW238721   4.597   1.535   4.074  2.5555 -1.1617 -0.6538
 9088SOL     OW38722   1.801   3.345   5.712  0.3042  0.3094  0.3712
 9088SOL    HW138723   1.796   3.281   5.783  0.0903  1.0871  1.0535
 9088SOL    HW238724   1.845   3.295   5.643 -0.1917  0.7744 -0.2895
 9089SOL     OW38725   0.147   3.425  10.654 -0.0382  0.3297  0.1065
 9089SOL    HW138726   0.120   3.341  10.616 -0.9813  0.1692  1.1412
 9089SOL    HW238727   0.177   3.460  10.570  1.9731  1.9213  1.4792
 9090SOL     OW38728   1.513   2.865   1.492 -0.2966  0.1737  0.1140
 9090SOL    HW138729   1.524   2.859   1.398 -1.3725  0.1622 -0.0152
 9090SOL    HW238730   1.596   2.823   1.516 -0.8866 -1.6034 -0.9705
 9091SOL     OW38731   3.113   2.594   1.532  0.3763 -0.6067  0.4898
 9091SOL    HW138732   3.115   2.667   1.470 -1.2637 -0.6201  0.4268
 9091SOL    HW238733   3.178   2.533   1.496  1.2928 -0.2395  1.5231
 9092SOL     OW38734   4.217   3.248   8.754 -0.2217 -0.0132 -0.2880
 9092SOL    HW138735   4.285   3.287   8.810  2.6827 -2.8047 -1.8367
 9092SOL    HW238736   4.253   3.160   8.738  3.6844  1.5971 -0.2932
 9093SOL     OW38737   1.902   1.326  17.086  0.2108 -0.1723 -0.1203
 9093SOL    HW138738   1.950   1.249  17.055  1.2884 -0.3083  1.8931
 9093SOL    HW238739   1.917   1.383  17.010  0.5882 -0.0145  0.0698
 9094SOL     OW38740   0.350   1.058   2.252  0.1051 -0.2078 -0.1765
 9094SOL    HW138741   0.293   0.992   2.291  1.3396 -0.5259  1.0987
 9094SOL    HW238742   0.287   1.113   2.205 -0.2986  0.6520  1.3616
 9095SOL     OW38743   4.315   4.591   3.328 -0.6787  0.6405 -0.1497
 9095SOL    HW138744   4.351   4.652   3.264  1.1054 -3.0793 -2.6785
 9095SOL    HW238745   4.256   4.537   3.275 -1.9927  1.0712  0.8839
 9096SOL     OW38746   1.630   0.176  15.352 -0.1873  0.6981 -0.0073
 9096SOL    HW138747   1.555   0.232  15.372 -1.6688  0.2262 -4.2763
 9096SOL    HW238748   1.687   0.196  15.426 -1.7524  0.4748  1.2542
 9097SOL     OW38749   0.204   3.563  14.260 -0.5409  0.3251  0.0933
 9097SOL    HW138750   0.157   3.494  14.213  0.2501 -1.4788  1.9124
 9097SOL    HW238751   0.198   3.633  14.195  0.9774  0.9981  0.6769
 9098SOL     OW38752   3.113   0.443   4.662  0.0710 -0.3151 -0.1665
 9098SOL    HW138753   3.089   0.453   4.754 -1.4693 -1.4788 -0.4365
 9098SOL    HW238754   3.046   0.383   4.630 -0.6725 -0.0390  0.8645
 9099SOL     OW38755   2.519   0.158   2.356 -0.0839  0.4014  0.1888
 9099SOL    HW138756   2.491   0.248   2.340  1.4072  0.6701 -0.9511
 9099SOL    HW238757   2.477   0.137   2.440 -0.5454  0.9571  0.0933
 9100SOL     OW38758   0.066   2.790   8.273  0.3195 -0.0122 -0.0374
 9100SOL    HW138759   4.712   2.741   8.303 -0.1276  1.1975  0.7922
 9100SOL    HW238760   0.078   2.856   8.341 -0.7423 -1.8818  1.9860
 9101SOL     OW38761   4.185   1.197   9.889  0.3092 -0.6535  0.3089
 9101SOL    HW138762   4.134   1.156   9.959 -0.5306  1.4180  0.9080
 9101SOL    HW238763   4.238   1.255   9.944  0.9571  0.0642 -1.0865
 9102SOL     OW38764   4.078   1.322   0.617 -0.3641 -0.0380  0.4887
 9102SOL    HW138765   3.994   1.277   0.629 -0.3226 -0.0091  0.9046
 9102SOL    HW238766   4.063   1.407   0.657 -0.2812  0.1800  0.0556
 9103SOL     OW38767   4.093   1.552  12.585  1.0728  0.0185  0.4421
 9103SOL    HW138768   4.114   1.506  12.504  1.6609 -0.6101  0.9466
 9103SOL    HW238769   4.104   1.640  12.550  1.0486  0.2582  1.0249
 9104SOL     OW38770   3.250   4.253   5.639  0.4237 -0.0724 -0.2448
 9104SOL    HW138771   3.314   4.320   5.665  0.5288  0.1690 -1.1474
 9104SOL    HW238772   3.267   4.198   5.716 -1.7197  0.5747  0.6922
 9105SOL     OW38773   1.829   2.056  17.509 -0.5550  0.1591 -0.4982
 9105SOL    HW138774   1.763   2.092  17.568 -0.8067  0.2833 -0.8530
 9105SOL    HW238775   1.779   2.022  17.435  2.1014  1.4931 -2.9540
 9106SOL     OW38776   3.315   0.135  13.248 -0.1612  0.3539  0.1762
 9106SOL    HW138777   3.398   0.135  13.295  0.5279 -1.8774 -1.0265
 9106SOL    HW238778   3.262   0.201  13.294 -0.2145 -1.6966  3.0832
 9107SOL     OW38779   0.722   0.582   2.000 -0.0552  0.1242 -0.1268
 9107SOL    HW138780   0.721   0.527   2.079 -0.0055  0.1615 -0.1003
 9107SOL    HW238781   0.631   0.565   1.976 -0.2393  0.6105  0.2185
 9108SOL     OW38782   3.614   2.914   2.232  0.5045 -0.5177  0.5538
 9108SOL    HW138783   3.532   2.917   2.184 -0.1989  0.8839  1.8344
 9108SOL    HW238784   3.583   2.852   2.298 -0.3021 -0.0679  0.6000
 9109SOL     OW38785   0.030   3.528   5.159 -0.2215  0.5775  0.0038
 9109SOL    HW138786   0.098   3.583   5.121  1.1801  1.7212  4.2429
 9109SOL    HW238787   0.045   3.555   5.249 -1.8567 -1.5764  0.9186
 9110SOL     OW38788   0.213   2.848   5.506 -0.3620 -0.1545  0.7676
 9110SOL    HW138789   0.139   2.830   5.564 -2.6397  0.7487 -1.8497
 9110SOL    HW238790   0.258   2.765   5.523  0.2228 -0.2266 -1.1735
 9111SOL     OW38791   2.041   3.472   8.084  0.4364 -0.7538  0.3852
 9111SOL    HW138792   2.032   3.443   8.175 -2.1544  0.0258  0.3590
 9111SOL    HW238793   2.121   3.426   8.058  0.9396  1.2867 -1.6598
 9112SOL     OW38794   4.253   4.505  12.111  0.4952  0.6108 -0.4247
 9112SOL    HW138795   4.200   4.434  12.077 -3.0189  2.9426  0.2305
 9112SOL    HW238796   4.288   4.455  12.185 -1.2846  0.1590  0.0891
 9113SOL     OW38797   0.526   0.918   2.758  0.2944 -0.0450 -0.3838
 9113SOL    HW138798   0.573   0.868   2.691  1.0809 -1.8181  1.5125
 9113SOL    HW238799   0.497   0.989   2.700 -1.4302  1.5166  2.4305
 9114SOL     OW38800   2.971   4.419   8.890 -0.3024 -0.9590  0.0721
 9114SOL    HW138801   2.918   4.493   8.922  1.0940  0.8385 -1.7759
 9114SOL    HW238802   3.014   4.463   8.817 -0.6797 -0.2688  0.2631
 9115SOL     OW38803   0.617   1.921   4.559  0.5811  0.5122  0.0381
 9115SOL    HW138804   0.583   1.862   4.492 -0.0711  2.1738 -1.0603
 9115SOL    HW238805   0.595   1.869   4.636  2.8486 -1.3172 -0.5295
 9116SOL     OW38806   2.712   0.712  16.039 -0.1464 -0.0692  0.2122
 9116SOL    HW138807   2.652   0.720  16.113 -1.4905  3.3783 -1.2410
 9116SOL    HW238808   2.651   0.693  15.967 -0.2447  1.2052 -0.0480
 9117SOL     OW38809   3.078   2.886   8.651 -0.1792 -0.0506  0.1806
 9117SOL    HW138810   3.117   2.803   8.679 -0.9410 -0.1775  0.8494
 9117SOL    HW238811   2.986   2.863   8.642 -0.3435  0.9758 -0.7603
 9118SOL     OW38812   4.354   1.223   6.624  0.0752 -0.3262  0.6306
 9118SOL    HW138813   4.396   1.264   6.700 -3.3661  2.4760  1.0300
 9118SOL    HW238814   4.418   1.152   6.615  0.2533 -0.4444  2.9632
 9119SOL     OW38815   3.284   1.793   4.196  0.2975 -0.6272  0.8563
 9119SOL    HW138816   3.256   1.831   4.112 -1.1946  1.0093  2.0964
 9119SOL    HW238817   3.233   1.839   4.262 -0.2799 -0.0638  0.0215
 9120SOL     OW38818   3.143   0.838   4.212 -0.4301  0.5604  0.7787
 9120SOL    HW138819   3.064   0.840   4.159  0.4551 -1.4251 -0.5837
 9120SOL    HW238820   3.206   0.828   4.141 -1.6574  0.5479 -0.3008
 9121SOL     OW38821   1.863   1.867   7.853 -0.4836 -0.9144 -0.1772
 9121SOL    HW138822   1.809   1.788   7.857 -2.3754  0.4436  1.1169
 9121SOL    HW238823   1.795   1.933   7.844 -0.1912 -0.3693  1.7305
 9122SOL     OW38824   1.735   2.086   1.258 -0.3398 -0.6075 -0.5418
 9122SOL    HW138825   1.697   2.085   1.346 -0.5911 -0.7963 -0.6532
 9122SOL    HW238826   1.829   2.099   1.269 -0.1680 -1.9165 -0.3562
 9123SOL     OW38827   0.040   4.384   6.470 -0.0136 -0.0730  0.0527
 9123SOL    HW138828   0.131   4.389   6.499  0.5715 -2.6307 -1.4067
 9123SOL    HW238829   0.036   4.295   6.437 -0.0225 -0.0116 -0.1118
 9124SOL     OW38830   1.987   4.665   3.781 -0.2725  0.5522 -0.4786
 9124SOL    HW138831   2.040   4.608   3.726  1.4029  1.8262 -0.1903
 9124SOL    HW238832   1.924   4.605   3.820 -0.3258  1.0524  0.1997
 9125SOL     OW38833   3.492   3.939   6.003  0.3294  0.0030  0.2863
 9125SOL    HW138834   3.565   3.927   6.064  0.0453 -1.0085  0.4230
 9125SOL    HW238835   3.471   3.848   5.982  0.5913 -0.0205  0.1122
 9126SOL     OW38836   2.606   1.273   9.873  0.2390  0.5861  0.4138
 9126SOL    HW138837   2.598   1.234   9.960  0.5721  0.0343  0.1946
 9126SOL    HW238838   2.636   1.201   9.818  0.7665  0.3657  0.9861
 9127SOL     OW38839   3.402   3.659   8.032 -0.0453  0.0009 -0.1446
 9127SOL    HW138840   3.427   3.580   7.983  0.9418  0.8176 -0.9560
 9127SOL    HW238841   3.472   3.656   8.097  2.8876  2.9840 -3.1829
 9128SOL     OW38842   0.266   1.677   6.546 -0.1471  0.3122 -0.2232
 9128SOL    HW138843   0.220   1.729   6.480  1.5878  1.0943 -0.8059
 9128SOL    HW238844   0.357   1.704   6.534 -0.8101  2.1902 -1.0141
 9129SOL     OW38845   3.780   4.357   6.069  0.1643  0.2331 -0.7716
 9129SOL    HW138846   3.690   4.361   6.100 -0.0508 -0.3181 -1.3151
 9129SOL    HW238847   3.783   4.438   6.018  0.0488  0.1330 -0.9383
 9130SOL     OW38848   1.475   2.340   4.107  0.3805  0.4194  0.6388
 9130SOL    HW138849   1.479   2.435   4.097  1.3696  0.4846  1.6831
 9130SOL    HW238850   1.387   2.317   4.078  0.3433  1.5203 -0.1025
 9131SOL     OW38851   4.169   4.640  13.828 -0.2259  0.1764  0.0081
 9131SOL    HW138852   4.226   4.574  13.791  0.7941 -0.4584  2.7068
 9131SOL    HW238853   4.208   4.711  13.778  1.3792 -1.5189 -1.1386
 9132SOL     OW38854   0.055   2.034  12.809 -0.4254 -0.0021 -0.2569
 9132SOL    HW138855   0.066   2.040  12.904  0.8902  1.3581 -0.4845
 9132SOL    HW238856   0.023   2.122  12.791 -0.3321  0.3490  1.2827
 9133SOL     OW38857   0.526   2.848  13.307 -0.1296 -0.2721 -0.4578
 9133SOL    HW138858   0.592   2.869  13.373 -0.7759 -0.3830  0.2299
 9133SOL    HW238859   0.585   2.838  13.233 -0.0000 -0.4605 -0.3289
 9134SOL     OW38860   3.532   3.539   0.230 -0.1864 -0.4271 -0.5780
 9134SOL    HW138861   3.437   3.524   0.226 -0.3978  0.5232  0.8786
 9134SOL    HW238862   3.567   3.473   0.289  0.5903  0.7121  0.2264
 9135SOL     OW38863   0.878   0.091   8.210 -0.3510  0.2717 -0.1469
 9135SOL    HW138864   0.830   0.030   8.266 -2.0151  0.7095 -1.1009
 9135SOL    HW238865   0.800   0.122   8.166  0.0271  1.5481  0.1012
 9136SOL     OW38866   3.498   2.426   4.776 -0.9437 -0.6058  0.3960
 9136SOL    HW138867   3.420   2.373   4.759 -0.5631 -1.3588  1.0185
 9136SOL    HW238868   3.551   2.367   4.828  0.4548  0.4221  0.1406
 9137SOL     OW38869   4.306   0.953   2.999 -0.1335 -0.0335 -0.2982
 9137SOL    HW138870   4.312   1.014   3.072 -2.3166  0.4282 -0.5068
 9137SOL    HW238871   4.366   0.997   2.939  0.5324  1.8079  1.7180
 9138SOL     OW38872   1.467   0.355   2.661  0.1024 -0.2729  0.1647
 9138SOL    HW138873   1.424   0.412   2.598  1.5220  1.9857  1.2551
 9138SOL    HW238874   1.405   0.319   2.724 -0.5483 -0.6741 -0.7013
 9139SOL     OW38875   2.850   1.158   7.458 -0.9383 -0.0416  0.2146
 9139SOL    HW138876   2.816   1.228   7.513  2.1262  0.6447  1.2535
 9139SOL    HW238877   2.815   1.182   7.372 -2.1382 -1.9998  0.1638
 9140SOL     OW38878   3.805   2.369  13.927 -0.4481 -0.3354 -0.8588
 9140SOL    HW138879   3.729   2.411  13.886 -0.1432  1.2519  0.2103
 9140SOL    HW238880   3.858   2.447  13.940 -0.2744 -0.5195 -0.4775
 9141SOL     OW38881   3.366   3.752   4.155  0.3478  0.7283  0.0594
 9141SOL    HW138882   3.278   3.763   4.119  0.5611  0.8406 -0.4300
 9141SOL    HW238883   3.373   3.662   4.188  3.2540  0.4380 -1.3768
 9142SOL     OW38884   4.360   0.280   2.927  0.3884 -0.3566 -0.1137
 9142SOL    HW138885   4.387   0.268   3.018  1.1993 -0.8506 -0.4199
 9142SOL    HW238886   4.324   0.195   2.904 -0.4681 -0.4591  1.6041
 9143SOL     OW38887   0.666   0.724   3.595 -0.2331  0.0021  0.5410
 9143SOL    HW138888   0.590   0.667   3.581 -0.0896  0.3383 -1.6212
 9143SOL    HW238889   0.706   0.731   3.508 -0.6835  0.2762  0.3531
 9144SOL     OW38890   3.870   2.288   6.975 -0.2101 -0.1450 -0.2967
 9144SOL    HW138891   3.876   2.197   7.006  1.5549 -0.4957 -1.7095
 9144SOL    HW238892   3.857   2.267   6.883 -0.1819  0.6197 -0.4697
 9145SOL     OW38893   2.020   2.339   6.328  0.8815 -0.4641  0.2349
 9145SOL    HW138894   1.988   2.285   6.401 -0.1895 -3.8438 -2.7590
 9145SOL    HW238895   2.066   2.270   6.280  0.0702  0.3078 -1.6264
 9146SOL     OW38896   1.422   0.863  10.493 -0.3941 -0.0736  0.0592
 9146SOL    HW138897   1.382   0.821  10.569 -0.9307  2.8903  1.4086
 9146SOL    HW238898   1.513   0.839  10.511 -0.3252 -1.3091 -1.8903
 9147SOL     OW38899   0.659   1.780   9.046  0.4352  0.1271 -0.1377
 9147SOL    HW138900   0.681   1.836   9.120 -3.6887 -1.2101  2.1095
 9147SOL    HW238901   0.599   1.723   9.094  1.5099 -0.3898  0.5888
 9148SOL     OW38902   0.648   0.063   3.847 -0.0215  0.2425  0.6482
 9148SOL    HW138903   0.714   0.132   3.850 -0.4409  0.8067 -2.9780
 9148SOL    HW238904   0.628   0.054   3.941  0.8557 -0.4012  0.7681
 9149SOL     OW38905   1.793   3.983  12.590 -0.8214 -0.4771  0.0256
 9149SOL    HW138906   1.749   4.029  12.519  0.6680  1.1546  0.1707
 9149SOL    HW238907   1.768   3.892  12.575 -0.5477 -0.3306 -1.3549
 9150SOL     OW38908   1.333   0.725   7.198  0.4878 -0.0284  0.2391
 9150SOL    HW138909   1.405   0.786   7.179 -0.0423  0.8553  1.0635
 9150SOL    HW238910   1.259   0.784   7.181  1.1647  0.3117 -1.5289
 9151SOL     OW38911   3.960   2.958   4.746 -0.2513 -0.4256 -0.2983
 9151SOL    HW138912   3.983   2.870   4.777 -0.4091 -0.1953  0.4550
 9151SOL    HW238913   3.866   2.959   4.763  0.0636 -0.8145  1.4595
 9152SOL     OW38914   0.539   1.171  14.564 -0.3837  0.4045  0.2253
 9152SOL    HW138915   0.631   1.157  14.584 -0.7012 -2.6720 -0.5795
 9152SOL    HW238916   0.520   1.089  14.520 -1.4676 -0.2366  1.8859
 9153SOL     OW38917   1.733   2.138  12.776 -0.3849 -0.4273  0.8148
 9153SOL    HW138918   1.795   2.149  12.848 -0.1681  3.8704 -0.0051
 9153SOL    HW238919   1.665   2.087  12.819  0.5720 -1.6308  0.9060
 9154SOL     OW38920   4.340   3.977   6.802  0.0394  0.3917 -0.0169
 9154SOL    HW138921   4.246   3.977   6.781  0.0068  0.2793  0.1290
 9154SOL    HW238922   4.357   4.069   6.819  1.0172  0.2408 -0.1865
 9155SOL     OW38923   4.272   2.935   4.394  0.2498 -0.0130 -0.0778
 9155SOL    HW138924   4.356   2.944   4.350  0.2957 -0.6946 -0.1324
 9155SOL    HW238925   4.294   2.978   4.477  1.1627 -0.5023 -0.0668
 9156SOL     OW38926   4.156   0.041   3.465  0.2547 -0.4530  0.1883
 9156SOL    HW138927   4.211   4.709   3.409  0.0002 -0.4738 -0.0473
 9156SOL    HW238928   4.135   4.694   3.527  0.8712 -0.9810 -0.1996
 9157SOL     OW38929   3.091   4.534   4.459  0.4132 -0.3685 -0.0534
 9157SOL    HW138930   3.025   4.590   4.418  0.0430  0.6292  1.9492
 9157SOL    HW238931   3.101   4.473   4.386  0.6695 -0.6165  0.1949
 9158SOL     OW38932   2.100   0.133  12.183 -0.3301  0.0120  0.5705
 9158SOL    HW138933   2.189   0.143  12.150 -1.0036  1.5499 -0.8120
 9158SOL    HW238934   2.108   0.167  12.272 -0.9872 -0.2814  0.7424
 9159SOL     OW38935   3.093   1.885   3.892 -0.4616  0.0324  0.1851
 9159SOL    HW138936   3.138   1.944   3.952 -2.3780  0.2422  1.3947
 9159SOL    HW238937   3.157   1.847   3.831  1.5942 -0.1866  2.4527
 9160SOL     OW38938   3.175   2.095   8.982 -0.5403  0.1312 -0.1005
 9160SOL    HW138939   3.184   2.183   9.018 -0.7768 -0.2783  0.9613
 9160SOL    HW238940   3.152   2.055   9.065 -1.9478  0.3780 -0.3827
 9161SOL     OW38941   4.507   2.773   1.398 -0.1530  0.2665  0.0083
 9161SOL    HW138942   4.451   2.806   1.328 -0.6591  0.4137  0.4841
 9161SOL    HW238943   4.510   2.683   1.366  0.1570  0.4739 -0.5343
 9162SOL     OW38944   3.493   1.355   4.256 -0.1742 -0.0295  0.2547
 9162SOL    HW138945   3.432   1.347   4.329  0.2497  2.2141  0.8527
 9162SOL    HW238946   3.458   1.424   4.200  0.0355  1.6126  2.1503
 9163SOL     OW38947   0.995   1.102   6.882 -0.5125  0.3771  0.1279
 9163SOL    HW138948   0.962   1.091   6.971 -0.4101 -2.4648 -0.1890
 9163SOL    HW238949   0.957   1.184   6.852 -1.1082  0.3502  0.7993
 9164SOL     OW38950   4.345   0.583   7.740  0.0914 -0.1861  0.2663
 9164SOL    HW138951   4.315   0.557   7.827  0.2020  0.8662  0.6226
 9164SOL    HW238952   4.381   0.502   7.704  0.2638  0.1969 -0.4488
 9165SOL     OW38953   1.525   2.579   2.721 -0.2645 -0.1560 -0.5115
 9165SOL    HW138954   1.509   2.561   2.814  1.3257  3.2303  0.4263
 9165SOL    HW238955   1.508   2.492   2.684  2.1205 -0.2991 -1.2434
 9166SOL     OW38956   3.271   0.681   7.429  0.0494 -0.2734  0.0605
 9166SOL    HW138957   3.348   0.670   7.485  0.0858  0.9714  0.2582
 9166SOL    HW238958   3.270   0.613   7.361 -2.6910 -1.0013  0.8420
 9167SOL     OW38959   0.470   1.855   7.349  0.0913  0.0552  0.0083
 9167SOL    HW138960   0.390   1.891   7.387  0.2004  0.4401 -0.1260
 9167SOL    HW238961   0.527   1.931   7.344 -1.2957  1.2836  3.3404
 9168SOL     OW38962   3.735   2.321   6.501  0.0834 -0.0216 -0.3379
 9168SOL    HW138963   3.689   2.250   6.544  1.3125 -0.0643  0.9114
 9168SOL    HW238964   3.820   2.289   6.532 -0.4590 -1.3412 -0.2042
 9169SOL     OW38965   3.498   3.288   4.335  0.4783  0.5349  0.3024
 9169SOL    HW138966   3.511   3.301   4.429 -1.0233  0.0089  0.5800
 9169SOL    HW238967   3.564   3.221   4.316  1.2992  1.2271  0.6918
 9170SOL     OW38968   0.055   3.424   6.915  0.4882 -0.1533  0.3782
 9170SOL    HW138969   4.703   3.451   6.968 -0.5175 -0.4267 -0.9068
 9170SOL    HW238970   0.127   3.421   6.978  1.4932 -1.1142 -0.8151
 9171SOL     OW38971   2.627   4.526  11.969 -0.5062 -0.0456  0.0677
 9171SOL    HW138972   2.566   4.474  11.918 -0.2725 -2.7747  2.5847
 9171SOL    HW238973   2.704   4.533  11.913 -0.8978 -2.3507 -0.7287
 9172SOL     OW38974   1.430   0.764  11.025 -0.0656 -0.5156 -0.5370
 9172SOL    HW138975   1.525   0.761  11.027 -0.1304  0.1600  2.6855
 9172SOL    HW238976   1.402   0.673  11.035 -0.5448 -0.3022  0.0630
 9173SOL     OW38977   2.140   0.058   0.713  0.4017 -0.2730  0.2653
 9173SOL    HW138978   2.191   0.139   0.712 -1.0938  0.6792  1.6329
 9173SOL    HW238979   2.054   0.095   0.733  0.1754 -0.6512 -0.0339
 9174SOL     OW38980   0.081   0.983   6.339  0.1505 -0.2277  0.1567
 9174SOL    HW138981   0.087   1.075   6.312 -1.3477 -0.4982 -1.0641
 9174SOL    HW238982   0.152   0.942   6.288  0.0261  0.7377 -0.8018
 9175SOL     OW38983   4.200   3.336   7.177  0.0413  0.0627 -0.0592
 9175SOL    HW138984   4.135   3.266   7.176 -0.5157  0.5685  0.9539
 9175SOL    HW238985   4.144   3.409   7.152 -1.0870  0.2273  2.9958
 9176SOL     OW38986   4.007   1.383   7.510 -0.0367  0.4049 -0.2629
 9176SOL    HW138987   3.959   1.341   7.581  0.5595 -2.1436 -1.3627
 9176SOL    HW238988   4.033   1.462   7.558  1.7167  0.4365 -1.2908
 9177SOL     OW38989   1.412   3.130  11.426 -0.4613 -0.4605 -0.1520
 9177SOL    HW138990   1.397   3.088  11.341 -0.2743 -0.8735  0.0188
 9177SOL    HW238991   1.411   3.058  11.488 -2.0866  0.6779  1.1236
 9178SOL     OW38992   4.423   2.499   1.425  0.0732 -0.2411  0.1266
 9178SOL    HW138993   4.379   2.434   1.480  1.7582  0.0502  1.8064
 9178SOL    HW238994   4.400   2.458   1.341 -2.4800  2.0244 -0.2711
 9179SOL     OW38995   2.400   3.762  10.984 -0.2162 -0.2413  0.3299
 9179SOL    HW138996   2.348   3.814  11.045  1.7955  3.2037 -0.9304
 9179SOL    HW238997   2.486   3.802  10.997 -0.3844  0.3429 -0.3447
 9180SOL     OW38998   0.968   2.578   6.521 -0.0102 -0.0505 -0.2581
 9180SOL    HW138999   0.926   2.492   6.526 -0.3027  0.2118  2.1036
 9180SOL    HW239000   1.001   2.560   6.433  0.6174  0.7836 -0.1949
 9181SOL     OW39001   0.755   0.874  10.015  0.1243 -0.5299  0.7230
 9181SOL    HW139002   0.803   0.942  10.062 -0.3383  0.1719  0.1856
 9181SOL    HW239003   0.686   0.922   9.969  2.6578  1.0821 -1.3410
 9182SOL     OW39004   0.492   2.083   2.277 -0.0294  0.0131  0.3416
 9182SOL    HW139005   0.419   2.039   2.235  0.3375 -1.4282  1.2200
 9182SOL    HW239006   0.455   2.164   2.312 -2.6574 -1.5692  1.1652
 9183SOL     OW39007   3.187   0.810  11.977 -0.1967  0.2302  0.0780
 9183SOL    HW139008   3.242   0.759  12.036 -0.9905  0.6079  1.1424
 9183SOL    HW239009   3.250   0.867  11.933  1.2250 -1.2462  0.2177
 9184SOL     OW39010   4.114   1.392   4.048 -0.3601  0.0053 -0.9880
 9184SOL    HW139011   4.162   1.390   3.966  0.2542  1.6913 -0.6653
 9184SOL    HW239012   4.127   1.486   4.059  0.9963 -0.0622 -2.0302
 9185SOL     OW39013   2.137   3.482   6.763 -0.1862 -0.3591 -0.4749
 9185SOL    HW139014   2.199   3.491   6.835  1.5796  2.5871 -2.3799
 9185SOL    HW239015   2.175   3.402   6.726 -0.0873 -0.2595 -0.5873
 9186SOL     OW39016   2.716   1.346  16.427 -0.0178 -0.0322  0.7826
 9186SOL    HW139017   2.628   1.319  16.454  0.7147 -1.2262  1.9740
 9186SOL    HW239018   2.757   1.388  16.502  0.8332  0.9605 -0.2391
 9187SOL     OW39019   2.838   2.721   2.572  0.0021 -0.1375  0.2319
 9187SOL    HW139020   2.842   2.811   2.540  0.3010  0.2593  1.3742
 9187SOL    HW239021   2.833   2.674   2.489  2.1057  0.1397 -0.0615
 9188SOL     OW39022   0.613   1.473   3.262 -0.2785  0.2313  0.0397
 9188SOL    HW139023   0.604   1.470   3.357  1.6543  1.2997  0.2597
 9188SOL    HW239024   0.667   1.396   3.241 -2.4890 -1.1080 -0.6985
 9189SOL     OW39025   1.507   3.326   6.341  0.2286  0.2281 -0.7575
 9189SOL    HW139026   1.489   3.246   6.291 -2.6111  0.5210 -0.2377
 9189SOL    HW239027   1.576   3.292   6.397 -0.7027  0.6230  0.6349
 9190SOL     OW39028   1.346   4.030  14.708 -0.0075  0.4670  0.1487
 9190SOL    HW139029   1.376   3.950  14.751 -2.1359  0.2650  1.2188
 9190SOL    HW239030   1.423   4.083  14.687  0.6849 -0.8060 -0.6046
 9191SOL     OW39031   0.900   4.572   7.101  0.6778  0.4400  0.5695
 9191SOL    HW139032   0.936   4.515   7.033  1.1702 -0.4211  1.5546
 9191SOL    HW239033   0.976   4.615   7.139  1.0016 -0.2383  0.6722
 9192SOL     OW39034   3.875   0.738  10.901  0.5134 -0.0749  0.0935
 9192SOL    HW139035   3.920   0.804  10.848  1.3238 -0.7380 -0.0676
 9192SOL    HW239036   3.901   0.766  10.988  0.9523 -1.3488  0.3841
 9193SOL     OW39037   2.023   2.309  12.426 -0.1731  0.3256 -0.0575
 9193SOL    HW139038   1.975   2.228  12.409 -0.8220  1.1401 -2.0770
 9193SOL    HW239039   2.109   2.272  12.406 -1.9504 -3.6091 -0.3776
 9194SOL     OW39040   2.872   0.838   4.493  0.1641 -0.3326 -0.2927
 9194SOL    HW139041   2.948   0.784   4.514 -0.9800 -1.5410  0.7115
 9194SOL    HW239042   2.823   0.781   4.434 -0.5397 -0.2072  0.1726
 9195SOL     OW39043   4.122   3.789  12.660 -0.3932 -0.5239  0.5704
 9195SOL    HW139044   4.152   3.802  12.750  1.9493  1.3975 -0.4818
 9195SOL    HW239045   4.027   3.802  12.662 -0.6008 -2.2093  1.5736
 9196SOL     OW39046   1.379   1.010   8.340 -0.5823  0.0906  0.4395
 9196SOL    HW139047   1.316   1.038   8.406 -0.4309  0.5644  0.3818
 9196SOL    HW239048   1.448   1.076   8.336  1.2558 -1.9744 -1.6670
 9197SOL     OW39049   0.134   0.557   4.640  0.7832 -0.1900  0.2617
 9197SOL    HW139050   0.188   0.582   4.715  0.9726 -0.3252  0.1717
 9197SOL    HW239051   0.153   0.463   4.647  0.0395 -0.5617 -2.9701
 9198SOL     OW39052   0.250   0.030  10.599 -1.1884 -0.0647 -0.3545
 9198SOL    HW139053   0.218   4.672  10.559 -1.7141 -1.2412  2.5183
 9198SOL    HW239054   0.180   0.088  10.569  0.5878  1.6619 -1.2382
 9199SOL     OW39055   0.701   1.531  13.937 -0.0796  0.1727  0.1254
 9199SOL    HW139056   0.749   1.596  13.988  0.6001  1.1621 -1.7681
 9199SOL    HW239057   0.758   1.524  13.860  2.1236 -2.4626  2.0090
 9200SOL     OW39058   1.508   4.136   4.992 -0.1105  0.2570 -0.0894
 9200SOL    HW139059   1.590   4.088   5.004  0.0568  0.6436  0.3335
 9200SOL    HW239060   1.532   4.193   4.918 -1.4494  0.7727 -0.1200
 9201SOL     OW39061   3.674   0.350   6.938 -0.1624  0.1196 -0.3455
 9201SOL    HW139062   3.740   0.398   6.887  1.5539  0.6269  2.3924
 9201SOL    HW239063   3.595   0.358   6.883 -0.0294 -1.5184 -0.7934
 9202SOL     OW39064   4.233   0.803   8.162  0.0786 -0.3484  0.2104
 9202SOL    HW139065   4.185   0.734   8.209 -2.8553  0.3199 -1.7957
 9202SOL    HW239066   4.322   0.796   8.197 -0.4569 -0.4564  1.5671
 9203SOL     OW39067   0.177   4.339   4.352 -0.2899  0.0978 -0.5755
 9203SOL    HW139068   0.235   4.324   4.278 -1.9112  0.7696 -1.9738
 9203SOL    HW239069   0.218   4.269   4.403 -0.0379  0.9727  0.4241
 9204SOL     OW39070   4.666   4.519   4.895  0.1397 -0.1664 -0.6570
 9204SOL    HW139071   4.717   4.598   4.875 -0.6071 -0.0930 -2.2001
 9204SOL    HW239072   0.001   4.486   4.964  0.9297 -2.4658 -2.4176
 9205SOL     OW39073   4.624   3.529   4.822  0.3301  0.1836 -0.3270
 9205SOL    HW139074   4.575   3.603   4.858  0.8061  0.6248 -0.5978
 9205SOL    HW239075   4.568   3.452   4.829  0.6670  0.0379  0.6672
 9206SOL     OW39076   2.529   1.332   3.326  0.2379  0.2064 -0.0753
 9206SOL    HW139077   2.455   1.274   3.344  0.5971  0.0287  0.8201
 9206SOL    HW239078   2.518   1.387   3.403 -1.1092 -0.7325  0.4067
 9207SOL     OW39079   0.936   1.268   8.125 -0.0655  0.1665 -0.0944
 9207SOL    HW139080   0.885   1.289   8.047  1.3101  0.5395 -0.8938
 9207SOL    HW239081   0.879   1.199   8.157 -0.5320  0.1744 -0.9242
 9208SOL     OW39082   2.349   2.434   3.874 -0.1661  0.1167  0.3682
 9208SOL    HW139083   2.375   2.507   3.818  0.3487 -0.8023 -0.5932
 9208SOL    HW239084   2.348   2.487   3.954 -0.9134  0.3930  0.1807
 9209SOL     OW39085   2.504   0.151   5.100  0.4140 -0.0876  0.1728
 9209SOL    HW139086   2.575   0.178   5.158  1.0499  1.5683 -1.3710
 9209SOL    HW239087   2.435   0.193   5.150  0.9595 -0.0172  0.8663
 9210SOL     OW39088   1.768   0.410   4.699 -0.0145 -0.1498 -0.4941
 9210SOL    HW139089   1.690   0.398   4.754  0.3695  0.6052  0.1959
 9210SOL    HW239090   1.831   0.410   4.770  2.1076  0.9251 -2.3661
 9211SOL     OW39091   4.318   1.361   8.094 -0.1562  0.6735  0.8691
 9211SOL    HW139092   4.281   1.282   8.134  0.0417 -0.1187 -0.5114
 9211SOL    HW239093   4.409   1.348   8.121 -0.5427  0.8487  2.2522
 9212SOL     OW39094   3.201   1.819  15.404  0.5284 -0.3004 -0.3271
 9212SOL    HW139095   3.196   1.725  15.420  2.1004 -0.1743  0.8593
 9212SOL    HW239096   3.124   1.852  15.451  1.1922  1.2515 -0.3444
 9213SOL     OW39097   0.254   0.861   3.955 -0.2392  0.3995  0.2069
 9213SOL    HW139098   0.266   0.915   3.877  1.1936 -0.8593 -0.4449
 9213SOL    HW239099   0.225   0.928   4.016  2.2629 -0.2939  2.1635
 9214SOL     OW39100   0.406   1.203  11.120 -0.2197 -0.2639 -0.2175
 9214SOL    HW139101   0.481   1.189  11.063 -0.3714  3.0395 -1.2218
 9214SOL    HW239102   0.344   1.233  11.053  0.3109  1.6498  0.1665
 9215SOL     OW39103   3.721   4.611   8.376 -0.1996  0.3792  0.3173
 9215SOL    HW139104   3.699   4.524   8.410  0.9060  0.6189  1.6655
 9215SOL    HW239105   3.729   4.658   8.459  0.9480  4.3139 -2.0326
 9216SOL     OW39106   3.166   4.152   1.529  0.2535  0.1898 -0.0527
 9216SOL    HW139107   3.213   4.073   1.555 -0.1319  0.1120  0.4010
 9216SOL    HW239108   3.229   4.192   1.469  0.6174 -2.4252 -1.3982
 9217SOL     OW39109   3.496   3.314  13.715  0.2613 -0.2977  0.2833
 9217SOL    HW139110   3.587   3.329  13.690 -0.3802  2.9442 -0.1568
 9217SOL    HW239111   3.465   3.396  13.754 -0.3596  0.9582 -2.8854
 9218SOL     OW39112   0.874   4.483  12.028 -0.0411 -0.7995  0.3073
 9218SOL    HW139113   0.829   4.504  12.110  2.2982  0.8526  1.1813
 9218SOL    HW239114   0.863   4.388  12.031 -0.1281 -0.7897  0.2865
 9219SOL     OW39115   4.462   3.879   4.808  0.5496  0.4040  0.1465
 9219SOL    HW139116   4.406   3.956   4.793  1.9274  1.6135  1.2853
 9219SOL    HW239117   4.413   3.842   4.881 -0.3311  1.9268  0.3359
 9220SOL     OW39118   1.599   4.130   0.304  0.4419 -0.4389 -0.2069
 9220SOL    HW139119   1.526   4.087   0.349 -2.7448  2.7096 -2.3407
 9220SOL    HW239120   1.652   4.153   0.379 -1.5392  2.0171  0.4511
 9221SOL     OW39121   1.842   3.895   0.759 -0.1520 -0.2690  0.1256
 9221SOL    HW139122   1.899   3.860   0.690  0.0665 -0.1860  0.2645
 9221SOL    HW239123   1.837   3.991   0.750  0.9814 -0.1486  0.8164
 9222SOL     OW39124   1.526   3.433   6.719 -0.2183  0.3568 -0.5657
 9222SOL    HW139125   1.534   3.517   6.674  0.1223  0.6378  0.0139
 9222SOL    HW239126   1.619   3.418   6.736  0.3137  0.9709 -2.9615
 9223SOL     OW39127   3.722   4.043   2.360 -0.3083  0.4150  0.2872
 9223SOL    HW139128   3.797   3.983   2.354 -0.2906  0.4965 -0.2360
 9223SOL    HW239129   3.653   3.995   2.315 -0.8574 -0.0259  1.6056
 9224SOL     OW39130   2.926   1.597   4.924  0.2723  0.0723 -0.7511
 9224SOL    HW139131   2.840   1.636   4.944  0.4317  0.2915 -0.4895
 9224SOL    HW239132   2.941   1.641   4.840  1.6422 -1.2416 -1.1815
 9225SOL     OW39133   4.539   2.374   0.088 -0.1705  0.6083  0.3217
 9225SOL    HW139134   4.447   2.374   0.112 -0.4156 -0.0147 -0.6222
 9225SOL    HW239135   4.570   2.421   0.166  1.3833  0.4078 -0.1822
 9226SOL     OW39136   3.688   2.095   8.244  0.2266  0.1192  0.0133
 9226SOL    HW139137   3.639   2.115   8.324  2.2241  1.0222  0.9957
 9226SOL    HW239138   3.737   2.016   8.265  0.9297  0.2301 -1.1998
 9227SOL     OW39139   2.739   2.051   2.340 -0.8349 -0.0634  0.4940
 9227SOL    HW139140   2.769   2.048   2.431  0.6032 -1.2697 -0.0126
 9227SOL    HW239141   2.658   2.002   2.357 -0.7556  0.3191  1.9909
 9228SOL     OW39142   4.491   0.719   0.545  0.0105 -0.1216  0.0483
 9228SOL    HW139143   4.529   0.770   0.474  1.6086 -0.4587  0.6569
 9228SOL    HW239144   4.484   0.790   0.610 -1.7711 -0.4584  0.2280
 9229SOL     OW39145   2.337   3.845   0.769 -0.0337 -0.5265  0.7912
 9229SOL    HW139146   2.253   3.870   0.807  0.0519  1.6176 -0.4835
 9229SOL    HW239147   2.385   3.829   0.851 -0.6123 -3.4388  0.5724
 9230SOL     OW39148   3.435   2.140   4.179 -0.2802 -0.0702  0.1655
 9230SOL    HW139149   3.525   2.108   4.165 -0.0277  1.2834 -1.2906
 9230SOL    HW239150   3.456   2.224   4.220 -2.1286 -1.1969  3.3993
 9231SOL     OW39151   3.923   0.379   3.593  0.4052  0.3570 -0.2914
 9231SOL    HW139152   3.855   0.386   3.526 -0.1421 -0.0818  0.2188
 9231SOL    HW239153   3.896   0.456   3.644  0.7897 -0.1948  0.7414
 9232SOL     OW39154   2.712   3.856   4.471 -0.1330 -0.1235 -0.2035
 9232SOL    HW139155   2.644   3.904   4.519 -1.6523 -0.4785 -1.9704
 9232SOL    HW239156   2.782   3.921   4.464 -0.8506  0.9292  2.4093
 9233SOL     OW39157   0.652   2.255   8.419  0.4929  0.9886 -0.0463
 9233SOL    HW139158   0.731   2.308   8.416  0.8155  0.6309  1.7396
 9233SOL    HW239159   0.687   2.174   8.381 -0.5124 -0.0770  1.2929
 9234SOL     OW39160   2.145   2.380   8.711 -0.0263 -0.3644 -0.7119
 9234SOL    HW139161   2.053   2.371   8.685  0.1655 -2.8514 -0.5955
 9234SOL    HW239162   2.192   2.324   8.649 -0.3092  1.2314 -2.3590
 9235SOL     OW39163   1.118   3.617  15.314 -0.6997 -0.3412  0.3292
 9235SOL    HW139164   1.202   3.575  15.330 -0.3803 -0.1644 -0.9049
 9235SOL    HW239165   1.139   3.698  15.268 -0.5351  1.2822  3.3042
 9236SOL     OW39166   1.926   0.690  12.984  0.1080  0.1739 -0.0167
 9236SOL    HW139167   1.866   0.617  12.978  0.1551  0.2828 -1.6717
 9236SOL    HW239168   1.869   0.766  12.973 -0.8485 -0.4022  0.9899
 9237SOL     OW39169   1.459   1.838   4.066  0.4229 -0.3402 -0.1937
 9237SOL    HW139170   1.481   1.869   4.153 -1.1593  1.0090 -0.2721
 9237SOL    HW239171   1.398   1.908   4.045 -0.0297 -0.7803 -0.3585
 9238SOL     OW39172   0.269   1.812   1.794 -0.5802  0.1986  0.7392
 9238SOL    HW139173   0.183   1.841   1.825 -0.8576 -0.0718  0.2132
 9238SOL    HW239174   0.257   1.785   1.703  1.3373  0.7860  0.3097
 9239SOL     OW39175   1.012   4.050  14.672 -0.2060  0.3233  0.5322
 9239SOL    HW139176   0.927   4.021  14.639  1.4072 -2.4250 -1.2296
 9239SOL    HW239177   0.985   4.090  14.754 -0.6698 -0.1320  0.5976
 9240SOL     OW39178   1.013   2.517  12.948  0.2092  0.1733 -0.0213
 9240SOL    HW139179   1.009   2.599  12.899 -0.0250  0.2603  0.1410
 9240SOL    HW239180   1.089   2.539  13.001 -0.4614  1.0654  0.5728
 9241SOL     OW39181   2.950   3.293  16.491 -0.2046 -0.2797  0.3247
 9241SOL    HW139182   2.994   3.374  16.518 -0.7185  0.9431 -2.4296
 9241SOL    HW239183   2.875   3.338  16.453  0.3911  1.2670  0.9925
 9242SOL     OW39184   0.859   0.606  16.620  0.2128 -0.0012 -0.0171
 9242SOL    HW139185   0.796   0.664  16.662 -1.6649 -1.5739 -0.6719
 9242SOL    HW239186   0.794   0.538  16.604 -0.0457 -0.0270  1.2047
 9243SOL     OW39187   2.277   2.363   8.966 -0.2032  0.3464 -0.2537
 9243SOL    HW139188   2.262   2.272   8.993 -0.8404  0.3428 -0.6279
 9243SOL    HW239189   2.199   2.393   8.920 -1.7356 -2.2858  0.5803
 9244SOL     OW39190   0.353   0.867   1.570 -0.3291  0.3675 -0.1935
 9244SOL    HW139191   0.426   0.927   1.552 -0.7131  1.2217  1.1025
 9244SOL    HW239192   0.386   0.784   1.534  1.0387  0.8139  0.0286
 9245SOL     OW39193   4.110   3.002   6.508  0.8198 -0.1044  0.3272
 9245SOL    HW139194   4.118   2.922   6.560 -0.8272 -0.5728 -0.1292
 9245SOL    HW239195   4.169   3.064   6.550  0.8140  0.5924 -0.7044
 9246SOL     OW39196   1.312   3.233   2.843 -0.0797 -0.4803  0.2855
 9246SOL    HW139197   1.312   3.225   2.748  2.1193 -1.6271  0.3990
 9246SOL    HW239198   1.251   3.165   2.873  1.6135 -0.9643  2.6402
 9247SOL     OW39199   1.898   2.460   4.297 -0.0211  0.7168 -0.0897
 9247SOL    HW139200   1.861   2.484   4.212 -2.9651  0.7311  1.1968
 9247SOL    HW239201   1.910   2.547   4.334  1.0792  0.2131  0.7327
 9248SOL     OW39202   4.323   2.116   3.994 -0.3124 -0.9374 -0.3246
 9248SOL    HW139203   4.303   2.207   4.018 -0.0978 -1.4391  1.6844
 9248SOL    HW239204   4.235   2.079   4.006 -0.6382 -0.3418 -0.8319
 9249SOL     OW39205   1.222   4.485   4.426  0.0078 -0.5828 -0.4487
 9249SOL    HW139206   1.213   4.409   4.368 -4.5741  0.6448 -1.3668
 9249SOL    HW239207   1.128   4.492   4.444  0.0565 -1.8290  0.2515
 9250SOL     OW39208   2.031   2.056   5.887  0.3840 -0.1349  0.1677
 9250SOL    HW139209   1.947   2.044   5.842  0.8745  0.9804 -1.0427
 9250SOL    HW239210   2.075   1.974   5.909 -1.8747 -1.6796 -1.0671
 9251SOL     OW39211   3.132   1.753   4.469 -0.2825 -0.0843  0.0772
 9251SOL    HW139212   3.197   1.717   4.530 -0.1512 -0.4358 -0.2701
 9251SOL    HW239213   3.167   1.839   4.448  0.6948 -0.1971  1.2183
 9252SOL     OW39214   2.963   1.714   5.874 -0.4010 -0.1921 -0.0476
 9252SOL    HW139215   2.920   1.724   5.789  0.1442  0.4922 -0.2446
 9252SOL    HW239216   3.007   1.630   5.861 -2.1413 -1.1392  0.0724
 9253SOL     OW39217   2.541   0.346   7.175  0.1226 -0.1595  0.2820
 9253SOL    HW139218   2.590   0.323   7.254  1.4146  0.0925 -0.4390
 9253SOL    HW239219   2.461   0.298   7.197  1.2273 -2.1250 -0.0108
 9254SOL     OW39220   0.438   2.328   8.553 -0.3411 -0.0804  0.0986
 9254SOL    HW139221   0.381   2.254   8.533  0.6931 -0.6180 -0.8883
 9254SOL    HW239222   0.518   2.293   8.513 -0.8298 -0.0532 -0.9103
 9255SOL     OW39223   2.168   0.116  13.818  0.1053  0.0602  0.4718
 9255SOL    HW139224   2.094   0.062  13.792 -0.4890  1.1329 -0.1006
 9255SOL    HW239225   2.156   0.101  13.911  0.5810 -2.5674  0.0875
 9256SOL     OW39226   3.515   3.936   4.039  0.4709  0.2349  0.4640
 9256SOL    HW139227   3.458   3.875   4.085  1.7081 -0.4217  1.1288
 9256SOL    HW239228   3.492   4.020   4.079  1.8844 -0.7708  3.3882
 9257SOL     OW39229   2.510   1.971   2.444  0.2641  0.1924  0.5508
 9257SOL    HW139230   2.426   1.986   2.401  0.9731 -0.9783 -1.2203
 9257SOL    HW239231   2.533   1.879   2.429 -0.3850  0.3496 -1.4082
 9258SOL     OW39232   1.080   4.294   7.209 -0.3639 -0.8380 -0.1098
 9258SOL    HW139233   1.003   4.248   7.243  0.1100 -1.5004  0.0636
 9258SOL    HW239234   1.132   4.283   7.288  0.6950  1.9441 -0.4481
 9259SOL     OW39235   2.751   2.087   4.249  0.7858 -0.6111 -0.0355
 9259SOL    HW139236   2.691   2.145   4.202 -2.1768 -2.6109  1.3303
 9259SOL    HW239237   2.692   2.044   4.311  2.6949  1.3723  3.1465
 9260SOL     OW39238   3.146   0.964  12.784  0.0019  0.1644 -0.0160
 9260SOL    HW139239   3.098   0.912  12.719  0.2524  0.9386 -0.8370
 9260SOL    HW239240   3.114   1.052  12.763  0.7048  0.2185 -0.8577
 9261SOL     OW39241   3.848   1.702   6.611 -0.5746  0.6557 -0.0202
 9261SOL    HW139242   3.767   1.688   6.562  0.5896  3.1811 -2.6734
 9261SOL    HW239243   3.857   1.633   6.676 -0.8504  0.4092 -0.2473
 9262SOL     OW39244   3.534   3.149   3.589 -0.2975 -0.4455 -0.1095
 9262SOL    HW139245   3.515   3.192   3.672  0.7797 -1.0173  0.4480
 9262SOL    HW239246   3.590   3.072   3.602 -0.9785 -0.4314  2.9778
 9263SOL     OW39247   3.020   2.618   2.027  0.2651  0.2201 -0.0601
 9263SOL    HW139248   3.036   2.600   1.935 -0.2923 -0.9751  0.0784
 9263SOL    HW239249   2.935   2.581   2.049  0.5170 -0.4205 -0.1718
 9264SOL     OW39250   3.263   1.615   5.710  0.1759  0.4701 -0.5482
 9264SOL    HW139251   3.170   1.594   5.718  0.7941 -2.8228 -2.0311
 9264SOL    HW239252   3.278   1.596   5.618  0.7649 -0.5447 -0.2442
 9265SOL     OW39253   4.420   2.507  11.893  0.5215 -0.1157  0.7039
 9265SOL    HW139254   4.345   2.514  11.833  1.0011 -0.3087  0.0833
 9265SOL    HW239255   4.407   2.415  11.915  0.0121 -0.2910 -0.3323
 9266SOL     OW39256   1.462   1.790   5.343 -0.2577 -0.2966 -0.9342
 9266SOL    HW139257   1.461   1.761   5.251 -0.0175  0.3128 -1.1269
 9266SOL    HW239258   1.372   1.820   5.358 -0.2105  0.2488 -1.7285
 9267SOL     OW39259   0.155   2.600   9.639  0.0068 -0.0657 -0.3859
 9267SOL    HW139260   0.204   2.640   9.711  0.5208 -0.6394 -0.4227
 9267SOL    HW239261   0.076   2.578   9.689 -0.0066  1.5409  0.3112
 9268SOL     OW39262   0.656   0.111  15.357 -0.9095  0.2976  0.0661
 9268SOL    HW139263   0.707   0.083  15.433  0.5541  2.4129 -0.1381
 9268SOL    HW239264   0.692   0.049  15.293  2.1230  3.0343 -0.8587
 9269SOL     OW39265   1.616   3.629  17.658 -0.3370 -0.1265  0.5130
 9269SOL    HW139266   1.642   3.614   0.057  0.9119 -0.2095  0.1423
 9269SOL    HW239267   1.689   3.686  17.635  1.8370 -2.7013  0.9996
 9270SOL     OW39268   0.503   1.003   8.568 -0.4279  0.1794 -0.0064
 9270SOL    HW139269   0.524   0.911   8.583 -0.7394  0.0711 -0.2373
 9270SOL    HW239270   0.593   1.034   8.564 -1.4229  3.0444 -0.5738
 9271SOL     OW39271   1.705   4.096   3.575  0.2359  0.0081  0.9734
 9271SOL    HW139272   1.756   4.017   3.563  1.6066  0.4563  4.0017
 9271SOL    HW239273   1.768   4.150   3.623  0.5310 -0.7847  1.4652
 9272SOL     OW39274   2.645   4.549   3.041 -0.4112  0.5972  0.4176
 9272SOL    HW139275   2.580   4.570   2.974  0.6912 -1.4748 -1.2889
 9272SOL    HW239276   2.731   4.550   2.997 -0.0971  2.0541  1.0523
 9273SOL     OW39277   1.544   2.049   8.112 -0.0850 -0.1885 -0.7058
 9273SOL    HW139278   1.563   2.034   8.020  1.3127 -1.2495 -0.2468
 9273SOL    HW239279   1.630   2.083   8.137  0.1485 -1.0793 -0.2861
 9274SOL     OW39280   0.510   0.380   5.347 -0.2586  0.4653 -0.4696
 9274SOL    HW139281   0.543   0.459   5.305  2.1769 -0.9839 -1.2647
 9274SOL    HW239282   0.432   0.362   5.294 -1.2207  0.1104  1.0549
 9275SOL     OW39283   1.412   4.550  14.205 -0.7465  0.5185 -0.0215
 9275SOL    HW139284   1.438   4.499  14.282 -0.2399  0.3318 -0.3186
 9275SOL    HW239285   1.494   4.598  14.192  0.0128 -1.8573 -4.0313
 9276SOL     OW39286   3.300   3.836   5.688  0.0646 -0.0468  1.0507
 9276SOL    HW139287   3.295   3.765   5.753 -1.0162 -0.2970  0.6944
 9276SOL    HW239288   3.279   3.908   5.748  1.3764  0.9103  0.3593
 9277SOL     OW39289   2.133   3.817   6.025  0.1835  0.3357  0.1334
 9277SOL    HW139290   2.079   3.776   5.957  1.1064  1.6744 -1.4226
 9277SOL    HW239291   2.138   3.906   5.991 -0.8205 -0.2707 -1.6408
 9278SOL     OW39292   3.325   4.064   8.336 -0.1848  0.1930 -0.7495
 9278SOL    HW139293   3.286   3.992   8.288 -0.5389 -0.6271  0.7449
 9278SOL    HW239294   3.268   4.073   8.412 -0.0393 -0.2042 -0.5940
 9279SOL     OW39295   2.798   4.087   4.657  0.0632  0.5093  0.7949
 9279SOL    HW139296   2.767   4.122   4.574  1.7533 -0.6805 -0.3184
 9279SOL    HW239297   2.852   4.161   4.685  2.1680 -0.4253 -0.8411
 9280SOL     OW39298   1.190   2.759  10.391  0.0816 -0.0510  0.1766
 9280SOL    HW139299   1.096   2.741  10.394  0.0621 -0.3547 -1.7352
 9280SOL    HW239300   1.216   2.777  10.481 -0.6711  0.8614  0.2118
 9281SOL     OW39301   0.280   3.973  13.954 -0.5054  0.6949  0.0120
 9281SOL    HW139302   0.332   3.971  13.873 -0.7794 -1.6328 -0.0935
 9281SOL    HW239303   0.238   4.058  13.947 -1.7257  0.0578 -0.3672
 9282SOL     OW39304   3.424   3.893   3.266  0.0080  0.6740 -0.0824
 9282SOL    HW139305   3.392   3.806   3.239  0.1166 -0.5890  3.9171
 9282SOL    HW239306   3.511   3.857   3.284 -0.2708 -0.2268 -0.4769
 9283SOL     OW39307   3.451   1.266   6.515 -0.2630 -0.3623  0.5853
 9283SOL    HW139308   3.490   1.229   6.595 -1.6368 -1.1989  0.8590
 9283SOL    HW239309   3.376   1.209   6.504 -0.3319 -0.2645  0.5497
 9284SOL     OW39310   4.164   4.238   4.552 -0.1231  0.3297  0.3615
 9284SOL    HW139311   4.116   4.199   4.479  2.2893  3.4938 -2.9337
 9284SOL    HW239312   4.100   4.284   4.606 -1.3120 -0.8919 -0.0195
 9285SOL     OW39313   1.791   1.667   1.750 -0.1567 -0.3507  0.0475
 9285SOL    HW139314   1.801   1.727   1.824 -2.2336 -2.3619  1.9616
 9285SOL    HW239315   1.747   1.589   1.783 -1.7809 -0.1906 -1.7799
 9286SOL     OW39316   2.279   4.353  12.032  0.2762  0.1037  0.1530
 9286SOL    HW139317   2.197   4.308  12.010  1.1508 -0.5247 -1.8584
 9286SOL    HW239318   2.266   4.439  11.991 -0.2806  0.7996  1.7803
 9287SOL     OW39319   3.170   3.780   2.988 -0.0512  0.2997  0.5076
 9287SOL    HW139320   3.205   3.782   2.899  1.1697 -0.1834  0.9830
 9287SOL    HW239321   3.237   3.737   3.041 -0.1433 -1.6247 -0.9402
 9288SOL     OW39322   1.887   2.924  10.831  0.3038 -0.1185  0.1161
 9288SOL    HW139323   1.909   2.909  10.739  1.2347 -0.7471  0.4413
 9288SOL    HW239324   1.968   2.970  10.853  0.1317  0.9309 -1.4442
 9289SOL     OW39325   4.116   1.675  10.060  0.2675 -0.4314 -0.1440
 9289SOL    HW139326   4.086   1.585  10.069 -2.6828  0.6243  0.8486
 9289SOL    HW239327   4.208   1.659  10.080 -0.0138 -0.5162  1.0712
 9290SOL     OW39328   0.195   2.973  16.685  0.5963 -0.0033 -0.1257
 9290SOL    HW139329   0.132   2.939  16.621 -1.0253  3.5289 -0.4322
 9290SOL    HW239330   0.139   3.011  16.753 -1.2757 -1.5200 -0.7999
 9291SOL     OW39331   4.158   1.572   6.842 -0.6379  0.2496  0.7921
 9291SOL    HW139332   4.171   1.618   6.759 -1.5751  0.1083  0.5731
 9291SOL    HW239333   4.245   1.574   6.882  0.1437  1.3749 -0.9701
 9292SOL     OW39334   0.553   2.985   4.742 -0.7074  0.2955 -0.4962
 9292SOL    HW139335   0.491   2.919   4.712 -0.3625  0.3230 -1.2548
 9292SOL    HW239336   0.599   2.934   4.809 -0.1446  1.1720 -0.2109
 9293SOL     OW39337   1.209   4.240  15.150  0.0012 -0.0599 -0.1026
 9293SOL    HW139338   1.216   4.309  15.084 -1.2505  0.8459  0.7119
 9293SOL    HW239339   1.243   4.295  15.220 -1.5091  2.2216 -1.1698
 9294SOL     OW39340   1.046   1.545   3.741  0.0239  0.0554 -0.1901
 9294SOL    HW139341   1.022   1.556   3.649  1.3478 -2.6700 -0.8657
 9294SOL    HW239342   0.972   1.587   3.784  0.0630 -1.1241  1.0343
 9295SOL     OW39343   1.634   2.142  17.687 -0.2282  0.5830 -0.1251
 9295SOL    HW139344   1.576   2.158   0.069  0.0289 -1.3370  0.4971
 9295SOL    HW239345   1.564   2.129  17.624 -1.8256 -1.5097  2.0927
 9296SOL     OW39346   0.331   0.736   0.913 -0.7348 -0.3454 -0.2755
 9296SOL    HW139347   0.345   0.647   0.944 -3.1187 -0.5714  0.1494
 9296SOL    HW239348   0.396   0.776   0.971 -1.4907 -0.2188  0.4715
 9297SOL     OW39349   0.420   2.566   6.585  0.4358 -0.5415 -0.8281
 9297SOL    HW139350   0.491   2.516   6.627 -0.8573  0.0647  2.1048
 9297SOL    HW239351   0.467   2.586   6.504 -0.9247  0.5796 -1.3368
 9298SOL     OW39352   3.658   1.844   0.491 -0.5444 -0.2251 -0.0174
 9298SOL    HW139353   3.649   1.938   0.508  1.9502  0.6332 -3.2341
 9298SOL    HW239354   3.582   1.818   0.439  0.3978 -0.4570 -1.2851
 9299SOL     OW39355   2.400   1.843   5.032  0.2335  0.0437  0.2072
 9299SOL    HW139356   2.385   1.920   5.085 -1.4167  1.8255 -2.8502
 9299SOL    HW239357   2.433   1.883   4.952 -0.0954  0.0931  0.0974
 9300SOL     OW39358   1.015   4.335   6.956 -0.5471 -0.2386 -0.0587
 9300SOL    HW139359   1.019   4.306   7.047 -1.6329 -1.5649 -0.4288
 9300SOL    HW239360   1.033   4.252   6.911  0.1487  0.3712 -0.9004
 9301SOL     OW39361   3.255   4.157   5.156  0.0472 -0.0639 -0.1946
 9301SOL    HW139362   3.217   4.069   5.147  2.2734 -0.7907 -2.7024
 9301SOL    HW239363   3.186   4.211   5.118  0.9011  1.5038  0.5124
 9302SOL     OW39364   4.545   3.868   0.973  0.7721 -0.3678 -0.1475
 9302SOL    HW139365   4.512   3.902   0.890  0.3732  0.4217  0.3407
 9302SOL    HW239366   4.637   3.896   0.974  0.5261  0.4714 -0.6913
 9303SOL     OW39367   4.002   4.387   6.216 -0.6784 -0.2621 -0.1098
 9303SOL    HW139368   3.929   4.372   6.156  1.3843 -0.0452 -2.6455
 9303SOL    HW239369   3.973   4.344   6.296 -3.5568  1.3940 -0.2458
 9304SOL     OW39370   4.090   2.343   8.031  0.0841  0.0184  0.3421
 9304SOL    HW139371   4.016   2.392   8.067 -0.3376 -0.9120  0.7271
 9304SOL    HW239372   4.116   2.288   8.105 -3.4977 -1.5343  0.4708
 9305SOL     OW39373   2.551   2.279   7.256 -0.0096 -0.2192  0.2227
 9305SOL    HW139374   2.495   2.341   7.208  0.1846  1.0541  1.6120
 9305SOL    HW239375   2.487   2.252   7.322  0.3348  0.7619  0.9610
 9306SOL     OW39376   2.851   2.749   8.583 -0.7073  0.0485 -0.1538
 9306SOL    HW139377   2.760   2.776   8.569  0.5031  4.3834  0.3298
 9306SOL    HW239378   2.869   2.715   8.495  1.8789 -2.7104  1.4156
 9307SOL     OW39379   3.720   0.681   8.143  0.1377  0.2236  0.1483
 9307SOL    HW139380   3.736   0.664   8.236 -0.7551 -2.1483 -0.1105
 9307SOL    HW239381   3.654   0.749   8.148 -0.2701 -0.1005 -0.8536
 9308SOL     OW39382   0.449   0.431   7.887 -0.1220 -0.0353 -0.7584
 9308SOL    HW139383   0.439   0.525   7.877 -0.0468 -0.0782 -1.2602
 9308SOL    HW239384   0.448   0.411   7.793  1.3388 -0.9659 -0.5622
 9309SOL     OW39385   0.719   2.576  10.479  0.0395 -0.0686  0.1160
 9309SOL    HW139386   0.640   2.577  10.533 -2.4572 -1.9518 -3.4800
 9309SOL    HW239387   0.672   2.591  10.397 -3.1392  0.2371  1.9983
 9310SOL     OW39388   1.309   3.668   8.065 -0.6191 -0.2517 -0.2760
 9310SOL    HW139389   1.355   3.630   7.990 -0.2746 -0.1079 -0.1340
 9310SOL    HW239390   1.267   3.745   8.026  1.0583  0.8661  0.1492
 9311SOL     OW39391   3.654   4.088   5.297 -0.3109 -0.3351 -0.6099
 9311SOL    HW139392   3.672   4.021   5.363  0.0617  1.4628  1.1165
 9311SOL    HW239393   3.708   4.056   5.225  1.6597  1.0909  0.2302
 9312SOL     OW39394   2.779   1.815  10.320  0.3670 -0.3517  0.3116
 9312SOL    HW139395   2.703   1.873  10.318  0.8895  0.3556  0.7496
 9312SOL    HW239396   2.788   1.790  10.228 -1.0616 -0.4618  0.2147
 9313SOL     OW39397   4.106   1.781   1.994 -0.0490 -0.2992  0.6590
 9313SOL    HW139398   4.155   1.858   2.024  0.0325 -0.4404  0.8901
 9313SOL    HW239399   4.081   1.743   2.079 -2.9364 -3.0288 -1.4410
 9314SOL     OW39400   0.674   1.234   5.047  0.7029 -0.4513  0.3202
 9314SOL    HW139401   0.649   1.238   5.139 -0.0013  0.4287  0.0899
 9314SOL    HW239402   0.750   1.292   5.045  0.7509 -0.5863 -1.7284
 9315SOL     OW39403   3.608   0.853   9.309  0.2388  0.4586  0.0772
 9315SOL    HW139404   3.685   0.869   9.255 -0.8567  1.6665 -1.1252
 9315SOL    HW239405   3.587   0.762   9.288  1.7049  0.3873 -1.1138
 9316SOL     OW39406   2.832   4.145   3.440 -0.2202 -0.1814 -0.2972
 9316SOL    HW139407   2.880   4.070   3.405  0.2123  0.0253 -0.1410
 9316SOL    HW239408   2.848   4.218   3.380 -0.8675  0.7872  0.7075
 9317SOL     OW39409   4.220   2.191   7.140 -0.1586  0.2288 -0.2122
 9317SOL    HW139410   4.189   2.266   7.089  0.1151 -0.5629 -1.5238
 9317SOL    HW239411   4.137   2.168   7.184 -0.7227  0.1457 -1.3333
 9318SOL     OW39412   2.102   0.986   6.156  0.0614  0.0392 -0.1497
 9318SOL    HW139413   2.191   0.952   6.156  0.0802  0.0652  1.4469
 9318SOL    HW239414   2.055   0.904   6.140 -0.1176  0.0355  0.3659
 9319SOL     OW39415   2.587   3.451  15.019 -0.1700  0.1183 -0.3151
 9319SOL    HW139416   2.554   3.362  15.025 -1.7623  0.6632 -1.0489
 9319SOL    HW239417   2.665   3.454  15.074 -1.0286  0.4142  0.8841
 9320SOL     OW39418   1.940   0.256   8.705 -0.6403  0.0844  0.1139
 9320SOL    HW139419   1.875   0.325   8.724  1.1218  1.1480  2.2927
 9320SOL    HW239420   1.897   0.182   8.747 -3.0978  0.6081 -1.4871
 9321SOL     OW39421   2.760   2.570   4.682  0.4833 -0.3053 -0.0386
 9321SOL    HW139422   2.698   2.585   4.754  0.3040  1.2618 -0.5237
 9321SOL    HW239423   2.827   2.633   4.707 -0.3663  0.3162  0.6755
 9322SOL     OW39424   4.054   0.007   1.799 -0.1709 -0.0081  0.0446
 9322SOL    HW139425   3.997   4.704   1.871 -0.2813  0.3027  0.0680
 9322SOL    HW239426   4.015   4.666   1.738  0.4434  0.8392 -1.2249
 9323SOL     OW39427   0.630   1.417  14.178  0.1375 -0.1704  0.6099
 9323SOL    HW139428   0.687   1.486  14.212  1.2797 -0.1146 -1.3953
 9323SOL    HW239429   0.611   1.464  14.097  0.6880 -0.8852  0.0587
 9324SOL     OW39430   1.412   1.483  13.073  0.0663 -0.2987 -0.6783
 9324SOL    HW139431   1.335   1.539  13.062 -0.7437 -1.5773 -1.4633
 9324SOL    HW239432   1.366   1.406  13.106 -0.5487  1.1965  1.9894
 9325SOL     OW39433   1.107   4.453   2.963  0.5413  0.2720 -0.0547
 9325SOL    HW139434   1.050   4.525   2.935 -0.3563 -1.0358 -1.5413
 9325SOL    HW239435   1.077   4.450   3.054  0.2883  1.3944 -0.1022
 9326SOL     OW39436   2.086   1.556  17.297 -0.1580  0.2638 -0.1302
 9326SOL    HW139437   2.066   1.479  17.350  0.0803  1.8895  2.3314
 9326SOL    HW239438   2.125   1.609  17.366  2.5803  0.0164 -1.4741
 9327SOL     OW39439   1.544   1.900   5.052  0.1121 -0.3240  0.1791
 9327SOL    HW139440   1.505   1.973   5.003 -0.0464 -0.2662  0.3922
 9327SOL    HW239441   1.569   1.843   4.979  0.6455  1.5269 -1.0807
 9328SOL     OW39442   4.634   0.352   4.917  0.3484 -0.6199  0.4214
 9328SOL    HW139443   4.589   0.270   4.897 -0.0426  0.3709 -2.7263
 9328SOL    HW239444   4.622   0.347   5.012 -0.6148  0.4359  0.3477
 9329SOL     OW39445   1.905   1.557   7.191  0.3290  0.1336 -0.0830
 9329SOL    HW139446   1.856   1.489   7.238  2.7779 -0.3840  1.7625
 9329SOL    HW239447   1.882   1.641   7.231  0.0298 -0.3787  0.8235
 9330SOL     OW39448   1.113   3.210  11.348  0.2159  0.1625  0.7984
 9330SOL    HW139449   1.184   3.227  11.410  2.0530  0.4963 -1.3535
 9330SOL    HW239450   1.167   3.167  11.281 -0.0843 -0.6871  1.1059
 9331SOL     OW39451   0.588   0.685   5.595 -0.7562  0.3834  0.1567
 9331SOL    HW139452   0.535   0.609   5.567 -2.0417  1.2896  0.1217
 9331SOL    HW239453   0.676   0.649   5.598 -0.1804  1.7019 -0.9551
 9332SOL     OW39454   0.786   0.968   5.547 -0.0968 -0.4104 -0.7034
 9332SOL    HW139455   0.721   1.032   5.579 -0.8693 -1.1467 -0.7869
 9332SOL    HW239456   0.749   0.938   5.464  0.2221  1.1572 -1.4118
 9333SOL     OW39457   4.358   1.365   2.757  0.0957  0.6339 -0.4210
 9333SOL    HW139458   4.366   1.380   2.663 -2.3017  1.5070 -0.4888
 9333SOL    HW239459   4.448   1.344   2.782 -0.7048 -2.5320 -0.2723
 9334SOL     OW39460   1.458   2.845   2.951  0.1065 -0.2134  0.6999
 9334SOL    HW139461   1.495   2.775   3.004 -2.4153 -2.2513 -0.1969
 9334SOL    HW239462   1.456   2.802   2.866 -1.0799 -0.8333  1.0320
 9335SOL     OW39463   1.246   0.571   1.632 -0.1868 -0.0749  0.7963
 9335SOL    HW139464   1.243   0.510   1.558  0.0549 -0.3570  1.0227
 9335SOL    HW239465   1.336   0.601   1.635  0.7125 -2.7643  0.4499
 9336SOL     OW39466   0.975   0.746   4.272  0.2715 -0.5589  0.5081
 9336SOL    HW139467   0.965   0.819   4.333 -0.5250  0.1535 -0.4757
 9336SOL    HW239468   0.884   0.721   4.258 -0.2142  0.9499  0.9596
 9337SOL     OW39469   2.802   0.360   4.065  0.4094  0.0711 -0.1160
 9337SOL    HW139470   2.882   0.329   4.107  0.6303 -1.1928 -1.4631
 9337SOL    HW239471   2.834   0.359   3.975  0.5529  0.9223 -0.0742
 9338SOL     OW39472   0.340   1.647   3.678  0.2919  0.1842  0.3692
 9338SOL    HW139473   0.251   1.661   3.711  0.8335  1.2205  1.4188
 9338SOL    HW239474   0.323   1.664   3.585 -3.1483 -0.5371  0.8644
 9339SOL     OW39475   0.436   3.844   7.661  0.6839 -0.1283 -0.1355
 9339SOL    HW139476   0.498   3.792   7.609  0.1221  0.5355 -1.4669
 9339SOL    HW239477   0.486   3.926   7.659  0.8028 -0.2211 -0.9853
 9340SOL     OW39478   2.376   1.436   9.262  0.4084  0.4377  0.1721
 9340SOL    HW139479   2.329   1.519   9.258 -1.9171 -0.8825 -0.0732
 9340SOL    HW239480   2.465   1.467   9.247  0.3325  0.1951 -0.8271
 9341SOL     OW39481   4.021   0.418  13.152  0.5577  0.1781  0.4937
 9341SOL    HW139482   4.105   0.395  13.112 -0.1998  0.2127 -1.0880
 9341SOL    HW239483   4.025   0.513  13.135  0.9668  0.1297  0.3149
 9342SOL     OW39484   3.062   2.352   3.188  0.2334  0.1915  0.5059
 9342SOL    HW139485   3.079   2.377   3.278  0.2457  0.3838  0.4509
 9342SOL    HW239486   3.128   2.405   3.143 -0.3191  1.5297  1.2736
 9343SOL     OW39487   4.354   4.194   9.195  0.1366 -0.5918 -0.5179
 9343SOL    HW139488   4.432   4.162   9.241  0.7404 -0.6055 -1.5408
 9343SOL    HW239489   4.386   4.283   9.177  0.5017 -0.9312 -1.5492
 9344SOL     OW39490   3.523   1.606  10.083 -0.2750  0.3251 -0.4300
 9344SOL    HW139491   3.610   1.580  10.114 -0.7345 -0.5030  0.1665
 9344SOL    HW239492   3.543   1.618   9.990 -0.4215 -0.7407 -0.5976
 9345SOL     OW39493   3.935   0.908   7.215  0.2206 -0.3649 -0.7942
 9345SOL    HW139494   3.989   0.851   7.270 -0.2800  2.6553  2.8370
 9345SOL    HW239495   3.999   0.951   7.158  1.2069 -1.1304 -0.2647
 9346SOL     OW39496   0.424   2.146   8.992  0.4485 -0.1830 -0.1955
 9346SOL    HW139497   0.422   2.221   9.052  0.6796  0.3907 -0.9005
 9346SOL    HW239498   0.443   2.076   9.053 -1.2186 -1.2328 -0.8681
 9347SOL     OW39499   1.845   0.006   7.892 -0.6930 -0.2154 -0.6273
 9347SOL    HW139500   1.791   4.709   7.815 -0.0042 -1.2361 -0.8613
 9347SOL    HW239501   1.814   4.658   7.949 -0.5094  0.0852 -0.1569
 9348SOL     OW39502   2.511   2.762   4.320  0.1488 -0.0485  0.0019
 9348SOL    HW139503   2.477   2.772   4.409 -0.4215 -0.9282 -0.1238
 9348SOL    HW239504   2.517   2.855   4.298 -0.6598 -0.1695 -0.7248
 9349SOL     OW39505   1.881   4.135   2.354  0.2162  0.0914 -0.1525
 9349SOL    HW139506   1.867   4.078   2.279 -1.7066 -1.6954  1.5858
 9349SOL    HW239507   1.802   4.189   2.348 -0.0225 -0.2201  0.1792
 9350SOL     OW39508   3.529   3.322  12.216  0.3269  0.2486 -0.5372
 9350SOL    HW139509   3.460   3.371  12.261  0.7700  0.4053 -0.0289
 9350SOL    HW239510   3.565   3.287  12.297  0.2017 -0.1419 -0.6533
 9351SOL     OW39511   0.780   3.888  14.675 -0.2111  0.2097 -0.4219
 9351SOL    HW139512   0.843   3.840  14.621 -0.2040 -1.7501  1.3451
 9351SOL    HW239513   0.814   3.856  14.758 -1.4592  1.9671  0.7630
 9352SOL     OW39514   2.313   0.509   1.761 -0.3447 -0.1796 -0.5079
 9352SOL    HW139515   2.245   0.482   1.699  0.1861  1.1149 -1.6421
 9352SOL    HW239516   2.259   0.536   1.835  1.3480  2.1223 -0.1118
 9353SOL     OW39517   2.205   3.350   3.003  0.5743 -0.4878  0.4599
 9353SOL    HW139518   2.157   3.306   2.933 -1.5625  1.1122  0.9334
 9353SOL    HW239519   2.197   3.301   3.085 -1.0151 -1.1341 -0.0809
 9354SOL     OW39520   0.455   3.560   6.429 -0.4750  0.0145 -0.2108
 9354SOL    HW139521   0.361   3.549   6.446 -0.7055 -1.8256 -2.6364
 9354SOL    HW239522   0.466   3.540   6.336 -1.9243  2.2738 -0.8539
 9355SOL     OW39523   2.667   3.458   4.083 -0.8925  0.3804 -0.2725
 9355SOL    HW139524   2.739   3.505   4.043  0.5429 -1.3637  0.2259
 9355SOL    HW239525   2.597   3.517   4.058  0.6022  0.4753 -4.1804
 9356SOL     OW39526   2.185   1.567   3.567 -0.0526  0.3031  0.3205
 9356SOL    HW139527   2.201   1.593   3.658  0.9670  0.7521  0.0165
 9356SOL    HW239528   2.164   1.650   3.524 -2.7073 -0.0436  0.9696
 9357SOL     OW39529   0.181   4.218   9.101  0.0695 -0.2820 -0.2817
 9357SOL    HW139530   0.185   4.126   9.072  1.4081 -0.3927  0.2654
 9357SOL    HW239531   0.274   4.232   9.083  0.1762  1.1682  1.4987
 9358SOL     OW39532   4.502   1.203   3.098 -0.9057 -0.2382 -0.7103
 9358SOL    HW139533   4.577   1.167   3.051 -2.2628  0.3710 -3.3463
 9358SOL    HW239534   4.527   1.293   3.116  2.2313 -0.9180 -1.6733
 9359SOL     OW39535   2.963   3.510   2.747  0.3265 -0.6980  0.1454
 9359SOL    HW139536   2.884   3.456   2.744  0.2329 -0.5727  0.3692
 9359SOL    HW239537   3.019   3.471   2.679  1.6877 -2.0586  2.0432
 9360SOL     OW39538   4.140   3.318   4.696  0.2622  0.1158 -0.2310
 9360SOL    HW139539   4.145   3.373   4.618  2.1789 -0.7168 -0.6863
 9360SOL    HW239540   4.183   3.240   4.661  0.4297  0.2779 -0.3863
 9361SOL     OW39541   1.156   0.309  12.522  0.5970  0.0050 -0.2571
 9361SOL    HW139542   1.248   0.336  12.521  0.6429 -0.1531 -1.1556
 9361SOL    HW239543   1.165   0.220  12.555 -0.8778 -0.2889 -0.6601
 9362SOL     OW39544   3.036   3.774   3.410  0.1415 -0.6324 -0.6947
 9362SOL    HW139545   3.082   3.691   3.398 -0.7687 -1.3166  0.5502
 9362SOL    HW239546   2.954   3.741   3.375 -1.3536  1.8526  0.5271
 9363SOL     OW39547   2.409   3.839   2.723 -0.0973  0.5257 -0.3547
 9363SOL    HW139548   2.447   3.784   2.792 -0.6850 -0.5672 -0.9137
 9363SOL    HW239549   2.359   3.777   2.671 -2.5799  2.6087 -0.4522
 9364SOL     OW39550   0.000   4.487   3.255  0.0206 -0.1585 -0.4640
 9364SOL    HW139551   4.708   4.579   3.278  1.4676 -0.4419  1.5785
 9364SOL    HW239552   0.022   4.484   3.161 -2.3919 -0.3918 -1.0281
 9365SOL     OW39553   0.999   3.307  13.467  0.3379 -0.1528  0.0879
 9365SOL    HW139554   0.983   3.214  13.483 -1.9043  0.3982  1.0427
 9365SOL    HW239555   0.908   3.333  13.458  0.6491  0.5892 -0.8509
 9366SOL     OW39556   1.919   3.013   2.076 -0.1627 -0.3288 -0.1178
 9366SOL    HW139557   1.995   3.067   2.097 -0.9714  0.5837  0.4659
 9366SOL    HW239558   1.857   3.071   2.119 -2.0067 -1.5136 -1.1919
 9367SOL     OW39559   1.911   3.555   8.323 -0.0632 -0.2213  0.1549
 9367SOL    HW139560   1.823   3.567   8.289  0.5687  2.6845 -0.4839
 9367SOL    HW239561   1.890   3.540   8.415 -2.5813 -0.3287 -0.4547
 9368SOL     OW39562   3.920   2.473   8.511  0.3977  0.3505 -0.4096
 9368SOL    HW139563   3.988   2.533   8.542 -0.1898  1.3092 -0.9943
 9368SOL    HW239564   3.840   2.515   8.540 -0.1222 -1.3102  0.5618
 9369SOL     OW39565   1.812   2.548   2.958  0.2170  0.0544  0.4727
 9369SOL    HW139566   1.791   2.635   2.991  3.3983  0.6869  0.8964
 9369SOL    HW239567   1.907   2.554   2.944  0.3676  0.0296  1.4789
 9370SOL     OW39568   1.086   1.501   7.541  0.4322 -0.3590  0.2758
 9370SOL    HW139569   1.115   1.591   7.530 -1.9477  0.3513 -0.2121
 9370SOL    HW239570   1.085   1.498   7.636 -0.2808 -0.1313  0.2768
 9371SOL     OW39571   0.697   0.418  16.515  0.3379  0.2378 -0.3086
 9371SOL    HW139572   0.752   0.385  16.444 -2.1790  1.9485 -3.0276
 9371SOL    HW239573   0.629   0.451  16.457  0.1405 -0.6396 -0.5796
 9372SOL     OW39574   4.232   2.747   0.992 -0.9460  0.5913 -0.0786
 9372SOL    HW139575   4.229   2.766   0.898 -0.4570  1.3863  0.0672
 9372SOL    HW239576   4.192   2.660   0.995  1.1217 -0.3206  0.6484
 9373SOL     OW39577   0.247   3.685  17.413 -0.0949 -0.6820 -0.1577
 9373SOL    HW139578   0.328   3.734  17.422 -0.8704  0.4746  0.4503
 9373SOL    HW239579   0.181   3.749  17.438 -1.4161 -1.1470 -2.4020
 9374SOL     OW39580   0.193   0.808   1.807  0.3878  0.0365 -0.0336
 9374SOL    HW139581   0.222   0.765   1.727 -0.0762  0.6413 -0.5327
 9374SOL    HW239582   0.216   0.899   1.791  0.7523 -0.0492  0.0110
 9375SOL     OW39583   1.733   1.787  11.782 -0.2700 -0.0515 -0.2402
 9375SOL    HW139584   1.680   1.859  11.746 -0.3628  0.9804  1.9699
 9375SOL    HW239585   1.671   1.714  11.785  0.4813 -0.7191 -0.9317
 9376SOL     OW39586   2.352   2.160   3.885  0.2967 -0.0238 -0.1566
 9376SOL    HW139587   2.344   2.255   3.895 -0.3872 -0.0938 -0.0508
 9376SOL    HW239588   2.430   2.150   3.830  0.4608 -1.1410  0.2702
 9377SOL     OW39589   4.062   4.004  10.242 -0.1136  0.0163 -0.3293
 9377SOL    HW139590   4.092   3.975  10.329  0.0548 -0.0632 -0.4147
 9377SOL    HW239591   4.143   3.990  10.193  0.4562 -0.8718  0.8571
 9378SOL     OW39592   0.932   3.552   5.389  0.3192 -0.2473  0.2667
 9378SOL    HW139593   1.019   3.561   5.350 -0.0737  0.8274 -0.3699
 9378SOL    HW239594   0.917   3.634   5.435  1.9830  1.0059 -1.4173
 9379SOL     OW39595   0.794   2.826   5.318 -0.6690 -0.2582  0.3238
 9379SOL    HW139596   0.846   2.828   5.237 -0.9440  2.3717  0.1997
 9379SOL    HW239597   0.860   2.795   5.381 -1.6243  0.7031  1.7805
 9380SOL     OW39598   0.916   1.899  16.525  0.3683  0.3378  0.3460
 9380SOL    HW139599   0.882   1.920  16.438 -1.6511  1.5127  1.4307
 9380SOL    HW239600   0.843   1.898  16.586  1.8738 -1.6057  2.1228
 9381SOL     OW39601   3.583   4.317   3.427  0.0294 -0.0746  0.2975
 9381SOL    HW139602   3.500   4.300   3.470  0.9477 -0.2441  1.9860
 9381SOL    HW239603   3.639   4.254   3.472  1.1879  0.3948 -0.4856
 9382SOL     OW39604   0.299   0.636   3.716 -0.2334 -0.3345  0.2080
 9382SOL    HW139605   0.342   0.599   3.639 -1.5419  0.0406 -0.6999
 9382SOL    HW239606   0.341   0.591   3.789  0.6264 -1.7671 -1.1741
 9383SOL     OW39607   4.477   4.693   6.948  0.5890 -0.0858 -0.3351
 9383SOL    HW139608   4.498   4.640   7.025  0.1505 -0.0689 -0.2032
 9383SOL    HW239609   4.437   4.629   6.889  0.0513 -0.5493  0.5338
 9384SOL     OW39610   3.078   2.898   7.388  0.0123  0.5154  0.0025
 9384SOL    HW139611   3.172   2.912   7.385  0.0388  0.5024  0.7889
 9384SOL    HW239612   3.060   2.852   7.306 -0.5944 -0.7865  0.8780
 9385SOL     OW39613   2.666   1.216   9.176  0.7101  0.1776  0.3095
 9385SOL    HW139614   2.755   1.184   9.168 -0.4031 -2.5144 -1.3760
 9385SOL    HW239615   2.630   1.190   9.092 -1.1097 -0.0352  1.1447
 9386SOL     OW39616   0.505   4.558   1.848 -0.2476  0.6245 -0.5897
 9386SOL    HW139617   0.419   4.600   1.848  0.0062  1.1406 -1.2003
 9386SOL    HW239618   0.508   4.550   1.753  3.6737 -0.9402 -0.3188
 9387SOL     OW39619   0.765   3.251   7.054  0.1841  0.0014 -0.1212
 9387SOL    HW139620   0.788   3.343   7.070 -0.3480 -0.4743  3.2470
 9387SOL    HW239621   0.674   3.254   7.026  0.1406 -1.9059 -0.1846
 9388SOL     OW39622   0.983   4.430   4.622  0.1575  0.0352  0.8317
 9388SOL    HW139623   1.074   4.448   4.644 -0.4035  1.1879  2.1917
 9388SOL    HW239624   0.974   4.360   4.686  0.2259 -0.4296  0.3377
 9389SOL     OW39625   1.537   0.163   8.969  0.3471  0.5438  0.3065
 9389SOL    HW139626   1.571   0.114   9.044 -0.7509  0.4023  0.7081
 9389SOL    HW239627   1.449   0.125   8.970 -0.3897  2.2466 -0.2869
 9390SOL     OW39628   2.285   1.943  12.259  0.6241  0.4785  0.2039
 9390SOL    HW139629   2.334   1.904  12.186 -2.0457  0.6573 -1.6824
 9390SOL    HW239630   2.305   2.036  12.265  1.9412  0.3288 -1.6040
 9391SOL     OW39631   0.268   3.701   5.067  0.0819  0.3073 -0.6976
 9391SOL    HW139632   0.288   3.791   5.094 -1.1728  0.3033  0.3257
 9391SOL    HW239633   0.341   3.652   5.105 -0.3333 -0.3721 -0.7729
 9392SOL     OW39634   2.279   0.639   2.125 -0.2525 -0.0791 -0.2245
 9392SOL    HW139635   2.220   0.590   2.067  1.5091  0.0222 -2.0680
 9392SOL    HW239636   2.363   0.593   2.119  0.4649  1.0467  1.2997
 9393SOL     OW39637   1.777   1.411  12.008  0.1014 -0.5303  0.8089
 9393SOL    HW139638   1.733   1.367  12.081 -0.8949 -0.5291  0.2185
 9393SOL    HW239639   1.755   1.503  12.018 -1.3305 -0.5982 -1.6930
 9394SOL     OW39640   1.303   3.395   5.270  0.0052  0.0623  0.3090
 9394SOL    HW139641   1.230   3.335   5.284 -0.3201  0.1317 -1.1301
 9394SOL    HW239642   1.264   3.480   5.289 -0.9032 -0.3560  0.3413
 9395SOL     OW39643   2.043   0.410   1.334  0.3165  0.6076 -0.0848
 9395SOL    HW139644   2.119   0.355   1.315 -0.7419 -1.5402  1.8914
 9395SOL    HW239645   1.969   0.360   1.300 -0.6229  1.0179  1.3415
 9396SOL     OW39646   4.049   1.137   3.317 -0.2725 -0.2889 -0.1032
 9396SOL    HW139647   4.131   1.090   3.329 -1.2157 -1.5411  1.4913
 9396SOL    HW239648   4.068   1.184   3.236  2.3785  1.6893  1.6959
 9397SOL     OW39649   1.866   3.560   3.999  0.6750  0.4757 -0.1915
 9397SOL    HW139650   1.955   3.554   4.031 -0.5309  0.8320  3.1833
 9397SOL    HW239651   1.863   3.652   3.969  0.3804  0.1464 -1.1864
 9398SOL     OW39652   3.061   3.166   2.783  0.0224 -0.6714 -0.2171
 9398SOL    HW139653   3.075   3.140   2.874  2.2379 -0.8512 -0.6207
 9398SOL    HW239654   2.975   3.209   2.782  0.2074 -0.2664  1.9436
 9399SOL     OW39655   4.554   2.302  16.607  0.0782  0.1816  0.3882
 9399SOL    HW139656   4.582   2.280  16.695 -1.6453  0.9340  1.1342
 9399SOL    HW239657   4.594   2.389  16.606  1.7387 -0.5953 -0.5385
 9400SOL     OW39658   2.783   0.886  13.255  0.7248  0.7199  0.4441
 9400SOL    HW139659   2.767   0.867  13.163  1.0458 -1.5205  0.8526
 9400SOL    HW239660   2.724   0.830  13.306 -0.3956  0.2762 -1.3488
 9401SOL     OW39661   3.290   4.585   6.348  0.0244 -0.2443 -0.4855
 9401SOL    HW139662   3.277   4.619   6.437 -1.5414  0.6600 -1.0445
 9401SOL    HW239663   3.276   4.492   6.363 -0.5494 -0.2044 -0.7426
 9402SOL     OW39664   1.366   2.640  11.531 -0.4172 -0.9715  0.5597
 9402SOL    HW139665   1.444   2.639  11.585 -0.1929 -0.2519  0.2496
 9402SOL    HW239666   1.302   2.698  11.571 -0.5304 -0.9573  0.3627
 9403SOL     OW39667   0.421   0.171   1.810  0.6015 -0.3680 -0.0328
 9403SOL    HW139668   0.412   0.247   1.867 -0.1723  0.3475 -1.1090
 9403SOL    HW239669   0.516   0.163   1.802  0.9001 -0.0381  3.1848
 9404SOL     OW39670   4.380   2.146   4.698  0.5127 -0.0442  0.6609
 9404SOL    HW139671   4.307   2.152   4.637  1.3606 -0.9225 -0.4468
 9404SOL    HW239672   4.438   2.092   4.644 -2.4156 -1.1961 -1.3283
 9405SOL     OW39673   1.671   0.316  15.879  0.3600 -0.1706 -0.1254
 9405SOL    HW139674   1.747   0.267  15.912  1.0738  0.5110 -0.7897
 9405SOL    HW239675   1.608   0.282  15.943  2.1927 -1.5086  0.9872
 9406SOL     OW39676   1.586   3.391  12.829  0.1536  0.1580 -0.3963
 9406SOL    HW139677   1.641   3.329  12.782 -0.3945  0.1811 -1.0780
 9406SOL    HW239678   1.542   3.336  12.893 -2.1128  1.3796 -0.8850
 9407SOL     OW39679   1.281   1.962   1.709 -0.4016 -0.4050  0.0233
 9407SOL    HW139680   1.224   2.035   1.735 -0.7081 -1.7288  3.0611
 9407SOL    HW239681   1.222   1.890   1.688  1.7514 -2.1524 -0.0224
 9408SOL     OW39682   3.889   2.117   3.638  0.4529  1.0284  0.2300
 9408SOL    HW139683   3.970   2.106   3.587 -0.2370 -0.8148 -0.4891
 9408SOL    HW239684   3.871   2.026   3.660 -1.3395  1.6131  1.1021
 9409SOL     OW39685   4.109   3.107   0.384 -0.1784 -0.3962  0.0384
 9409SOL    HW139686   4.072   3.139   0.301 -1.1093 -1.4325  0.0608
 9409SOL    HW239687   4.178   3.169   0.408  0.8289 -1.7819  0.6791
 9410SOL     OW39688   3.338   3.429  11.971 -0.6704  0.1284 -0.3725
 9410SOL    HW139689   3.385   3.347  11.960  0.9809  0.9608  0.3974
 9410SOL    HW239690   3.286   3.410  12.049  0.2400  1.7332  0.6447
 9411SOL     OW39691   0.367   2.383   3.422 -0.0856  0.2044  0.1125
 9411SOL    HW139692   0.314   2.389   3.343  1.6246 -0.1057 -1.0646
 9411SOL    HW239693   0.291   2.382   3.480  0.0575 -0.7358  0.2861
 9412SOL     OW39694   4.123   0.432   5.334 -0.4826  0.6929  0.1656
 9412SOL    HW139695   4.058   0.472   5.391 -0.6504 -0.8822  1.0634
 9412SOL    HW239696   4.153   0.364   5.394  0.2762  0.5809 -0.3302
 9413SOL     OW39697   3.819   4.357   3.646  0.2408  0.4603 -0.1931
 9413SOL    HW139698   3.836   4.381   3.555  0.0669  3.1516  0.4856
 9413SOL    HW239699   3.890   4.294   3.661 -2.5154 -2.1780  1.6864
 9414SOL     OW39700   2.715   2.833   6.520  0.2741 -0.0652  0.0955
 9414SOL    HW139701   2.626   2.841   6.485 -0.3809 -0.1310  1.7342
 9414SOL    HW239702   2.739   2.750   6.480 -0.8347 -0.5178  0.3547
 9415SOL     OW39703   2.867   4.540   2.877 -0.7561 -0.2704 -0.1461
 9415SOL    HW139704   2.939   4.564   2.936 -0.4974 -0.4243 -0.3972
 9415SOL    HW239705   2.917   4.504   2.804 -0.3605 -1.2199  0.6088
 9416SOL     OW39706   4.335   3.808   1.117 -0.0428  0.9811 -0.2361
 9416SOL    HW139707   4.404   3.825   1.053  0.8494  2.2940  1.0613
 9416SOL    HW239708   4.272   3.761   1.063  0.0309  0.8488 -0.2056
 9417SOL     OW39709   3.788   2.653   7.574  1.0796 -0.2770  0.0055
 9417SOL    HW139710   3.838   2.720   7.621  0.8642 -0.1890  0.1109
 9417SOL    HW239711   3.856   2.587   7.563 -0.9748 -2.1890 -1.5059
 9418SOL     OW39712   2.017   0.568   9.021 -0.2115 -0.6802  0.3118
 9418SOL    HW139713   1.939   0.550   9.074  0.6701 -0.3204  1.7493
 9418SOL    HW239714   2.035   0.478   8.994  2.3293 -0.1766  0.3184
 9419SOL     OW39715   3.085   2.907  10.097  0.4165 -0.1330 -0.0675
 9419SOL    HW139716   3.157   2.877  10.153  0.6866 -1.3393 -1.0513
 9419SOL    HW239717   3.029   2.831  10.116 -1.0399  0.9931  0.1247
 9420SOL     OW39718   0.561   3.746   5.153 -0.2116 -0.2849 -0.5810
 9420SOL    HW139719   0.588   3.792   5.074  0.3604 -1.4722 -1.0697
 9420SOL    HW239720   0.619   3.671   5.141 -0.0252 -0.4415  1.2444
 9421SOL     OW39721   2.586   1.590   7.455  0.2683  0.7466  0.4785
 9421SOL    HW139722   2.620   1.521   7.398 -2.5615 -2.0674  2.2098
 9421SOL    HW239723   2.537   1.544   7.523  0.9960 -0.5365  0.1317
 9422SOL     OW39724   1.549   1.535   0.615 -0.7472 -0.2672  0.6753
 9422SOL    HW139725   1.546   1.568   0.704 -0.2150 -0.3122  0.7057
 9422SOL    HW239726   1.540   1.442   0.634 -1.3426  0.0948  2.1439
 9423SOL     OW39727   4.485   0.392  15.885  0.0117 -0.0548 -0.3961
 9423SOL    HW139728   4.437   0.372  15.804 -0.1232  1.2937 -0.6557
 9423SOL    HW239729   4.413   0.394  15.949 -0.5506  0.8700 -1.0509
 9424SOL     OW39730   3.251   1.640   3.503 -0.4083 -0.1669  0.1954
 9424SOL    HW139731   3.313   1.654   3.431 -2.9967  0.3837 -1.9123
 9424SOL    HW239732   3.201   1.564   3.472  1.7648 -0.2367 -3.1435
 9425SOL     OW39733   0.372   3.764   2.202  0.0925  0.2769  0.1420
 9425SOL    HW139734   0.309   3.708   2.157  2.7352 -0.2311 -2.8998
 9425SOL    HW239735   0.318   3.770   2.280  0.5290  0.7441  0.4097
 9426SOL     OW39736   0.728   0.757   8.086 -0.0081  0.5274  0.0516
 9426SOL    HW139737   0.742   0.852   8.094 -2.3875  0.7886  1.1592
 9426SOL    HW239738   0.735   0.744   7.992 -0.3433  1.1049 -0.0536
 9427SOL     OW39739   2.458   3.086   7.205 -0.1458 -0.8395 -0.1433
 9427SOL    HW139740   2.412   3.134   7.274  0.9933 -0.8560  0.6462
 9427SOL    HW239741   2.383   3.060   7.152 -0.5468 -1.5652  0.7903
 9428SOL     OW39742   2.122   0.852  10.640  0.4737  0.3984  0.6631
 9428SOL    HW139743   2.160   0.765  10.643  0.7767  0.4716 -0.8938
 9428SOL    HW239744   2.161   0.907  10.708  2.1272 -0.1938  0.1819
 9429SOL     OW39745   1.125   2.540  14.078 -0.1760 -0.3681 -0.2412
 9429SOL    HW139746   1.137   2.485  14.000 -0.4895 -1.1390  0.2562
 9429SOL    HW239747   1.134   2.490  14.158  0.0660 -0.9794 -0.6530
 9430SOL     OW39748   1.044   1.925   3.125 -0.8194  0.2827  0.2626
 9430SOL    HW139749   0.996   2.006   3.108  3.1511  2.4547 -0.7135
 9430SOL    HW239750   1.082   1.911   3.037  0.8349  0.0705  1.0052
 9431SOL     OW39751   0.499   1.544   4.154 -0.0302 -0.3599 -0.4081
 9431SOL    HW139752   0.579   1.562   4.204  1.0854 -1.2942 -1.8344
 9431SOL    HW239753   0.484   1.624   4.104 -0.2288  0.3389  0.7690
 9432SOL     OW39754   0.316   4.538   4.137 -0.3900 -0.4941 -0.3288
 9432SOL    HW139755   0.363   4.464   4.099 -0.0894  0.0106 -0.9433
 9432SOL    HW239756   0.326   4.596   4.062 -0.2095  1.6666  1.3739
 9433SOL     OW39757   0.471   4.172   6.682 -0.6311 -0.1825 -0.0960
 9433SOL    HW139758   0.442   4.142   6.768 -1.1679  1.3498  0.2604
 9433SOL    HW239759   0.476   4.266   6.700 -1.0923 -0.0236 -0.7965
 9434SOL     OW39760   1.703   0.688   3.552  0.6572  0.0630 -0.1861
 9434SOL    HW139761   1.757   0.625   3.599 -0.0576 -0.4595 -0.0629
 9434SOL    HW239762   1.643   0.703   3.626 -0.9986 -1.1958 -1.2708
 9435SOL     OW39763   0.709   0.191   6.631  0.0098 -0.6731 -0.1331
 9435SOL    HW139764   0.766   0.130   6.585 -0.5333 -0.6865 -0.8007
 9435SOL    HW239765   0.625   0.153   6.604 -0.1856  0.3694 -0.9896
 9436SOL     OW39766   1.192   2.833   4.971  0.2973 -0.0758 -0.1558
 9436SOL    HW139767   1.187   2.803   4.880  1.3472 -0.9453  0.0703
 9436SOL    HW239768   1.287   2.823   4.982 -0.0066 -1.6911  0.9820
 9437SOL     OW39769   3.482   2.660   3.277  0.0121  0.6597  0.3361
 9437SOL    HW139770   3.486   2.727   3.209 -1.7138  0.8389  0.4221
 9437SOL    HW239771   3.448   2.587   3.226  3.0440 -1.2014  0.9805
 9438SOL     OW39772   3.768   1.154   2.326  0.0141  0.1169 -0.1459
 9438SOL    HW139773   3.681   1.196   2.333 -0.1427 -0.5682  2.0177
 9438SOL    HW239774   3.807   1.218   2.267  1.7332 -0.5790  0.2590
 9439SOL     OW39775   0.096   3.189  10.510 -0.3708 -0.0739 -0.6894
 9439SOL    HW139776   0.005   3.217  10.495 -0.4707  0.2417  0.5753
 9439SOL    HW239777   0.080   3.096  10.493  1.3009 -0.4390 -0.1964
 9440SOL     OW39778   4.138   2.665  11.909  0.7792 -0.4144  0.2237
 9440SOL    HW139779   4.102   2.748  11.876  2.6266 -0.0167 -0.7882
 9440SOL    HW239780   4.184   2.628  11.833 -1.1117  2.6110 -2.4104
 9441SOL     OW39781   4.311   3.244   7.468 -0.0936  0.5862  0.3160
 9441SOL    HW139782   4.389   3.299   7.472  0.6627 -0.3948 -0.9327
 9441SOL    HW239783   4.238   3.296   7.501  0.5838  0.6724  1.6978
 9442SOL     OW39784   2.987   0.721   5.106 -0.2097  0.0329 -0.7644
 9442SOL    HW139785   2.992   0.762   5.020  2.0987 -0.2634 -0.7952
 9442SOL    HW239786   2.906   0.673   5.090  0.7710 -1.8057 -0.2708
 9443SOL     OW39787   3.887   1.404   3.489 -0.6423  0.0503  0.1574
 9443SOL    HW139788   3.798   1.423   3.517 -0.9593  0.9728 -1.4877
 9443SOL    HW239789   3.870   1.321   3.444  0.4106 -1.9738  3.5124
 9444SOL     OW39790   1.832   2.198   8.816 -0.1410 -0.3751 -0.8880
 9444SOL    HW139791   1.842   2.220   8.724 -0.1362 -1.9011 -1.2525
 9444SOL    HW239792   1.768   2.128   8.829 -1.4012  0.8940 -0.2322
 9445SOL     OW39793   1.500   0.819   6.190  0.4600 -0.1414  0.5567
 9445SOL    HW139794   1.522   0.904   6.228  2.3663  0.0392 -0.9550
 9445SOL    HW239795   1.454   0.845   6.110 -1.1795 -0.9317  1.2377
 9446SOL     OW39796   4.156   0.585   0.425  0.1769  0.4779 -0.4605
 9446SOL    HW139797   4.209   0.663   0.417  0.2268  0.2248 -2.6151
 9446SOL    HW239798   4.089   0.595   0.357  0.4409 -0.7182 -0.8921
 9447SOL     OW39799   1.873   0.452  11.542 -0.0585 -0.4421 -0.2431
 9447SOL    HW139800   1.783   0.475  11.562  0.4349  0.7735  0.5258
 9447SOL    HW239801   1.859   0.421  11.452 -1.3464 -1.9582  0.4800
 9448SOL     OW39802   0.486   1.055   8.268 -0.6986  0.4870  0.3934
 9448SOL    HW139803   0.476   1.050   8.363 -2.0307  3.7508  0.4516
 9448SOL    HW239804   0.471   1.149   8.259  0.9485  0.6326 -0.9433
 9449SOL     OW39805   1.315   2.085   9.009 -0.1157 -0.4338  0.2005
 9449SOL    HW139806   1.310   2.099   8.914  0.1571 -0.4991  0.1750
 9449SOL    HW239807   1.229   2.118   9.033 -0.3015  0.7192 -2.0530
 9450SOL     OW39808   0.084   3.209   0.142 -0.3387  0.2628  0.2540
 9450SOL    HW139809   0.113   3.128   0.100  3.0309  0.8599  1.4810
 9450SOL    HW239810   0.042   3.163   0.215  1.9088 -1.6351  0.3371
 9451SOL     OW39811   0.676   3.468   4.252  0.0804 -0.2043 -0.2347
 9451SOL    HW139812   0.720   3.507   4.327 -0.8089 -1.0914  0.7379
 9451SOL    HW239813   0.748   3.430   4.201 -1.3061 -3.0558 -0.0345
 9452SOL     OW39814   1.759   2.513   1.256 -0.8262  0.1782 -0.0982
 9452SOL    HW139815   1.747   2.516   1.161  0.4285  0.0718 -0.2600
 9452SOL    HW239816   1.849   2.481   1.264 -0.5464  1.3810  1.7137
 9453SOL     OW39817   4.394   4.674   6.336  0.8199  0.2114  0.4020
 9453SOL    HW139818   4.345   0.031   6.316  0.6868  0.3051  1.0905
 9453SOL    HW239819   4.331   4.607   6.310 -0.5467  1.2423  1.0489
 9454SOL     OW39820   4.606   2.733   2.605  0.4254 -0.0640  0.4930
 9454SOL    HW139821   4.608   2.676   2.682 -0.4247  2.5877  2.4950
 9454SOL    HW239822   4.635   2.675   2.535 -0.7820  0.0204 -0.0870
 9455SOL     OW39823   4.250   0.247  10.731 -0.3274  0.1142  0.9035
 9455SOL    HW139824   4.233   0.236  10.638  1.3236 -2.0309  0.8509
 9455SOL    HW239825   4.189   0.179  10.758  2.1191 -2.2884  0.3846
 9456SOL     OW39826   2.743   1.523   7.212  0.6133  0.3157 -0.6292
 9456SOL    HW139827   2.837   1.520   7.194  0.8937 -1.8209  1.2501
 9456SOL    HW239828   2.719   1.452   7.152  0.6695  0.5080 -0.8821
 9457SOL     OW39829   4.284   4.176   6.530 -0.1219  0.1628  0.4872
 9457SOL    HW139830   4.217   4.151   6.595 -2.3101  0.2000 -1.7688
 9457SOL    HW239831   4.251   4.254   6.486  2.0041  0.5267 -0.4767
 9458SOL     OW39832   0.321   1.555   6.105 -0.2493  0.0848 -0.0288
 9458SOL    HW139833   0.320   1.470   6.062 -2.3668  1.1601 -2.0799
 9458SOL    HW239834   0.361   1.527   6.188  0.9891 -0.2993 -0.7604
 9459SOL     OW39835   2.625   3.560   5.618  0.0611 -0.6679 -0.3253
 9459SOL    HW139836   2.540   3.561   5.574 -0.5128 -2.4787  0.7854
 9459SOL    HW239837   2.687   3.588   5.550 -0.7573 -0.3340 -0.9297
 9460SOL     OW39838   3.211   4.290   8.153 -0.0097  0.0442 -0.3544
 9460SOL    HW139839   3.210   4.199   8.122 -0.0880  0.4724 -1.6090
 9460SOL    HW239840   3.294   4.295   8.201 -1.8480 -1.1364  2.9740
 9461SOL     OW39841   2.061   2.812   7.952  0.4821 -0.2685 -0.1688
 9461SOL    HW139842   2.008   2.763   8.015  0.3829 -0.7248 -0.6037
 9461SOL    HW239843   2.144   2.765   7.963  0.5312 -0.2386 -0.4167
 9462SOL     OW39844   3.868   0.104  10.025  0.5852  0.2402  0.0321
 9462SOL    HW139845   3.828   0.036   9.970  0.6838 -0.1723  0.4730
 9462SOL    HW239846   3.803   0.115  10.094 -0.6920 -0.5886 -1.0323
 9463SOL     OW39847   3.158   1.517   4.320  0.4282 -0.0014  0.6308
 9463SOL    HW139848   3.143   1.561   4.236 -0.4604 -0.9393  0.3023
 9463SOL    HW239849   3.176   1.595   4.372  4.0415 -0.0631 -0.5191
 9464SOL     OW39850   1.245   0.026   8.356 -0.6565  0.1163  0.1307
 9464SOL    HW139851   1.327   0.001   8.312 -0.9653  0.1550 -0.4592
 9464SOL    HW239852   1.200   0.047   8.274 -3.8503 -0.0545  1.8503
 9465SOL     OW39853   1.731   3.325  10.355  0.2445 -0.2246 -0.2129
 9465SOL    HW139854   1.776   3.287  10.430  0.7317 -2.1333 -1.4690
 9465SOL    HW239855   1.652   3.355  10.401  0.8901 -1.5603  1.7876
 9466SOL     OW39856   4.581   1.909   3.096 -0.7079 -0.1309 -0.1027
 9466SOL    HW139857   4.533   1.955   3.027 -1.8653  2.0442  2.1244
 9466SOL    HW239858   4.661   1.896   3.046  0.9817  0.3455  2.4830
 9467SOL     OW39859   4.581   2.680   8.426 -0.4942  0.0039 -0.2407
 9467SOL    HW139860   4.522   2.622   8.378  0.5539 -1.2023 -0.0511
 9467SOL    HW239861   4.586   2.636   8.510  0.0921  2.6512  1.1084
 9468SOL     OW39862   2.849   2.065  16.532  1.0670 -0.3414  0.1034
 9468SOL    HW139863   2.851   2.040  16.625  2.0293 -0.5455  0.0278
 9468SOL    HW239864   2.877   1.984  16.490  0.5306 -1.2258  1.4457
 9469SOL     OW39865   2.735   0.256   9.005 -0.0703  0.2200  0.5481
 9469SOL    HW139866   2.669   0.248   9.074 -1.0895  0.1882 -0.4353
 9469SOL    HW239867   2.707   0.336   8.960  1.2982  0.3119 -0.1291
 9470SOL     OW39868   1.865   0.400   8.111  0.5000  0.5332  0.2194
 9470SOL    HW139869   1.926   0.464   8.073  1.5153  0.6287  1.9716
 9470SOL    HW239870   1.911   0.320   8.084 -1.6324 -0.2974 -0.9235
 9471SOL     OW39871   0.245   4.689   0.667  0.2598 -0.1237  0.4309
 9471SOL    HW139872   0.331   4.721   0.640 -0.1965 -1.1733 -2.2469
 9471SOL    HW239873   0.215   4.637   0.593 -0.7987  2.8206 -1.2146
 9472SOL     OW39874   2.925   4.450   3.525 -0.4079 -0.0586 -0.3302
 9472SOL    HW139875   2.935   4.534   3.480  1.8494 -0.8166 -1.2532
 9472SOL    HW239876   2.950   4.470   3.615  0.0814 -1.2831 -0.1902
 9473SOL     OW39877   2.154   2.279  13.075  0.7449  0.4396  0.3436
 9473SOL    HW139878   2.183   2.254  13.163  0.1175 -0.6437  0.2409
 9473SOL    HW239879   2.239   2.312  13.047  1.1922  0.2041  1.4170
 9474SOL     OW39880   3.016   3.322   8.735 -0.1278 -0.1979  0.0926
 9474SOL    HW139881   2.954   3.272   8.681 -0.5248  2.2343 -1.6707
 9474SOL    HW239882   2.952   3.372   8.785  0.9598  1.9285 -0.6822
 9475SOL     OW39883   0.354   1.024   4.764 -0.0634 -0.3314  0.2442
 9475SOL    HW139884   0.351   1.030   4.860 -2.4153  1.0505  0.0775
 9475SOL    HW239885   0.440   1.063   4.750 -0.2263 -0.4239 -0.9436
 9476SOL     OW39886   2.857   0.393   0.497 -0.4397 -0.1272 -0.3159
 9476SOL    HW139887   2.932   0.447   0.474 -0.6360 -0.9059 -2.7784
 9476SOL    HW239888   2.850   0.398   0.592 -2.3272 -2.4228 -0.3122
 9477SOL     OW39889   1.320   2.817  17.274  0.3063 -0.3579  0.0227
 9477SOL    HW139890   1.246   2.807  17.214 -0.3862  1.1981  0.6183
 9477SOL    HW239891   1.288   2.889  17.329  1.5448  1.5227 -1.6808
 9478SOL     OW39892   0.241   1.800   9.488  0.2578 -0.0611 -0.4341
 9478SOL    HW139893   0.191   1.864   9.539  0.8924 -1.7343  2.2935
 9478SOL    HW239894   0.325   1.812   9.532 -0.5849 -1.3360  1.5262
 9479SOL     OW39895   2.388   0.541  10.081 -0.0162 -0.0543 -0.7132
 9479SOL    HW139896   2.332   0.495  10.143  0.5654  0.2653  0.0426
 9479SOL    HW239897   2.386   0.481  10.006 -0.9473  0.5142 -1.1461
 9480SOL     OW39898   4.378   4.405  12.741 -0.8563 -0.2051 -0.1240
 9480SOL    HW139899   4.333   4.394  12.824 -2.7363  0.1141 -1.0931
 9480SOL    HW239900   4.463   4.442  12.765 -1.4514  0.9898  0.1434
 9481SOL     OW39901   2.731   3.214  11.232 -0.5707 -0.4626 -0.6457
 9481SOL    HW139902   2.815   3.206  11.187 -0.3989 -0.6770 -0.2863
 9481SOL    HW239903   2.756   3.226  11.324 -0.8559 -4.0848 -0.0950
 9482SOL     OW39904   3.191   2.354  11.203  0.9042  0.0495  0.4336
 9482SOL    HW139905   3.202   2.260  11.190  0.5636 -0.0616  0.9900
 9482SOL    HW239906   3.216   2.356  11.295  1.4455  0.8530  0.2741
 9483SOL     OW39907   3.657   1.324  14.185  0.1771  0.1020 -0.3677
 9483SOL    HW139908   3.745   1.286  14.195 -0.7119 -2.1641 -1.2971
 9483SOL    HW239909   3.647   1.333  14.280 -1.8413  0.7133 -0.6435
 9484SOL     OW39910   2.054   1.451   4.824  0.2810 -0.4878  0.3322
 9484SOL    HW139911   2.115   1.524   4.815 -0.4921  0.0648 -0.3877
 9484SOL    HW239912   2.102   1.392   4.882 -2.1222 -0.2817  2.5017
 9485SOL     OW39913   1.509   0.866   5.211  0.3444 -0.0575 -0.1694
 9485SOL    HW139914   1.547   0.801   5.269  1.2946 -0.3832 -1.1758
 9485SOL    HW239915   1.441   0.812   5.172  1.3109  0.6071 -2.7442
 9486SOL     OW39916   2.200   0.188   4.344 -0.3366 -0.2637  0.0675
 9486SOL    HW139917   2.242   0.152   4.423 -2.0546 -2.2590  0.0566
 9486SOL    HW239918   2.146   0.258   4.380 -1.0119 -1.3169  1.1233
 9487SOL     OW39919   2.395   1.564   6.552 -0.1019 -0.5072 -0.2678
 9487SOL    HW139920   2.308   1.592   6.581 -0.1960  0.3659 -1.3826
 9487SOL    HW239921   2.414   1.631   6.486  2.1820  0.6852  1.6080
 9488SOL     OW39922   2.397   1.710   9.435 -0.6424  0.5149 -0.3971
 9488SOL    HW139923   2.408   1.680   9.526  0.4103  3.5646  0.4823
 9488SOL    HW239924   2.311   1.675   9.412  0.4371 -3.5812  1.7630
 9489SOL     OW39925   1.805   0.757   9.115  0.1784  0.2064  1.0296
 9489SOL    HW139926   1.729   0.699   9.107  0.1087  0.5568 -0.9901
 9489SOL    HW239927   1.801   0.781   9.022 -1.2554  1.4921  1.4375
 9490SOL     OW39928   1.481   2.436   3.397 -0.0090 -0.1382  0.2173
 9490SOL    HW139929   1.474   2.452   3.303  0.7022 -2.7576 -0.2570
 9490SOL    HW239930   1.401   2.387   3.417 -0.2946  0.3574  0.2954
 9491SOL     OW39931   3.546   3.921   2.172 -0.5575 -0.0802 -0.2313
 9491SOL    HW139932   3.619   3.923   2.112 -0.0206 -0.7763  0.3966
 9491SOL    HW239933   3.472   3.959   2.124 -1.1334  0.4286  1.0496
 9492SOL     OW39934   0.108   1.421   8.909  0.3450 -0.4821 -0.0136
 9492SOL    HW139935   0.015   1.415   8.929  0.3429  0.3255  0.2046
 9492SOL    HW239936   0.143   1.432   8.997  0.7301  0.6597 -0.3126
 9493SOL     OW39937   1.308   3.620   3.466  1.0417  0.5859 -0.4597
 9493SOL    HW139938   1.327   3.538   3.513  1.5341  0.0292 -1.6449
 9493SOL    HW239939   1.246   3.588   3.400  1.7348 -2.4013  0.3285
 9494SOL     OW39940   2.411   3.607  15.730  0.1050 -0.1370 -0.4516
 9494SOL    HW139941   2.470   3.669  15.772 -0.1796 -0.7222  0.8406
 9494SOL    HW239942   2.475   3.570  15.669  0.9818  3.7071 -1.8538
 9495SOL     OW39943   3.723   3.953   1.978 -0.3251  0.0100 -0.0318
 9495SOL    HW139944   3.793   3.906   1.933 -0.6874  1.0005 -1.5953
 9495SOL    HW239945   3.751   4.043   1.961  1.2167 -0.1783  1.5143
 9496SOL     OW39946   4.023   2.557   1.947  0.6907 -0.2233 -0.0829
 9496SOL    HW139947   3.946   2.517   1.906 -0.0277 -0.7467  1.7639
 9496SOL    HW239948   4.053   2.490   2.009 -0.6709  2.0139  3.0037
 9497SOL     OW39949   2.753   2.750   5.580  0.7291  0.4734  0.0424
 9497SOL    HW139950   2.697   2.827   5.568 -0.5590 -0.8151 -2.2509
 9497SOL    HW239951   2.700   2.674   5.603  0.0307  1.5674  2.0566
 9498SOL     OW39952   3.895   1.051   0.008 -0.3123 -0.6778  0.4443
 9498SOL    HW139953   3.907   1.015   0.096 -0.9472 -1.7514  0.0887
 9498SOL    HW239954   3.990   1.050  17.685 -0.1492  0.8195  1.3438
 9499SOL     OW39955   4.404   4.686  16.440 -0.5417  0.2064 -0.2704
 9499SOL    HW139956   4.433   4.596  16.428 -0.2584  0.4598 -1.5142
 9499SOL    HW239957   4.310   4.669  16.437  0.0227 -3.0006  0.7759
 9500SOL     OW39958   1.632   2.407   6.545  0.0820  0.3097  0.1244
 9500SOL    HW139959   1.647   2.318   6.513 -0.3682  0.6943 -1.1431
 9500SOL    HW239960   1.540   2.395   6.566 -0.2479 -2.0119 -2.6136
 9501SOL     OW39961   4.544   4.129   5.393  0.3156 -0.0925 -0.8344
 9501SOL    HW139962   4.450   4.128   5.412  0.4069  2.3744 -0.2163
 9501SOL    HW239963   4.530   4.188   5.319  1.4097 -1.5466 -2.1935
 9502SOL     OW39964   2.454   1.927   8.491  0.8003 -0.1437 -0.0185
 9502SOL    HW139965   2.425   1.957   8.577 -0.4585  0.2932 -0.6009
 9502SOL    HW239966   2.417   1.992   8.432 -0.8099 -1.0801 -0.0360
 9503SOL     OW39967   3.781   1.443  17.364  0.2992  0.4790  0.1488
 9503SOL    HW139968   3.755   1.364  17.413 -1.2430 -0.0485 -1.5061
 9503SOL    HW239969   3.844   1.481  17.425  0.5458  0.5975 -0.1820
 9504SOL     OW39970   4.226   2.848   0.414 -0.6609  0.9231 -0.2587
 9504SOL    HW139971   4.150   2.790   0.422  1.8696 -2.2969  0.5943
 9504SOL    HW239972   4.186   2.926   0.376 -2.2153 -0.1994 -0.9622
 9505SOL     OW39973   3.014   3.789   5.189 -0.2770 -0.3413 -0.5001
 9505SOL    HW139974   2.943   3.849   5.167  0.0038  0.1892  0.0383
 9505SOL    HW239975   2.965   3.714   5.220  0.5225 -1.1830 -1.2659
 9506SOL     OW39976   0.341   0.944   9.390 -0.2659 -0.1661  0.0825
 9506SOL    HW139977   0.422   0.979   9.355  0.9144 -1.6360  1.3430
 9506SOL    HW239978   0.357   0.921   9.481  0.0974  3.3829  0.8901
 9507SOL     OW39979   0.553   1.400   1.224 -0.2013 -0.4954  0.3660
 9507SOL    HW139980   0.485   1.424   1.161 -0.2860 -1.1057  0.2244
 9507SOL    HW239981   0.625   1.456   1.195 -1.4520  0.6902 -0.4640
 9508SOL     OW39982   1.410   3.821   2.495 -0.0675  0.1145  0.0293
 9508SOL    HW139983   1.472   3.892   2.508 -1.2173  1.0539  0.4230
 9508SOL    HW239984   1.463   3.774   2.432  1.0861 -0.6504  1.5701
 9509SOL     OW39985   2.155   2.425  16.502  0.2186  0.2941  0.5725
 9509SOL    HW139986   2.172   2.514  16.472 -0.2296  0.5764  1.1683
 9509SOL    HW239987   2.160   2.374  16.421  1.1834 -0.6759  1.2397
 9510SOL     OW39988   2.995   3.105  14.791 -0.4613  0.0396 -0.0417
 9510SOL    HW139989   3.001   3.184  14.845 -1.5187  0.8670 -1.1284
 9510SOL    HW239990   3.027   3.036  14.848 -0.9808 -0.3874 -0.2617
 9511SOL     OW39991   4.107   2.723   6.075 -0.0444  0.5114 -0.1767
 9511SOL    HW139992   4.063   2.638   6.086 -1.4907  1.4656  1.3873
 9511SOL    HW239993   4.070   2.780   6.142 -0.5954 -1.0011  0.8163
 9512SOL     OW39994   2.944   0.166   2.879  0.5583  0.2896 -0.1472
 9512SOL    HW139995   3.013   0.117   2.835  0.4025 -1.7674  1.9187
 9512SOL    HW239996   2.926   0.247   2.831 -0.5843 -0.0989 -0.3592
 9513SOL     OW39997   3.771   0.965   1.665  0.1368 -0.4661  0.3676
 9513SOL    HW139998   3.810   0.901   1.725  2.3093  0.1444 -0.4105
 9513SOL    HW239999   3.823   0.939   1.588 -0.2246 -2.8722  0.9109
 9514SOL     OW40000   1.796   0.619   5.805 -0.5884 -0.6593 -0.2100
 9514SOL    HW140001   1.807   0.562   5.880 -0.7886 -1.1477 -0.5523
 9514SOL    HW240002   1.805   0.563   5.728  0.1213 -0.8976  0.0443
 9515SOL     OW40003   3.436   1.061   3.899 -0.6253  0.2011  0.0660
 9515SOL    HW140004   3.467   1.000   3.833 -2.0158 -0.0418 -0.3649
 9515SOL    HW240005   3.487   1.142   3.888 -0.6047  0.2266  0.3506
 9516SOL     OW40006   0.483   3.839  11.950  0.0583 -0.0903  0.0510
 9516SOL    HW140007   0.487   3.899  11.875 -1.0630 -0.0883 -0.0163
 9516SOL    HW240008   0.398   3.797  11.937 -0.3339  1.1246 -1.3263
 9517SOL     OW40009   1.952   2.069   3.100 -0.5354  0.3064  0.4909
 9517SOL    HW140010   1.883   2.101   3.041 -0.8819 -3.5775 -1.1967
 9517SOL    HW240011   1.915   1.985   3.127 -0.2062  0.3624  1.1128
 9518SOL     OW40012   3.119   1.675   9.415 -0.1601 -0.0826 -0.1296
 9518SOL    HW140013   3.203   1.635   9.436  0.0568  0.1258 -0.5964
 9518SOL    HW240014   3.130   1.755   9.467  0.8868  0.8495 -1.7990
 9519SOL     OW40015   2.918   2.999   6.306  0.5423  0.0941 -1.0802
 9519SOL    HW140016   2.987   2.972   6.245  1.6343 -2.2670  1.2039
 9519SOL    HW240017   2.858   3.040   6.244 -1.3866 -1.2210 -0.0499
 9520SOL     OW40018   0.195   0.495  13.325  0.1814 -0.2058  0.0125
 9520SOL    HW140019   0.156   0.435  13.262  1.6456 -0.6653 -0.4643
 9520SOL    HW240020   0.254   0.531  13.259  0.3207  3.9022  2.4138
 9521SOL     OW40021   1.751   2.487   4.058  0.7776 -0.2620  0.1594
 9521SOL    HW140022   1.786   2.506   3.971 -1.2104 -0.6748 -0.7291
 9521SOL    HW240023   1.664   2.520   4.037  1.2862  0.2429 -1.1412
 9522SOL     OW40024   2.084   4.680   6.326 -0.2637 -0.2027 -0.3348
 9522SOL    HW140025   2.124   0.027   6.377  0.6252 -1.8503  1.1953
 9522SOL    HW240026   2.153   4.657   6.263  0.7895 -0.5797  0.9760
 9523SOL     OW40027   3.563   1.202  12.753  0.1034 -0.1052  0.3895
 9523SOL    HW140028   3.506   1.220  12.679  1.1086  0.0449 -0.3365
 9523SOL    HW240029   3.621   1.277  12.768 -2.4718  2.3285 -2.0121
 9524SOL     OW40030   0.354   0.325   0.826  0.0153  0.1967  0.0643
 9524SOL    HW140031   0.378   0.254   0.768 -0.1392 -0.4968  0.8532
 9524SOL    HW240032   0.379   0.404   0.777  1.1105  0.1785  0.5882
 9525SOL     OW40033   2.698   1.510   6.468  0.2777  0.2412  0.0013
 9525SOL    HW140034   2.708   1.434   6.526  0.7341 -1.5790 -2.4522
 9525SOL    HW240035   2.727   1.580   6.527 -0.2717  1.2317 -0.9050
 9526SOL     OW40036   1.255   0.290   7.493  0.2086 -0.1504 -0.2256
 9526SOL    HW140037   1.292   0.213   7.449 -0.0847 -0.2041 -0.3774
 9526SOL    HW240038   1.253   0.352   7.420  0.4546 -0.1596 -0.2410
 9527SOL     OW40039   2.960   0.448   7.363  0.0685  0.4527 -0.3461
 9527SOL    HW140040   3.050   0.425   7.389 -0.4071 -1.2200 -0.1449
 9527SOL    HW240041   2.939   0.529   7.409  0.1283 -0.0646  0.5941
 9528SOL     OW40042   0.504   0.818   1.105  0.2167 -0.4431 -0.4691
 9528SOL    HW140043   0.485   0.863   1.188  0.1959  0.3018 -0.8820
 9528SOL    HW240044   0.585   0.768   1.115  0.3085 -0.2008 -0.0086
 9529SOL     OW40045   2.031   0.918   4.864  0.8863  0.0154 -0.1583
 9529SOL    HW140046   2.006   0.996   4.914 -1.1558 -0.9414  0.3035
 9529SOL    HW240047   2.125   0.938   4.861  0.5519  1.3229 -1.6485
 9530SOL     OW40048   2.950   3.752   2.629 -0.1437 -0.0355 -0.0966
 9530SOL    HW140049   3.037   3.777   2.659  0.1524 -1.7068  0.4580
 9530SOL    HW240050   2.936   3.668   2.672  1.7757 -0.3149 -0.0397
 9531SOL     OW40051   2.445   3.169   6.523 -0.3846 -0.3757  0.0741
 9531SOL    HW140052   2.461   3.139   6.612  1.0293 -0.4412 -0.2075
 9531SOL    HW240053   2.478   3.097   6.469 -1.3515 -0.4836 -0.3819
 9532SOL     OW40054   2.959   1.674   7.998 -0.7895 -0.1662  0.0274
 9532SOL    HW140055   2.984   1.686   8.090  0.5867 -0.6357 -0.2706
 9532SOL    HW240056   3.023   1.608   7.970  0.5487  0.7210  0.9401
 9533SOL     OW40057   2.002   2.702   4.420  0.4200 -0.0829 -0.5828
 9533SOL    HW140058   2.019   2.795   4.435  1.7029 -0.3057 -0.6410
 9533SOL    HW240059   2.078   2.673   4.368  2.4107  0.0001  2.2900
 9534SOL     OW40060   4.172   3.512   9.738 -0.0349  0.7142 -0.2111
 9534SOL    HW140061   4.206   3.426   9.713  1.7029  1.3496 -0.0542
 9534SOL    HW240062   4.241   3.570   9.706  0.6880 -2.0613 -3.6169
 9535SOL     OW40063   3.447   1.047  13.000 -0.0536  0.5893  0.5785
 9535SOL    HW140064   3.539   1.075  13.005  0.3875 -0.5604 -0.9624
 9535SOL    HW240065   3.400   1.130  12.988 -2.1606 -0.4278  1.9822
 9536SOL     OW40066   0.980   1.099  12.362  0.3752  0.7936 -0.3993
 9536SOL    HW140067   0.995   1.126  12.453 -1.2674 -2.6393  0.8716
 9536SOL    HW240068   0.889   1.074  12.376  0.6938  0.6116  1.3318
 9537SOL     OW40069   0.186   3.407   7.145 -0.2282 -0.5249  0.3900
 9537SOL    HW140070   0.261   3.412   7.204 -2.1325  0.5683  2.7157
 9537SOL    HW240071   0.131   3.471   7.190 -0.5794 -1.2073  0.9367
 9538SOL     OW40072   3.449   0.128   5.570  0.4520  0.0521 -0.9760
 9538SOL    HW140073   3.385   0.113   5.500 -0.4957  1.5399 -0.4338
 9538SOL    HW240074   3.472   0.219   5.551  0.0955  0.0171 -1.5938
 9539SOL     OW40075   2.075   3.999   3.229  0.3882 -0.5323 -0.4103
 9539SOL    HW140076   2.007   3.932   3.237 -0.2013  0.1183  0.0174
 9539SOL    HW240077   2.120   3.964   3.152 -1.3657  0.6347 -1.9784
 9540SOL     OW40078   2.748   1.463   3.551  0.4619  0.1062 -1.0448
 9540SOL    HW140079   2.792   1.546   3.565 -0.5699  0.7018 -1.3367
 9540SOL    HW240080   2.752   1.460   3.455  0.4177 -0.2674 -1.0380
 9541SOL     OW40081   1.416   2.049   6.845  0.5052  0.7689  0.6828
 9541SOL    HW140082   1.442   2.112   6.778  0.6763  1.3935  1.3314
 9541SOL    HW240083   1.345   2.010   6.794 -0.1218  1.1898  1.2303
 9542SOL     OW40084   3.675   4.423  13.274 -0.5582  0.7803 -0.7377
 9542SOL    HW140085   3.588   4.410  13.312 -0.0719 -2.3115 -0.6901
 9542SOL    HW240086   3.723   4.453  13.351 -0.8490  0.8691 -0.5911
 9543SOL     OW40087   4.152   4.342   7.524  0.0697  0.3430  0.0658
 9543SOL    HW140088   4.243   4.348   7.549 -0.3462 -1.5405  1.9695
 9543SOL    HW240089   4.113   4.383   7.601  0.7901  1.3375 -0.0962
 9544SOL     OW40090   3.332   0.907   5.908 -0.2758 -0.2157 -0.6637
 9544SOL    HW140091   3.371   0.992   5.932 -0.4042 -0.9845  2.1874
 9544SOL    HW240092   3.241   0.925   5.886 -0.2836 -0.7558 -1.0700
 9545SOL     OW40093   2.670   0.074   2.809 -0.0121  0.0667 -0.1040
 9545SOL    HW140094   2.757   0.096   2.842  0.1813 -1.5063  0.4154
 9545SOL    HW240095   2.694   0.013   2.740  0.3182  1.8008 -1.5236
 9546SOL     OW40096   1.123   3.920   8.723  0.6401  0.2148  0.5834
 9546SOL    HW140097   1.172   3.855   8.674  0.4198  0.9827 -0.6805
 9546SOL    HW240098   1.157   3.906   8.811 -1.0871 -3.2879  0.7019
 9547SOL     OW40099   1.881   4.603   8.238 -0.0573  0.0397 -0.7417
 9547SOL    HW140100   1.860   4.546   8.313 -0.6743  1.5154  0.1996
 9547SOL    HW240101   1.934   4.675   8.273  1.6537 -0.8347 -1.5524
 9548SOL     OW40102   3.371   2.287   7.290  0.3488  0.3398  0.0952
 9548SOL    HW140103   3.324   2.332   7.221  0.1547  0.6824  0.4475
 9548SOL    HW240104   3.458   2.286   7.251  0.0568 -0.5653 -0.5105
 9549SOL     OW40105   2.083   1.001  12.593 -0.0610  0.0381 -0.0278
 9549SOL    HW140106   2.072   0.908  12.576  1.4995 -0.5630  2.3267
 9549SOL    HW240107   2.046   1.048  12.517 -0.4630  0.3011  0.3310
 9550SOL     OW40108   3.588   4.206   3.837 -0.1755 -0.0344  0.1219
 9550SOL    HW140109   3.620   4.157   3.762 -3.4714 -1.4911 -0.3390
 9550SOL    HW240110   3.537   4.138   3.883 -0.9677  1.0073  0.7773
 9551SOL     OW40111   3.108   4.298   2.784  0.2485 -0.2118 -0.0342
 9551SOL    HW140112   3.185   4.243   2.801 -0.3190 -0.7879  0.6880
 9551SOL    HW240113   3.063   4.242   2.720 -0.3002  0.4090 -0.1858
 9552SOL     OW40114   0.707   4.586   5.822  0.4045 -0.0988 -0.4168
 9552SOL    HW140115   0.612   4.587   5.828  0.2889 -0.5012 -1.9796
 9552SOL    HW240116   0.717   4.610   5.729  2.2988 -0.6335 -0.3527
 9553SOL     OW40117   2.951   3.295   3.915 -0.0293  0.0366  0.0007
 9553SOL    HW140118   2.885   3.250   3.862  0.2234 -0.5499  0.1765
 9553SOL    HW240119   2.898   3.297   3.994  2.0056  0.3337  1.3761
 9554SOL     OW40120   3.450   3.150   7.855  0.0193 -0.2247  0.1796
 9554SOL    HW140121   3.395   3.074   7.875 -0.6207  0.4020  0.7955
 9554SOL    HW240122   3.516   3.112   7.796  1.3373 -0.5652  1.8924
 9555SOL     OW40123   1.295   0.536   2.560 -0.1758 -0.0810 -0.1355
 9555SOL    HW140124   1.218   0.562   2.611  0.8468  1.8796  0.4198
 9555SOL    HW240125   1.270   0.565   2.472 -0.6611 -2.6987 -0.8678
 9556SOL     OW40126   4.400   3.847   9.326  0.0294  0.4537  0.6524
 9556SOL    HW140127   4.387   3.874   9.235  2.8253  1.3769  0.5281
 9556SOL    HW240128   4.461   3.913   9.356  1.2820 -0.0781 -0.7428
 9557SOL     OW40129   2.987   2.523   1.194  0.4882 -0.1426 -0.2845
 9557SOL    HW140130   2.977   2.505   1.101 -0.2908  0.2065 -0.2635
 9557SOL    HW240131   2.946   2.609   1.206 -1.4464 -0.8946 -1.7399
 9558SOL     OW40132   4.052   3.372   5.274 -0.0548 -0.0118 -0.2676
 9558SOL    HW140133   4.038   3.461   5.307 -2.1889 -0.4704  0.1021
 9558SOL    HW240134   4.136   3.348   5.311 -0.8665 -0.4890  1.2801
 9559SOL     OW40135   4.050   2.833  12.166  0.1156  0.0510  0.5767
 9559SOL    HW140136   4.114   2.861  12.101  0.4205  3.2248  2.2763
 9559SOL    HW240137   3.980   2.789  12.117  1.3454  0.3565 -1.4352
 9560SOL     OW40138   0.678   2.802   7.333 -0.5012 -0.1540 -0.1642
 9560SOL    HW140139   0.736   2.852   7.276 -0.9972 -0.0666 -0.5880
 9560SOL    HW240140   0.619   2.761   7.270 -2.7485  2.6790  0.1002
 9561SOL     OW40141   4.602   4.640  13.036 -0.4590 -0.4103 -0.9229
 9561SOL    HW140142   4.665   4.582  13.078  0.2766  0.0423 -1.3958
 9561SOL    HW240143   4.603   4.597  12.951 -1.6335  2.6554 -2.4844
 9562SOL     OW40144   2.742   1.196  14.989  0.0363 -0.0488  0.4341
 9562SOL    HW140145   2.671   1.158  15.039 -0.4109  0.4604  0.1958
 9562SOL    HW240146   2.764   1.279  15.033 -0.4181 -1.9444  4.1882
 9563SOL     OW40147   0.884   0.235   7.266 -0.2096 -0.0252  0.3777
 9563SOL    HW140148   0.839   0.318   7.276  0.6968  0.2013  2.5324
 9563SOL    HW240149   0.806   0.181   7.275 -0.0750 -0.6564 -2.2670
 9564SOL     OW40150   2.233   4.645   2.659  0.1703 -0.0244  0.0544
 9564SOL    HW140151   2.315   4.684   2.630 -0.4980  1.2065 -0.1759
 9564SOL    HW240152   2.216   4.588   2.583  1.9338 -1.1187  0.4938
 9565SOL     OW40153   3.349   4.461  12.613  0.0071 -0.1324 -0.2326
 9565SOL    HW140154   3.313   4.393  12.669  1.2146  1.3304  2.3066
 9565SOL    HW240155   3.437   4.424  12.605 -0.1629 -0.1366 -2.2472
   4.72250   4.72250  17.69205
